<event>
12    6  0.8914180E-008  0.2547609E+04  0.7818608E-02  0.8386218E-01
         -1   -1    0    0    0  501 -0.00000000000E+00  0.00000000000E+00  0.34461677282E+03  0.34461677282E+03  0.00000000000E+00 0.  1.
          2   -1    0    0  501    0  0.00000000000E+00 -0.00000000000E+00 -0.47083531906E+04  0.47083531906E+04  0.00000000000E+00 0. -1.
         24    2    1    2    0    0 -0.59396340545E+03 -0.44336265484E+03 -0.35315245948E+04  0.36093564229E+04  0.80155184753E+02 0.  0.
        254    2    1    2    0    0  0.59396340545E+03  0.44336265484E+03 -0.83221182298E+03  0.14436135404E+04  0.91764947835E+03 0.  0.
         23    2    4    4    0    0  0.51988311584E+03  0.43818266350E+03 -0.10162018404E+04  0.12262238892E+04  0.93146902265E+02 0.  0.
         23    2    4    4    0    0  0.74080289609E+02  0.51799913357E+01  0.18399001738E+03  0.21738965123E+03  0.88832496013E+02 0.  0.
          2    1    3    3  502    0 -0.20947595754E+03 -0.18138198644E+03 -0.11612887142E+04  0.11938890566E+04  0.00000000000E+00 0. -1.
         -1    1    3    3    0  502 -0.38448744790E+03 -0.26198066840E+03 -0.23702358806E+04  0.24154673663E+04  0.00000000000E+00 0.  1.
         11    1    5    5    0    0  0.48758943483E+03  0.41158351584E+03 -0.90427215929E+03  0.11067305840E+04  0.00000000000E+00 0.  1.
        -11    1    5    5    0    0  0.32293681009E+02  0.26599147663E+02 -0.11192968107E+03  0.11949330522E+03  0.00000000000E+00 0. -1.
          2    1    6    6  503    0  0.27786883930E+02  0.44162241946E+02  0.60675454600E+02  0.80024529509E+02  0.00000000000E+00 0. -1.
         -2    1    6    6    0  503  0.46293405679E+02 -0.38982250610E+02  0.12331456278E+03  0.13736512172E+03  0.00000000000E+00 0.  1.
<mgrwt>
<rscale>  0 0.25476087E+04</rscale>
<asrwt>0</asrwt>
<pdfrwt beam="1">  1        2 0.72436199E+00 0.25476087E+04</pdfrwt>
<pdfrwt beam="2">  1       -1 0.53017968E-01 0.25476087E+04</pdfrwt>
<totfact> 0.27415880E-01</totfact>
</mgrwt>
</event>
<event>
12    6  0.8914180E-008  0.1363746E+04  0.7818608E-02  0.8980487E-01
          2   -1    0    0  501    0  0.00000000000E+00  0.00000000000E+00  0.30250171271E+04  0.30250171271E+04  0.00000000000E+00 0. -1.
         -1   -1    0    0    0  501 -0.00000000000E+00 -0.00000000000E+00 -0.15370196218E+03  0.15370196218E+03  0.00000000000E+00 0.  1.
         24    2    1    2    0    0 -0.34662483526E+03  0.48486025581E+02  0.50460155071E+03  0.61964993294E+03  0.82726315710E+02 0.  0.
        254    2    1    2    0    0  0.34662483526E+03 -0.48486025581E+02  0.23667136142E+04  0.25590691563E+04  0.90829617643E+03 0.  0.
         23    2    4    4    0    0 -0.19186830650E+03  0.20382603943E+03  0.36275271082E+03  0.46635851255E+03  0.86846022550E+02 0.  0.
         23    2    4    4    0    0  0.53849314176E+03 -0.25231206501E+03  0.20039609033E+04  0.20927106437E+04  0.99711054678E+02 0.  0.
          4    1    3    3  502    0 -0.33923394034E+03  0.31154123870E+02  0.48183596494E+03  0.59009841791E+03  0.00000000000E+00 0. -1.
         -3    1    3    3    0  502 -0.73908949185E+01  0.17331901711E+02  0.22765585770E+02  0.29551515021E+02  0.00000000000E+00 0.  1.
         11    1    5    5    0    0 -0.16166336119E+03  0.19198466189E+03  0.27259798291E+03  0.37054394212E+03  0.00000000000E+00 0. -1.
        -11    1    5    5    0    0 -0.30204945311E+02  0.11841377539E+02  0.90154727908E+02  0.95814570433E+02  0.00000000000E+00 0.  1.
          1    1    6    6  503    0  0.44660806328E+03 -0.23990850926E+03  0.16072742822E+04  0.16853324519E+04  0.00000000000E+00 0. -1.
         -1    1    6    6    0  503  0.91885078486E+02 -0.12403555741E+02  0.39668662111E+03  0.40737819187E+03  0.00000000000E+00 0.  1.
<mgrwt>
<rscale>  0 0.13637464E+04</rscale>
<asrwt>0</asrwt>
<pdfrwt beam="1">  1        2 0.46538721E+00 0.13637464E+04</pdfrwt>
<pdfrwt beam="2">  1       -1 0.23646458E-01 0.13637464E+04</pdfrwt>
<totfact> 0.29051127E+01</totfact>
</mgrwt>
</event>
<event>
12    6  0.8914180E-008  0.1826668E+04  0.7818608E-02  0.8692245E-01
         -1   -1    0    0    0  501 -0.00000000000E+00  0.00000000000E+00  0.52819571499E+03  0.52819571499E+03  0.00000000000E+00 0.  1.
          2   -1    0    0  501    0  0.00000000000E+00 -0.00000000000E+00 -0.15792989485E+04  0.15792989485E+04  0.00000000000E+00 0. -1.
         24    2    1    2    0    0  0.33391290102E+03 -0.14344962127E+03 -0.10701619545E+04  0.11347321298E+04  0.10146318687E+03 0.  0.
        254    2    1    2    0    0 -0.33391290102E+03  0.14344962127E+03  0.19058720987E+02  0.97276253366E+03  0.90212421137E+03 0.  0.
         23    2    4    4    0    0 -0.27578890563E+03  0.32658577667E+02  0.43884202025E+03  0.52743451617E+03  0.92080111583E+02 0.  0.
         23    2    4    4    0    0 -0.58123995387E+02  0.11079104361E+03 -0.41978329927E+03  0.44532801749E+03  0.80286802372E+02 0.  0.
          4    1    3    3  502    0  0.28778427590E+03 -0.11035054789E+03 -0.98725676120E+03  0.10342499434E+04  0.00000000000E+00 0. -1.
         -3    1    3    3    0  502  0.46128625115E+02 -0.33099073384E+02 -0.82905193298E+02  0.10048218643E+03  0.00000000000E+00 0.  1.
         11    1    5    5    0    0 -0.99113500351E+01  0.22927627965E+02  0.54941592231E+02  0.60353040855E+02  0.00000000000E+00 0. -1.
        -11    1    5    5    0    0 -0.26587755559E+03  0.97309497017E+01  0.38390042802E+03  0.46708147532E+03  0.00000000000E+00 0.  1.
          3    1    6    6  503    0 -0.75293674611E+02  0.72668275098E+02 -0.33191694278E+03  0.34802108060E+03  0.00000000000E+00 0. -1.
         -3    1    6    6    0  503  0.17169679225E+02  0.38122768507E+02 -0.87866356489E+02  0.97306936886E+02  0.00000000000E+00 0.  1.
<mgrwt>
<rscale>  0 0.18266679E+04</rscale>
<asrwt>0</asrwt>
<pdfrwt beam="1">  1        2 0.24296906E+00 0.18266679E+04</pdfrwt>
<pdfrwt beam="2">  1       -1 0.81260881E-01 0.18266679E+04</pdfrwt>
<totfact> 0.18545144E+01</totfact>
</mgrwt>
</event>
<event>
12    6  0.8914180E-008  0.2369459E+04  0.7818608E-02  0.8451027E-01
          2   -1    0    0  501    0  0.00000000000E+00  0.00000000000E+00  0.10215365762E+04  0.10215365762E+04  0.00000000000E+00 0. -1.
         -1   -1    0    0    0  501 -0.00000000000E+00 -0.00000000000E+00 -0.13739931078E+04  0.13739931078E+04  0.00000000000E+00 0.  1.
         24    2    1    2    0    0  0.61481294214E+03 -0.74979943166E+03  0.14121750409E+03  0.98313576925E+03  0.80121256752E+02 0.  0.
        254    2    1    2    0    0 -0.61481294214E+03  0.74979943166E+03 -0.49367403566E+03  0.14123939147E+04  0.90052672105E+03 0.  0.
         23    2    4    4    0    0 -0.44408796996E+03 -0.16202095591E+02 -0.42174048814E+03  0.61902687299E+03  0.88614881283E+02 0.  0.
         23    2    4    4    0    0 -0.17072497218E+03  0.76600152725E+03 -0.71933547523E+02  0.79336704173E+03  0.91386387287E+02 0.  0.
          2    1    3    3  502    0  0.35983543047E+03 -0.43451711502E+03  0.12192826433E+03  0.57719421506E+03  0.00000000000E+00 0. -1.
         -1    1    3    3    0  502  0.25497751167E+03 -0.31528231664E+03  0.19289239764E+02  0.40594155419E+03  0.00000000000E+00 0.  1.
         11    1    5    5    0    0 -0.20293072526E+03 -0.47427236571E+02 -0.22035566677E+03  0.30329332650E+03  0.00000000000E+00 0.  1.
        -11    1    5    5    0    0 -0.24115724470E+03  0.31225140980E+02 -0.20138482137E+03  0.31573354649E+03  0.00000000000E+00 0. -1.
          4    1    6    6  503    0 -0.17140031275E+03  0.67528119901E+03 -0.42501007110E+02  0.69798932696E+03  0.00000000000E+00 0.  1.
         -4    1    6    6    0  503  0.67534056744E+00  0.90720328235E+02 -0.29432540413E+02  0.95377714772E+02  0.00000000000E+00 0. -1.
<mgrwt>
<rscale>  0 0.23694592E+04</rscale>
<asrwt>0</asrwt>
<pdfrwt beam="1">  1        2 0.15715947E+00 0.23694592E+04</pdfrwt>
<pdfrwt beam="2">  1       -1 0.21138355E+00 0.23694592E+04</pdfrwt>
<totfact> 0.31553148E+00</totfact>
</mgrwt>
</event>
<event>
12    6  0.8914180E-008  0.1781137E+04  0.7818608E-02  0.8716395E-01
         -1   -1    0    0    0  501 -0.00000000000E+00  0.00000000000E+00  0.29127674242E+03  0.29127674242E+03  0.00000000000E+00 0.  1.
          2   -1    0    0  501    0  0.00000000000E+00 -0.00000000000E+00 -0.27228835173E+04  0.27228835173E+04  0.00000000000E+00 0. -1.
         24    2    1    2    0    0 -0.34590093111E+03  0.88263607853E+02 -0.18486292856E+04  0.18843969106E+04  0.77997194794E+02 0.  0.
        254    2    1    2    0    0  0.34590093111E+03 -0.88263607853E+02 -0.58297748931E+03  0.11297633492E+04  0.89948015735E+03 0.  0.
         23    2    4    4    0    0 -0.88693892128E+02 -0.27784273124E+03 -0.57011712249E+03  0.64695281824E+03  0.91930549163E+02 0.  0.
         23    2    4    4    0    0  0.43459482324E+03  0.18957912338E+03 -0.12860366822E+02  0.48281053093E+03  0.90153842589E+02 0.  0.
          2    1    3    3  502    0 -0.18113279482E+03  0.12494209708E+02 -0.10346004525E+04  0.10504110105E+04  0.00000000000E+00 0. -1.
         -1    1    3    3    0  502 -0.16476813630E+03  0.75769398145E+02 -0.81402883311E+03  0.83398590010E+03  0.00000000000E+00 0.  1.
         11    1    5    5    0    0 -0.10486760076E+03 -0.19770681858E+03 -0.42899287373E+03  0.48385957210E+03  0.00000000000E+00 0. -1.
        -11    1    5    5    0    0  0.16173708629E+02 -0.80135912658E+02 -0.14112424876E+03  0.16309324614E+03  0.00000000000E+00 0.  1.
          3    1    6    6  503    0  0.18320435072E+03  0.43200416194E+02 -0.33462058709E+02  0.19118007076E+03  0.00000000000E+00 0. -1.
         -3    1    6    6    0  503  0.25139047253E+03  0.14637870719E+03  0.20601691887E+02  0.29163046018E+03  0.00000000000E+00 0.  1.
<mgrwt>
<rscale>  0 0.17811374E+04</rscale>
<asrwt>0</asrwt>
<pdfrwt beam="1">  1        2 0.41890514E+00 0.17811374E+04</pdfrwt>
<pdfrwt beam="2">  1       -1 0.44811808E-01 0.17811374E+04</pdfrwt>
<totfact> 0.13704519E+01</totfact>
</mgrwt>
</event>
<event>
12    6  0.8914180E-008  0.1589124E+04  0.7818608E-02  0.8827258E-01
          2   -1    0    0  501    0  0.00000000000E+00  0.00000000000E+00  0.34376332993E+03  0.34376332993E+03  0.00000000000E+00 0. -1.
         -1   -1    0    0    0  501 -0.00000000000E+00 -0.00000000000E+00 -0.18365215940E+04  0.18365215940E+04  0.00000000000E+00 0.  1.
         24    2    1    2    0    0 -0.17828287656E+03 -0.28313662669E+03 -0.10782042038E+04  0.11317912043E+04  0.80472925451E+02 0.  0.
        254    2    1    2    0    0  0.17828287656E+03  0.28313662669E+03 -0.41455406028E+03  0.10484937196E+04  0.90306858967E+03 0.  0.
         23    2    4    4    0    0 -0.76654916104E+02 -0.41534453778E+02 -0.57920874099E+03  0.59481547137E+03  0.10354512220E+03 0.  0.
         23    2    4    4    0    0  0.25493779266E+03  0.32467108047E+03  0.16465468071E+03  0.45367824821E+03  0.91149330202E+02 0.  0.
          2    1    3    3  502    0 -0.91390502324E+01 -0.16723664626E+02 -0.20394318142E+02  0.27912925503E+02  0.00000000000E+00 0. -1.
         -1    1    3    3    0  502 -0.16914382633E+03 -0.26641296207E+03 -0.10578098856E+04  0.11038782788E+04  0.00000000000E+00 0.  1.
         11    1    5    5    0    0 -0.99236281111E+02 -0.49734958183E+02 -0.49125832232E+03  0.50364287427E+03  0.00000000000E+00 0. -1.
        -11    1    5    5    0    0  0.22581365006E+02  0.82005044054E+01 -0.87950418665E+02  0.91172597097E+02  0.00000000000E+00 0.  1.
          3    1    6    6  503    0  0.24290735183E+03  0.31328229572E+03  0.17586049079E+03  0.43367809560E+03  0.00000000000E+00 0. -1.
         -3    1    6    6    0  503  0.12030440836E+02  0.11388784753E+02 -0.11205810080E+02  0.20000152610E+02  0.00000000000E+00 0.  1.
<mgrwt>
<rscale>  0 0.15891240E+04</rscale>
<asrwt>0</asrwt>
<pdfrwt beam="1">  1        2 0.52886667E-01 0.15891240E+04</pdfrwt>
<pdfrwt beam="2">  1       -1 0.28254178E+00 0.15891240E+04</pdfrwt>
<totfact> 0.44437685E+00</totfact>
</mgrwt>
</event>
<event>
12    6  0.8914180E-008  0.1951606E+04  0.7818608E-02  0.8629587E-01
         -1   -1    0    0    0  501 -0.00000000000E+00  0.00000000000E+00  0.10687064651E+04  0.10687064651E+04  0.00000000000E+00 0.  1.
          2   -1    0    0  501    0  0.00000000000E+00 -0.00000000000E+00 -0.89097562587E+03  0.89097562587E+03  0.00000000000E+00 0. -1.
         24    2    1    2    0    0  0.43410285132E+03  0.63060575582E+03  0.14344692975E+03  0.78287506300E+03  0.78787294720E+02 0.  0.
        254    2    1    2    0    0 -0.43410285132E+03 -0.63060575582E+03  0.34283909510E+02  0.11768070280E+04  0.89307921815E+03 0.  0.
         23    2    4    4    0    0  0.15696329024E+03 -0.20149199709E+03 -0.26723163113E+03  0.38148477123E+03  0.94241109039E+02 0.  0.
         23    2    4    4    0    0 -0.59106614156E+03 -0.42911375873E+03  0.30151554064E+03  0.79532225676E+03  0.90155805271E+02 0.  0.
          2    1    3    3  502    0  0.42796504109E+03  0.61533356136E+03  0.15129001987E+03  0.76464249048E+03  0.00000000000E+00 0. -1.
         -1    1    3    3    0  502  0.61378102287E+01  0.15272194463E+02 -0.78430901186E+01  0.18232572521E+02  0.00000000000E+00 0.  1.
         11    1    5    5    0    0  0.27134722863E+02 -0.76736353932E+02 -0.37540069461E+02  0.89632683853E+02  0.00000000000E+00 0.  1.
        -11    1    5    5    0    0  0.12982856738E+03 -0.12475564316E+03 -0.22969156166E+03  0.29185208738E+03  0.00000000000E+00 0. -1.
          3    1    6    6  503    0 -0.49479650419E+03 -0.36153790769E+03  0.28741415692E+03  0.67686050029E+03  0.00000000000E+00 0. -1.
         -3    1    6    6    0  503 -0.96269637371E+02 -0.67575851041E+02  0.14101383713E+02  0.11846175647E+03  0.00000000000E+00 0.  1.
<mgrwt>
<rscale>  0 0.19516059E+04</rscale>
<asrwt>0</asrwt>
<pdfrwt beam="1">  1        2 0.13707317E+00 0.19516059E+04</pdfrwt>
<pdfrwt beam="2">  1       -1 0.16441638E+00 0.19516059E+04</pdfrwt>
<totfact> 0.85672815E+00</totfact>
</mgrwt>
</event>
<event>
12    6  0.8914180E-008  0.2032276E+04  0.7818608E-02  0.8591677E-01
          2   -1    0    0  501    0  0.00000000000E+00  0.00000000000E+00  0.24998529236E+04  0.24998529236E+04  0.00000000000E+00 0. -1.
         -1   -1    0    0    0  501 -0.00000000000E+00 -0.00000000000E+00 -0.41303891112E+03  0.41303891112E+03  0.00000000000E+00 0.  1.
         24    2    1    2    0    0  0.17278477799E+01  0.13547996077E+03 -0.30835587636E+03  0.34920336571E+03  0.92205416907E+02 0.  0.
        254    2    1    2    0    0 -0.17278477799E+01 -0.13547996077E+03  0.23951698889E+04  0.25636884690E+04  0.90404754549E+03 0.  0.
         23    2    4    4    0    0 -0.29946084113E+03 -0.27539022658E+03  0.56531021356E+03  0.70229510845E+03  0.90145490957E+02 0.  0.
         23    2    4    4    0    0  0.29773299335E+03  0.13991026580E+03  0.18298596753E+04  0.18613933606E+04  0.90437789205E+02 0.  0.
          2    1    3    3  502    0 -0.21326806533E+01  0.43857313900E+02 -0.23193402536E+02  0.49658294679E+02  0.00000000000E+00 0. -1.
         -1    1    3    3    0  502  0.38605284332E+01  0.91622646872E+02 -0.28516247383E+03  0.29954507103E+03  0.00000000000E+00 0.  1.
         11    1    5    5    0    0 -0.23042916128E+03 -0.25685869071E+03  0.47545739861E+03  0.58748082800E+03  0.00000000000E+00 0.  1.
        -11    1    5    5    0    0 -0.69031679841E+02 -0.18531535861E+02  0.89852814949E+02  0.11481428046E+03  0.00000000000E+00 0. -1.
          1    1    6    6  503    0  0.28542653596E+03  0.10734424045E+03  0.15846270902E+04  0.16137019887E+04  0.00000000000E+00 0. -1.
         -1    1    6    6    0  503  0.12306457381E+02  0.32566025355E+02  0.24523258511E+03  0.24769137187E+03  0.00000000000E+00 0.  1.
<mgrwt>
<rscale>  0 0.20322761E+04</rscale>
<asrwt>0</asrwt>
<pdfrwt beam="1">  1        2 0.38459275E+00 0.20322761E+04</pdfrwt>
<pdfrwt beam="2">  1       -1 0.63544449E-01 0.20322761E+04</pdfrwt>
<totfact> 0.92285260E+00</totfact>
</mgrwt>
</event>
<event>
12    6  0.8914180E-008  0.1456372E+04  0.7818608E-02  0.8913995E-01
         -1   -1    0    0    0  501 -0.00000000000E+00  0.00000000000E+00  0.74299147314E+03  0.74299147314E+03  0.00000000000E+00 0.  1.
          2   -1    0    0  501    0  0.00000000000E+00 -0.00000000000E+00 -0.71367585839E+03  0.71367585839E+03  0.00000000000E+00 0. -1.
         24    2    1    2    0    0  0.37945822959E+03 -0.12031972675E+03 -0.18551876235E+03  0.44671392815E+03  0.81674584628E+02 0.  0.
        254    2    1    2    0    0 -0.37945822959E+03  0.12031972675E+03  0.21483437711E+03  0.10099534034E+04  0.90298764265E+03 0.  0.
         23    2    4    4    0    0 -0.25459841538E+03 -0.26526382554E+03  0.40329388729E+03  0.55307130808E+03  0.89758910639E+02 0.  0.
         23    2    4    4    0    0 -0.12485981420E+03  0.38558355229E+03 -0.18845951019E+03  0.45688209530E+03  0.94655232441E+02 0.  0.
          2    1    3    3  502    0  0.33509334431E+03 -0.11054173414E+03 -0.19052850783E+03  0.40100889851E+03  0.00000000000E+00 0. -1.
         -1    1    3    3    0  502  0.44364885275E+02 -0.97779926081E+01  0.50097454745E+01  0.45705029642E+02  0.00000000000E+00 0.  1.
         11    1    5    5    0    0 -0.15811230750E+03 -0.15222501511E+03  0.17520253412E+03  0.28083426602E+03  0.00000000000E+00 0. -1.
        -11    1    5    5    0    0 -0.96486107879E+02 -0.11303881043E+03  0.22809135318E+03  0.27223704206E+03  0.00000000000E+00 0.  1.
          3    1    6    6  503    0 -0.40298683581E+02  0.22550017192E+03 -0.66285868567E+02  0.23847039189E+03  0.00000000000E+00 0. -1.
         -3    1    6    6    0  503 -0.84561130623E+02  0.16008338037E+03 -0.12217364162E+03  0.21841170342E+03  0.00000000000E+00 0.  1.
<mgrwt>
<rscale>  0 0.14563723E+04</rscale>
<asrwt>0</asrwt>
<pdfrwt beam="1">  1        2 0.10979629E+00 0.14563723E+04</pdfrwt>
<pdfrwt beam="2">  1       -1 0.11430638E+00 0.14563723E+04</pdfrwt>
<totfact> 0.30833802E+01</totfact>
</mgrwt>
</event>
<event>
12    6  0.8914180E-008  0.1679633E+04  0.7818608E-02  0.8773067E-01
         -1   -1    0    0    0  501 -0.00000000000E+00  0.00000000000E+00  0.88096051248E+03  0.88096051248E+03  0.00000000000E+00 0.  1.
          2   -1    0    0  501    0  0.00000000000E+00 -0.00000000000E+00 -0.80059381561E+03  0.80059381561E+03  0.00000000000E+00 0. -1.
         24    2    1    2    0    0 -0.17013518112E+03 -0.28999841733E+03  0.52160948088E+03  0.62570447939E+03  0.79903586108E+02 0.  0.
        254    2    1    2    0    0  0.17013518112E+03  0.28999841733E+03 -0.44124278400E+03  0.10558498487E+04  0.89837555992E+03 0.  0.
         23    2    4    4    0    0 -0.17187659522E+03 -0.58070732584E+02  0.17204160184E+03  0.26694385737E+03  0.93525056843E+02 0.  0.
         23    2    4    4    0    0  0.34201177635E+03  0.34806914992E+03 -0.61328438584E+03  0.78890599133E+03  0.90170599159E+02 0.  0.
          2    1    3    3  502    0 -0.63103218301E+01 -0.52356650510E+02  0.49359358692E+02  0.72231470320E+02  0.00000000000E+00 0. -1.
         -1    1    3    3    0  502 -0.16382485929E+03 -0.23764176682E+03  0.47225012218E+03  0.55347300907E+03  0.00000000000E+00 0.  1.
         11    1    5    5    0    0 -0.12955637154E+03 -0.78514845477E+02  0.10212740996E+03  0.18270041662E+03  0.00000000000E+00 0. -1.
        -11    1    5    5    0    0 -0.42320223689E+02  0.20444112893E+02  0.69914191877E+02  0.84243440759E+02  0.00000000000E+00 0.  1.
          2    1    6    6  503    0  0.33733960205E+03  0.35189801009E+03 -0.59248654841E+03  0.76724867329E+03  0.00000000000E+00 0.  1.
         -2    1    6    6    0  503  0.46721742917E+01 -0.38288601699E+01 -0.20797837430E+02  0.21657318038E+02  0.00000000000E+00 0. -1.
<mgrwt>
<rscale>  0 0.16796327E+04</rscale>
<asrwt>0</asrwt>
<pdfrwt beam="1">  1        2 0.12316828E+00 0.16796327E+04</pdfrwt>
<pdfrwt beam="2">  1       -1 0.13553239E+00 0.16796327E+04</pdfrwt>
<totfact> 0.17075974E+01</totfact>
</mgrwt>
</event>
<event>
12    6  0.8914180E-008  0.1661266E+04  0.7818608E-02  0.8783769E-01
         -1   -1    0    0    0  501 -0.00000000000E+00  0.00000000000E+00  0.38640473858E+03  0.38640473858E+03  0.00000000000E+00 0.  1.
          2   -1    0    0  501    0  0.00000000000E+00 -0.00000000000E+00 -0.17855663675E+04  0.17855663675E+04  0.00000000000E+00 0. -1.
         24    2    1    2    0    0 -0.21529361101E+03  0.15389455941E+03 -0.11743956730E+04  0.12060613131E+04  0.73101435960E+02 0.  0.
        254    2    1    2    0    0  0.21529361101E+03 -0.15389455941E+03 -0.22476595589E+03  0.96590979291E+03  0.90134739072E+03 0.  0.
         23    2    4    4    0    0  0.27885502104E+03  0.18296217949E+03 -0.43365874806E+03  0.55428982325E+03  0.89117992055E+02 0.  0.
         23    2    4    4    0    0 -0.63561410022E+02 -0.33685673890E+03  0.20889279217E+03  0.41161996966E+03  0.91007062463E+02 0.  0.
          2    1    3    3  502    0 -0.22128805148E+03  0.14878444795E+03 -0.11382375212E+04  0.11690551178E+04  0.00000000000E+00 0. -1.
         -1    1    3    3    0  502  0.59944404632E+01  0.51101114677E+01 -0.36158151786E+02  0.37006195376E+02  0.00000000000E+00 0.  1.
         11    1    5    5    0    0  0.11194050578E+03  0.89845400627E+02 -0.25519933366E+03  0.29279612830E+03  0.00000000000E+00 0.  1.
        -11    1    5    5    0    0  0.16691451526E+03  0.93116778859E+02 -0.17845941440E+03  0.26149369495E+03  0.00000000000E+00 0. -1.
          1    1    6    6  503    0  0.53264498895E+01 -0.14852341337E+02  0.36868923298E+02  0.40103374132E+02  0.00000000000E+00 0. -1.
         -1    1    6    6    0  503 -0.68887859912E+02 -0.32200439756E+03  0.17202386888E+03  0.37151659553E+03  0.00000000000E+00 0.  1.
<mgrwt>
<rscale>  0 0.16612662E+04</rscale>
<asrwt>0</asrwt>
<pdfrwt beam="1">  1        2 0.27470251E+00 0.16612662E+04</pdfrwt>
<pdfrwt beam="2">  1       -1 0.59446884E-01 0.16612662E+04</pdfrwt>
<totfact> 0.27411987E+01</totfact>
</mgrwt>
</event>
<event>
12    6  0.8914180E-008  0.1936906E+04  0.7818608E-02  0.8636701E-01
         -1   -1    0    0    0  501 -0.00000000000E+00  0.00000000000E+00  0.27768905268E+03  0.27768905268E+03  0.00000000000E+00 0.  1.
          2   -1    0    0  501    0  0.00000000000E+00 -0.00000000000E+00 -0.33775229912E+04  0.33775229912E+04  0.00000000000E+00 0. -1.
         24    2    1    2    0    0 -0.35039713391E+03 -0.60006848418E+03 -0.17880414295E+04  0.19202181331E+04  0.85353310542E+02 0.  0.
        254    2    1    2    0    0  0.35039713391E+03  0.60006848418E+03 -0.13117925090E+04  0.17349939108E+04  0.89807791801E+03 0.  0.
         23    2    4    4    0    0  0.52980173476E+03  0.47975957513E+02 -0.52134296306E+03  0.75063578493E+03  0.93080748994E+02 0.  0.
         23    2    4    4    0    0 -0.17940460084E+03  0.55209252666E+03 -0.79044954590E+03  0.98435812588E+03  0.84606539715E+02 0.  0.
          4    1    3    3  502    0 -0.11847985821E+03 -0.21690763839E+03 -0.52910347488E+03  0.58398363635E+03  0.00000000000E+00 0. -1.
         -3    1    3    3    0  502 -0.23191727570E+03 -0.38316084579E+03 -0.12589379547E+04  0.13362344967E+04  0.00000000000E+00 0.  1.
         11    1    5    5    0    0  0.48691979106E+03  0.17176358521E+02 -0.47278465666E+03  0.67890444231E+03  0.00000000000E+00 0. -1.
        -11    1    5    5    0    0  0.42881943704E+02  0.30799598992E+02 -0.48558306396E+02  0.71731342619E+02  0.00000000000E+00 0.  1.
          2    1    6    6  503    0 -0.17671532256E+03  0.46290138925E+03 -0.69677004413E+03  0.85498216110E+03  0.00000000000E+00 0. -1.
         -2    1    6    6    0  503 -0.26892782861E+01  0.89191137411E+02 -0.93679501771E+02  0.12937596478E+03  0.00000000000E+00 0.  1.
<mgrwt>
<rscale>  0 0.19369059E+04</rscale>
<asrwt>0</asrwt>
<pdfrwt beam="1">  1        2 0.51961891E+00 0.19369059E+04</pdfrwt>
<pdfrwt beam="2">  1       -1 0.42721394E-01 0.19369059E+04</pdfrwt>
<totfact> 0.56939494E+00</totfact>
</mgrwt>
</event>
<event>
12    6  0.8914180E-008  0.1794486E+04  0.7818608E-02  0.8709237E-01
          2   -1    0    0  501    0  0.00000000000E+00  0.00000000000E+00  0.22634115346E+04  0.22634115346E+04  0.00000000000E+00 0. -1.
         -1   -1    0    0    0  501 -0.00000000000E+00 -0.00000000000E+00 -0.35567753107E+03  0.35567753107E+03  0.00000000000E+00 0.  1.
         24    2    1    2    0    0 -0.14153570889E+03 -0.77137975952E+01  0.16684597596E+04  0.16763450557E+04  0.79264852350E+02 0.  0.
        254    2    1    2    0    0  0.14153570889E+03  0.77137975952E+01  0.23927424392E+03  0.94274400995E+03  0.90078978954E+03 0.  0.
         23    2    4    4    0    0  0.24377911436E+03  0.38696162708E+03  0.26923524547E+03  0.53852814088E+03  0.91418727206E+02 0.  0.
         23    2    4    4    0    0 -0.10224340547E+03 -0.37924782949E+03 -0.29961001553E+02  0.40421586907E+03  0.90610027406E+02 0.  0.
          4    1    3    3  502    0 -0.12767459419E+03  0.57254535612E+01  0.16032882900E+04  0.16083739999E+04  0.00000000000E+00 0. -1.
         -3    1    3    3    0  502 -0.13861114703E+02 -0.13439251156E+02  0.65171469587E+02  0.67971055756E+02  0.00000000000E+00 0.  1.
         11    1    5    5    0    0  0.23881638183E+03  0.38822279210E+03  0.25257582455E+03  0.52109955641E+03  0.00000000000E+00 0. -1.
        -11    1    5    5    0    0  0.49627325306E+01 -0.12611650226E+01  0.16659420919E+02  0.17428584473E+02  0.00000000000E+00 0.  1.
          3    1    6    6  503    0 -0.11472059765E+03 -0.27300250891E+03 -0.21517622970E+02  0.29690771882E+03  0.00000000000E+00 0. -1.
         -3    1    6    6    0  503  0.12477192186E+02 -0.10624532057E+03 -0.84433785829E+01  0.10730815025E+03  0.00000000000E+00 0.  1.
<mgrwt>
<rscale>  0 0.17944856E+04</rscale>
<asrwt>0</asrwt>
<pdfrwt beam="1">  1        2 0.34821715E+00 0.17944856E+04</pdfrwt>
<pdfrwt beam="2">  1       -1 0.54719622E-01 0.17944856E+04</pdfrwt>
<totfact> 0.17265565E+01</totfact>
</mgrwt>
</event>
<event>
12    6  0.8914180E-008  0.2622155E+04  0.7818608E-02  0.8360714E-01
         -1   -1    0    0    0  501 -0.00000000000E+00  0.00000000000E+00  0.90800083981E+03  0.90800083981E+03  0.00000000000E+00 0.  1.
          2   -1    0    0  501    0  0.00000000000E+00 -0.00000000000E+00 -0.18930864052E+04  0.18930864052E+04  0.00000000000E+00 0. -1.
         24    2    1    2    0    0 -0.59832112747E+03  0.37748854887E+03 -0.14073540410E+04  0.15771781232E+04  0.79747473154E+02 0.  0.
        254    2    1    2    0    0  0.59832112747E+03 -0.37748854887E+03  0.42226847565E+03  0.12239091218E+04  0.90507297867E+03 0.  0.
         23    2    4    4    0    0 -0.73300740544E+02  0.44715187023E+02  0.40672468228E+03  0.42554534710E+03  0.91057282791E+02 0.  0.
         23    2    4    4    0    0  0.67162186801E+03 -0.42220373590E+03  0.15543793370E+02  0.79836377467E+03  0.88380874629E+02 0.  0.
          4    1    3    3  502    0 -0.56953812710E+03  0.35380025987E+03 -0.13648322328E+04  0.15206299109E+04  0.00000000000E+00 0. -1.
         -3    1    3    3    0  502 -0.28783000364E+02  0.23688289006E+02 -0.42521808177E+02  0.56548212321E+02  0.00000000000E+00 0.  1.
         11    1    5    5    0    0 -0.81385288585E+02  0.27916941533E+02  0.19669731190E+03  0.21469222932E+03  0.00000000000E+00 0. -1.
        -11    1    5    5    0    0  0.80845480414E+01  0.16798245491E+02  0.21002737038E+03  0.21085311778E+03  0.00000000000E+00 0.  1.
          2    1    6    6  503    0  0.62619823637E+03 -0.37934196459E+03  0.34932555257E+02  0.73296987711E+03  0.00000000000E+00 0. -1.
         -2    1    6    6    0  503  0.45423631641E+02 -0.42861771306E+02 -0.19388761887E+02  0.65393897563E+02  0.00000000000E+00 0.  1.
<mgrwt>
<rscale>  0 0.26221549E+04</rscale>
<asrwt>0</asrwt>
<pdfrwt beam="1">  1        2 0.29124406E+00 0.26221549E+04</pdfrwt>
<pdfrwt beam="2">  1       -1 0.13969244E+00 0.26221549E+04</pdfrwt>
<totfact> 0.32450804E+00</totfact>
</mgrwt>
</event>
<event>
12    6  0.8914180E-008  0.1772002E+04  0.7818608E-02  0.8721332E-01
         -1   -1    0    0    0  501 -0.00000000000E+00  0.00000000000E+00  0.49073758093E+03  0.49073758093E+03  0.00000000000E+00 0.  1.
          2   -1    0    0  501    0  0.00000000000E+00 -0.00000000000E+00 -0.15996285024E+04  0.15996285024E+04  0.00000000000E+00 0. -1.
         24    2    1    2    0    0  0.60686426033E+03  0.17497259195E+03 -0.26615395702E+03  0.69015031033E+03  0.81054818552E+02 0.  0.
        254    2    1    2    0    0 -0.60686426033E+03 -0.17497259195E+03 -0.84273696450E+03  0.14002157730E+04  0.92276702442E+03 0.  0.
         23    2    4    4    0    0 -0.43396488778E+03 -0.52543263389E+03 -0.37483835476E+03  0.78373963305E+03  0.96638727393E+02 0.  0.
         23    2    4    4    0    0 -0.17289937255E+03  0.35046004194E+03 -0.46789860974E+03  0.61647614000E+03  0.91636718452E+02 0.  0.
          4    1    3    3  502    0  0.54926739679E+03  0.14923184327E+03 -0.21324764516E+03  0.60781524692E+03  0.00000000000E+00 0. -1.
         -3    1    3    3    0  502  0.57596863538E+02  0.25740748674E+02 -0.52906311854E+02  0.82335063404E+02  0.00000000000E+00 0.  1.
         11    1    5    5    0    0 -0.40260036465E+03 -0.51617383701E+03 -0.36544389865E+03  0.74971443009E+03  0.00000000000E+00 0. -1.
        -11    1    5    5    0    0 -0.31364523122E+02 -0.92587968808E+01 -0.93944561070E+01  0.34025202952E+02  0.00000000000E+00 0.  1.
          3    1    6    6  503    0 -0.94819646582E+02  0.16098294927E+03 -0.29067407054E+03  0.34553970917E+03  0.00000000000E+00 0. -1.
         -3    1    6    6    0  503 -0.78079725970E+02  0.18947709267E+03 -0.17722453920E+03  0.27093643083E+03  0.00000000000E+00 0.  1.
<mgrwt>
<rscale>  0 0.17720021E+04</rscale>
<asrwt>0</asrwt>
<pdfrwt beam="1">  1        2 0.24609669E+00 0.17720021E+04</pdfrwt>
<pdfrwt beam="2">  1       -1 0.75498089E-01 0.17720021E+04</pdfrwt>
<totfact> 0.21206100E+01</totfact>
</mgrwt>
</event>
<event>
12    6  0.8914180E-008  0.2021336E+04  0.7818608E-02  0.8596710E-01
          2   -1    0    0  501    0  0.00000000000E+00  0.00000000000E+00  0.85545259412E+03  0.85545259412E+03  0.00000000000E+00 0. -1.
         -1   -1    0    0    0  501 -0.00000000000E+00 -0.00000000000E+00 -0.11940461561E+04  0.11940461561E+04  0.00000000000E+00 0.  1.
         24    2    1    2    0    0  0.38187554823E+03 -0.43709678778E+03  0.43346270265E+03  0.72878847685E+03  0.79750819287E+02 0.  0.
        254    2    1    2    0    0 -0.38187554823E+03  0.43709678778E+03 -0.77205626462E+03  0.13207102734E+04  0.90073426392E+03 0.  0.
         23    2    4    4    0    0 -0.15457321715E+03  0.10860458488E+03  0.18532820194E+03  0.27916923764E+03  0.88888050347E+02 0.  0.
         23    2    4    4    0    0 -0.22730233108E+03  0.32849220290E+03 -0.95738446656E+03  0.10415410357E+04  0.93001264550E+02 0.  0.
          4    1    3    3  502    0  0.27421878710E+03 -0.25603845163E+03  0.28231582289E+03  0.46952513859E+03  0.00000000000E+00 0. -1.
         -3    1    3    3    0  502  0.10765676114E+03 -0.18105833615E+03  0.15114687976E+03  0.25926333826E+03  0.00000000000E+00 0.  1.
         11    1    5    5    0    0 -0.10849672056E+03  0.63337915511E+02  0.62332704673E+02  0.14024477168E+03  0.00000000000E+00 0. -1.
        -11    1    5    5    0    0 -0.46076496593E+02  0.45266669367E+02  0.12299549726E+03  0.13892446595E+03  0.00000000000E+00 0.  1.
          1    1    6    6  503    0 -0.10017571555E+03  0.22439382783E+03 -0.56239195796E+03  0.61373648932E+03  0.00000000000E+00 0. -1.
         -1    1    6    6    0  503 -0.12712661553E+03  0.10409837508E+03 -0.39499250860E+03  0.42780454640E+03  0.00000000000E+00 0.  1.
<mgrwt>
<rscale>  0 0.20213361E+04</rscale>
<asrwt>0</asrwt>
<pdfrwt beam="1">  1        2 0.13160809E+00 0.20213361E+04</pdfrwt>
<pdfrwt beam="2">  1       -1 0.18369941E+00 0.20213361E+04</pdfrwt>
<totfact> 0.65190242E+00</totfact>
</mgrwt>
</event>
<event>
12    6  0.8914180E-008  0.2034633E+04  0.7818608E-02  0.8590598E-01
         -1   -1    0    0    0  501 -0.00000000000E+00  0.00000000000E+00  0.13853536913E+04  0.13853536913E+04  0.00000000000E+00 0.  1.
          2   -1    0    0  501    0  0.00000000000E+00 -0.00000000000E+00 -0.74705331450E+03  0.74705331450E+03  0.00000000000E+00 0. -1.
         24    2    1    2    0    0  0.62455893419E+03  0.50407580592E+03  0.40666903740E+03  0.90325577998E+03  0.79529979895E+02 0.  0.
        254    2    1    2    0    0 -0.62455893419E+03 -0.50407580592E+03  0.23163133942E+03  0.12291512258E+04  0.90166145431E+03 0.  0.
         23    2    4    4    0    0  0.21346268293E+03 -0.21559843020E+03  0.55198462397E+02  0.32008536229E+03  0.85783266394E+02 0.  0.
         23    2    4    4    0    0 -0.83802161712E+03 -0.28847737572E+03  0.17643287703E+03  0.90906586355E+03  0.98857256301E+02 0.  0.
          4    1    3    3  502    0  0.55772171742E+03  0.44339711177E+03  0.38718382382E+03  0.81090432619E+03  0.00000000000E+00 0. -1.
         -3    1    3    3    0  502  0.66837216773E+02  0.60678694145E+02  0.19485213582E+02  0.92351453792E+02  0.00000000000E+00 0.  1.
         11    1    5    5    0    0  0.22036097740E+03 -0.21111923562E+03  0.59321673584E+02  0.31088479050E+03  0.00000000000E+00 0.  1.
        -11    1    5    5    0    0 -0.68982944710E+01 -0.44791945791E+01 -0.41232111878E+01  0.92005717858E+01  0.00000000000E+00 0. -1.
          1    1    6    6  503    0 -0.23396449712E+03 -0.94997434697E+02  0.73169593991E+01  0.25262113215E+03  0.00000000000E+00 0. -1.
         -1    1    6    6    0  503 -0.60405712000E+03 -0.19347994102E+03  0.16911591763E+03  0.65644473141E+03  0.00000000000E+00 0.  1.
<mgrwt>
<rscale>  0 0.20346332E+04</rscale>
<asrwt>0</asrwt>
<pdfrwt beam="1">  1        2 0.11493128E+00 0.20346332E+04</pdfrwt>
<pdfrwt beam="2">  1       -1 0.21313134E+00 0.20346332E+04</pdfrwt>
<totfact> 0.48788217E+00</totfact>
</mgrwt>
</event>
<event>
12    6  0.8914180E-008  0.1266825E+04  0.7818608E-02  0.9056295E-01
         -1   -1    0    0    0  501 -0.00000000000E+00  0.00000000000E+00  0.17948617109E+03  0.17948617109E+03  0.00000000000E+00 0.  1.
          2   -1    0    0  501    0  0.00000000000E+00 -0.00000000000E+00 -0.22353328247E+04  0.22353328247E+04  0.00000000000E+00 0. -1.
         24    2    1    2    0    0 -0.60596008214E+01  0.30776589378E+03 -0.64709428069E+03  0.72105655319E+03  0.80218331206E+02 0.  0.
        254    2    1    2    0    0  0.60596008214E+01 -0.30776589378E+03 -0.14087523729E+04  0.16937624426E+04  0.88853328560E+03 0.  0.
         23    2    4    4    0    0  0.22309283276E+03 -0.31680416810E+03 -0.17002398561E+03  0.43277709972E+03  0.90843653618E+02 0.  0.
         23    2    4    4    0    0 -0.21703323194E+03  0.90382743207E+01 -0.12387283873E+04  0.12609853428E+04  0.91928794662E+02 0.  0.
          2    1    3    3  502    0 -0.17510248543E+02  0.23080838644E+03 -0.54936358689E+03  0.59613712404E+03  0.00000000000E+00 0. -1.
         -1    1    3    3    0  502  0.11450647721E+02  0.76957507340E+02 -0.97730693795E+02  0.12491942915E+03  0.00000000000E+00 0.  1.
         11    1    5    5    0    0  0.94017230407E+02 -0.18873752742E+03 -0.12621173959E+03  0.24574478037E+03  0.00000000000E+00 0.  1.
        -11    1    5    5    0    0  0.12907560236E+03 -0.12806664068E+03 -0.43812246017E+02  0.18703231935E+03  0.00000000000E+00 0. -1.
          1    1    6    6  503    0 -0.12201838144E+03 -0.21762537009E+02 -0.48144079147E+03  0.49713914462E+03  0.00000000000E+00 0. -1.
         -1    1    6    6    0  503 -0.95014850503E+02  0.30800811330E+02 -0.75728759579E+03  0.76384619822E+03  0.00000000000E+00 0.  1.
<mgrwt>
<rscale>  0 0.12668249E+04</rscale>
<asrwt>0</asrwt>
<pdfrwt beam="1">  1        2 0.34389734E+00 0.12668249E+04</pdfrwt>
<pdfrwt beam="2">  1       -1 0.27613258E-01 0.12668249E+04</pdfrwt>
<totfact> 0.65273856E+01</totfact>
</mgrwt>
</event>
<event>
12    6  0.8914180E-008  0.1816193E+04  0.7818608E-02  0.8697735E-01
          2   -1    0    0  501    0  0.00000000000E+00  0.00000000000E+00  0.14198134054E+04  0.14198134054E+04  0.00000000000E+00 0. -1.
         -1   -1    0    0    0  501 -0.00000000000E+00 -0.00000000000E+00 -0.58080799727E+03  0.58080799727E+03  0.00000000000E+00 0.  1.
         24    2    1    2    0    0 -0.46817353938E+03 -0.44708490534E+03  0.55761032152E+03  0.85855300595E+03  0.84336337370E+02 0.  0.
        254    2    1    2    0    0  0.46817353938E+03  0.44708490534E+03  0.28139508660E+03  0.11420683967E+04  0.89781159072E+03 0.  0.
         23    2    4    4    0    0  0.55803430503E+03 -0.54377047446E+02  0.25845612894E+03  0.62383675302E+03  0.89518573227E+02 0.  0.
         23    2    4    4    0    0 -0.89860765651E+02  0.50146195279E+03  0.22938957663E+02  0.51823164368E+03  0.92188900850E+02 0.  0.
          2    1    3    3  502    0 -0.45660079067E+03 -0.44683719339E+03  0.53556374911E+03  0.83365237887E+03  0.00000000000E+00 0. -1.
         -1    1    3    3    0  502 -0.11572748709E+02 -0.24771195141E+00  0.22046572408E+02  0.24900627078E+02  0.00000000000E+00 0.  1.
         11    1    5    5    0    0  0.30429848465E+03 -0.38641042170E+02  0.18900865268E+03  0.36029844392E+03  0.00000000000E+00 0. -1.
        -11    1    5    5    0    0  0.25373582038E+03 -0.15736005276E+02  0.69447476255E+02  0.26353830910E+03  0.00000000000E+00 0.  1.
          1    1    6    6  503    0 -0.72454326877E+02  0.49089402918E+03  0.28783016581E+02  0.49704631516E+03  0.00000000000E+00 0. -1.
         -1    1    6    6    0  503 -0.17406438773E+02  0.10567923607E+02 -0.58440589181E+01  0.21185328527E+02  0.00000000000E+00 0.  1.
<mgrwt>
<rscale>  0 0.18161927E+04</rscale>
<asrwt>0</asrwt>
<pdfrwt beam="1">  1        2 0.21843283E+00 0.18161927E+04</pdfrwt>
<pdfrwt beam="2">  1       -1 0.89355077E-01 0.18161927E+04</pdfrwt>
<totfact> 0.18591696E+01</totfact>
</mgrwt>
</event>
<event>
12    6  0.8914180E-008  0.1832616E+04  0.7818608E-02  0.8689145E-01
         -1   -1    0    0    0  501 -0.00000000000E+00  0.00000000000E+00  0.10637012221E+04  0.10637012221E+04  0.00000000000E+00 0.  1.
          2   -1    0    0  501    0  0.00000000000E+00 -0.00000000000E+00 -0.78933835608E+03  0.78933835608E+03  0.00000000000E+00 0. -1.
         24    2    1    2    0    0 -0.38686414835E+03 -0.56695077668E+03  0.17002992750E+03  0.71148639206E+03  0.78775994992E+02 0.  0.
        254    2    1    2    0    0  0.38686414835E+03  0.56695077668E+03  0.10433293849E+03  0.11415531861E+04  0.90617948674E+03 0.  0.
         23    2    4    4    0    0  0.42317946169E+03  0.76969098671E+03  0.18458399207E+03  0.90215421563E+03  0.91136748051E+02 0.  0.
         23    2    4    4    0    0 -0.36315313342E+02 -0.20274021003E+03 -0.80251053580E+02  0.23939897047E+03  0.91919751493E+02 0.  0.
          2    1    3    3  502    0 -0.15265245117E+03 -0.28162891765E+03  0.10153703905E+03  0.33604670569E+03  0.00000000000E+00 0. -1.
         -1    1    3    3    0  502 -0.23421169718E+03 -0.28532185903E+03  0.68492888450E+02  0.37543968637E+03  0.00000000000E+00 0.  1.
         11    1    5    5    0    0  0.14343876581E+02  0.10253769429E+02 -0.64236545827E+01  0.18765658024E+02  0.00000000000E+00 0. -1.
        -11    1    5    5    0    0  0.40883558511E+03  0.75943721728E+03  0.19100764666E+03  0.88338855761E+03  0.00000000000E+00 0.  1.
          1    1    6    6  503    0 -0.51760115602E+02 -0.53315023879E+02 -0.15980677690E+02  0.76006469447E+02  0.00000000000E+00 0. -1.
         -1    1    6    6    0  503  0.15444802260E+02 -0.14942518615E+03 -0.64270375889E+02  0.16339250102E+03  0.00000000000E+00 0.  1.
<mgrwt>
<rscale>  0 0.18326158E+04</rscale>
<asrwt>0</asrwt>
<pdfrwt beam="1">  1        2 0.12143667E+00 0.18326158E+04</pdfrwt>
<pdfrwt beam="2">  1       -1 0.16364634E+00 0.18326158E+04</pdfrwt>
<totfact> 0.10338888E+01</totfact>
</mgrwt>
</event>
<event>
12    6  0.8914180E-008  0.1130168E+04  0.7818608E-02  0.9176277E-01
          2   -1    0    0  501    0  0.00000000000E+00  0.00000000000E+00  0.19991661346E+04  0.19991661346E+04  0.00000000000E+00 0. -1.
         -1   -1    0    0    0  501 -0.00000000000E+00 -0.00000000000E+00 -0.15972644547E+03  0.15972644547E+03  0.00000000000E+00 0.  1.
         24    2    1    2    0    0  0.57614624561E+02 -0.18637265373E+03  0.40674351925E+03  0.45815844481E+03  0.80091566839E+02 0.  0.
        254    2    1    2    0    0 -0.57614624561E+02  0.18637265373E+03  0.14326961699E+04  0.17007341352E+04  0.89544629800E+03 0.  0.
         23    2    4    4    0    0  0.35332978150E+03  0.16527517141E+03  0.32657551569E+03  0.51692667967E+03  0.91672285514E+02 0.  0.
         23    2    4    4    0    0 -0.41094440606E+03  0.21097482316E+02  0.11061206542E+04  0.11838074556E+04  0.92610915236E+02 0.  0.
          2    1    3    3  502    0  0.64977555089E+02 -0.17744149970E+03  0.40436863270E+03  0.44634242414E+03  0.00000000000E+00 0. -1.
         -1    1    3    3    0  502 -0.73629305285E+01 -0.89311540341E+01  0.23748865543E+01  0.11816020671E+02  0.00000000000E+00 0.  1.
         11    1    5    5    0    0  0.41230626941E+02 -0.86606178589E+01  0.47994961185E+02  0.63863034682E+02  0.00000000000E+00 0.  1.
        -11    1    5    5    0    0  0.31209915456E+03  0.17393578927E+03  0.27858055450E+03  0.45306364499E+03  0.00000000000E+00 0. -1.
          2    1    6    6  503    0 -0.17913615293E+03 -0.33932958867E+02  0.43559618950E+03  0.47221313757E+03  0.00000000000E+00 0. -1.
         -2    1    6    6    0  503 -0.23180825313E+03  0.55030441183E+02  0.67052446469E+03  0.71159431801E+03  0.00000000000E+00 0.  1.
<mgrwt>
<rscale>  0 0.11301676E+04</rscale>
<asrwt>0</asrwt>
<pdfrwt beam="1">  1        2 0.30756400E+00 0.11301676E+04</pdfrwt>
<pdfrwt beam="2">  1       -1 0.24573301E-01 0.11301676E+04</pdfrwt>
<totfact> 0.10914668E+02</totfact>
</mgrwt>
</event>
<event>
12    6  0.8914180E-008  0.1192773E+04  0.7818608E-02  0.9119206E-01
          2   -1    0    0  501    0  0.00000000000E+00  0.00000000000E+00  0.32227391092E+03  0.32227391092E+03  0.00000000000E+00 0. -1.
         -1   -1    0    0    0  501 -0.00000000000E+00 -0.00000000000E+00 -0.11036475886E+04  0.11036475886E+04  0.00000000000E+00 0.  1.
         24    2    1    2    0    0 -0.22952459049E+03 -0.31143674359E+02 -0.25346021910E+03  0.35380609889E+03  0.85353423222E+02 0.  0.
        254    2    1    2    0    0  0.22952459049E+03  0.31143674359E+02 -0.52791345855E+03  0.10721154006E+04  0.90392883922E+03 0.  0.
         23    2    4    4    0    0  0.14817269413E+03  0.22242131822E+03 -0.72068603496E+03  0.77452231454E+03  0.95236887001E+02 0.  0.
         23    2    4    4    0    0  0.81351896359E+02 -0.19127764386E+03  0.19277257641E+03  0.29759308605E+03  0.90526849975E+02 0.  0.
          4    1    3    3  502    0 -0.23319975251E+03 -0.37783899362E+02 -0.25308033750E+03  0.34620717042E+03  0.00000000000E+00 0. -1.
         -3    1    3    3    0  502  0.36751620137E+01  0.66402250028E+01 -0.37988159549E+00  0.75989284733E+01  0.00000000000E+00 0.  1.
         11    1    5    5    0    0  0.91253379626E+02  0.19236615982E+03 -0.47483161963E+03  0.52038157705E+03  0.00000000000E+00 0. -1.
        -11    1    5    5    0    0  0.56919314507E+02  0.30055158390E+02 -0.24585441533E+03  0.25414073749E+03  0.00000000000E+00 0.  1.
          4    1    6    6  503    0  0.41456295347E+02 -0.15142053711E+03  0.91591340586E+02  0.18175746794E+03  0.00000000000E+00 0. -1.
         -4    1    6    6    0  503  0.39895601011E+02 -0.39857106745E+02  0.10118123583E+03  0.11583561811E+03  0.00000000000E+00 0.  1.
<mgrwt>
<rscale>  0 0.11927729E+04</rscale>
<asrwt>0</asrwt>
<pdfrwt beam="1">  1        2 0.49580603E-01 0.11927729E+04</pdfrwt>
<pdfrwt beam="2">  1       -1 0.16979193E+00 0.11927729E+04</pdfrwt>
<totfact> 0.28301861E+01</totfact>
</mgrwt>
</event>
<event>
12    6  0.8914180E-008  0.2285789E+04  0.7818608E-02  0.8483545E-01
          2   -1    0    0  501    0  0.00000000000E+00  0.00000000000E+00  0.11203137748E+04  0.11203137748E+04  0.00000000000E+00 0. -1.
         -1   -1    0    0    0  501 -0.00000000000E+00 -0.00000000000E+00 -0.11659302895E+04  0.11659302895E+04  0.00000000000E+00 0.  1.
         24    2    1    2    0    0 -0.74116861184E+03 -0.60980325181E+03 -0.12041342099E+03  0.97077155083E+03  0.81896854946E+02 0.  0.
        254    2    1    2    0    0  0.74116861184E+03  0.60980325181E+03  0.74796906282E+02  0.13154725136E+04  0.89648337387E+03 0.  0.
         23    2    4    4    0    0 -0.26382596483E+02  0.51069431671E+03  0.12497471474E+03  0.53456110414E+03  0.92909462484E+02 0.  0.
         23    2    4    4    0    0  0.76755120833E+03  0.99108935094E+02 -0.50177808462E+02  0.78091140941E+03  0.91363988892E+02 0.  0.
          4    1    3    3  502    0  0.52624070214E+00  0.23828775321E+00  0.25246550053E+01  0.25899021653E+01  0.00000000000E+00 0. -1.
         -3    1    3    3    0  502 -0.74169485255E+03 -0.61004153956E+03 -0.12293807600E+03  0.96818164866E+03  0.00000000000E+00 0.  1.
         11    1    5    5    0    0 -0.35882532821E+02  0.13852159857E+03  0.66167212013E+02  0.15765116358E+03  0.00000000000E+00 0. -1.
        -11    1    5    5    0    0  0.94999363383E+01  0.37217271814E+03  0.58807502731E+02  0.37690994056E+03  0.00000000000E+00 0.  1.
          3    1    6    6  503    0  0.44262492173E+02 -0.21644182373E+01 -0.23312310696E+02  0.50073114040E+02  0.00000000000E+00 0. -1.
         -3    1    6    6    0  503  0.72328871615E+03  0.10127335333E+03 -0.26865497766E+02  0.73083829537E+03  0.00000000000E+00 0.  1.
<mgrwt>
<rscale>  0 0.22857889E+04</rscale>
<asrwt>0</asrwt>
<pdfrwt beam="1">  1        2 0.17235596E+00 0.22857889E+04</pdfrwt>
<pdfrwt beam="2">  1       -1 0.17937389E+00 0.22857889E+04</pdfrwt>
<totfact> 0.46062015E+00</totfact>
</mgrwt>
</event>
<event>
12    6  0.8914180E-008  0.3144900E+04  0.7818608E-02  0.8203522E-01
          2   -1    0    0  501    0  0.00000000000E+00  0.00000000000E+00  0.29684266322E+04  0.29684266322E+04  0.00000000000E+00 0. -1.
         -1   -1    0    0    0  501 -0.00000000000E+00 -0.00000000000E+00 -0.83296612994E+03  0.83296612994E+03  0.00000000000E+00 0.  1.
         24    2    1    2    0    0 -0.14418992910E+04 -0.67736838446E+02  0.98059311912E+03  0.17468553466E+04  0.79239459476E+02 0.  0.
        254    2    1    2    0    0  0.14418992910E+04  0.67736838446E+02  0.11548673831E+04  0.20545374156E+04  0.89651741465E+03 0.  0.
         23    2    4    4    0    0  0.11163073143E+04 -0.11640560999E+03  0.12248512030E+04  0.16632948656E+04  0.81222254405E+02 0.  0.
         23    2    4    4    0    0  0.32559197668E+03  0.18414244844E+03 -0.69983819869E+02  0.39124254993E+03  0.90853845466E+02 0.  0.
          4    1    3    3  502    0 -0.10802742374E+03  0.70181441438E+01  0.53736716794E+02  0.12085865033E+03  0.00000000000E+00 0. -1.
         -3    1    3    3    0  502 -0.13338718672E+04 -0.74754982589E+02  0.92685640233E+03  0.16259966962E+04  0.00000000000E+00 0.  1.
         11    1    5    5    0    0  0.86099471178E+03 -0.55575833418E+02  0.94573478612E+03  0.12801620416E+04  0.00000000000E+00 0.  1.
        -11    1    5    5    0    0  0.25531260252E+03 -0.60829776573E+02  0.27911641687E+03  0.38313282408E+03  0.00000000000E+00 0. -1.
          2    1    6    6  503    0  0.25863687783E+03  0.12873650468E+03 -0.16884833455E+02  0.28939803008E+03  0.00000000000E+00 0. -1.
         -2    1    6    6    0  503  0.66955098845E+02  0.55405943753E+02 -0.53098986414E+02  0.10184451985E+03  0.00000000000E+00 0.  1.
<mgrwt>
<rscale>  0 0.31448999E+04</rscale>
<asrwt>0</asrwt>
<pdfrwt beam="1">  1        2 0.45668102E+00 0.31448999E+04</pdfrwt>
<pdfrwt beam="2">  1       -1 0.12814864E+00 0.31448999E+04</pdfrwt>
<totfact> 0.92008266E-01</totfact>
</mgrwt>
</event>
<event>
12    6  0.8914180E-008  0.2354084E+04  0.7818608E-02  0.8456897E-01
         -1   -1    0    0    0  501 -0.00000000000E+00  0.00000000000E+00  0.11656120085E+04  0.11656120085E+04  0.00000000000E+00 0.  1.
          2   -1    0    0  501    0  0.00000000000E+00 -0.00000000000E+00 -0.11885837210E+04  0.11885837210E+04  0.00000000000E+00 0. -1.
         24    2    1    2    0    0  0.64478839906E+03 -0.13150132560E+03 -0.76602555568E+03  0.10130370914E+04  0.80026985934E+02 0.  0.
        254    2    1    2    0    0 -0.64478839906E+03  0.13150132560E+03  0.74305384319E+03  0.13411586381E+04  0.90196053151E+03 0.  0.
         23    2    4    4    0    0 -0.14799127844E+02  0.16332361128E+03  0.67460074246E+03  0.70000490586E+03  0.89594030594E+02 0.  0.
         23    2    4    4    0    0 -0.62998927121E+03 -0.31822285684E+02  0.68453100734E+02  0.64115373221E+03  0.92158242257E+02 0.  0.
          2    1    3    3  502    0  0.41530582225E+03 -0.60360662559E+02 -0.53241714368E+03  0.67793093340E+03  0.00000000000E+00 0. -1.
         -1    1    3    3    0  502  0.22948257680E+03 -0.71140663038E+02 -0.23360841201E+03  0.33510615804E+03  0.00000000000E+00 0.  1.
         11    1    5    5    0    0 -0.16008790643E+02  0.51866966109E+02  0.91854307980E+02  0.10669431778E+03  0.00000000000E+00 0.  1.
        -11    1    5    5    0    0  0.12096627990E+01  0.11145664517E+03  0.58274643448E+03  0.59331058809E+03  0.00000000000E+00 0. -1.
          4    1    6    6  503    0 -0.22708070215E+03  0.17758152974E+02 -0.86966283681E+01  0.22793996716E+03  0.00000000000E+00 0. -1.
         -4    1    6    6    0  503 -0.40290856906E+03 -0.49580438658E+02  0.77149729102E+02  0.41321376505E+03  0.00000000000E+00 0.  1.
<mgrwt>
<rscale>  0 0.23540837E+04</rscale>
<asrwt>0</asrwt>
<pdfrwt beam="1">  1        2 0.18285903E+00 0.23540837E+04</pdfrwt>
<pdfrwt beam="2">  1       -1 0.17932492E+00 0.23540837E+04</pdfrwt>
<totfact> 0.41664194E+00</totfact>
</mgrwt>
</event>
<event>
12    6  0.8914180E-008  0.1587091E+04  0.7818608E-02  0.8828518E-01
         -1   -1    0    0    0  501 -0.00000000000E+00  0.00000000000E+00  0.18213095081E+03  0.18213095081E+03  0.00000000000E+00 0.  1.
          2   -1    0    0  501    0  0.00000000000E+00 -0.00000000000E+00 -0.34574835620E+04  0.34574835620E+04  0.00000000000E+00 0. -1.
         24    2    1    2    0    0  0.34795534799E+02  0.26295296995E+03 -0.21801772380E+04  0.21976143575E+04  0.77337450926E+02 0.  0.
        254    2    1    2    0    0 -0.34795534799E+02 -0.26295296995E+03 -0.10951753731E+04  0.14420001553E+04  0.89977794836E+03 0.  0.
         23    2    4    4    0    0  0.31817492160E+01  0.17238817189E+03  0.60169603738E+02  0.20346762137E+03  0.89726731770E+02 0.  0.
         23    2    4    4    0    0 -0.37977284015E+02 -0.43534114185E+03 -0.11553449768E+04  0.12385325339E+04  0.90424765306E+02 0.  0.
          2    1    3    3  502    0  0.46610956640E+02  0.23340090787E+03 -0.20417386547E+04  0.20555644722E+04  0.00000000000E+00 0. -1.
         -1    1    3    3    0  502 -0.11815421841E+02  0.29552062084E+02 -0.13843858332E+03  0.14204988532E+03  0.00000000000E+00 0.  1.
         11    1    5    5    0    0 -0.36554512102E+02  0.56410712310E+02  0.42696478444E+02  0.79632845547E+02  0.00000000000E+00 0. -1.
        -11    1    5    5    0    0  0.39736261318E+02  0.11597745958E+03  0.17473125293E+02  0.12383477582E+03  0.00000000000E+00 0.  1.
          1    1    6    6  503    0  0.25079468585E+02 -0.78389480832E+02 -0.25526998285E+03  0.26821009413E+03  0.00000000000E+00 0. -1.
         -1    1    6    6    0  503 -0.63056752600E+02 -0.35695166102E+03 -0.90007499400E+03  0.97032243980E+03  0.00000000000E+00 0.  1.
<mgrwt>
<rscale>  0 0.15870914E+04</rscale>
<asrwt>0</asrwt>
<pdfrwt beam="1">  1        2 0.53192052E+00 0.15870914E+04</pdfrwt>
<pdfrwt beam="2">  1       -1 0.28020148E-01 0.15870914E+04</pdfrwt>
<totfact> 0.11066079E+01</totfact>
</mgrwt>
</event>
<event>
12    6  0.8914180E-008  0.1374604E+04  0.7818608E-02  0.8972410E-01
          2   -1    0    0  501    0  0.00000000000E+00  0.00000000000E+00  0.35722612689E+03  0.35722612689E+03  0.00000000000E+00 0. -1.
         -1   -1    0    0    0  501 -0.00000000000E+00 -0.00000000000E+00 -0.13223663611E+04  0.13223663611E+04  0.00000000000E+00 0.  1.
         24    2    1    2    0    0  0.13326938597E+03  0.17838045840E+03 -0.66975307971E+03  0.70997400680E+03  0.76899839920E+02 0.  0.
        254    2    1    2    0    0 -0.13326938597E+03 -0.17838045840E+03 -0.29538715449E+03  0.96961848119E+03  0.89628461487E+03 0.  0.
         23    2    4    4    0    0  0.23236276277E+03 -0.40618689775E+03 -0.10352065734E+03  0.48860446260E+03  0.95066003144E+02 0.  0.
         23    2    4    4    0    0 -0.36563214874E+03  0.22780643935E+03 -0.19186649715E+03  0.48101401859E+03  0.94758067433E+02 0.  0.
          2    1    3    3  502    0  0.77108805562E+01  0.37665761046E+02 -0.20214654198E+03  0.20577024000E+03  0.00000000000E+00 0. -1.
         -1    1    3    3    0  502  0.12555850542E+03  0.14071469736E+03 -0.46760653773E+03  0.50420376680E+03  0.00000000000E+00 0.  1.
         11    1    5    5    0    0  0.19590726794E+03 -0.38967700478E+03 -0.10479599425E+03  0.44856440574E+03  0.00000000000E+00 0. -1.
        -11    1    5    5    0    0  0.36455494834E+02 -0.16509892966E+02  0.12753369054E+01  0.40040056863E+02  0.00000000000E+00 0.  1.
          2    1    6    6  503    0 -0.35723982310E+03  0.19542755552E+03 -0.18285720828E+03  0.44637313907E+03  0.00000000000E+00 0. -1.
         -2    1    6    6    0  503 -0.83923256433E+01  0.32378883824E+02 -0.90092888728E+01  0.34640879512E+02  0.00000000000E+00 0.  1.
<mgrwt>
<rscale>  0 0.13746037E+04</rscale>
<asrwt>0</asrwt>
<pdfrwt beam="1">  1        2 0.54957865E-01 0.13746037E+04</pdfrwt>
<pdfrwt beam="2">  1       -1 0.20344098E+00 0.13746037E+04</pdfrwt>
<totfact> 0.14366848E+01</totfact>
</mgrwt>
</event>
<event>
12    6  0.1068120E-007  0.2489096E+04  0.7818608E-02  0.8406881E-01
          2   -1    0    0  501    0  0.00000000000E+00  0.00000000000E+00  0.16862876822E+04  0.16862876822E+04  0.00000000000E+00 0. -1.
         -1   -1    0    0    0  501 -0.00000000000E+00 -0.00000000000E+00 -0.91852626984E+03  0.91852626984E+03  0.00000000000E+00 0.  1.
         24    2    1    2    0    0 -0.45575375693E+03  0.98067140735E+03  0.31115857663E+03  0.11277756343E+04  0.75035494559E+02 0.  0.
        254    2    1    2    0    0  0.45575375693E+03 -0.98067140735E+03  0.45660283570E+03  0.14770383177E+04  0.89650886564E+03 0.  0.
         23    2    4    4    0    0  0.38024824000E+03 -0.81228071815E+03  0.71220450543E+03  0.11494066349E+04  0.97527768484E+02 0.  0.
         23    2    4    4    0    0  0.75505516927E+02 -0.16839068919E+03 -0.25560166973E+03  0.32763168281E+03  0.89184072106E+02 0.  0.
          4    1    3    3  502    0 -0.27666925258E+03  0.59765183084E+03  0.15125137554E+03  0.67572965366E+03  0.00000000000E+00 0. -1.
         -3    1    3    3    0  502 -0.17908450435E+03  0.38301957651E+03  0.15990720109E+03  0.45204598068E+03  0.00000000000E+00 0.  1.
         11    1    5    5    0    0  0.38606538556E+03 -0.79386929691E+03  0.69924696536E+03  0.11261533027E+04  0.00000000000E+00 0. -1.
        -11    1    5    5    0    0 -0.58171455642E+01 -0.18411421241E+02  0.12957540076E+02  0.23253332223E+02  0.00000000000E+00 0.  1.
          2    1    6    6  503    0  0.38559582102E+02 -0.12975280906E+03 -0.23326297431E+03  0.26969287721E+03  0.00000000000E+00 0. -1.
         -2    1    6    6    0  503  0.36945934825E+02 -0.38637880134E+02 -0.22338695412E+02  0.57938805598E+02  0.00000000000E+00 0.  1.
<mgrwt>
<rscale>  0 0.24890958E+04</rscale>
<asrwt>0</asrwt>
<pdfrwt beam="1">  1        2 0.25942887E+00 0.24890958E+04</pdfrwt>
<pdfrwt beam="2">  1       -1 0.14131173E+00 0.24890958E+04</pdfrwt>
<totfact> 0.41493201E+00</totfact>
</mgrwt>
</event>
<event>
12    6  0.8914180E-008  0.1203680E+04  0.7818608E-02  0.9109642E-01
         -1   -1    0    0    0  501 -0.00000000000E+00  0.00000000000E+00  0.28214384573E+03  0.28214384573E+03  0.00000000000E+00 0.  1.
          2   -1    0    0  501    0  0.00000000000E+00 -0.00000000000E+00 -0.12837817823E+04  0.12837817823E+04  0.00000000000E+00 0. -1.
         24    2    1    2    0    0  0.13982621234E+03 -0.15749803992E+03 -0.64118723209E+03  0.67987686574E+03  0.82185666307E+02 0.  0.
        254    2    1    2    0    0 -0.13982621234E+03  0.15749803992E+03 -0.36045070446E+03  0.88604876226E+03  0.78153739292E+03 0.  0.
         23    2    4    4    0    0 -0.63863316220E+02 -0.21317655548E+03 -0.42854260628E+03  0.49102190634E+03  0.89056050557E+02 0.  0.
         23    2    4    4    0    0 -0.75962896116E+02  0.37067459539E+03  0.68091901823E+02  0.39502685592E+03  0.90772752252E+02 0.  0.
          4    1    3    3  502    0  0.96666599386E+02 -0.15126899971E+03 -0.46703890225E+03  0.50035195405E+03  0.00000000000E+00 0. -1.
         -3    1    3    3    0  502  0.43159612950E+02 -0.62290402064E+01 -0.17414832984E+03  0.17952491169E+03  0.00000000000E+00 0.  1.
         11    1    5    5    0    0  0.22604156461E+02 -0.54104583822E+02 -0.10614592289E+03  0.12126504371E+03  0.00000000000E+00 0. -1.
        -11    1    5    5    0    0 -0.86467472680E+02 -0.15907197166E+03 -0.32239668339E+03  0.36975686262E+03  0.00000000000E+00 0.  1.
          4    1    6    6  503    0 -0.61499719423E+02  0.18249650602E+03 -0.49726351752E+01  0.19264453612E+03  0.00000000000E+00 0. -1.
         -4    1    6    6    0  503 -0.14463176693E+02  0.18817808938E+03  0.73064536998E+02  0.20238231980E+03  0.00000000000E+00 0.  1.
<mgrwt>
<rscale>  0 0.12036796E+04</rscale>
<asrwt>0</asrwt>
<pdfrwt beam="1">  1        2 0.19750489E+00 0.12036796E+04</pdfrwt>
<pdfrwt beam="2">  1       -1 0.43406746E-01 0.12036796E+04</pdfrwt>
<totfact> 0.99464106E+01</totfact>
</mgrwt>
</event>
<event>
12    6  0.8914180E-008  0.3008700E+04  0.7818608E-02  0.8241251E-01
         -1   -1    0    0    0  501 -0.00000000000E+00  0.00000000000E+00  0.14663729868E+04  0.14663729868E+04  0.00000000000E+00 0.  1.
          2   -1    0    0  501    0  0.00000000000E+00 -0.00000000000E+00 -0.15433102212E+04  0.15433102212E+04  0.00000000000E+00 0. -1.
         24    2    1    2    0    0  0.44064318290E+03 -0.10948073048E+04  0.65577227148E+03  0.13510132483E+04  0.49295800290E+02 0.  0.
        254    2    1    2    0    0 -0.44064318290E+03  0.10948073048E+04 -0.73270950583E+03  0.16586699597E+04  0.90639581094E+03 0.  0.
         23    2    4    4    0    0 -0.26309041174E+03  0.11673831242E+04 -0.79317358308E+03  0.14385650062E+04  0.91351085238E+02 0.  0.
         23    2    4    4    0    0 -0.17755277115E+03 -0.72575819459E+02  0.60464077243E+02  0.22010495348E+03  0.89431816469E+02 0.  0.
          2    1    3    3  502    0  0.18586749897E+03 -0.49305969036E+03  0.31743207318E+03  0.61515665201E+03  0.00000000000E+00 0. -1.
         -1    1    3    3    0  502  0.25477568392E+03 -0.60174761439E+03  0.33834019830E+03  0.73585659631E+03  0.00000000000E+00 0.  1.
         11    1    5    5    0    0 -0.12020277701E+03  0.71459655186E+03 -0.50330308220E+03  0.88227599541E+03  0.00000000000E+00 0. -1.
        -11    1    5    5    0    0 -0.14288763473E+03  0.45278657235E+03 -0.28987050088E+03  0.55628901080E+03  0.00000000000E+00 0.  1.
          3    1    6    6  503    0 -0.37963397593E+02  0.55906050650E+01 -0.17452251727E+02  0.42155136249E+02  0.00000000000E+00 0. -1.
         -3    1    6    6    0  503 -0.13958937356E+03 -0.78166424524E+02  0.77916328970E+02  0.17794981723E+03  0.00000000000E+00 0.  1.
<mgrwt>
<rscale>  0 0.30086997E+04</rscale>
<asrwt>0</asrwt>
<pdfrwt beam="1">  1        2 0.23743234E+00 0.30086997E+04</pdfrwt>
<pdfrwt beam="2">  1       -1 0.22559584E+00 0.30086997E+04</pdfrwt>
<totfact> 0.11800595E+00</totfact>
</mgrwt>
</event>
<event>
12    6  0.8914180E-008  0.1231867E+04  0.7818608E-02  0.9085412E-01
          2   -1    0    0  501    0  0.00000000000E+00  0.00000000000E+00  0.10120255437E+04  0.10120255437E+04  0.00000000000E+00 0. -1.
         -1   -1    0    0    0  501 -0.00000000000E+00 -0.00000000000E+00 -0.37486618521E+03  0.37486618521E+03  0.00000000000E+00 0.  1.
         24    2    1    2    0    0  0.13742604974E+02 -0.24023384105E+03 -0.10257624620E+02  0.25295613704E+03  0.77333245290E+02 0.  0.
        254    2    1    2    0    0 -0.13742604974E+02  0.24023384105E+03  0.64741698311E+03  0.11339355919E+04  0.89931085776E+03 0.  0.
         23    2    4    4    0    0 -0.31466653301E+03 -0.19844866825E+03  0.34642563331E+03  0.51587434551E+03  0.87856246289E+02 0.  0.
         23    2    4    4    0    0  0.30092392804E+03  0.43868250930E+03  0.30099134980E+03  0.61806124635E+03  0.91686188493E+02 0.  0.
          2    1    3    3  502    0 -0.42706088006E+01  0.36067897858E+01 -0.62953906032E+01  0.84189651938E+01  0.00000000000E+00 0. -1.
         -1    1    3    3    0  502  0.18013213775E+02 -0.24384063084E+03 -0.39622340172E+01  0.24453717185E+03  0.00000000000E+00 0.  1.
         11    1    5    5    0    0 -0.24647458937E+03 -0.16076185975E+03  0.22018462726E+03  0.36752601110E+03  0.00000000000E+00 0. -1.
        -11    1    5    5    0    0 -0.68191943647E+02 -0.37686808498E+02  0.12624100605E+03  0.14834833441E+03  0.00000000000E+00 0.  1.
          1    1    6    6  503    0  0.25662540968E+03  0.41501993354E+03  0.28625847657E+03  0.56572260122E+03  0.00000000000E+00 0. -1.
         -1    1    6    6    0  503  0.44298518361E+02  0.23662575761E+02  0.14732873228E+02  0.52338645131E+02  0.00000000000E+00 0.  1.
<mgrwt>
<rscale>  0 0.12318671E+04</rscale>
<asrwt>0</asrwt>
<pdfrwt beam="1">  1        2 0.15569624E+00 0.12318671E+04</pdfrwt>
<pdfrwt beam="2">  1       -1 0.57671721E-01 0.12318671E+04</pdfrwt>
<totfact> 0.84638138E+01</totfact>
</mgrwt>
</event>
<event>
12    6  0.8914180E-008  0.1675255E+04  0.7818608E-02  0.8775604E-01
         -1   -1    0    0    0  501 -0.00000000000E+00  0.00000000000E+00  0.53285948269E+03  0.53285948269E+03  0.00000000000E+00 0.  1.
          2   -1    0    0  501    0  0.00000000000E+00 -0.00000000000E+00 -0.13167071447E+04  0.13167071447E+04  0.00000000000E+00 0. -1.
         24    2    1    2    0    0  0.41388506207E+03  0.26129691419E+03 -0.64543599051E+03  0.81376626877E+03  0.77788176299E+02 0.  0.
        254    2    1    2    0    0 -0.41388506207E+03 -0.26129691419E+03 -0.13841167154E+03  0.10358003587E+04  0.90230131898E+03 0.  0.
         23    2    4    4    0    0  0.17808960953E+03 -0.25416502230E+03  0.16857547061E+03  0.36279209632E+03  0.82973780691E+02 0.  0.
         23    2    4    4    0    0 -0.59197467160E+03 -0.71318918848E+01 -0.30698714215E+03  0.67300826234E+03  0.90631893089E+02 0.  0.
          2    1    3    3  502    0  0.21668442985E+03  0.11175840618E+03 -0.26677546074E+03  0.36140175698E+03  0.00000000000E+00 0. -1.
         -1    1    3    3    0  502  0.19720063222E+03  0.14953850801E+03 -0.37866052976E+03  0.45236451179E+03  0.00000000000E+00 0.  1.
         11    1    5    5    0    0  0.76696262528E+02 -0.16526390160E+03  0.12548688994E+03  0.22122710821E+03  0.00000000000E+00 0. -1.
        -11    1    5    5    0    0  0.10139334700E+03 -0.88901120697E+02  0.43088580672E+02  0.14156498812E+03  0.00000000000E+00 0.  1.
          2    1    6    6  503    0 -0.42239633388E+03  0.35900499080E+02 -0.22094184875E+03  0.47804059371E+03  0.00000000000E+00 0. -1.
         -2    1    6    6    0  503 -0.16957833772E+03 -0.43032390965E+02 -0.86045293396E+02  0.19496766863E+03  0.00000000000E+00 0.  1.
<mgrwt>
<rscale>  0 0.16752551E+04</rscale>
<asrwt>0</asrwt>
<pdfrwt beam="1">  1        2 0.20257032E+00 0.16752551E+04</pdfrwt>
<pdfrwt beam="2">  1       -1 0.81978384E-01 0.16752551E+04</pdfrwt>
<totfact> 0.26009879E+01</totfact>
</mgrwt>
</event>
<event>
12    6  0.8914180E-008  0.1244365E+04  0.7818608E-02  0.9074886E-01
         -1   -1    0    0    0  501 -0.00000000000E+00  0.00000000000E+00  0.23945019251E+03  0.23945019251E+03  0.00000000000E+00 0.  1.
          2   -1    0    0  501    0  0.00000000000E+00 -0.00000000000E+00 -0.16166667671E+04  0.16166667671E+04  0.00000000000E+00 0. -1.
         24    2    1    2    0    0  0.44098387547E+02 -0.24720854371E+03 -0.10517442735E+03  0.28431893258E+03  0.81968673201E+02 0.  0.
        254    2    1    2    0    0 -0.44098387547E+02  0.24720854371E+03 -0.12720421472E+04  0.15717980270E+04  0.88848245989E+03 0.  0.
         23    2    4    4    0    0 -0.25785380779E+03  0.28266362463E+03 -0.12775587946E+04  0.13367400618E+04  0.91269974580E+02 0.  0.
         23    2    4    4    0    0  0.21375542024E+03 -0.35455080913E+02  0.55166473989E+01  0.23505796520E+03  0.90958073650E+02 0.  0.
          2    1    3    3  502    0 -0.22020700517E+02 -0.72436673407E+02 -0.44676067807E+02  0.87908668175E+02  0.00000000000E+00 0. -1.
         -1    1    3    3    0  502  0.66119088064E+02 -0.17477187031E+03 -0.60498359546E+02  0.19641026441E+03  0.00000000000E+00 0.  1.
         11    1    5    5    0    0 -0.13844288651E+03  0.12702809816E+03 -0.76998719315E+03  0.79257986864E+03  0.00000000000E+00 0.  1.
        -11    1    5    5    0    0 -0.11941092127E+03  0.15563552647E+03 -0.50757160144E+03  0.54416019315E+03  0.00000000000E+00 0. -1.
          2    1    6    6  503    0  0.49948177344E+02 -0.12254380812E+02 -0.38050908037E+02  0.63975478673E+02  0.00000000000E+00 0. -1.
         -2    1    6    6    0  503  0.16380724290E+03 -0.23200700102E+02  0.43567555436E+02  0.17108248653E+03  0.00000000000E+00 0.  1.
<mgrwt>
<rscale>  0 0.12443652E+04</rscale>
<asrwt>0</asrwt>
<pdfrwt beam="1">  1        2 0.24871795E+00 0.12443652E+04</pdfrwt>
<pdfrwt beam="2">  1       -1 0.36838493E-01 0.12443652E+04</pdfrwt>
<totfact> 0.86550970E+01</totfact>
</mgrwt>
</event>
<event>
12    6  0.8914180E-008  0.3122014E+04  0.7818608E-02  0.8209722E-01
         -1   -1    0    0    0  501 -0.00000000000E+00  0.00000000000E+00  0.74324348606E+03  0.74324348606E+03  0.00000000000E+00 0.  1.
          2   -1    0    0  501    0  0.00000000000E+00 -0.00000000000E+00 -0.32785256869E+04  0.32785256869E+04  0.00000000000E+00 0. -1.
         24    2    1    2    0    0  0.10464738425E+04  0.93935249702E+03 -0.82091304600E+03  0.16300205819E+04  0.74687694707E+02 0.  0.
        254    2    1    2    0    0 -0.10464738425E+04 -0.93935249702E+03 -0.17143691548E+04  0.23917485910E+04  0.89660978515E+03 0.  0.
         23    2    4    4    0    0 -0.40288757071E+03 -0.29489553897E+03 -0.12816586761E+04  0.13787766591E+04  0.95364250072E+02 0.  0.
         23    2    4    4    0    0 -0.64358627179E+03 -0.64445695804E+03 -0.43271047869E+03  0.10129719318E+04  0.96673245141E+02 0.  0.
          4    1    3    3  502    0  0.49823994255E+03  0.48532989067E+03 -0.37757907863E+03  0.79142536209E+03  0.00000000000E+00 0. -1.
         -3    1    3    3    0  502  0.54823389995E+03  0.45402260635E+03 -0.44333396738E+03  0.83859521985E+03  0.00000000000E+00 0.  1.
         11    1    5    5    0    0 -0.25473455401E+03 -0.21998671756E+03 -0.95056318594E+03  0.10083918977E+04  0.00000000000E+00 0. -1.
        -11    1    5    5    0    0 -0.14815301671E+03 -0.74908821410E+02 -0.33109549017E+03  0.37038476143E+03  0.00000000000E+00 0.  1.
          3    1    6    6  503    0 -0.55834223822E+03 -0.51318116357E+03 -0.34033003592E+03  0.83121928212E+03  0.00000000000E+00 0. -1.
         -3    1    6    6    0  503 -0.85244033572E+02 -0.13127579448E+03 -0.92380442771E+02  0.18175264972E+03  0.00000000000E+00 0.  1.
<mgrwt>
<rscale>  0 0.31220140E+04</rscale>
<asrwt>0</asrwt>
<pdfrwt beam="1">  1        2 0.50438857E+00 0.31220140E+04</pdfrwt>
<pdfrwt beam="2">  1       -1 0.11434515E+00 0.31220140E+04</pdfrwt>
<totfact> 0.77037523E-01</totfact>
</mgrwt>
</event>
<event>
12    6  0.8914180E-008  0.2575286E+04  0.7818608E-02  0.8376645E-01
          2   -1    0    0  501    0  0.00000000000E+00  0.00000000000E+00  0.13207780302E+04  0.13207780302E+04  0.00000000000E+00 0. -1.
         -1   -1    0    0    0  501 -0.00000000000E+00 -0.00000000000E+00 -0.12553388829E+04  0.12553388829E+04  0.00000000000E+00 0.  1.
         24    2    1    2    0    0 -0.11081882593E+04  0.28262981241E+03 -0.63803285870E+02  0.11482105400E+04  0.79722995613E+02 0.  0.
        254    2    1    2    0    0  0.11081882593E+04 -0.28262981241E+03  0.12924243313E+03  0.14279063731E+04  0.84513441235E+03 0.  0.
         23    2    4    4    0    0 -0.39941555899E+02  0.39184009274E+02  0.20309603652E+03  0.22982437041E+03  0.91872339229E+02 0.  0.
         23    2    4    4    0    0  0.11481298152E+04 -0.32181382168E+03 -0.73853603385E+02  0.11980820027E+04  0.90442921690E+02 0.  0.
          4    1    3    3  502    0 -0.45915192609E+03  0.11530755226E+03 -0.65728952625E+02  0.47795043473E+03  0.00000000000E+00 0. -1.
         -3    1    3    3    0  502 -0.64903633321E+03  0.16732226015E+03  0.19256667551E+01  0.67026010530E+03  0.00000000000E+00 0.  1.
         11    1    5    5    0    0 -0.55789838490E+02 -0.83063952148E+01  0.91109619219E+02  0.10715626437E+03  0.00000000000E+00 0. -1.
        -11    1    5    5    0    0  0.15848282591E+02  0.47490404489E+02  0.11198641730E+03  0.12266810604E+03  0.00000000000E+00 0.  1.
          1    1    6    6  503    0  0.41097288989E+03 -0.12901470220E+03  0.14716200147E+02  0.43099892826E+03  0.00000000000E+00 0. -1.
         -1    1    6    6    0  503  0.73715692531E+03 -0.19279911948E+03 -0.88569803532E+02  0.76708307444E+03  0.00000000000E+00 0.  1.
<mgrwt>
<rscale>  0 0.25752856E+04</rscale>
<asrwt>0</asrwt>
<pdfrwt beam="1">  1        2 0.20319662E+00 0.25752856E+04</pdfrwt>
<pdfrwt beam="2">  1       -1 0.19312906E+00 0.25752856E+04</pdfrwt>
<totfact> 0.27276403E+00</totfact>
</mgrwt>
</event>
<event>
12    6  0.8914180E-008  0.3071635E+04  0.7818608E-02  0.8223566E-01
          2   -1    0    0  501    0  0.00000000000E+00  0.00000000000E+00  0.37515571806E+04  0.37515571806E+04  0.00000000000E+00 0. -1.
         -1   -1    0    0    0  501 -0.00000000000E+00 -0.00000000000E+00 -0.62873483417E+03  0.62873483417E+03  0.00000000000E+00 0.  1.
         24    2    1    2    0    0  0.28669014556E+03  0.79271342849E+03 -0.16988607574E+03  0.86357644699E+03  0.79480700815E+02 0.  0.
        254    2    1    2    0    0 -0.28669014556E+03 -0.79271342849E+03  0.32927084222E+04  0.35167155678E+04  0.90264822157E+03 0.  0.
         23    2    4    4    0    0 -0.17632676099E+03  0.79084430784E+02  0.15309437383E+04  0.15458363968E+04  0.92064987816E+02 0.  0.
         23    2    4    4    0    0 -0.11036338457E+03 -0.87179785927E+03  0.17617646839E+04  0.19708791710E+04  0.91314408311E+02 0.  0.
          4    1    3    3  502    0  0.24021310735E+02  0.15747288823E+03 -0.31249780968E+02  0.16233078176E+03  0.00000000000E+00 0. -1.
         -3    1    3    3    0  502  0.26266883483E+03  0.63524054026E+03 -0.13863629477E+03  0.70124566523E+03  0.00000000000E+00 0.  1.
         11    1    5    5    0    0 -0.16413294987E+03  0.97403117628E+02  0.14160393397E+04  0.14288437298E+04  0.00000000000E+00 0.  1.
        -11    1    5    5    0    0 -0.12193811123E+02 -0.18318686844E+02  0.11490439859E+03  0.11699266701E+03  0.00000000000E+00 0. -1.
          2    1    6    6  503    0  0.87332711704E+01 -0.24625479378E+03  0.51476312221E+03  0.57070024135E+03  0.00000000000E+00 0.  1.
         -2    1    6    6    0  503 -0.11909665574E+03 -0.62554306549E+03  0.12470015616E+04  0.14001789296E+04  0.00000000000E+00 0. -1.
<mgrwt>
<rscale>  0 0.30716345E+04</rscale>
<asrwt>0</asrwt>
<pdfrwt beam="1">  1        2 0.57716263E+00 0.30716345E+04</pdfrwt>
<pdfrwt beam="2">  1       -1 0.96728438E-01 0.30716345E+04</pdfrwt>
<totfact> 0.53042689E-01</totfact>
</mgrwt>
</event>
<event>
12    6  0.8914180E-008  0.1227266E+04  0.7818608E-02  0.9089320E-01
          2   -1    0    0  501    0  0.00000000000E+00  0.00000000000E+00  0.10272248146E+04  0.10272248146E+04  0.00000000000E+00 0. -1.
         -1   -1    0    0    0  501 -0.00000000000E+00 -0.00000000000E+00 -0.36656600008E+03  0.36656600008E+03  0.00000000000E+00 0.  1.
         24    2    1    2    0    0  0.15115591593E+03  0.12283739955E+03  0.31266659533E+02  0.21393746994E+03  0.82791904186E+02 0.  0.
        254    2    1    2    0    0 -0.15115591593E+03 -0.12283739955E+03  0.62939215498E+03  0.11798533447E+04  0.97876569855E+03 0.  0.
         23    2    4    4    0    0 -0.16827701765E+02  0.25190207312E+03 -0.14513122586E+03  0.30511555531E+03  0.91074713186E+02 0.  0.
         23    2    4    4    0    0 -0.13432821416E+03 -0.37473947267E+03  0.77452338084E+03  0.87473778942E+03  0.82498431914E+02 0.  0.
          2    1    3    3  502    0  0.97377365986E+02  0.73207587870E+02 -0.21511538458E+02  0.12371114992E+03  0.00000000000E+00 0. -1.
         -1    1    3    3    0  502  0.53778549942E+02  0.49629811679E+02  0.52778197991E+02  0.90226320020E+02  0.00000000000E+00 0.  1.
         11    1    5    5    0    0  0.10233087203E+02  0.11984613433E+03 -0.21464357240E+02  0.12218236624E+03  0.00000000000E+00 0. -1.
        -11    1    5    5    0    0 -0.27060788968E+02  0.13205593879E+03 -0.12366686862E+03  0.18293318907E+03  0.00000000000E+00 0.  1.
          1    1    6    6  503    0 -0.11282795323E+03 -0.20028514849E+03  0.40997067934E+03  0.47002153744E+03  0.00000000000E+00 0. -1.
         -1    1    6    6    0  503 -0.21500260930E+02 -0.17445432418E+03  0.36455270150E+03  0.40471625198E+03  0.00000000000E+00 0.  1.
<mgrwt>
<rscale>  0 0.12272664E+04</rscale>
<asrwt>0</asrwt>
<pdfrwt beam="1">  1        2 0.15803459E+00 0.12272664E+04</pdfrwt>
<pdfrwt beam="2">  1       -1 0.56394770E-01 0.12272664E+04</pdfrwt>
<totfact> 0.86498918E+01</totfact>
</mgrwt>
</event>
<event>
12    6  0.8914180E-008  0.2498614E+04  0.7818608E-02  0.8403479E-01
         -1   -1    0    0    0  501 -0.00000000000E+00  0.00000000000E+00  0.15105187432E+04  0.15105187432E+04  0.00000000000E+00 0.  1.
          2   -1    0    0  501    0  0.00000000000E+00 -0.00000000000E+00 -0.10332664209E+04  0.10332664209E+04  0.00000000000E+00 0. -1.
         24    2    1    2    0    0  0.10710908574E+04  0.24467244527E+03  0.19203211540E+03  0.11183428027E+04  0.81939371763E+02 0.  0.
        254    2    1    2    0    0 -0.10710908574E+04 -0.24467244527E+03  0.28522020690E+03  0.14254423614E+04  0.86222684307E+03 0.  0.
         23    2    4    4    0    0 -0.58130236019E+03 -0.31844396786E+02  0.56457158814E+03  0.81573121026E+03  0.88033116954E+02 0.  0.
         23    2    4    4    0    0 -0.48978849722E+03 -0.21282804849E+03 -0.27935138124E+03  0.60971115113E+03  0.92314372570E+02 0.  0.
          4    1    3    3  502    0  0.12472215453E+03  0.20493239468E+02  0.47878994813E+02  0.13515911675E+03  0.00000000000E+00 0. -1.
         -3    1    3    3    0  502  0.94636870288E+03  0.22417920580E+03  0.14415312059E+03  0.98318368593E+03  0.00000000000E+00 0.  1.
         11    1    5    5    0    0 -0.53928451849E+02 -0.28170472777E+02  0.69698831616E+02  0.92519082269E+02  0.00000000000E+00 0. -1.
        -11    1    5    5    0    0 -0.52737390835E+03 -0.36739240095E+01  0.49487275652E+03  0.72321212799E+03  0.00000000000E+00 0.  1.
          1    1    6    6  503    0 -0.31490950414E+03 -0.16447526077E+03 -0.14400617482E+03  0.38335086487E+03  0.00000000000E+00 0.  1.
         -1    1    6    6    0  503 -0.17487899308E+03 -0.48352787713E+02 -0.13534520641E+03  0.22636028627E+03  0.00000000000E+00 0. -1.
<mgrwt>
<rscale>  0 0.24986143E+04</rscale>
<asrwt>0</asrwt>
<pdfrwt beam="1">  1        2 0.15896406E+00 0.24986143E+04</pdfrwt>
<pdfrwt beam="2">  1       -1 0.23238750E+00 0.24986143E+04</pdfrwt>
<totfact> 0.22197983E+00</totfact>
</mgrwt>
</event>
<event>
12    6  0.8914180E-008  0.1474403E+04  0.7818608E-02  0.8901655E-01
         -1   -1    0    0    0  501 -0.00000000000E+00  0.00000000000E+00  0.72264586280E+03  0.72264586280E+03  0.00000000000E+00 0.  1.
          2   -1    0    0  501    0  0.00000000000E+00 -0.00000000000E+00 -0.75205058493E+03  0.75205058493E+03  0.00000000000E+00 0. -1.
         24    2    1    2    0    0  0.55461304212E+02 -0.88923012362E+02  0.44088298672E+03  0.46022806497E+03  0.80304454498E+02 0.  0.
        254    2    1    2    0    0 -0.55461304212E+02  0.88923012362E+02 -0.47028770885E+03  0.10144683828E+04  0.89274425909E+03 0.  0.
         23    2    4    4    0    0 -0.17391794539E+03  0.94542421864E+02  0.21860626999E+03  0.30976071239E+03  0.94748490214E+02 0.  0.
         23    2    4    4    0    0  0.11845664118E+03 -0.56194095019E+01 -0.68889397884E+03  0.70470767038E+03  0.89299680909E+02 0.  0.
          2    1    3    3  502    0 -0.20956759231E+02 -0.16209223560E+02  0.83433390841E+02  0.87538879323E+02  0.00000000000E+00 0. -1.
         -1    1    3    3    0  502  0.76418063443E+02 -0.72713788802E+02  0.35744959588E+03  0.37268918564E+03  0.00000000000E+00 0.  1.
         11    1    5    5    0    0 -0.35496933505E+02  0.41918900177E+02  0.11964420188E+03  0.13165090779E+03  0.00000000000E+00 0. -1.
        -11    1    5    5    0    0 -0.13842101189E+03  0.52623521687E+02  0.98962068112E+02  0.17810980459E+03  0.00000000000E+00 0.  1.
          1    1    6    6  503    0  0.21183483255E+02  0.16615075984E+02 -0.40186659387E+02  0.48371151583E+02  0.00000000000E+00 0. -1.
         -1    1    6    6    0  503  0.97273157925E+02 -0.22234485486E+02 -0.64870731945E+03  0.65633651880E+03  0.00000000000E+00 0.  1.
<mgrwt>
<rscale>  0 0.14744033E+04</rscale>
<asrwt>0</asrwt>
<pdfrwt beam="1">  1        2 0.11570009E+00 0.14744033E+04</pdfrwt>
<pdfrwt beam="2">  1       -1 0.11117629E+00 0.14744033E+04</pdfrwt>
<totfact> 0.30750045E+01</totfact>
</mgrwt>
</event>
<event>
12    6  0.8914180E-008  0.1530538E+04  0.7818608E-02  0.8864396E-01
         -1   -1    0    0    0  501 -0.00000000000E+00  0.00000000000E+00  0.20967794177E+03  0.20967794177E+03  0.00000000000E+00 0.  1.
          2   -1    0    0  501    0  0.00000000000E+00 -0.00000000000E+00 -0.27930280541E+04  0.27930280541E+04  0.00000000000E+00 0. -1.
         24    2    1    2    0    0  0.46461175431E+02  0.91224349916E+02  0.10175757997E+03  0.16996311053E+03  0.89734781544E+02 0.  0.
        254    2    1    2    0    0 -0.46461175431E+02 -0.91224349916E+02 -0.26851076923E+04  0.28327428854E+04  0.89674322540E+03 0.  0.
         23    2    4    4    0    0  0.84128787286E+02 -0.47204352581E+03 -0.14871689878E+04  0.15657496107E+04  0.99987509314E+02 0.  0.
         23    2    4    4    0    0 -0.13058996272E+03  0.38081917589E+03 -0.11979387045E+04  0.12669932746E+04  0.90209950320E+02 0.  0.
          2    1    3    3  502    0  0.68197238622E+02  0.42145611379E+02  0.75836850008E+02  0.11035553331E+03  0.00000000000E+00 0. -1.
         -1    1    3    3    0  502 -0.21736063191E+02  0.49078738538E+02  0.25920729966E+02  0.59607577215E+02  0.00000000000E+00 0.  1.
         11    1    5    5    0    0  0.65371092259E+01 -0.29662540044E+01 -0.82196141592E+02  0.82509018613E+02  0.00000000000E+00 0. -1.
        -11    1    5    5    0    0  0.77591678060E+02 -0.46907727180E+03 -0.14049728462E+04  0.14832405921E+04  0.00000000000E+00 0.  1.
          3    1    6    6  503    0 -0.47666116845E+01  0.42472770111E+02 -0.63809148940E+02  0.76800158049E+02  0.00000000000E+00 0. -1.
         -3    1    6    6    0  503 -0.12582335103E+03  0.33834640578E+03 -0.11341295556E+04  0.11901931166E+04  0.00000000000E+00 0.  1.
<mgrwt>
<rscale>  0 0.15305376E+04</rscale>
<asrwt>0</asrwt>
<pdfrwt beam="1">  1        2 0.42969662E+00 0.15305376E+04</pdfrwt>
<pdfrwt beam="2">  1       -1 0.32258145E-01 0.15305376E+04</pdfrwt>
<totfact> 0.23119394E+01</totfact>
</mgrwt>
</event>
<event>
12    6  0.8914180E-008  0.2251434E+04  0.7818608E-02  0.8497320E-01
          2   -1    0    0  501    0  0.00000000000E+00  0.00000000000E+00  0.13971317727E+04  0.13971317727E+04  0.00000000000E+00 0. -1.
         -1   -1    0    0    0  501 -0.00000000000E+00 -0.00000000000E+00 -0.90702851565E+03  0.90702851565E+03  0.00000000000E+00 0.  1.
         24    2    1    2    0    0  0.43505001834E+03  0.51617242087E+03 -0.49000062271E+03  0.83794199256E+03  0.79647260561E+02 0.  0.
        254    2    1    2    0    0 -0.43505001834E+03 -0.51617242087E+03  0.98010387977E+03  0.14662182958E+04  0.85644030105E+03 0.  0.
         23    2    4    4    0    0 -0.53775904539E+02  0.67227545327E+02 -0.11046839284E+03  0.16884447350E+03  0.94306943840E+02 0.  0.
         23    2    4    4    0    0 -0.38127411380E+03 -0.58339996620E+03  0.10905722726E+04  0.12973738223E+04  0.90030453630E+02 0.  0.
          2    1    3    3  502    0  0.92808502169E+02  0.16327101386E+03 -0.14734757642E+03  0.23870934275E+03  0.00000000000E+00 0. -1.
         -1    1    3    3    0  502  0.34224151617E+03  0.35290140701E+03 -0.34265304629E+03  0.59923264980E+03  0.00000000000E+00 0.  1.
         11    1    5    5    0    0 -0.43683556918E+02  0.26702505112E+01 -0.90488814005E+02  0.10051670927E+03  0.00000000000E+00 0.  1.
        -11    1    5    5    0    0 -0.10092347621E+02  0.64557294816E+02 -0.19979578833E+02  0.68327764230E+02  0.00000000000E+00 0. -1.
          4    1    6    6  503    0 -0.94285034860E+02 -0.12231524966E+03  0.18036196564E+03  0.23744710305E+03  0.00000000000E+00 0. -1.
         -4    1    6    6    0  503 -0.28698907894E+03 -0.46108471654E+03  0.91021030697E+03  0.10599267192E+04  0.00000000000E+00 0.  1.
<mgrwt>
<rscale>  0 0.22514336E+04</rscale>
<asrwt>0</asrwt>
<pdfrwt beam="1">  1        2 0.21494335E+00 0.22514336E+04</pdfrwt>
<pdfrwt beam="2">  1       -1 0.13954285E+00 0.22514336E+04</pdfrwt>
<totfact> 0.63692169E+00</totfact>
</mgrwt>
</event>
<event>
12    6  0.8914180E-008  0.2800370E+04  0.7818608E-02  0.8303154E-01
         -1   -1    0    0    0  501 -0.00000000000E+00  0.00000000000E+00  0.82621185153E+03  0.82621185153E+03  0.00000000000E+00 0.  1.
          2   -1    0    0  501    0  0.00000000000E+00 -0.00000000000E+00 -0.23728996928E+04  0.23728996928E+04  0.00000000000E+00 0. -1.
         24    2    1    2    0    0 -0.63083813322E+03  0.26546283764E+03 -0.18892758238E+04  0.20109629404E+04  0.78622776485E+02 0.  0.
        254    2    1    2    0    0  0.63083813322E+03 -0.26546283764E+03  0.34258798254E+03  0.11881486039E+04  0.90879222631E+03 0.  0.
         23    2    4    4    0    0  0.70100715175E+03 -0.17194962322E+03 -0.88261373493E+02  0.73272357197E+03  0.90089195479E+02 0.  0.
         23    2    4    4    0    0 -0.70169018536E+02 -0.93513214422E+02  0.43084935604E+03  0.45542503189E+03  0.90068749543E+02 0.  0.
          2    1    3    3  502    0 -0.58301483462E+03  0.26603349615E+03 -0.17437362869E+04  0.18577664969E+04  0.00000000000E+00 0. -1.
         -1    1    3    3    0  502 -0.47823298599E+02 -0.57065850873E+00 -0.14553953684E+03  0.15319644357E+03  0.00000000000E+00 0.  1.
         11    1    5    5    0    0  0.51383581518E+03 -0.90241567674E+02 -0.42479989419E+02  0.52342653257E+03  0.00000000000E+00 0. -1.
        -11    1    5    5    0    0  0.18717133657E+03 -0.81708055543E+02 -0.45781384073E+02  0.20929703940E+03  0.00000000000E+00 0.  1.
          1    1    6    6  503    0 -0.22992720418E+02 -0.96438944139E+02  0.31738198083E+03  0.33250632610E+03  0.00000000000E+00 0. -1.
         -1    1    6    6    0  503 -0.47176298118E+02  0.29257297169E+01  0.11346737521E+03  0.12291870580E+03  0.00000000000E+00 0.  1.
<mgrwt>
<rscale>  0 0.28003699E+04</rscale>
<asrwt>0</asrwt>
<pdfrwt beam="1">  1        2 0.36506149E+00 0.28003699E+04</pdfrwt>
<pdfrwt beam="2">  1       -1 0.12710952E+00 0.28003699E+04</pdfrwt>
<totfact> 0.21872761E+00</totfact>
</mgrwt>
</event>
<event>
12    6  0.8914180E-008  0.1776217E+04  0.7818608E-02  0.8719050E-01
          2   -1    0    0  501    0  0.00000000000E+00  0.00000000000E+00  0.14420502770E+04  0.14420502770E+04  0.00000000000E+00 0. -1.
         -1   -1    0    0    0  501 -0.00000000000E+00 -0.00000000000E+00 -0.54695487847E+03  0.54695487847E+03  0.00000000000E+00 0.  1.
         24    2    1    2    0    0 -0.28505207657E+03  0.51674845387E+03  0.65288020455E+03  0.88366811115E+03  0.79580891143E+02 0.  0.
        254    2    1    2    0    0  0.28505207657E+03 -0.51674845387E+03  0.24221519393E+03  0.11053370443E+04  0.90267277035E+03 0.  0.
         23    2    4    4    0    0 -0.77460031314E+02 -0.25123634208E+03  0.50476717811E+03  0.57621167796E+03  0.90056858120E+02 0.  0.
         23    2    4    4    0    0  0.36251210788E+03 -0.26551211179E+03 -0.26255198418E+03  0.52912536631E+03  0.95542655422E+02 0.  0.
          2    1    3    3  502    0 -0.14774012868E+03  0.25471578536E+03  0.26740293105E+03  0.39775822363E+03  0.00000000000E+00 0. -1.
         -1    1    3    3    0  502 -0.13731194789E+03  0.26203266851E+03  0.38547727351E+03  0.48590988752E+03  0.00000000000E+00 0.  1.
         11    1    5    5    0    0 -0.92136854129E+02 -0.16205490816E+03  0.31516107498E+03  0.36616594097E+03  0.00000000000E+00 0. -1.
        -11    1    5    5    0    0  0.14676822815E+02 -0.89181433917E+02  0.18960610313E+03  0.21004573699E+03  0.00000000000E+00 0.  1.
          1    1    6    6  503    0  0.22173375831E+03 -0.15739537602E+03 -0.21131665233E+03  0.34437463832E+03  0.00000000000E+00 0. -1.
         -1    1    6    6    0  503  0.14077834957E+03 -0.10811673577E+03 -0.51235331848E+02  0.18475072798E+03  0.00000000000E+00 0.  1.
<mgrwt>
<rscale>  0 0.17762167E+04</rscale>
<asrwt>0</asrwt>
<pdfrwt beam="1">  1        2 0.22185389E+00 0.17762167E+04</pdfrwt>
<pdfrwt beam="2">  1       -1 0.84146905E-01 0.17762167E+04</pdfrwt>
<totfact> 0.20653222E+01</totfact>
</mgrwt>
</event>
<event>
12    6  0.8914180E-008  0.1391891E+04  0.7818608E-02  0.8959709E-01
         -1   -1    0    0    0  501 -0.00000000000E+00  0.00000000000E+00  0.23576655299E+03  0.23576655299E+03  0.00000000000E+00 0.  1.
          2   -1    0    0  501    0  0.00000000000E+00 -0.00000000000E+00 -0.20543198973E+04  0.20543198973E+04  0.00000000000E+00 0. -1.
         24    2    1    2    0    0 -0.20825716636E+03  0.28919131698E+03 -0.23278801515E+03  0.43329662134E+03  0.80950830190E+02 0.  0.
        254    2    1    2    0    0  0.20825716636E+03 -0.28919131698E+03 -0.15857653292E+04  0.18567898290E+04  0.89778289392E+03 0.  0.
         23    2    4    4    0    0 -0.19514123176E+03 -0.18713757803E+03 -0.13311802632E+04  0.13614084138E+04  0.91057137885E+02 0.  0.
         23    2    4    4    0    0  0.40339839811E+03 -0.10205373894E+03 -0.25458506591E+03  0.49538141520E+03  0.86278372190E+02 0.  0.
          2    1    3    3  502    0 -0.13159680180E+03  0.17609219437E+03 -0.18874204090E+03  0.28974081032E+03  0.00000000000E+00 0. -1.
         -1    1    3    3    0  502 -0.76660364559E+02  0.11309912261E+03 -0.44045974254E+02  0.14355581102E+03  0.00000000000E+00 0.  1.
         11    1    5    5    0    0 -0.18668770780E+02  0.81410474415E+01 -0.63270499046E+02  0.66467704228E+02  0.00000000000E+00 0.  1.
        -11    1    5    5    0    0 -0.17647246098E+03 -0.19527862548E+03 -0.12679097642E+04  0.12949407095E+04  0.00000000000E+00 0. -1.
          2    1    6    6  503    0  0.36016257401E+03 -0.91518766474E+02 -0.25533289936E+03  0.45087432155E+03  0.00000000000E+00 0. -1.
         -2    1    6    6    0  503  0.43235824101E+02 -0.10534972470E+02  0.74783344483E+00  0.44507093654E+02  0.00000000000E+00 0.  1.
<mgrwt>
<rscale>  0 0.13918907E+04</rscale>
<asrwt>0</asrwt>
<pdfrwt beam="1">  1        2 0.31604921E+00 0.13918907E+04</pdfrwt>
<pdfrwt beam="2">  1       -1 0.36271778E-01 0.13918907E+04</pdfrwt>
<totfact> 0.50346223E+01</totfact>
</mgrwt>
</event>
<event>
12    6  0.8914180E-008  0.1680306E+04  0.7818608E-02  0.8772677E-01
         -1   -1    0    0    0  501 -0.00000000000E+00  0.00000000000E+00  0.21081977056E+03  0.21081977056E+03  0.00000000000E+00 0.  1.
          2   -1    0    0  501    0  0.00000000000E+00 -0.00000000000E+00 -0.33481557268E+04  0.33481557268E+04  0.00000000000E+00 0. -1.
         24    2    1    2    0    0 -0.46080730151E+03 -0.35721119237E+03 -0.86392832370E+03  0.10453344071E+04  0.80054163591E+02 0.  0.
        254    2    1    2    0    0  0.46080730151E+03  0.35721119237E+03 -0.22734076326E+04  0.25136410903E+04  0.90003670027E+03 0.  0.
         23    2    4    4    0    0  0.60955160256E+03  0.20913913798E+03 -0.83881347454E+03  0.10610916648E+04  0.83756437107E+02 0.  0.
         23    2    4    4    0    0 -0.14874430104E+03  0.14807205439E+03 -0.14345941580E+04  0.14525494255E+04  0.88256642387E+02 0.  0.
          4    1    3    3  502    0 -0.17689230029E+03 -0.14458854050E+03 -0.40879340171E+03  0.46830415034E+03  0.00000000000E+00 0. -1.
         -3    1    3    3    0  502 -0.28391500122E+03 -0.21262265187E+03 -0.45513492199E+03  0.57703025677E+03  0.00000000000E+00 0.  1.
         11    1    5    5    0    0  0.52155129530E+03  0.15432305372E+03 -0.66993002062E+03  0.86292386168E+03  0.00000000000E+00 0.  1.
        -11    1    5    5    0    0  0.88000307258E+02  0.54816084253E+02 -0.16888345393E+03  0.19816780309E+03  0.00000000000E+00 0. -1.
          1    1    6    6  503    0 -0.81064197497E+01 -0.83539638143E+01 -0.18567923749E+03  0.18604376364E+03  0.00000000000E+00 0. -1.
         -1    1    6    6    0  503 -0.14063788129E+03  0.15642601821E+03 -0.12489149205E+04  0.12665056619E+04  0.00000000000E+00 0.  1.
<mgrwt>
<rscale>  0 0.16803064E+04</rscale>
<asrwt>0</asrwt>
<pdfrwt beam="1">  1        2 0.51510081E+00 0.16803064E+04</pdfrwt>
<pdfrwt beam="2">  1       -1 0.32433815E-01 0.16803064E+04</pdfrwt>
<totfact> 0.10058835E+01</totfact>
</mgrwt>
</event>
<event>
12    6  0.8914180E-008  0.1246468E+04  0.7818608E-02  0.9073128E-01
         -1   -1    0    0    0  501 -0.00000000000E+00  0.00000000000E+00  0.45436126866E+03  0.45436126866E+03  0.00000000000E+00 0.  1.
          2   -1    0    0  501    0  0.00000000000E+00 -0.00000000000E+00 -0.85487135515E+03  0.85487135515E+03  0.00000000000E+00 0. -1.
         24    2    1    2    0    0  0.23003630774E+02 -0.33279445177E+02  0.21146510658E+03  0.22978811980E+03  0.80301931484E+02 0.  0.
        254    2    1    2    0    0 -0.23003630774E+02  0.33279445177E+02 -0.61197519306E+03  0.10794445040E+04  0.88828492716E+03 0.  0.
         23    2    4    4    0    0  0.33220728440E+03  0.28269580477E+03 -0.30542455899E+03  0.54040580982E+03  0.92063457499E+02 0.  0.
         23    2    4    4    0    0 -0.35521091517E+03 -0.24941635959E+03 -0.30655063407E+03  0.53903869420E+03  0.90587570354E+02 0.  0.
          4    1    3    3  502    0  0.35160637035E+02 -0.75429137212E+01  0.32177335890E+02  0.48255019315E+02  0.00000000000E+00 0. -1.
         -3    1    3    3    0  502 -0.12157006261E+02 -0.25736531456E+02  0.17928777069E+03  0.18153310048E+03  0.00000000000E+00 0.  1.
         11    1    5    5    0    0  0.25033617103E+03  0.25610600944E+03 -0.26371906933E+03  0.44475412772E+03  0.00000000000E+00 0.  1.
        -11    1    5    5    0    0  0.81871113371E+02  0.26589795334E+02 -0.41705489666E+02  0.95651682102E+02  0.00000000000E+00 0. -1.
          4    1    6    6  503    0 -0.34327788353E+03 -0.23621851240E+03 -0.31185372191E+03  0.52047251108E+03  0.00000000000E+00 0.  1.
         -4    1    6    6    0  503 -0.11933031637E+02 -0.13197847199E+02  0.53030878434E+01  0.18566183113E+02  0.00000000000E+00 0. -1.
<mgrwt>
<rscale>  0 0.12464677E+04</rscale>
<asrwt>0</asrwt>
<pdfrwt beam="1">  1        2 0.13151867E+00 0.12464677E+04</pdfrwt>
<pdfrwt beam="2">  1       -1 0.69901734E-01 0.12464677E+04</pdfrwt>
<totfact> 0.73185244E+01</totfact>
</mgrwt>
</event>
<event>
12    6  0.8914180E-008  0.1851150E+04  0.7818608E-02  0.8679562E-01
          2   -1    0    0  501    0  0.00000000000E+00  0.00000000000E+00  0.15346876728E+04  0.15346876728E+04  0.00000000000E+00 0. -1.
         -1   -1    0    0    0  501 -0.00000000000E+00 -0.00000000000E+00 -0.55821692226E+03  0.55821692226E+03  0.00000000000E+00 0.  1.
         24    2    1    2    0    0  0.58829057258E+03  0.92650781931E+02  0.79997904821E+03  0.10004611571E+04  0.79284828481E+02 0.  0.
        254    2    1    2    0    0 -0.58829057258E+03 -0.92650781931E+02  0.17649170230E+03  0.10924434380E+04  0.89867312133E+03 0.  0.
         23    2    4    4    0    0 -0.77083232688E+03 -0.21653945783E+03  0.24736568088E+03  0.84372138802E+03  0.98000956967E+02 0.  0.
         23    2    4    4    0    0  0.18254175430E+03  0.12388867590E+03 -0.70873978574E+02  0.24872204995E+03  0.90386067571E+02 0.  0.
          4    1    3    3  502    0  0.54819061107E+03  0.10555510162E+03  0.73391704091E+03  0.92211119095E+03  0.00000000000E+00 0. -1.
         -3    1    3    3    0  502  0.40099961503E+02 -0.12904319694E+02  0.66062007302E+02  0.78349966101E+02  0.00000000000E+00 0.  1.
         11    1    5    5    0    0 -0.56683893596E+03 -0.17906683724E+03  0.22294307891E+03  0.63488182204E+03  0.00000000000E+00 0. -1.
        -11    1    5    5    0    0 -0.20399339091E+03 -0.37472620593E+02  0.24422601962E+02  0.20883956598E+03  0.00000000000E+00 0.  1.
          4    1    6    6  503    0  0.14895334762E+03  0.13674606395E+03 -0.64128278596E+02  0.21212972891E+03  0.00000000000E+00 0. -1.
         -4    1    6    6    0  503  0.33588406684E+02 -0.12857388043E+02 -0.67456999778E+01  0.36592321040E+02  0.00000000000E+00 0.  1.
<mgrwt>
<rscale>  0 0.18511495E+04</rscale>
<asrwt>0</asrwt>
<pdfrwt beam="1">  1        2 0.23610579E+00 0.18511495E+04</pdfrwt>
<pdfrwt beam="2">  1       -1 0.85879527E-01 0.18511495E+04</pdfrwt>
<totfact> 0.17402812E+01</totfact>
</mgrwt>
</event>
<event>
12    6  0.8914180E-008  0.1142635E+04  0.7818608E-02  0.9164605E-01
          2   -1    0    0  501    0  0.00000000000E+00  0.00000000000E+00  0.80577135473E+03  0.80577135473E+03  0.00000000000E+00 0. -1.
         -1   -1    0    0    0  501 -0.00000000000E+00 -0.00000000000E+00 -0.40508210680E+03  0.40508210680E+03  0.00000000000E+00 0.  1.
         24    2    1    2    0    0 -0.12567909212E+03 -0.84520296881E+02 -0.62434296866E+02  0.18578129538E+03  0.87622676902E+02 0.  0.
        254    2    1    2    0    0  0.12567909212E+03  0.84520296881E+02  0.46312354479E+03  0.10250721661E+04  0.90185953079E+03 0.  0.
         23    2    4    4    0    0 -0.84214724110E+02  0.41692577928E+03  0.44337838250E+03  0.62090964388E+03  0.89583316612E+02 0.  0.
         23    2    4    4    0    0  0.20989381623E+03 -0.33240548240E+03  0.19745162294E+02  0.40416252226E+03  0.91698713972E+02 0.  0.
          2    1    3    3  502    0  0.57407184377E+01 -0.13994777189E+02 -0.29334592759E+02  0.33004968855E+02  0.00000000000E+00 0. -1.
         -1    1    3    3    0  502 -0.13141981056E+03 -0.70525519692E+02 -0.33099704106E+02  0.15277632653E+03  0.00000000000E+00 0.  1.
         11    1    5    5    0    0 -0.54300850800E+02  0.85613711244E+02  0.89697219363E+02  0.13536573094E+03  0.00000000000E+00 0.  1.
        -11    1    5    5    0    0 -0.29913873310E+02  0.33131206804E+03  0.35368116314E+03  0.48554391295E+03  0.00000000000E+00 0. -1.
          1    1    6    6  503    0  0.21668303538E+03 -0.31041463848E+03  0.87662137741E+01  0.37866295318E+03  0.00000000000E+00 0. -1.
         -1    1    6    6    0  503 -0.67892191466E+01 -0.21990843919E+02  0.10978948520E+02  0.25499569084E+02  0.00000000000E+00 0.  1.
<mgrwt>
<rscale>  0 0.11426348E+04</rscale>
<asrwt>0</asrwt>
<pdfrwt beam="1">  1        2 0.12396482E+00 0.11426348E+04</pdfrwt>
<pdfrwt beam="2">  1       -1 0.62320324E-01 0.11426348E+04</pdfrwt>
<totfact> 0.10073925E+02</totfact>
</mgrwt>
</event>
<event>
12    6  0.8914180E-008  0.2303772E+04  0.7818608E-02  0.8476435E-01
          2   -1    0    0  501    0  0.00000000000E+00  0.00000000000E+00  0.14083826463E+04  0.14083826463E+04  0.00000000000E+00 0. -1.
         -1   -1    0    0    0  501 -0.00000000000E+00 -0.00000000000E+00 -0.94210264790E+03  0.94210264790E+03  0.00000000000E+00 0.  1.
         24    2    1    2    0    0 -0.52277855707E+03 -0.18321645046E+03  0.10113704016E+04  0.11559137055E+04  0.80004485604E+02 0.  0.
        254    2    1    2    0    0  0.52277855707E+03  0.18321645046E+03 -0.54509040325E+03  0.11945715887E+04  0.90720011323E+03 0.  0.
         23    2    4    4    0    0  0.58315166167E+03 -0.10441064331E+03 -0.37381312853E+02  0.60077688029E+03  0.92563785579E+02 0.  0.
         23    2    4    4    0    0 -0.60373104602E+02  0.28762709377E+03 -0.50770909040E+03  0.59379470844E+03  0.91920500803E+02 0.  0.
          2    1    3    3  502    0 -0.50018050742E+03 -0.18627856739E+03  0.93968891797E+03  0.10806921427E+04  0.00000000000E+00 0. -1.
         -1    1    3    3    0  502 -0.22598049644E+02  0.30621169366E+01  0.71681483655E+02  0.75221562778E+02  0.00000000000E+00 0.  1.
         11    1    5    5    0    0  0.54235825550E+03 -0.11733441181E+03 -0.22122415552E+02  0.55534605677E+03  0.00000000000E+00 0.  1.
        -11    1    5    5    0    0  0.40793406173E+02  0.12923768495E+02 -0.15258897301E+02  0.45430823524E+02  0.00000000000E+00 0. -1.
          3    1    6    6  503    0 -0.12100856801E+02  0.50205421056E+02 -0.34315546845E+02  0.62004611071E+02  0.00000000000E+00 0. -1.
         -3    1    6    6    0  503 -0.48272247802E+02  0.23742167271E+03 -0.47339354355E+03  0.53179009737E+03  0.00000000000E+00 0.  1.
<mgrwt>
<rscale>  0 0.23037717E+04</rscale>
<asrwt>0</asrwt>
<pdfrwt beam="1">  1        2 0.21667425E+00 0.23037717E+04</pdfrwt>
<pdfrwt beam="2">  1       -1 0.14493887E+00 0.23037717E+04</pdfrwt>
<totfact> 0.56533480E+00</totfact>
</mgrwt>
</event>
<event>
12    6  0.8914180E-008  0.2077162E+04  0.7818608E-02  0.8571371E-01
          2   -1    0    0  501    0  0.00000000000E+00  0.00000000000E+00  0.80277931750E+03  0.80277931750E+03  0.00000000000E+00 0. -1.
         -1   -1    0    0    0  501 -0.00000000000E+00 -0.00000000000E+00 -0.13436449905E+04  0.13436449905E+04  0.00000000000E+00 0.  1.
         24    2    1    2    0    0  0.28158092590E+03  0.58868789227E+03 -0.76743069128E+03  0.10108371265E+04  0.83669457399E+02 0.  0.
        254    2    1    2    0    0 -0.28158092590E+03 -0.58868789227E+03  0.22656501829E+03  0.11355871815E+04  0.90132418523E+03 0.  0.
         23    2    4    4    0    0 -0.19849382172E+03 -0.55716892485E+03 -0.24589048355E+03  0.64671093966E+03  0.89083676957E+02 0.  0.
         23    2    4    4    0    0 -0.83087104175E+02 -0.31518967423E+02  0.47245550184E+03  0.48887624181E+03  0.88819290729E+02 0.  0.
          2    1    3    3  502    0  0.48208384541E+02  0.51501233201E+02 -0.61616980346E+02  0.93664708553E+02  0.00000000000E+00 0. -1.
         -1    1    3    3    0  502  0.23337254136E+03  0.53718665907E+03 -0.70581371093E+03  0.91717241797E+03  0.00000000000E+00 0.  1.
         11    1    5    5    0    0 -0.19284719968E+02 -0.97641951297E+02 -0.10178208572E+02  0.10004722388E+03  0.00000000000E+00 0. -1.
        -11    1    5    5    0    0 -0.17920910176E+03 -0.45952697355E+03 -0.23571227497E+03  0.54666371577E+03  0.00000000000E+00 0.  1.
          3    1    6    6  503    0  0.33686504701E+01  0.63997895844E+01  0.20712328202E+03  0.20724950921E+03  0.00000000000E+00 0. -1.
         -3    1    6    6    0  503 -0.86455754645E+02 -0.37918757007E+02  0.26533221982E+03  0.28162673261E+03  0.00000000000E+00 0.  1.
<mgrwt>
<rscale>  0 0.20771619E+04</rscale>
<asrwt>0</asrwt>
<pdfrwt beam="1">  1        2 0.12350451E+00 0.20771619E+04</pdfrwt>
<pdfrwt beam="2">  1       -1 0.20671461E+00 0.20771619E+04</pdfrwt>
<totfact> 0.48889661E+00</totfact>
</mgrwt>
</event>
<event>
12    6  0.8914180E-008  0.2598197E+04  0.7818608E-02  0.8368814E-01
          2   -1    0    0  501    0  0.00000000000E+00  0.00000000000E+00  0.45128916220E+04  0.45128916220E+04  0.00000000000E+00 0. -1.
         -1   -1    0    0    0  501 -0.00000000000E+00 -0.00000000000E+00 -0.37396356594E+03  0.37396356594E+03  0.00000000000E+00 0.  1.
         24    2    1    2    0    0 -0.34840410837E+03 -0.69602592078E+03  0.25289926130E+03  0.82231396849E+03  0.80029502509E+02 0.  0.
        254    2    1    2    0    0  0.34840410837E+03  0.69602592078E+03  0.38860287947E+04  0.40645412194E+04  0.90190799182E+03 0.  0.
         23    2    4    4    0    0  0.41006557159E+03  0.88145085516E+03  0.32427068389E+04  0.33865408140E+04  0.91660560718E+02 0.  0.
         23    2    4    4    0    0 -0.61661463214E+02 -0.18542493437E+03  0.64332195580E+03  0.67800040544E+03  0.87389179160E+02 0.  0.
          2    1    3    3  502    0 -0.23026594219E+03 -0.50219432893E+03  0.14616781369E+03  0.57147753928E+03  0.00000000000E+00 0. -1.
         -1    1    3    3    0  502 -0.11813816618E+03 -0.19383159185E+03  0.10673144761E+03  0.25083642921E+03  0.00000000000E+00 0.  1.
         11    1    5    5    0    0  0.55875716646E+02  0.21001859242E+03  0.73259512860E+03  0.76415019945E+03  0.00000000000E+00 0.  1.
        -11    1    5    5    0    0  0.35418985494E+03  0.67143226274E+03  0.25101117103E+04  0.26223906145E+04  0.00000000000E+00 0. -1.
          4    1    6    6  503    0 -0.52682514387E+02 -0.13303052264E+03  0.32265576152E+03  0.35295794044E+03  0.00000000000E+00 0. -1.
         -4    1    6    6    0  503 -0.89789488268E+01 -0.52394411730E+02  0.32066619428E+03  0.32504246500E+03  0.00000000000E+00 0.  1.
<mgrwt>
<rscale>  0 0.25981971E+04</rscale>
<asrwt>0</asrwt>
<pdfrwt beam="1">  1        2 0.69429098E+00 0.25981971E+04</pdfrwt>
<pdfrwt beam="2">  1       -1 0.57532859E-01 0.25981971E+04</pdfrwt>
<totfact> 0.36957929E-01</totfact>
</mgrwt>
</event>
<event>
12    6  0.8914180E-008  0.1653325E+04  0.7818608E-02  0.8788442E-01
          2   -1    0    0  501    0  0.00000000000E+00  0.00000000000E+00  0.61407312071E+03  0.61407312071E+03  0.00000000000E+00 0. -1.
         -1   -1    0    0    0  501 -0.00000000000E+00 -0.00000000000E+00 -0.11128487205E+04  0.11128487205E+04  0.00000000000E+00 0.  1.
         24    2    1    2    0    0  0.75373840208E+02 -0.56764408604E+03 -0.84464862845E+02  0.58454697129E+03  0.81607747123E+02 0.  0.
        254    2    1    2    0    0 -0.75373840208E+02  0.56764408604E+03 -0.41431073693E+03  0.11423748699E+04  0.89747753870E+03 0.  0.
         23    2    4    4    0    0  0.16422765722E+03 -0.18865556668E+03 -0.10559925183E+03  0.28588945857E+03  0.89554085876E+02 0.  0.
         23    2    4    4    0    0 -0.23960149743E+03  0.75629965271E+03 -0.30871148510E+03  0.85648541134E+03  0.94161757337E+02 0.  0.
          4    1    3    3  502    0  0.56729383335E+02 -0.54922852723E+03 -0.82321891530E+02  0.55825360893E+03  0.00000000000E+00 0. -1.
         -3    1    3    3    0  502  0.18644456873E+02 -0.18415558804E+02 -0.21429713144E+01  0.26293362360E+02  0.00000000000E+00 0.  1.
         11    1    5    5    0    0  0.26199983060E+02 -0.86106938243E+02 -0.14083618669E+02  0.91099902529E+02  0.00000000000E+00 0. -1.
        -11    1    5    5    0    0  0.13802767416E+03 -0.10254862843E+03 -0.91515633156E+02  0.19478955604E+03  0.00000000000E+00 0.  1.
          1    1    6    6  503    0  0.62304052845E+01  0.53368976079E+02 -0.13298442157E+02  0.55352634278E+02  0.00000000000E+00 0. -1.
         -1    1    6    6    0  503 -0.24583190272E+03  0.70293067663E+03 -0.29541304295E+03  0.80113277706E+03  0.00000000000E+00 0.  1.
<mgrwt>
<rscale>  0 0.16533245E+04</rscale>
<asrwt>0</asrwt>
<pdfrwt beam="1">  1        2 0.94472789E-01 0.16533245E+04</pdfrwt>
<pdfrwt beam="2">  1       -1 0.17120749E+00 0.16533245E+04</pdfrwt>
<totfact> 0.12681770E+01</totfact>
</mgrwt>
</event>
<event>
12    6  0.8914180E-008  0.1023861E+04  0.7818608E-02  0.9282755E-01
          2   -1    0    0  501    0  0.00000000000E+00  0.00000000000E+00  0.13958007515E+04  0.13958007515E+04  0.00000000000E+00 0. -1.
         -1   -1    0    0    0  501 -0.00000000000E+00 -0.00000000000E+00 -0.18775804140E+03  0.18775804140E+03  0.00000000000E+00 0.  1.
         24    2    1    2    0    0  0.29533749466E+02  0.64959280895E+02  0.54289636762E+02  0.11986688189E+03  0.79553467439E+02 0.  0.
        254    2    1    2    0    0 -0.29533749466E+02 -0.64959280895E+02  0.11537530733E+04  0.14636919110E+04  0.89786185217E+03 0.  0.
         23    2    4    4    0    0  0.11277735716E+03 -0.44270241185E+03  0.44879065910E+03  0.64692744246E+03  0.91640069664E+02 0.  0.
         23    2    4    4    0    0 -0.14231110663E+03  0.37774313096E+03  0.70496241423E+03  0.81676446854E+03  0.84793086600E+02 0.  0.
          2    1    3    3  502    0 -0.86410042150E+00 -0.76889342286E+01  0.38854050493E+02  0.39616961252E+02  0.00000000000E+00 0. -1.
         -1    1    3    3    0  502  0.30397849888E+02  0.72648215124E+02  0.15435586269E+02  0.80249920635E+02  0.00000000000E+00 0.  1.
         11    1    5    5    0    0  0.54457779132E+02 -0.92532004852E+02  0.13996084720E+03  0.17639971763E+03  0.00000000000E+00 0.  1.
        -11    1    5    5    0    0  0.58319578029E+02 -0.35017040700E+03  0.30882981189E+03  0.47052772483E+03  0.00000000000E+00 0. -1.
          3    1    6    6  503    0 -0.98011499894E+02  0.32655933297E+03  0.62541013888E+03  0.71230968958E+03  0.00000000000E+00 0. -1.
         -3    1    6    6    0  503 -0.44299606733E+02  0.51183797993E+02  0.79552275354E+02  0.10445477896E+03  0.00000000000E+00 0.  1.
<mgrwt>
<rscale>  0 0.10238610E+04</rscale>
<asrwt>0</asrwt>
<pdfrwt beam="1">  1        2 0.21473857E+00 0.10238610E+04</pdfrwt>
<pdfrwt beam="2">  1       -1 0.28885853E-01 0.10238610E+04</pdfrwt>
<totfact> 0.18007152E+02</totfact>
</mgrwt>
</event>
<event>
12    6  0.8914180E-008  0.1139761E+04  0.7818608E-02  0.9167282E-01
          2   -1    0    0  501    0  0.00000000000E+00  0.00000000000E+00  0.11107147110E+04  0.11107147110E+04  0.00000000000E+00 0. -1.
         -1   -1    0    0    0  501 -0.00000000000E+00 -0.00000000000E+00 -0.29239183122E+03  0.29239183122E+03  0.00000000000E+00 0.  1.
         24    2    1    2    0    0 -0.14161472971E+03  0.59948438528E+02 -0.22703071870E+01  0.17342571248E+03  0.80142226702E+02 0.  0.
        254    2    1    2    0    0  0.14161472971E+03 -0.59948438528E+02  0.82059318694E+03  0.12296808297E+04  0.90282513122E+03 0.  0.
         23    2    4    4    0    0 -0.19706628405E+01  0.37355598253E+03  0.14964265441E+03  0.41306521700E+03  0.93177217577E+02 0.  0.
         23    2    4    4    0    0  0.14358539255E+03 -0.43350442106E+03  0.67095053253E+03  0.81661561272E+03  0.90241862785E+02 0.  0.
          2    1    3    3  502    0 -0.18082790739E+02  0.11516941286E+02 -0.30974029741E+02  0.37669852348E+02  0.00000000000E+00 0. -1.
         -1    1    3    3    0  502 -0.12353193897E+03  0.48431497242E+02  0.28703722554E+02  0.13575586013E+03  0.00000000000E+00 0.  1.
         11    1    5    5    0    0  0.27744304959E+02  0.27601502978E+03  0.13975227856E+03  0.31061993253E+03  0.00000000000E+00 0. -1.
        -11    1    5    5    0    0 -0.29714967800E+02  0.97540952755E+02  0.98903758546E+01  0.10244528447E+03  0.00000000000E+00 0.  1.
          4    1    6    6  503    0  0.70850869853E+02 -0.33585428647E+03  0.51137216336E+03  0.61588914341E+03  0.00000000000E+00 0. -1.
         -4    1    6    6    0  503  0.72734522695E+02 -0.97650134587E+02  0.15957836917E+03  0.20072646931E+03  0.00000000000E+00 0.  1.
<mgrwt>
<rscale>  0 0.11397612E+04</rscale>
<asrwt>0</asrwt>
<pdfrwt beam="1">  1        2 0.17087918E+00 0.11397612E+04</pdfrwt>
<pdfrwt beam="2">  1       -1 0.44983359E-01 0.11397612E+04</pdfrwt>
<totfact> 0.11869450E+02</totfact>
</mgrwt>
</event>
<event>
12    6  0.8914180E-008  0.2093188E+04  0.7818608E-02  0.8564250E-01
         -1   -1    0    0    0  501 -0.00000000000E+00  0.00000000000E+00  0.65772303803E+03  0.65772303803E+03  0.00000000000E+00 0.  1.
          2   -1    0    0  501    0  0.00000000000E+00 -0.00000000000E+00 -0.16653803449E+04  0.16653803449E+04  0.00000000000E+00 0. -1.
         24    2    1    2    0    0 -0.18812338458E+03 -0.38173633245E+03  0.40641661090E+03  0.59390052226E+03  0.80189359557E+02 0.  0.
        254    2    1    2    0    0  0.18812338458E+03  0.38173633245E+03 -0.14140739177E+04  0.17292028607E+04  0.89968019492E+03 0.  0.
         23    2    4    4    0    0 -0.15081439011E+03 -0.18213943822E+02 -0.10930889922E+04  0.11072960725E+04  0.90467228146E+02 0.  0.
         23    2    4    4    0    0  0.33893777469E+03  0.39995027627E+03 -0.32098492557E+03  0.62190678815E+03  0.94327578699E+02 0.  0.
          4    1    3    3  502    0 -0.13394595814E+02 -0.33031298133E+02  0.83653512020E+01  0.36612306047E+02  0.00000000000E+00 0. -1.
         -3    1    3    3    0  502 -0.17472878877E+03 -0.34870503432E+03  0.39805125969E+03  0.55728821621E+03  0.00000000000E+00 0.  1.
         11    1    5    5    0    0 -0.18486544876E+02  0.12706430481E+02 -0.42149805926E+03  0.42209456248E+03  0.00000000000E+00 0. -1.
        -11    1    5    5    0    0 -0.13232784523E+03 -0.30920374303E+02 -0.67159093292E+03  0.68520151003E+03  0.00000000000E+00 0.  1.
          2    1    6    6  503    0  0.32102869590E+02  0.88154042982E+01 -0.35375789361E+02  0.48577279275E+02  0.00000000000E+00 0. -1.
         -2    1    6    6    0  503  0.30683490510E+03  0.39113487197E+03 -0.28560913621E+03  0.57332950887E+03  0.00000000000E+00 0.  1.
<mgrwt>
<rscale>  0 0.20931880E+04</rscale>
<asrwt>0</asrwt>
<pdfrwt beam="1">  1        2 0.25621236E+00 0.20931880E+04</pdfrwt>
<pdfrwt beam="2">  1       -1 0.10118816E+00 0.20931880E+04</pdfrwt>
<totfact> 0.99867601E+00</totfact>
</mgrwt>
</event>
<event>
12    6  0.8914180E-008  0.2539120E+04  0.7818608E-02  0.8389180E-01
         -3   -1    0    0    0  501 -0.00000000000E+00  0.00000000000E+00  0.13727137754E+04  0.13727137754E+04  0.00000000000E+00 0.  1.
          2   -1    0    0  501    0  0.00000000000E+00 -0.00000000000E+00 -0.11741574163E+04  0.11741574163E+04  0.00000000000E+00 0. -1.
         24    2    1    2    0    0  0.77179523791E+03 -0.14870528777E+03  0.87493614566E+03  0.11787448113E+04  0.78389535548E+02 0.  0.
        254    2    1    2    0    0 -0.77179523791E+03  0.14870528777E+03 -0.67637978657E+03  0.13681263804E+04  0.89246794078E+03 0.  0.
         23    2    4    4    0    0 -0.50108790361E+03 -0.25955814293E+03 -0.65446235546E+03  0.86950613721E+03  0.96231134356E+02 0.  0.
         23    2    4    4    0    0 -0.27070733430E+03  0.40826343069E+03 -0.21917431109E+02  0.49862024324E+03  0.90444919682E+02 0.  0.
          4    1    3    3  502    0  0.23950239739E+03 -0.78058788659E+02  0.25177177378E+03  0.35615109001E+03  0.00000000000E+00 0. -1.
         -3    1    3    3    0  502  0.53229284051E+03 -0.70646499108E+02  0.62316437188E+03  0.82259372127E+03  0.00000000000E+00 0.  1.
         11    1    5    5    0    0 -0.19397370769E+03 -0.51216017858E+02 -0.25089681224E+03  0.32124459552E+03  0.00000000000E+00 0.  1.
        -11    1    5    5    0    0 -0.30711419592E+03 -0.20834212507E+03 -0.40356554322E+03  0.54826154168E+03  0.00000000000E+00 0. -1.
          3    1    6    6  503    0 -0.25161268180E+03  0.38467940969E+03 -0.43005585675E+02  0.46166727227E+03  0.00000000000E+00 0. -1.
         -3    1    6    6    0  503 -0.19094652494E+02  0.23584021004E+02  0.21088154566E+02  0.36952970971E+02  0.00000000000E+00 0.  1.
<mgrwt>
<rscale>  0 0.25391196E+04</rscale>
<asrwt>0</asrwt>
<pdfrwt beam="1">  1        2 0.18063960E+00 0.25391196E+04</pdfrwt>
<pdfrwt beam="2">  1       -3 0.21118673E+00 0.25391196E+04</pdfrwt>
<totfact> 0.13699368E+00</totfact>
</mgrwt>
</event>
<event>
12    6  0.8914180E-008  0.1392555E+04  0.7818608E-02  0.8959225E-01
          2   -1    0    0  501    0  0.00000000000E+00  0.00000000000E+00  0.16901823132E+04  0.16901823132E+04  0.00000000000E+00 0. -1.
         -1   -1    0    0    0  501 -0.00000000000E+00 -0.00000000000E+00 -0.28683440079E+03  0.28683440079E+03  0.00000000000E+00 0.  1.
         24    2    1    2    0    0 -0.41524370065E+02  0.19377564789E+03  0.90964025863E+03  0.93545121869E+03  0.91380016464E+02 0.  0.
        254    2    1    2    0    0  0.41524370065E+02 -0.19377564789E+03  0.49370765383E+03  0.10415654954E+04  0.89545416333E+03 0.  0.
         23    2    4    4    0    0 -0.19503770211E+03  0.22844358564E+03 -0.37125315077E+02  0.31720677705E+03  0.94950899518E+02 0.  0.
         23    2    4    4    0    0  0.23656207218E+03 -0.42221923353E+03  0.53083296891E+03  0.72435871831E+03  0.93173047347E+02 0.  0.
          4    1    3    3  502    0 -0.56290084602E+02  0.16327409225E+03  0.61243936248E+03  0.63632458348E+03  0.00000000000E+00 0. -1.
         -3    1    3    3    0  502  0.14765714537E+02  0.30501555641E+02  0.29720089614E+03  0.29912663521E+03  0.00000000000E+00 0.  1.
         11    1    5    5    0    0 -0.76387487490E+02  0.52365109294E+02 -0.48566575466E+02  0.10457468704E+03  0.00000000000E+00 0. -1.
        -11    1    5    5    0    0 -0.11865021462E+03  0.17607847635E+03  0.11441260390E+02  0.21263209001E+03  0.00000000000E+00 0.  1.
          4    1    6    6  503    0  0.96330157480E+02 -0.17042754971E+03  0.28377718228E+03  0.34475286529E+03  0.00000000000E+00 0. -1.
         -4    1    6    6    0  503  0.14023191470E+03 -0.25179168382E+03  0.24705578662E+03  0.37960585301E+03  0.00000000000E+00 0.  1.
<mgrwt>
<rscale>  0 0.13925551E+04</rscale>
<asrwt>0</asrwt>
<pdfrwt beam="1">  1        2 0.26002804E+00 0.13925551E+04</pdfrwt>
<pdfrwt beam="2">  1       -1 0.44128370E-01 0.13925551E+04</pdfrwt>
<totfact> 0.55964485E+01</totfact>
</mgrwt>
</event>
<event>
12    6  0.8914180E-008  0.1621337E+04  0.7818608E-02  0.8807546E-01
          2   -1    0    0  501    0  0.00000000000E+00  0.00000000000E+00  0.12987221433E+04  0.12987221433E+04  0.00000000000E+00 0. -1.
         -1   -1    0    0    0  501 -0.00000000000E+00 -0.00000000000E+00 -0.50602340529E+03  0.50602340529E+03  0.00000000000E+00 0.  1.
         24    2    1    2    0    0 -0.13613797833E+03  0.10407626885E+02  0.87565843504E+03  0.88985419089E+03  0.80130632932E+02 0.  0.
        254    2    1    2    0    0  0.13613797833E+03 -0.10407626885E+02 -0.82959697027E+02  0.91489135770E+03  0.90083406753E+03 0.  0.
         23    2    4    4    0    0 -0.26914902587E+03 -0.28298927943E+03 -0.11415025899E+03  0.41703038916E+03  0.91432671672E+02 0.  0.
         23    2    4    4    0    0  0.40528700420E+03  0.27258165255E+03  0.31190561966E+02  0.49786096855E+03  0.91292824289E+02 0.  0.
          2    1    3    3  502    0 -0.10158049010E+03  0.14122437334E+02  0.80056408830E+03  0.80710649774E+03  0.00000000000E+00 0. -1.
         -1    1    3    3    0  502 -0.34557488232E+02 -0.37148104485E+01  0.75094346739E+02  0.82747693150E+02  0.00000000000E+00 0.  1.
         11    1    5    5    0    0 -0.16031877570E+03 -0.10942981624E+03 -0.77054349614E+02  0.20884053083E+03  0.00000000000E+00 0. -1.
        -11    1    5    5    0    0 -0.10883025017E+03 -0.17355946319E+03 -0.37095909378E+02  0.20818985832E+03  0.00000000000E+00 0.  1.
          1    1    6    6  503    0  0.20280376563E+03  0.15500430317E+03  0.59244655689E+02  0.26204127649E+03  0.00000000000E+00 0. -1.
         -1    1    6    6    0  503  0.20248323857E+03  0.11757734938E+03 -0.28054093723E+02  0.23581969206E+03  0.00000000000E+00 0.  1.
<mgrwt>
<rscale>  0 0.16213375E+04</rscale>
<asrwt>0</asrwt>
<pdfrwt beam="1">  1        2 0.19980341E+00 0.16213375E+04</pdfrwt>
<pdfrwt beam="2">  1       -1 0.77849755E-01 0.16213375E+04</pdfrwt>
<totfact> 0.29874656E+01</totfact>
</mgrwt>
</event>
<event>
12    6  0.8914180E-008  0.1952187E+04  0.7818608E-02  0.8629307E-01
         -1   -1    0    0    0  501 -0.00000000000E+00  0.00000000000E+00  0.82515812680E+03  0.82515812680E+03  0.00000000000E+00 0.  1.
          2   -1    0    0  501    0  0.00000000000E+00 -0.00000000000E+00 -0.11546378076E+04  0.11546378076E+04  0.00000000000E+00 0. -1.
         24    2    1    2    0    0 -0.10759453983E+03 -0.73737032202E+03 -0.31259417371E+03  0.81194606840E+03  0.79055194400E+02 0.  0.
        254    2    1    2    0    0  0.10759453983E+03  0.73737032202E+03 -0.16885507064E+02  0.11678498660E+04  0.89905317546E+03 0.  0.
         23    2    4    4    0    0 -0.24818240481E+03  0.75514500519E+03 -0.55173611738E+01  0.80015215844E+03  0.91512569952E+02 0.  0.
         23    2    4    4    0    0  0.35577694464E+03 -0.17774683166E+02 -0.11368145890E+02  0.36769770754E+03  0.90438905815E+02 0.  0.
          2    1    3    3  502    0 -0.76897636330E+02 -0.65913470015E+03 -0.25951094248E+03  0.71254314163E+03  0.00000000000E+00 0. -1.
         -1    1    3    3    0  502 -0.30696903498E+02 -0.78235621872E+02 -0.53083231227E+02  0.99402926776E+02  0.00000000000E+00 0.  1.
         11    1    5    5    0    0 -0.15674480060E+03  0.56665717502E+03 -0.32997437793E+02  0.58886171333E+03  0.00000000000E+00 0.  1.
        -11    1    5    5    0    0 -0.91437604214E+02  0.18848783016E+03  0.27480076619E+02  0.21129044511E+03  0.00000000000E+00 0. -1.
          2    1    6    6  503    0  0.86289477529E+02 -0.18224507394E+02 -0.39715692339E+02  0.96723021148E+02  0.00000000000E+00 0. -1.
         -2    1    6    6    0  503  0.26948746711E+03  0.44982422845E+00  0.28347546449E+02  0.27097468639E+03  0.00000000000E+00 0.  1.
<mgrwt>
<rscale>  0 0.19521873E+04</rscale>
<asrwt>0</asrwt>
<pdfrwt beam="1">  1        2 0.17763659E+00 0.19521873E+04</pdfrwt>
<pdfrwt beam="2">  1       -1 0.12694740E+00 0.19521873E+04</pdfrwt>
<totfact> 0.11551402E+01</totfact>
</mgrwt>
</event>
<event>
12    6  0.8914180E-008  0.2038845E+04  0.7818608E-02  0.8588672E-01
         -1   -1    0    0    0  501 -0.00000000000E+00  0.00000000000E+00  0.88979026534E+03  0.88979026534E+03  0.00000000000E+00 0.  1.
          2   -1    0    0  501    0  0.00000000000E+00 -0.00000000000E+00 -0.11679401561E+04  0.11679401561E+04  0.00000000000E+00 0. -1.
         24    2    1    2    0    0 -0.13394472783E+03 -0.68378924084E+03 -0.54286131805E+03  0.88665024295E+03  0.77080001867E+02 0.  0.
        254    2    1    2    0    0  0.13394472783E+03  0.68378924084E+03  0.26471142727E+03  0.11710801785E+04  0.90324289579E+03 0.  0.
         23    2    4    4    0    0 -0.16667567675E+03 -0.12118814719E+03 -0.81757185153E+02  0.24003564839E+03  0.92008298186E+02 0.  0.
         23    2    4    4    0    0  0.30062040457E+03  0.80497738802E+03  0.34646861242E+03  0.93104453013E+03  0.91881417162E+02 0.  0.
          2    1    3    3  502    0 -0.10253775728E+03 -0.51406238177E+03 -0.44884366779E+03  0.69009764681E+03  0.00000000000E+00 0. -1.
         -1    1    3    3    0  502 -0.31406970552E+02 -0.16972685907E+03 -0.94017650259E+02  0.19655259614E+03  0.00000000000E+00 0.  1.
         11    1    5    5    0    0 -0.10580338654E+03 -0.54048301460E+02 -0.89979811238E+02  0.14903671334E+03  0.00000000000E+00 0.  1.
        -11    1    5    5    0    0 -0.60872290209E+02 -0.67139845726E+02  0.82226260855E+01  0.90998935044E+02  0.00000000000E+00 0. -1.
          4    1    6    6  503    0  0.16783990862E+03  0.54908980361E+03  0.20270458638E+03  0.60889982484E+03  0.00000000000E+00 0. -1.
         -4    1    6    6    0  503  0.13278049595E+03  0.25588758442E+03  0.14376402604E+03  0.32214470529E+03  0.00000000000E+00 0.  1.
<mgrwt>
<rscale>  0 0.20388446E+04</rscale>
<asrwt>0</asrwt>
<pdfrwt beam="1">  1        2 0.17968310E+00 0.20388446E+04</pdfrwt>
<pdfrwt beam="2">  1       -1 0.13689081E+00 0.20388446E+04</pdfrwt>
<totfact> 0.92935509E+00</totfact>
</mgrwt>
</event>
<event>
12    6  0.8914180E-008  0.2930956E+04  0.7818608E-02  0.8263726E-01
         -3   -1    0    0    0  501 -0.00000000000E+00  0.00000000000E+00  0.34295280232E+04  0.34295280232E+04  0.00000000000E+00 0.  1.
          2   -1    0    0  501    0  0.00000000000E+00 -0.00000000000E+00 -0.62621619724E+03  0.62621619724E+03  0.00000000000E+00 0. -1.
         24    2    1    2    0    0  0.22876768400E+03 -0.11915814783E+04  0.20214901871E+04  0.23590331201E+04  0.80085034727E+02 0.  0.
        254    2    1    2    0    0 -0.22876768400E+03  0.11915814783E+04  0.78182163888E+03  0.16967111003E+04  0.89184214429E+03 0.  0.
         23    2    4    4    0    0 -0.13132218535E+03  0.27764338546E+03  0.69953783259E+03  0.76945215921E+03  0.91499072262E+02 0.  0.
         23    2    4    4    0    0 -0.97445498655E+02  0.91393809281E+03  0.82283806285E+02  0.92725894111E+03  0.90884852395E+02 0.  0.
          2    1    3    3  502    0  0.24546712326E+02 -0.82248023578E+02  0.18238727391E+03  0.20157479047E+03  0.00000000000E+00 0. -1.
         -1    1    3    3    0  502  0.20422097168E+03 -0.11093334547E+04  0.18391029132E+04  0.21574583297E+04  0.00000000000E+00 0.  1.
         11    1    5    5    0    0  0.13127372288E+02  0.40230375103E+02  0.10318779801E+03  0.11152816972E+03  0.00000000000E+00 0.  1.
        -11    1    5    5    0    0 -0.14444955764E+03  0.23741301036E+03  0.59635003459E+03  0.65792398949E+03  0.00000000000E+00 0. -1.
          1    1    6    6  503    0 -0.33347482089E+02  0.48393807904E+03  0.85127203459E+02  0.49249848697E+03  0.00000000000E+00 0. -1.
         -1    1    6    6    0  503 -0.64098016566E+02  0.43000001378E+03 -0.28433971746E+01  0.43476045414E+03  0.00000000000E+00 0.  1.
<mgrwt>
<rscale>  0 0.29309562E+04</rscale>
<asrwt>0</asrwt>
<pdfrwt beam="1">  1        2 0.96340955E-01 0.29309562E+04</pdfrwt>
<pdfrwt beam="2">  1       -3 0.52761969E+00 0.29309562E+04</pdfrwt>
<totfact> 0.54507833E-02</totfact>
</mgrwt>
</event>
<event>
12    6  0.8914180E-008  0.2003687E+04  0.7818608E-02  0.8604899E-01
          2   -1    0    0  501    0  0.00000000000E+00  0.00000000000E+00  0.34661677990E+04  0.34661677990E+04  0.00000000000E+00 0. -1.
         -1   -1    0    0    0  501 -0.00000000000E+00 -0.00000000000E+00 -0.28956773998E+03  0.28956773998E+03  0.00000000000E+00 0.  1.
         24    2    1    2    0    0 -0.74616729420E+03  0.13978462320E+03  0.18003132659E+04  0.19554845665E+04  0.80539819148E+02 0.  0.
        254    2    1    2    0    0  0.74616729420E+03 -0.13978462320E+03  0.13762867931E+04  0.18002509725E+04  0.87774304630E+03 0.  0.
         23    2    4    4    0    0  0.98581714718E+02  0.32093528015E+03  0.29865378356E+03  0.45817619123E+03  0.89518329175E+02 0.  0.
         23    2    4    4    0    0  0.64758557948E+03 -0.46071990335E+03  0.10776330096E+04  0.13420747813E+04  0.90784928204E+02 0.  0.
          4    1    3    3  502    0 -0.40040972377E+03  0.90120256413E+02  0.87635277600E+03  0.96770026119E+03  0.00000000000E+00 0. -1.
         -3    1    3    3    0  502 -0.34575757043E+03  0.49664366788E+02  0.92396048993E+03  0.98778430529E+03  0.00000000000E+00 0.  1.
         11    1    5    5    0    0  0.11210358609E+03  0.29993617390E+03  0.28920547898E+03  0.43147274711E+03  0.00000000000E+00 0. -1.
        -11    1    5    5    0    0 -0.13521871371E+02  0.20999106249E+02  0.94483045808E+01  0.26703444124E+02  0.00000000000E+00 0.  1.
          3    1    6    6  503    0  0.42339643135E+03 -0.24863167851E+03  0.67967282175E+03  0.83847325197E+03  0.00000000000E+00 0. -1.
         -3    1    6    6    0  503  0.22418914814E+03 -0.21208822484E+03  0.39796018782E+03  0.50360152933E+03  0.00000000000E+00 0.  1.
<mgrwt>
<rscale>  0 0.20036870E+04</rscale>
<asrwt>0</asrwt>
<pdfrwt beam="1">  1        2 0.53325655E+00 0.20036870E+04</pdfrwt>
<pdfrwt beam="2">  1       -1 0.44548886E-01 0.20036870E+04</pdfrwt>
<totfact> 0.45526997E+00</totfact>
</mgrwt>
</event>
<event>
12    6  0.8914180E-008  0.1623905E+04  0.7818608E-02  0.8805995E-01
          2   -1    0    0  501    0  0.00000000000E+00  0.00000000000E+00  0.17752253929E+04  0.17752253929E+04  0.00000000000E+00 0. -1.
         -1   -1    0    0    0  501 -0.00000000000E+00 -0.00000000000E+00 -0.37137090721E+03  0.37137090721E+03  0.00000000000E+00 0.  1.
         24    2    1    2    0    0 -0.14113448900E+03 -0.41780430270E+03  0.32955077363E+02  0.44955365941E+03  0.80827447236E+02 0.  0.
        254    2    1    2    0    0  0.14113448900E+03  0.41780430270E+03  0.13708994083E+04  0.16970426407E+04  0.89783581867E+03 0.  0.
         23    2    4    4    0    0 -0.17816958053E+03  0.29576465141E+03  0.12834188788E+04  0.13321319814E+04  0.90501210079E+02 0.  0.
         23    2    4    4    0    0  0.31930406952E+03  0.12203965129E+03  0.87480529539E+02  0.36491065929E+03  0.93049346660E+02 0.  0.
          2    1    3    3  502    0 -0.50066821251E+02 -0.19203269894E+03  0.52633509641E+02  0.20531324943E+03  0.00000000000E+00 0. -1.
         -1    1    3    3    0  502 -0.91067667746E+02 -0.22577160375E+03 -0.19678432279E+02  0.24424040998E+03  0.00000000000E+00 0.  1.
         11    1    5    5    0    0 -0.18699586128E+03  0.29236236147E+03  0.12371442490E+04  0.12849004223E+04  0.00000000000E+00 0.  1.
        -11    1    5    5    0    0  0.88262807507E+01  0.34022899362E+01  0.46274629848E+02  0.47231559113E+02  0.00000000000E+00 0. -1.
          3    1    6    6  503    0  0.76913752114E+02  0.72307985101E+02  0.12175178537E+02  0.10626572799E+03  0.00000000000E+00 0. -1.
         -3    1    6    6    0  503  0.24239031741E+03  0.49731666187E+02  0.75305351002E+02  0.25864493130E+03  0.00000000000E+00 0.  1.
<mgrwt>
<rscale>  0 0.16239052E+04</rscale>
<asrwt>0</asrwt>
<pdfrwt beam="1">  1        2 0.27311159E+00 0.16239052E+04</pdfrwt>
<pdfrwt beam="2">  1       -1 0.57133987E-01 0.16239052E+04</pdfrwt>
<totfact> 0.30122842E+01</totfact>
</mgrwt>
</event>
<event>
12    6  0.8914180E-008  0.3886820E+04  0.7818608E-02  0.8027776E-01
         -1   -1    0    0    0  501 -0.00000000000E+00  0.00000000000E+00  0.22798879337E+04  0.22798879337E+04  0.00000000000E+00 0.  1.
          2   -1    0    0  501    0  0.00000000000E+00 -0.00000000000E+00 -0.16565914720E+04  0.16565914720E+04  0.00000000000E+00 0. -1.
         24    2    1    2    0    0  0.16549517003E+04 -0.31334753270E+03  0.10380907926E+04  0.19801148915E+04  0.78553697957E+02 0.  0.
        254    2    1    2    0    0 -0.16549517003E+04  0.31334753270E+03 -0.41479433094E+03  0.19563645142E+04  0.90457502118E+03 0.  0.
         23    2    4    4    0    0 -0.26000390243E+03  0.41631065974E+03 -0.20761736022E+03  0.53948573038E+03  0.83805073388E+02 0.  0.
         23    2    4    4    0    0 -0.13949477978E+04 -0.10296312705E+03 -0.20717697072E+03  0.14168787838E+04  0.90235395421E+02 0.  0.
          2    1    3    3  502    0  0.10201226277E+04 -0.17924129935E+03  0.67995852231E+03  0.12390000852E+04  0.00000000000E+00 0. -1.
         -1    1    3    3    0  502  0.63482907254E+03 -0.13410623335E+03  0.35813227034E+03  0.74111480637E+03  0.00000000000E+00 0.  1.
         11    1    5    5    0    0 -0.53949864028E+01  0.25512615694E+02 -0.31568294997E+02  0.40945777399E+02  0.00000000000E+00 0. -1.
        -11    1    5    5    0    0 -0.25460891603E+03  0.39079804405E+03 -0.17604906522E+03  0.49853995298E+03  0.00000000000E+00 0.  1.
          1    1    6    6  503    0 -0.65255301513E+03 -0.35055933527E+02 -0.53254016839E+02  0.65566023697E+03  0.00000000000E+00 0. -1.
         -1    1    6    6    0  503 -0.74239478270E+03 -0.67907193520E+02 -0.15392295388E+03  0.76121854683E+03  0.00000000000E+00 0.  1.
<mgrwt>
<rscale>  0 0.38868202E+04</rscale>
<asrwt>0</asrwt>
<pdfrwt beam="1">  1        2 0.25486023E+00 0.38868202E+04</pdfrwt>
<pdfrwt beam="2">  1       -1 0.35075199E+00 0.38868202E+04</pdfrwt>
<totfact> 0.14429556E-01</totfact>
</mgrwt>
</event>
<event>
12    6  0.8914180E-008  0.1682362E+04  0.7818608E-02  0.8771488E-01
          2   -1    0    0  501    0  0.00000000000E+00  0.00000000000E+00  0.18823924168E+04  0.18823924168E+04  0.00000000000E+00 0. -1.
         -1   -1    0    0    0  501 -0.00000000000E+00 -0.00000000000E+00 -0.37589701384E+03  0.37589701384E+03  0.00000000000E+00 0.  1.
         24    2    1    2    0    0  0.27246040221E+03 -0.47834522210E+03  0.84701911285E+03  0.10126773153E+04  0.70888257641E+02 0.  0.
        254    2    1    2    0    0 -0.27246040221E+03  0.47834522210E+03  0.65947629009E+03  0.12456121153E+04  0.90199320531E+03 0.  0.
         23    2    4    4    0    0  0.20644684843E+03  0.51516056552E+03  0.41484989069E+03  0.69865040821E+03  0.89449715369E+02 0.  0.
         23    2    4    4    0    0 -0.47890725064E+03 -0.36815343422E+02  0.24462639939E+03  0.54696170714E+03  0.92830542209E+02 0.  0.
          4    1    3    3  502    0  0.81302279023E+02 -0.11743307625E+03  0.27421452550E+03  0.30918310750E+03  0.00000000000E+00 0. -1.
         -3    1    3    3    0  502  0.19115812319E+03 -0.36091214585E+03  0.57280458735E+03  0.70349420778E+03  0.00000000000E+00 0.  1.
         11    1    5    5    0    0  0.18044677589E+02  0.15157732256E+03  0.11142868607E+03  0.18899112990E+03  0.00000000000E+00 0. -1.
        -11    1    5    5    0    0  0.18840217084E+03  0.36358324297E+03  0.30342120463E+03  0.50965927831E+03  0.00000000000E+00 0.  1.
          3    1    6    6  503    0 -0.20092824917E+03 -0.46096432992E+02  0.14278924463E+03  0.25077043452E+03  0.00000000000E+00 0. -1.
         -3    1    6    6    0  503 -0.27797900148E+03  0.92810895697E+01  0.10183715476E+03  0.29619127262E+03  0.00000000000E+00 0.  1.
<mgrwt>
<rscale>  0 0.16823623E+04</rscale>
<asrwt>0</asrwt>
<pdfrwt beam="1">  1        2 0.28959883E+00 0.16823623E+04</pdfrwt>
<pdfrwt beam="2">  1       -1 0.57830311E-01 0.16823623E+04</pdfrwt>
<totfact> 0.25531774E+01</totfact>
</mgrwt>
</event>
<event>
12    6  0.8914180E-008  0.2442505E+04  0.7818608E-02  0.8423760E-01
          2   -1    0    0  501    0  0.00000000000E+00  0.00000000000E+00  0.15077781278E+04  0.15077781278E+04  0.00000000000E+00 0. -1.
         -1   -1    0    0    0  501 -0.00000000000E+00 -0.00000000000E+00 -0.98917558875E+03  0.98917558875E+03  0.00000000000E+00 0.  1.
         24    2    1    2    0    0  0.84940705834E+03 -0.62081878565E+03  0.14810879213E+03  0.10654288610E+04  0.79335541022E+02 0.  0.
        254    2    1    2    0    0 -0.84940705834E+03  0.62081878565E+03  0.37049374695E+03  0.14315248556E+04  0.89726778631E+03 0.  0.
         23    2    4    4    0    0 -0.56398721319E+03  0.83596442893E+03  0.24845002116E+03  0.10425433224E+04  0.90835361758E+02 0.  0.
         23    2    4    4    0    0 -0.28541984515E+03 -0.21514564328E+03  0.12204372579E+03  0.38898153324E+03  0.93058188072E+02 0.  0.
          4    1    3    3  502    0  0.49756598775E+03 -0.41093627833E+03  0.84366910412E+02  0.65081357744E+03  0.00000000000E+00 0. -1.
         -3    1    3    3    0  502  0.35184107059E+03 -0.20988250732E+03  0.63741881715E+02  0.41461528351E+03  0.00000000000E+00 0.  1.
         11    1    5    5    0    0 -0.18758511050E+03  0.22037668200E+03  0.45139483030E+02  0.29290208019E+03  0.00000000000E+00 0. -1.
        -11    1    5    5    0    0 -0.37640210269E+03  0.61558774693E+03  0.20331053813E+03  0.74964124219E+03  0.00000000000E+00 0.  1.
          2    1    6    6  503    0 -0.24448963388E+03 -0.21179300566E+03  0.12722568594E+03  0.34758859804E+03  0.00000000000E+00 0. -1.
         -2    1    6    6    0  503 -0.40930211268E+02 -0.33526376190E+01 -0.51819601510E+01  0.41392935200E+02  0.00000000000E+00 0.  1.
<mgrwt>
<rscale>  0 0.24425047E+04</rscale>
<asrwt>0</asrwt>
<pdfrwt beam="1">  1        2 0.23196586E+00 0.24425047E+04</pdfrwt>
<pdfrwt beam="2">  1       -1 0.15218086E+00 0.24425047E+04</pdfrwt>
<totfact> 0.43035420E+00</totfact>
</mgrwt>
</event>
<event>
12    6  0.8914180E-008  0.1504593E+04  0.7818608E-02  0.8881404E-01
          2   -1    0    0  501    0  0.00000000000E+00  0.00000000000E+00  0.16308523342E+04  0.16308523342E+04  0.00000000000E+00 0. -1.
         -1   -1    0    0    0  501 -0.00000000000E+00 -0.00000000000E+00 -0.34702714576E+03  0.34702714576E+03  0.00000000000E+00 0.  1.
         24    2    1    2    0    0  0.18008530406E+03 -0.41789270029E+03  0.21191309982E+03  0.50845528209E+03  0.80960399672E+02 0.  0.
        254    2    1    2    0    0 -0.18008530406E+03  0.41789270029E+03  0.10719120887E+04  0.14694241979E+04  0.89618464722E+03 0.  0.
         23    2    4    4    0    0  0.20779766180E+03  0.53990308939E+03  0.60762256194E+03  0.84385331712E+03  0.90598172495E+02 0.  0.
         23    2    4    4    0    0 -0.38788296586E+03 -0.12201038910E+03  0.46428952672E+03  0.62557088079E+03  0.10214906765E+03 0.  0.
          4    1    3    3  502    0  0.17760007524E+02 -0.10156481611E+02  0.22654062108E+02  0.30525047354E+02  0.00000000000E+00 0. -1.
         -3    1    3    3    0  502  0.16232529653E+03 -0.40773621868E+03  0.18925903771E+03  0.47793023473E+03  0.00000000000E+00 0.  1.
         11    1    5    5    0    0  0.17076860708E+03  0.45442220954E+03  0.55306887910E+03  0.73589853018E+03  0.00000000000E+00 0.  1.
        -11    1    5    5    0    0  0.37029054722E+02  0.85480879847E+02  0.54553682840E+02  0.10795478695E+03  0.00000000000E+00 0. -1.
          3    1    6    6  503    0 -0.29705985002E+03 -0.94916647867E+02  0.41388723609E+03  0.51822424561E+03  0.00000000000E+00 0. -1.
         -3    1    6    6    0  503 -0.90823115840E+02 -0.27093741230E+02  0.50402290625E+02  0.10734663518E+03  0.00000000000E+00 0.  1.
<mgrwt>
<rscale>  0 0.15045930E+04</rscale>
<asrwt>0</asrwt>
<pdfrwt beam="1">  1        2 0.25090035E+00 0.15045930E+04</pdfrwt>
<pdfrwt beam="2">  1       -1 0.53388793E-01 0.15045930E+04</pdfrwt>
<totfact> 0.41737761E+01</totfact>
</mgrwt>
</event>
<event>
12    6  0.8914180E-008  0.1548765E+04  0.7818608E-02  0.8852657E-01
          2   -1    0    0  501    0  0.00000000000E+00  0.00000000000E+00  0.15678161020E+04  0.15678161020E+04  0.00000000000E+00 0. -1.
         -1   -1    0    0    0  501 -0.00000000000E+00 -0.00000000000E+00 -0.38248636467E+03  0.38248636467E+03  0.00000000000E+00 0.  1.
         24    2    1    2    0    0  0.59506501323E+02 -0.47860757505E+03  0.17487899947E+03  0.51828486715E+03  0.73690599567E+02 0.  0.
        254    2    1    2    0    0 -0.59506501323E+02  0.47860757505E+03  0.10104507379E+04  0.14320175995E+04  0.89278075535E+03 0.  0.
         23    2    4    4    0    0  0.12950224413E+03  0.63156666566E+03  0.97127949838E+03  0.11692389565E+04  0.89936583071E+02 0.  0.
         23    2    4    4    0    0 -0.18900874545E+03 -0.15295909061E+03  0.39171239483E+02  0.26277864305E+03  0.91637546775E+02 0.  0.
          2    1    3    3  502    0  0.13924441920E+02 -0.17625117828E+03  0.27781796973E+02  0.17896981916E+03  0.00000000000E+00 0. -1.
         -1    1    3    3    0  502  0.45582059404E+02 -0.30235639677E+03  0.14709720250E+03  0.33931504798E+03  0.00000000000E+00 0.  1.
         11    1    5    5    0    0  0.17832502416E+02  0.13366619123E+03  0.14429093292E+03  0.19749562563E+03  0.00000000000E+00 0.  1.
        -11    1    5    5    0    0  0.11166974171E+03  0.49790047443E+03  0.82698856547E+03  0.97174333086E+03  0.00000000000E+00 0. -1.
          3    1    6    6  503    0 -0.19884939763E+03 -0.14997709825E+03  0.34357962191E+02  0.25142530204E+03  0.00000000000E+00 0. -1.
         -3    1    6    6    0  503  0.98406521792E+01 -0.29819923644E+01  0.48132772929E+01  0.11353341009E+02  0.00000000000E+00 0.  1.
<mgrwt>
<rscale>  0 0.15487650E+04</rscale>
<asrwt>0</asrwt>
<pdfrwt beam="1">  1        2 0.24120247E+00 0.15487650E+04</pdfrwt>
<pdfrwt beam="2">  1       -1 0.58844057E-01 0.15487650E+04</pdfrwt>
<totfact> 0.37320384E+01</totfact>
</mgrwt>
</event>
<event>
12    6  0.8914180E-008  0.1328158E+04  0.7818608E-02  0.9007529E-01
          2   -1    0    0  501    0  0.00000000000E+00  0.00000000000E+00  0.10501385488E+04  0.10501385488E+04  0.00000000000E+00 0. -1.
         -1   -1    0    0    0  501 -0.00000000000E+00 -0.00000000000E+00 -0.41994561904E+03  0.41994561904E+03  0.00000000000E+00 0.  1.
         24    2    1    2    0    0 -0.18955020555E+03 -0.21785785049E+03 -0.51216644281E+02  0.30412338057E+03  0.80477093097E+02 0.  0.
        254    2    1    2    0    0  0.18955020555E+03  0.21785785049E+03  0.68140957402E+03  0.11659607872E+04  0.90097404312E+03 0.  0.
         23    2    4    4    0    0  0.48279842279E+03  0.34309783451E+03  0.52211131850E+03  0.79631649664E+03  0.10348571315E+03 0.  0.
         23    2    4    4    0    0 -0.29324821724E+03 -0.12523998402E+03  0.15929825552E+03  0.36964429060E+03  0.97884609895E+02 0.  0.
          2    1    3    3  502    0 -0.13376049826E+02 -0.21379316275E+02  0.18377878327E+02  0.31204811891E+02  0.00000000000E+00 0. -1.
         -1    1    3    3    0  502 -0.17617415573E+03 -0.19647853421E+03 -0.69594522608E+02  0.27291856868E+03  0.00000000000E+00 0.  1.
         11    1    5    5    0    0  0.36212500202E+02 -0.13089574702E+01  0.20981241579E+02  0.41872079465E+02  0.00000000000E+00 0.  1.
        -11    1    5    5    0    0  0.44658592259E+03  0.34440679198E+03  0.50113007692E+03  0.75444441717E+03  0.00000000000E+00 0. -1.
          2    1    6    6  503    0 -0.38877444001E+01 -0.45647864875E+01 -0.11246075175E+02  0.12744647466E+02  0.00000000000E+00 0.  1.
         -2    1    6    6    0  503 -0.28936047284E+03 -0.12067519753E+03  0.17054433069E+03  0.35689964314E+03  0.00000000000E+00 0. -1.
<mgrwt>
<rscale>  0 0.13281582E+04</rscale>
<asrwt>0</asrwt>
<pdfrwt beam="1">  1        2 0.16155978E+00 0.13281582E+04</pdfrwt>
<pdfrwt beam="2">  1       -1 0.64607019E-01 0.13281582E+04</pdfrwt>
<totfact> 0.63445548E+01</totfact>
</mgrwt>
</event>
<event>
12    6  0.8914180E-008  0.2723084E+04  0.7818608E-02  0.8327554E-01
          2   -1    0    0  501    0  0.00000000000E+00  0.00000000000E+00  0.82512382552E+03  0.82512382552E+03  0.00000000000E+00 0. -1.
         -1   -1    0    0    0  501 -0.00000000000E+00 -0.00000000000E+00 -0.22466896562E+04  0.22466896562E+04  0.00000000000E+00 0.  1.
         24    2    1    2    0    0 -0.22860962239E+03  0.11517873302E+04 -0.30455778648E+03  0.12157820229E+04  0.80585782307E+02 0.  0.
        254    2    1    2    0    0  0.22860962239E+03 -0.11517873302E+04 -0.11170080441E+04  0.18560314588E+04  0.90458244058E+03 0.  0.
         23    2    4    4    0    0  0.52289399780E+03 -0.38306394670E+03 -0.46124640530E+03  0.80003367324E+03  0.84554785234E+02 0.  0.
         23    2    4    4    0    0 -0.29428437542E+03 -0.76872338354E+03 -0.65576163884E+03  0.10559977856E+04  0.87000357008E+02 0.  0.
          4    1    3    3  502    0 -0.14910271655E+03  0.74005826657E+03 -0.23542457356E+03  0.79078605693E+03  0.00000000000E+00 0. -1.
         -3    1    3    3    0  502 -0.79506905839E+02  0.41172906367E+03 -0.69133212920E+02  0.42499596595E+03  0.00000000000E+00 0.  1.
         11    1    5    5    0    0  0.47064969328E+03 -0.31002433661E+03 -0.38932698192E+03  0.68498300850E+03  0.00000000000E+00 0.  1.
        -11    1    5    5    0    0  0.52244304518E+02 -0.73039610094E+02 -0.71919423384E+02  0.11505066474E+03  0.00000000000E+00 0. -1.
          2    1    6    6  503    0 -0.71118626309E+02 -0.30270925987E+03 -0.23984642222E+03  0.39270480169E+03  0.00000000000E+00 0. -1.
         -2    1    6    6    0  503 -0.22316574911E+03 -0.46601412366E+03 -0.41591521663E+03  0.66329298387E+03  0.00000000000E+00 0.  1.
<mgrwt>
<rscale>  0 0.27230844E+04</rscale>
<asrwt>0</asrwt>
<pdfrwt beam="1">  1        2 0.12694213E+00 0.27230844E+04</pdfrwt>
<pdfrwt beam="2">  1       -1 0.34564455E+00 0.27230844E+04</pdfrwt>
<totfact> 0.54785130E-01</totfact>
</mgrwt>
</event>
<event>
12    6  0.8914180E-008  0.2345006E+04  0.7818608E-02  0.8460384E-01
          2   -1    0    0  501    0  0.00000000000E+00  0.00000000000E+00  0.20580313661E+04  0.20580313661E+04  0.00000000000E+00 0. -1.
         -1   -1    0    0    0  501 -0.00000000000E+00 -0.00000000000E+00 -0.66799914761E+03  0.66799914761E+03  0.00000000000E+00 0.  1.
         24    2    1    2    0    0  0.68263431407E+03  0.71116505640E+02  0.14356720936E+04  0.15931256855E+04  0.76471729006E+02 0.  0.
        254    2    1    2    0    0 -0.68263431407E+03 -0.71116505640E+02 -0.45639875114E+02  0.11329048282E+04  0.90019063952E+03 0.  0.
         23    2    4    4    0    0 -0.51574193177E+03  0.25798438673E+02 -0.43975306643E+03  0.68488870833E+03  0.95049901325E+02 0.  0.
         23    2    4    4    0    0 -0.16689238231E+03 -0.96914944312E+02  0.39411319132E+03  0.44801611989E+03  0.90264402775E+02 0.  0.
          4    1    3    3  502    0  0.62816031208E+03  0.45345387270E+02  0.13268603671E+04  0.14687409628E+04  0.00000000000E+00 0. -1.
         -3    1    3    3    0  502  0.54474001993E+02  0.25771118369E+02  0.10881172652E+03  0.12438472279E+03  0.00000000000E+00 0.  1.
         11    1    5    5    0    0 -0.32724092766E+03 -0.10197390818E+02 -0.22714460068E+03  0.39847870851E+03  0.00000000000E+00 0. -1.
        -11    1    5    5    0    0 -0.18850100411E+03  0.35995829491E+02 -0.21260846575E+03  0.28640999982E+03  0.00000000000E+00 0.  1.
          2    1    6    6  503    0 -0.14757817042E+03 -0.95068985518E+02  0.39068521305E+03  0.42831339471E+03  0.00000000000E+00 0. -1.
         -2    1    6    6    0  503 -0.19314211883E+02 -0.18459587943E+01  0.34279782691E+01  0.19702725181E+02  0.00000000000E+00 0.  1.
<mgrwt>
<rscale>  0 0.23450059E+04</rscale>
<asrwt>0</asrwt>
<pdfrwt beam="1">  1        2 0.31662021E+00 0.23450059E+04</pdfrwt>
<pdfrwt beam="2">  1       -1 0.10276910E+00 0.23450059E+04</pdfrwt>
<totfact> 0.57047232E+00</totfact>
</mgrwt>
</event>
<event>
12    6  0.8914180E-008  0.2053436E+04  0.7818608E-02  0.8582037E-01
         -1   -1    0    0    0  501 -0.00000000000E+00  0.00000000000E+00  0.82369314574E+03  0.82369314574E+03  0.00000000000E+00 0.  1.
          2   -1    0    0  501    0  0.00000000000E+00 -0.00000000000E+00 -0.12797841386E+04  0.12797841386E+04  0.00000000000E+00 0. -1.
         24    2    1    2    0    0  0.51639135893E+03  0.16621032225E+02  0.47266422593E+03  0.70474317006E+03  0.79468050071E+02 0.  0.
        254    2    1    2    0    0 -0.51639135893E+03 -0.16621032225E+02 -0.92875521878E+03  0.13987341143E+04  0.90935942932E+03 0.  0.
         23    2    4    4    0    0 -0.19137552008E+03 -0.21622088010E+03  0.83161224331E+02  0.31359981298E+03  0.89738479998E+02 0.  0.
         23    2    4    4    0    0 -0.32501583886E+03  0.19959984787E+03 -0.10119164431E+04  0.10851343013E+04  0.89811854468E+02 0.  0.
          4    1    3    3  502    0  0.35973224741E+03  0.14760136154E+01  0.37430385277E+03  0.51914626325E+03  0.00000000000E+00 0. -1.
         -3    1    3    3    0  502  0.15665911152E+03  0.15145018610E+02  0.98360373162E+02  0.18559690682E+03  0.00000000000E+00 0.  1.
         11    1    5    5    0    0 -0.65485451407E+02 -0.54173615603E+02  0.66142602808E+02  0.10769386649E+03  0.00000000000E+00 0. -1.
        -11    1    5    5    0    0 -0.12589006867E+03 -0.16204726450E+03  0.17018621522E+02  0.20590594649E+03  0.00000000000E+00 0.  1.
          2    1    6    6  503    0 -0.31318023988E+03  0.20375394520E+03 -0.92972249059E+03  0.10019887436E+04  0.00000000000E+00 0.  1.
         -2    1    6    6    0  503 -0.11835598976E+02 -0.41540973258E+01 -0.82193952521E+02  0.83145557661E+02  0.00000000000E+00 0. -1.
<mgrwt>
<rscale>  0 0.20534356E+04</rscale>
<asrwt>0</asrwt>
<pdfrwt beam="1">  1        2 0.19688987E+00 0.20534356E+04</pdfrwt>
<pdfrwt beam="2">  1       -1 0.12672202E+00 0.20534356E+04</pdfrwt>
<totfact> 0.96885188E+00</totfact>
</mgrwt>
</event>
<event>
12    6  0.8914180E-008  0.1096295E+04  0.7818608E-02  0.9208810E-01
         -1   -1    0    0    0  501 -0.00000000000E+00  0.00000000000E+00  0.10969289101E+03  0.10969289101E+03  0.00000000000E+00 0.  1.
          2   -1    0    0  501    0  0.00000000000E+00 -0.00000000000E+00 -0.27391560420E+04  0.27391560420E+04  0.00000000000E+00 0. -1.
         24    2    1    2    0    0  0.44651561874E+02  0.40872874941E+02 -0.78289509542E+02  0.13901726438E+03  0.97632979098E+02 0.  0.
        254    2    1    2    0    0 -0.44651561874E+02 -0.40872874941E+02 -0.25511736414E+04  0.27098316686E+04  0.91161196219E+03 0.  0.
         23    2    4    4    0    0  0.27264933949E+01 -0.21178740345E+03 -0.24912333430E+04  0.25018766569E+04  0.91004940118E+02 0.  0.
         23    2    4    4    0    0 -0.47378055269E+02  0.17091452851E+03 -0.59940298470E+02  0.20795501173E+03  0.90531714591E+02 0.  0.
          4    1    3    3  502    0  0.41730536086E+02  0.12430620600E+02 -0.95980052240E+02  0.10539510614E+03  0.00000000000E+00 0. -1.
         -3    1    3    3    0  502  0.29210257888E+01  0.28442254341E+02  0.17690542698E+02  0.33622158239E+02  0.00000000000E+00 0.  1.
         11    1    5    5    0    0 -0.82974267080E+01 -0.17794142137E+02 -0.65647017613E+02  0.68520140877E+02  0.00000000000E+00 0. -1.
        -11    1    5    5    0    0  0.11023920103E+02 -0.19399326132E+03 -0.24255863254E+04  0.24333565160E+04  0.00000000000E+00 0.  1.
          3    1    6    6  503    0  0.18362577515E+01  0.10780542107E+02 -0.37343667200E+02  0.38911970016E+02  0.00000000000E+00 0. -1.
         -3    1    6    6    0  503 -0.49214313021E+02  0.16013398641E+03 -0.22596631271E+02  0.16904304172E+03  0.00000000000E+00 0.  1.
<mgrwt>
<rscale>  0 0.10962955E+04</rscale>
<asrwt>0</asrwt>
<pdfrwt beam="1">  1        2 0.42140857E+00 0.10962955E+04</pdfrwt>
<pdfrwt beam="2">  1       -1 0.16875832E-01 0.10962955E+04</pdfrwt>
<totfact> 0.78238042E+01</totfact>
</mgrwt>
</event>
<event>
12    6  0.8914180E-008  0.1498000E+04  0.7818608E-02  0.8885784E-01
         -1   -1    0    0    0  501 -0.00000000000E+00  0.00000000000E+00  0.48156039968E+03  0.48156039968E+03  0.00000000000E+00 0.  1.
          2   -1    0    0  501    0  0.00000000000E+00 -0.00000000000E+00 -0.11649642097E+04  0.11649642097E+04  0.00000000000E+00 0. -1.
         24    2    1    2    0    0  0.32337465064E+02 -0.37304729071E+03 -0.52718242506E+03  0.65125565552E+03  0.77476620946E+02 0.  0.
        254    2    1    2    0    0 -0.32337465064E+02  0.37304729071E+03 -0.15622138491E+03  0.99526895382E+03  0.90881525987E+03 0.  0.
         23    2    4    4    0    0 -0.45315587971E+03  0.28726830564E+03 -0.97005202245E+02  0.55211018988E+03  0.86846541474E+02 0.  0.
         23    2    4    4    0    0  0.42081841464E+03  0.85778985078E+02 -0.59216182667E+02  0.44315876394E+03  0.91852933469E+02 0.  0.
          2    1    3    3  502    0  0.13098710865E+01 -0.27104622804E+03 -0.42155787705E+03  0.50117743085E+03  0.00000000000E+00 0. -1.
         -1    1    3    3    0  502  0.31027593978E+02 -0.10200106268E+03 -0.10562454802E+03  0.15007822467E+03  0.00000000000E+00 0.  1.
         11    1    5    5    0    0 -0.55448636029E+02  0.54303796955E+02  0.11860625094E+02  0.78511961056E+02  0.00000000000E+00 0.  1.
        -11    1    5    5    0    0 -0.39770724368E+03  0.23296450868E+03 -0.10886582734E+03  0.47359822882E+03  0.00000000000E+00 0. -1.
          4    1    6    6  503    0  0.32143599127E+03  0.28230860046E+02 -0.26562426290E+02  0.32376479183E+03  0.00000000000E+00 0. -1.
         -4    1    6    6    0  503  0.99382423378E+02  0.57548125032E+02 -0.32653756377E+02  0.11939397211E+03  0.00000000000E+00 0.  1.
<mgrwt>
<rscale>  0 0.14979995E+04</rscale>
<asrwt>0</asrwt>
<pdfrwt beam="1">  1        2 0.17922526E+00 0.14979995E+04</pdfrwt>
<pdfrwt beam="2">  1       -1 0.74086216E-01 0.14979995E+04</pdfrwt>
<totfact> 0.40195319E+01</totfact>
</mgrwt>
</event>
<event>
12    6  0.8914180E-008  0.1502299E+04  0.7818608E-02  0.8882926E-01
          2   -1    0    0  501    0  0.00000000000E+00  0.00000000000E+00  0.86813983800E+03  0.86813983800E+03  0.00000000000E+00 0. -1.
         -3   -1    0    0    0  501 -0.00000000000E+00 -0.00000000000E+00 -0.64992471568E+03  0.64992471568E+03  0.00000000000E+00 0.  1.
         24    2    1    2    0    0 -0.40237543310E+03  0.92488973142E+02  0.30980112601E+03  0.52239329936E+03  0.80360576322E+02 0.  0.
        254    2    1    2    0    0  0.40237543310E+03 -0.92488973142E+02 -0.91586003700E+02  0.99567125432E+03  0.90139505839E+03 0.  0.
         23    2    4    4    0    0  0.50350184420E+03  0.27615448734E+03  0.35429628745E+02  0.58253101972E+03  0.91168647837E+02 0.  0.
         23    2    4    4    0    0 -0.10112641111E+03 -0.36864346048E+03 -0.12701563244E+03  0.41314023460E+03  0.91800493340E+02 0.  0.
          4    1    3    3  502    0 -0.12851149857E+03  0.16474632835E+02  0.55258885957E+02  0.14085511446E+03  0.00000000000E+00 0. -1.
         -3    1    3    3    0  502 -0.27386393452E+03  0.76014340307E+02  0.25454224006E+03  0.38153818490E+03  0.00000000000E+00 0.  1.
         11    1    5    5    0    0  0.40180644413E+03  0.18454050301E+03  0.49563262141E+02  0.44492710948E+03  0.00000000000E+00 0. -1.
        -11    1    5    5    0    0  0.10169540008E+03  0.91613984328E+02 -0.14133633396E+02  0.13760391024E+03  0.00000000000E+00 0.  1.
          3    1    6    6  503    0 -0.60403400793E+02 -0.13602361357E+03 -0.90469850143E+02  0.17417172004E+03  0.00000000000E+00 0. -1.
         -3    1    6    6    0  503 -0.40723010317E+02 -0.23261984691E+03 -0.36545782301E+02  0.23896851456E+03  0.00000000000E+00 0.  1.
<mgrwt>
<rscale>  0 0.15022990E+04</rscale>
<asrwt>0</asrwt>
<pdfrwt beam="1">  1        2 0.13355997E+00 0.15022990E+04</pdfrwt>
<pdfrwt beam="2">  1       -3 0.99988418E-01 0.15022990E+04</pdfrwt>
<totfact> 0.16481927E+01</totfact>
</mgrwt>
</event>
<event>
12    6  0.8914180E-008  0.1954675E+04  0.7818608E-02  0.8628110E-01
          2   -1    0    0  501    0  0.00000000000E+00  0.00000000000E+00  0.22451463341E+04  0.22451463341E+04  0.00000000000E+00 0. -1.
         -1   -1    0    0    0  501 -0.00000000000E+00 -0.00000000000E+00 -0.42544618220E+03  0.42544618220E+03  0.00000000000E+00 0.  1.
         24    2    1    2    0    0 -0.76083889036E+03 -0.10790240577E+03  0.74270978067E+03  0.10716383689E+04  0.79197406554E+02 0.  0.
        254    2    1    2    0    0  0.76083889036E+03  0.10790240577E+03  0.10769903713E+04  0.15989541474E+04  0.89790164242E+03 0.  0.
         23    2    4    4    0    0 -0.27168446093E+02 -0.37594398758E+02  0.70217308368E+03  0.71010804191E+03  0.95157387829E+02 0.  0.
         23    2    4    4    0    0  0.78800733645E+03  0.14549680453E+03  0.37481728758E+03  0.88884610549E+03  0.86223649587E+02 0.  0.
          2    1    3    3  502    0 -0.25250778534E+03 -0.47077540885E+01  0.21478577680E+03  0.33153472597E+03  0.00000000000E+00 0. -1.
         -1    1    3    3    0  502 -0.50833110502E+03 -0.10319465168E+03  0.52792400387E+03  0.74010364296E+03  0.00000000000E+00 0.  1.
         11    1    5    5    0    0 -0.54324391618E+02 -0.42032653170E+01  0.52333695710E+03  0.52616573210E+03  0.00000000000E+00 0.  1.
        -11    1    5    5    0    0  0.27155945525E+02 -0.33391133441E+02  0.17883612658E+03  0.18394230981E+03  0.00000000000E+00 0. -1.
          3    1    6    6  503    0  0.14320968449E+03  0.60874370952E+02  0.74509109220E+02  0.17252915732E+03  0.00000000000E+00 0. -1.
         -3    1    6    6    0  503  0.64479765196E+03  0.84622433574E+02  0.30030817836E+03  0.71631694817E+03  0.00000000000E+00 0.  1.
<mgrwt>
<rscale>  0 0.19546754E+04</rscale>
<asrwt>0</asrwt>
<pdfrwt beam="1">  1        2 0.34540712E+00 0.19546754E+04</pdfrwt>
<pdfrwt beam="2">  1       -1 0.65453260E-01 0.19546754E+04</pdfrwt>
<totfact> 0.12234561E+01</totfact>
</mgrwt>
</event>
<event>
12    6  0.8914180E-008  0.1646574E+04  0.7818608E-02  0.8792436E-01
          2   -1    0    0  501    0  0.00000000000E+00  0.00000000000E+00  0.15619552158E+04  0.15619552158E+04  0.00000000000E+00 0. -1.
         -1   -1    0    0    0  501 -0.00000000000E+00 -0.00000000000E+00 -0.43394415130E+03  0.43394415130E+03  0.00000000000E+00 0.  1.
         24    2    1    2    0    0  0.15397155475E+03 -0.54611698323E+03  0.29386582376E+03  0.64401556768E+03  0.80299003683E+02 0.  0.
        254    2    1    2    0    0 -0.15397155475E+03  0.54611698323E+03  0.83414524070E+03  0.13518837994E+04  0.89991139864E+03 0.  0.
         23    2    4    4    0    0 -0.19326675020E+03  0.71592876088E+03  0.34164699361E+03  0.82161224514E+03  0.91749581668E+02 0.  0.
         23    2    4    4    0    0  0.39295195451E+02 -0.16981177764E+03  0.49249824710E+03  0.53027155425E+03  0.90847375528E+02 0.  0.
          2    1    3    3  502    0  0.54757706788E+02 -0.16319534653E+03  0.49726800209E+02  0.17917556262E+03  0.00000000000E+00 0. -1.
         -1    1    3    3    0  502  0.99213847964E+02 -0.38292163671E+03  0.24413902355E+03  0.46484000506E+03  0.00000000000E+00 0.  1.
         11    1    5    5    0    0  0.13193943231E+01  0.11221859025E+03  0.38955402134E+02  0.11879510156E+03  0.00000000000E+00 0. -1.
        -11    1    5    5    0    0 -0.19458614453E+03  0.60371017062E+03  0.30269159147E+03  0.70281714357E+03  0.00000000000E+00 0.  1.
          4    1    6    6  503    0  0.10599798202E+02 -0.21628654832E+02  0.12571404639E+02  0.27169737694E+02  0.00000000000E+00 0. -1.
         -4    1    6    6    0  503  0.28695397249E+02 -0.14818312281E+03  0.47992684246E+03  0.50310181655E+03  0.00000000000E+00 0.  1.
<mgrwt>
<rscale>  0 0.16465738E+04</rscale>
<asrwt>0</asrwt>
<pdfrwt beam="1">  1        2 0.24030080E+00 0.16465738E+04</pdfrwt>
<pdfrwt beam="2">  1       -1 0.66760639E-01 0.16465738E+04</pdfrwt>
<totfact> 0.28987627E+01</totfact>
</mgrwt>
</event>
<event>
12    6  0.8914180E-008  0.1292726E+04  0.7818608E-02  0.9035354E-01
         -1   -1    0    0    0  501 -0.00000000000E+00  0.00000000000E+00  0.27820820988E+03  0.27820820988E+03  0.00000000000E+00 0.  1.
          2   -1    0    0  501    0  0.00000000000E+00 -0.00000000000E+00 -0.15016991169E+04  0.15016991169E+04  0.00000000000E+00 0. -1.
         24    2    1    2    0    0  0.38539486065E+02  0.14763870057E+03 -0.70457687288E+03  0.72505229915E+03  0.77393725932E+02 0.  0.
        254    2    1    2    0    0 -0.38539486065E+02 -0.14763870057E+03 -0.51891403415E+03  0.10548550277E+04  0.90562954713E+03 0.  0.
         23    2    4    4    0    0 -0.18284132418E+03  0.94577131488E+02  0.18480109555E+03  0.29132359066E+03  0.91335677184E+02 0.  0.
         23    2    4    4    0    0  0.14430183812E+03 -0.24221583205E+03 -0.70371512970E+03  0.76353143700E+03  0.90960110620E+02 0.  0.
          4    1    3    3  502    0 -0.15885434738E+01  0.12310580333E+03 -0.47405583794E+03  0.48978209417E+03  0.00000000000E+00 0. -1.
         -3    1    3    3    0  502  0.40128029539E+02  0.24532897234E+02 -0.23052103494E+03  0.23527020498E+03  0.00000000000E+00 0.  1.
         11    1    5    5    0    0 -0.15116965355E+03  0.11189385279E+03  0.14418040569E+03  0.23698204115E+03  0.00000000000E+00 0.  1.
        -11    1    5    5    0    0 -0.31671670631E+02 -0.17316721298E+02  0.40620689866E+02  0.54341549502E+02  0.00000000000E+00 0. -1.
          3    1    6    6  503    0 -0.79809123226E+01 -0.23604557821E+02 -0.10987731135E+03  0.11266718094E+03  0.00000000000E+00 0. -1.
         -3    1    6    6    0  503  0.15228275044E+03 -0.21861127423E+03 -0.59383781836E+03  0.65086425606E+03  0.00000000000E+00 0.  1.
<mgrwt>
<rscale>  0 0.12927258E+04</rscale>
<asrwt>0</asrwt>
<pdfrwt beam="1">  1        2 0.23103063E+00 0.12927258E+04</pdfrwt>
<pdfrwt beam="2">  1       -1 0.42801263E-01 0.12927258E+04</pdfrwt>
<totfact> 0.76068030E+01</totfact>
</mgrwt>
</event>
<event>
12    6  0.8914180E-008  0.1072723E+04  0.7818608E-02  0.9232194E-01
          2   -1    0    0  501    0  0.00000000000E+00  0.00000000000E+00  0.51872034492E+03  0.51872034492E+03  0.00000000000E+00 0. -1.
         -1   -1    0    0    0  501 -0.00000000000E+00 -0.00000000000E+00 -0.55460216330E+03  0.55460216330E+03  0.00000000000E+00 0.  1.
         24    2    1    2    0    0 -0.31837097100E+02  0.13881145849E+03  0.31873955714E+02  0.16678798248E+03  0.80746890262E+02 0.  0.
        254    2    1    2    0    0  0.31837097100E+02 -0.13881145849E+03 -0.67755774101E+02  0.90653452575E+03  0.89271035599E+03 0.  0.
         23    2    4    4    0    0 -0.13496043431E+03 -0.44694332949E+03  0.13053378773E+03  0.49328507621E+03  0.91205471695E+02 0.  0.
         23    2    4    4    0    0  0.16679753141E+03  0.30813187100E+03 -0.19828956183E+03  0.41324944954E+03  0.93218511022E+02 0.  0.
          4    1    3    3  502    0  0.27415426070E+02  0.40871297052E+02  0.11064005162E+02  0.50442846069E+02  0.00000000000E+00 0. -1.
         -3    1    3    3    0  502 -0.59252523170E+02  0.97940161434E+02  0.20809950551E+02  0.11634513641E+03  0.00000000000E+00 0.  1.
         11    1    5    5    0    0 -0.47420126202E+01 -0.24852066830E+02  0.31847346817E+02  0.40673890995E+02  0.00000000000E+00 0. -1.
        -11    1    5    5    0    0 -0.13021842169E+03 -0.42209126266E+03  0.98686440915E+02  0.45261118521E+03  0.00000000000E+00 0.  1.
          1    1    6    6  503    0  0.17832948133E+02  0.13955914471E+02  0.83208412423E+01  0.24125048949E+02  0.00000000000E+00 0. -1.
         -1    1    6    6    0  503  0.14896458328E+03  0.29417595653E+03 -0.20661040308E+03  0.38912440059E+03  0.00000000000E+00 0.  1.
<mgrwt>
<rscale>  0 0.10727226E+04</rscale>
<asrwt>0</asrwt>
<pdfrwt beam="1">  1        2 0.79803129E-01 0.10727226E+04</pdfrwt>
<pdfrwt beam="2">  1       -1 0.85323411E-01 0.10727226E+04</pdfrwt>
<totfact> 0.91133287E+01</totfact>
</mgrwt>
</event>
<event>
12    6  0.8914180E-008  0.1190162E+04  0.7818608E-02  0.9121511E-01
          2   -1    0    0  501    0  0.00000000000E+00  0.00000000000E+00  0.43744241014E+03  0.43744241014E+03  0.00000000000E+00 0. -1.
         -1   -1    0    0    0  501 -0.00000000000E+00 -0.00000000000E+00 -0.80952709837E+03  0.80952709837E+03  0.00000000000E+00 0.  1.
         24    2    1    2    0    0  0.23532817767E+03  0.49113249647E+02 -0.47491801941E+02  0.25865204822E+03  0.82788575889E+02 0.  0.
        254    2    1    2    0    0 -0.23532817767E+03 -0.49113249647E+02 -0.32459288629E+03  0.98831746030E+03  0.90200853544E+03 0.  0.
         23    2    4    4    0    0 -0.82322427487E+02 -0.41180786382E+03  0.55274098289E+02  0.43392023114E+03  0.94174530946E+02 0.  0.
         23    2    4    4    0    0 -0.15300575019E+03  0.36269461418E+03 -0.37986698458E+03  0.55439722916E+03  0.89995660893E+02 0.  0.
          2    1    3    3  502    0  0.16379037238E+03  0.40314216513E+02  0.61720862821E+01  0.16879163719E+03  0.00000000000E+00 0. -1.
         -1    1    3    3    0  502  0.71537805295E+02  0.87990331336E+01 -0.53663888223E+02  0.89860411026E+02  0.00000000000E+00 0.  1.
         11    1    5    5    0    0 -0.82197167786E+02 -0.25407899903E+03  0.78675699106E+00  0.26704518555E+03  0.00000000000E+00 0.  1.
        -11    1    5    5    0    0 -0.12525970112E+00 -0.15772886480E+03  0.54487341298E+02  0.16687504559E+03  0.00000000000E+00 0. -1.
          2    1    6    6  503    0 -0.63959753601E+02  0.84719985611E+02 -0.14525037710E+03  0.17990552545E+03  0.00000000000E+00 0. -1.
         -2    1    6    6    0  503 -0.89045996585E+02  0.27797462857E+03 -0.23461660748E+03  0.37449170370E+03  0.00000000000E+00 0.  1.
<mgrwt>
<rscale>  0 0.11901621E+04</rscale>
<asrwt>0</asrwt>
<pdfrwt beam="1">  1        2 0.67298833E-01 0.11901621E+04</pdfrwt>
<pdfrwt beam="2">  1       -1 0.12454263E+00 0.11901621E+04</pdfrwt>
<totfact> 0.45848864E+01</totfact>
</mgrwt>
</event>
<event>
12    6  0.8914180E-008  0.1616941E+04  0.7818608E-02  0.8810208E-01
         -1   -1    0    0    0  501 -0.00000000000E+00  0.00000000000E+00  0.11676052271E+04  0.11676052271E+04  0.00000000000E+00 0.  1.
          2   -1    0    0  501    0  0.00000000000E+00 -0.00000000000E+00 -0.55979906057E+03  0.55979906057E+03  0.00000000000E+00 0. -1.
         24    2    1    2    0    0 -0.35115754069E+03  0.33871671614E+03 -0.59596103600E+02  0.49821647471E+03  0.81408402114E+02 0.  0.
        254    2    1    2    0    0  0.35115754069E+03 -0.33871671614E+03  0.66740227017E+03  0.12291878130E+04  0.90963523307E+03 0.  0.
         23    2    4    4    0    0  0.63029868308E+03 -0.22019795040E+03  0.28316851009E+03  0.73094049931E+03  0.91247143408E+02 0.  0.
         23    2    4    4    0    0 -0.27914114239E+03 -0.11851876574E+03  0.38423376009E+03  0.49824731370E+03  0.92996387063E+02 0.  0.
          4    1    3    3  502    0 -0.22674080030E+03  0.24183327252E+03 -0.56404103148E+01  0.33155171006E+03  0.00000000000E+00 0. -1.
         -3    1    3    3    0  502 -0.12441674039E+03  0.96883443616E+02 -0.53955693286E+02  0.16666476465E+03  0.00000000000E+00 0.  1.
         11    1    5    5    0    0  0.61427651326E+03 -0.22836793492E+03  0.28007351262E+03  0.71269118200E+03  0.00000000000E+00 0. -1.
        -11    1    5    5    0    0  0.16022169822E+02  0.81699845206E+01  0.30949974713E+01  0.18249317308E+02  0.00000000000E+00 0.  1.
          3    1    6    6  503    0 -0.21265364223E+03 -0.44959822020E+02  0.24831163489E+03  0.33000246237E+03  0.00000000000E+00 0. -1.
         -3    1    6    6    0  503 -0.66487500159E+02 -0.73558943721E+02  0.13592212520E+03  0.16824485132E+03  0.00000000000E+00 0.  1.
<mgrwt>
<rscale>  0 0.16169407E+04</rscale>
<asrwt>0</asrwt>
<pdfrwt beam="1">  1        2 0.86122933E-01 0.16169407E+04</pdfrwt>
<pdfrwt beam="2">  1       -1 0.17963157E+00 0.16169407E+04</pdfrwt>
<totfact> 0.12351189E+01</totfact>
</mgrwt>
</event>
<event>
12    6  0.8914180E-008  0.2074020E+04  0.7818608E-02  0.8572775E-01
         -3   -1    0    0    0  501 -0.00000000000E+00  0.00000000000E+00  0.87969783598E+03  0.87969783598E+03  0.00000000000E+00 0.  1.
          2   -1    0    0  501    0  0.00000000000E+00 -0.00000000000E+00 -0.12224533786E+04  0.12224533786E+04  0.00000000000E+00 0. -1.
         24    2    1    2    0    0 -0.24025425636E+03 -0.77235471522E+03  0.11459578197E+03  0.82093106686E+03  0.80880835000E+02 0.  0.
        254    2    1    2    0    0  0.24025425636E+03  0.77235471522E+03 -0.45735132456E+03  0.12812201477E+04  0.88210028847E+03 0.  0.
         23    2    4    4    0    0 -0.15936707684E+03  0.65303590703E+03 -0.51056421864E+03  0.84906787705E+03  0.91578804487E+02 0.  0.
         23    2    4    4    0    0  0.39962133320E+03  0.11931880819E+03  0.53212894075E+02  0.43215227063E+03  0.99948911860E+02 0.  0.
          2    1    3    3  502    0 -0.13042850764E+02 -0.30499745243E+02 -0.11028848635E+02  0.34956915169E+02  0.00000000000E+00 0. -1.
         -1    1    3    3    0  502 -0.22721140560E+03 -0.74185496998E+03  0.12562463061E+03  0.78597415170E+03  0.00000000000E+00 0.  1.
         11    1    5    5    0    0 -0.11211811407E+03  0.57709817289E+03 -0.42626822670E+03  0.72616621634E+03  0.00000000000E+00 0.  1.
        -11    1    5    5    0    0 -0.47248962762E+02  0.75937734140E+02 -0.84295991939E+02  0.12290166071E+03  0.00000000000E+00 0. -1.
          2    1    6    6  503    0  0.12015501352E+03  0.80880939788E+02  0.37504280166E+02  0.14961792916E+03  0.00000000000E+00 0. -1.
         -2    1    6    6    0  503  0.27946631967E+03  0.38437868403E+02  0.15708613909E+02  0.28253434147E+03  0.00000000000E+00 0.  1.
<mgrwt>
<rscale>  0 0.20740199E+04</rscale>
<asrwt>0</asrwt>
<pdfrwt beam="1">  1        2 0.18806975E+00 0.20740199E+04</pdfrwt>
<pdfrwt beam="2">  1       -3 0.13533813E+00 0.20740199E+04</pdfrwt>
<totfact> 0.45075866E+00</totfact>
</mgrwt>
</event>
<event>
12    6  0.8914180E-008  0.4548898E+04  0.7818608E-02  0.7902132E-01
         -1   -1    0    0    0  501 -0.00000000000E+00  0.00000000000E+00  0.34421234096E+04  0.34421234096E+04  0.00000000000E+00 0.  1.
          2   -1    0    0  501    0  0.00000000000E+00 -0.00000000000E+00 -0.15028855804E+04  0.15028855804E+04  0.00000000000E+00 0. -1.
         24    2    1    2    0    0 -0.18500643885E+04  0.11375841607E+04  0.11726278471E+04  0.24694332355E+04  0.78793859674E+02 0.  0.
        254    2    1    2    0    0  0.18500643885E+04 -0.11375841607E+04  0.76660998206E+03  0.24755757545E+04  0.90771608300E+03 0.  0.
         23    2    4    4    0    0  0.57373749791E+03 -0.86478550273E+03  0.26410793545E+03  0.10740853467E+04  0.82931587436E+02 0.  0.
         23    2    4    4    0    0  0.12763268906E+04 -0.27279865798E+03  0.50250204661E+03  0.14014904078E+04  0.90761317975E+02 0.  0.
          4    1    3    3  502    0 -0.73236488088E+03  0.44948505555E+03  0.50789348311E+03  0.99817379453E+03  0.00000000000E+00 0. -1.
         -3    1    3    3    0  502 -0.11176995076E+04  0.68809910515E+03  0.66473436401E+03  0.14712594409E+04  0.00000000000E+00 0.  1.
         11    1    5    5    0    0  0.18769563955E+03 -0.28120224033E+03  0.12643523762E+03  0.36095736921E+03  0.00000000000E+00 0. -1.
        -11    1    5    5    0    0  0.38604185836E+03 -0.58358326239E+03  0.13767269782E+03  0.71312797749E+03  0.00000000000E+00 0.  1.
          1    1    6    6  503    0  0.41276635379E+03 -0.91748686709E+02  0.11785357998E+03  0.43895711709E+03  0.00000000000E+00 0. -1.
         -1    1    6    6    0  503  0.86356053679E+03 -0.18104997127E+03  0.38464846663E+03  0.96253329069E+03  0.00000000000E+00 0.  1.
<mgrwt>
<rscale>  0 0.45488977E+04</rscale>
<asrwt>0</asrwt>
<pdfrwt beam="1">  1        2 0.23121317E+00 0.45488977E+04</pdfrwt>
<pdfrwt beam="2">  1       -1 0.52955745E+00 0.45488977E+04</pdfrwt>
<totfact> 0.10691844E-02</totfact>
</mgrwt>
</event>
<event>
12    6  0.8914180E-008  0.1505834E+04  0.7818608E-02  0.8880583E-01
         -1   -1    0    0    0  501 -0.00000000000E+00  0.00000000000E+00  0.58507188830E+03  0.58507188830E+03  0.00000000000E+00 0.  1.
          2   -1    0    0  501    0  0.00000000000E+00 -0.00000000000E+00 -0.96891361616E+03  0.96891361616E+03  0.00000000000E+00 0. -1.
         24    2    1    2    0    0  0.31074485654E+03  0.10062631840E+03  0.23997799200E+03  0.41443617035E+03  0.86486304272E+02 0.  0.
        254    2    1    2    0    0 -0.31074485654E+03 -0.10062631840E+03 -0.62381971986E+03  0.11395493341E+04  0.89595402792E+03 0.  0.
         23    2    4    4    0    0 -0.21043734097E+03 -0.15179100983E+03  0.17613386541E+03  0.32664039199E+03  0.91358754365E+02 0.  0.
         23    2    4    4    0    0 -0.10030751557E+03  0.51164691430E+02 -0.79995358527E+03  0.81290894212E+03  0.90640974505E+02 0.  0.
          2    1    3    3  502    0  0.40906152791E+02  0.46923120569E+02  0.53311673220E+02  0.81958691313E+02  0.00000000000E+00 0. -1.
         -1    1    3    3    0  502  0.26983870375E+03  0.53703197826E+02  0.18666631878E+03  0.33247747903E+03  0.00000000000E+00 0.  1.
         11    1    5    5    0    0 -0.16361350444E+03 -0.15191759384E+03  0.11976783560E+03  0.25336272140E+03  0.00000000000E+00 0.  1.
        -11    1    5    5    0    0 -0.46823836530E+02  0.12658401207E+00  0.56366029803E+02  0.73277670586E+02  0.00000000000E+00 0. -1.
          2    1    6    6  503    0 -0.11439063013E+03  0.39346584508E+02 -0.74972476387E+03  0.75942122141E+03  0.00000000000E+00 0.  1.
         -2    1    6    6    0  503  0.14083114557E+02  0.11818106923E+02 -0.50228821398E+02  0.53487720702E+02  0.00000000000E+00 0. -1.
<mgrwt>
<rscale>  0 0.15058341E+04</rscale>
<asrwt>0</asrwt>
<pdfrwt beam="1">  1        2 0.14906363E+00 0.15058341E+04</pdfrwt>
<pdfrwt beam="2">  1       -1 0.90011061E-01 0.15058341E+04</pdfrwt>
<totfact> 0.35121553E+01</totfact>
</mgrwt>
</event>
<event>
12    6  0.1435107E-007  0.2414734E+04  0.7818608E-02  0.8434008E-01
         -1   -1    0    0    0  501 -0.00000000000E+00  0.00000000000E+00  0.75519093037E+03  0.75519093037E+03  0.00000000000E+00 0.  1.
          2   -1    0    0  501    0  0.00000000000E+00 -0.00000000000E+00 -0.19302860667E+04  0.19302860667E+04  0.00000000000E+00 0. -1.
         24    2    1    2    0    0 -0.43430752060E+03 -0.56993491062E+03  0.32382057852E+03  0.79186072793E+03  0.93460261957E+02 0.  0.
        254    2    1    2    0    0  0.43430752060E+03  0.56993491062E+03 -0.14989157148E+04  0.18936162691E+04  0.90861731753E+03 0.  0.
         23    2    4    4    0    0 -0.23027450788E+03 -0.26159789127E+02 -0.42829673729E+03  0.49690808671E+03  0.98837583571E+02 0.  0.
         23    2    4    4    0    0  0.66458202848E+03  0.59609469975E+03 -0.10706189775E+04  0.13967081824E+04  0.87009126448E+02 0.  0.
          4    1    3    3  502    0 -0.36862871449E+02 -0.77595249083E+02  0.67174968776E+02  0.10905214533E+03  0.00000000000E+00 0. -1.
         -3    1    3    3    0  502 -0.39744464915E+03 -0.49233966154E+03  0.25664560974E+03  0.68280858259E+03  0.00000000000E+00 0.  1.
         11    1    5    5    0    0 -0.23922740410E+03 -0.19124430201E+02 -0.40096005366E+03  0.46729483128E+03  0.00000000000E+00 0. -1.
        -11    1    5    5    0    0  0.89528962260E+01 -0.70353589261E+01 -0.27336683625E+02  0.29613255438E+02  0.00000000000E+00 0.  1.
          4    1    6    6  503    0  0.61757364329E+03  0.52036225075E+03 -0.95370330755E+03  0.12496895917E+04  0.00000000000E+00 0. -1.
         -4    1    6    6    0  503  0.47008385186E+02  0.75732449005E+02 -0.11691567000E+03  0.14701859066E+03  0.00000000000E+00 0.  1.
<mgrwt>
<rscale>  0 0.24147336E+04</rscale>
<asrwt>0</asrwt>
<pdfrwt beam="1">  1        2 0.29696708E+00 0.24147336E+04</pdfrwt>
<pdfrwt beam="2">  1       -1 0.11618322E+00 0.24147336E+04</pdfrwt>
<totfact> 0.50004109E+00</totfact>
</mgrwt>
</event>
<event>
12    6  0.8914180E-008  0.1228004E+04  0.7818608E-02  0.9088692E-01
         -1   -1    0    0    0  501 -0.00000000000E+00  0.00000000000E+00  0.44642558586E+03  0.44642558586E+03  0.00000000000E+00 0.  1.
          2   -1    0    0  501    0  0.00000000000E+00 -0.00000000000E+00 -0.84448261063E+03  0.84448261063E+03  0.00000000000E+00 0. -1.
         24    2    1    2    0    0 -0.26395118275E+03  0.52076886750E+02 -0.22871730089E+02  0.28129755404E+03  0.78885796312E+02 0.  0.
        254    2    1    2    0    0  0.26395118275E+03 -0.52076886750E+02 -0.37518529468E+03  0.10096106424E+04  0.89786826149E+03 0.  0.
         23    2    4    4    0    0  0.57855292214E+03  0.31899502991E+02 -0.31154107942E+03  0.66404377759E+03  0.90306325318E+02 0.  0.
         23    2    4    4    0    0 -0.31460173938E+03 -0.83976389741E+02 -0.63644215263E+02  0.34556686485E+03  0.96641520539E+02 0.  0.
          2    1    3    3  502    0 -0.18852043595E+03  0.42320005892E+02 -0.51616371811E+02  0.19998796841E+03  0.00000000000E+00 0. -1.
         -1    1    3    3    0  502 -0.75430746802E+02  0.97568808576E+01  0.28744641722E+02  0.81309585628E+02  0.00000000000E+00 0.  1.
         11    1    5    5    0    0  0.48549665980E+03  0.58551237432E+02 -0.24854777377E+03  0.54855378035E+03  0.00000000000E+00 0. -1.
        -11    1    5    5    0    0  0.93056262333E+02 -0.26651734440E+02 -0.62993305645E+02  0.11548999725E+03  0.00000000000E+00 0.  1.
          1    1    6    6  503    0 -0.31775625900E+03 -0.70108990964E+02 -0.61969537343E+02  0.33124693856E+03  0.00000000000E+00 0. -1.
         -1    1    6    6    0  503  0.31545196188E+01 -0.13867398777E+02 -0.16746779197E+01  0.14319926291E+02  0.00000000000E+00 0.  1.
<mgrwt>
<rscale>  0 0.12280043E+04</rscale>
<asrwt>0</asrwt>
<pdfrwt beam="1">  1        2 0.12992040E+00 0.12280043E+04</pdfrwt>
<pdfrwt beam="2">  1       -1 0.68680861E-01 0.12280043E+04</pdfrwt>
<totfact> 0.77255472E+01</totfact>
</mgrwt>
</event>
<event>
12    6  0.8914180E-008  0.2496615E+04  0.7818608E-02  0.8404193E-01
         -1   -1    0    0    0  501 -0.00000000000E+00  0.00000000000E+00  0.63186523982E+03  0.63186523982E+03  0.00000000000E+00 0.  1.
          2   -1    0    0  501    0  0.00000000000E+00 -0.00000000000E+00 -0.24661447103E+04  0.24661447103E+04  0.00000000000E+00 0. -1.
         24    2    1    2    0    0 -0.17980972273E+03  0.69385899225E+03 -0.17802705319E+04  0.19210568958E+04  0.85583834198E+02 0.  0.
        254    2    1    2    0    0  0.17980972273E+03 -0.69385899225E+03 -0.54008938601E+02  0.11769530543E+04  0.93194940267E+03 0.  0.
         23    2    4    4    0    0  0.22139927297E+03 -0.36277275949E+03  0.41060435757E+03  0.59799337002E+03  0.91533704346E+02 0.  0.
         23    2    4    4    0    0 -0.41589550246E+02 -0.33108623275E+03 -0.46461329617E+03  0.57895968431E+03  0.89336537178E+02 0.  0.
          2    1    3    3  502    0 -0.33150941732E+02  0.21339987970E+03 -0.45120447706E+03  0.50022392357E+03  0.00000000000E+00 0. -1.
         -1    1    3    3    0  502 -0.14665878100E+03  0.48045911255E+03 -0.13290660548E+04  0.14208329722E+04  0.00000000000E+00 0.  1.
         11    1    5    5    0    0  0.22951426246E+01 -0.54893934811E+02  0.72240696425E+02  0.90759737652E+02  0.00000000000E+00 0.  1.
        -11    1    5    5    0    0  0.21910413035E+03 -0.30787882468E+03  0.33836366114E+03  0.50723363237E+03  0.00000000000E+00 0. -1.
          4    1    6    6  503    0 -0.45418490603E+01 -0.28399223495E+03 -0.36191761409E+03  0.46006149295E+03  0.00000000000E+00 0. -1.
         -4    1    6    6    0  503 -0.37047701186E+02 -0.47093997801E+02 -0.10269568208E+03  0.11889819136E+03  0.00000000000E+00 0.  1.
<mgrwt>
<rscale>  0 0.24966146E+04</rscale>
<asrwt>0</asrwt>
<pdfrwt beam="1">  1        2 0.37940687E+00 0.24966146E+04</pdfrwt>
<pdfrwt beam="2">  1       -1 0.97210039E-01 0.24966146E+04</pdfrwt>
<totfact> 0.37559661E+00</totfact>
</mgrwt>
</event>
<event>
12    6  0.8914180E-008  0.1256839E+04  0.7818608E-02  0.9064510E-01
          2   -1    0    0  501    0  0.00000000000E+00  0.00000000000E+00  0.22389949772E+04  0.22389949772E+04  0.00000000000E+00 0. -1.
         -1   -1    0    0    0  501 -0.00000000000E+00 -0.00000000000E+00 -0.17637869739E+03  0.17637869739E+03  0.00000000000E+00 0.  1.
         24    2    1    2    0    0 -0.13740228769E+03  0.11077378068E+03  0.97584849560E+03  0.99472084399E+03  0.77711337299E+02 0.  0.
        254    2    1    2    0    0  0.13740228769E+03 -0.11077378068E+03  0.10867677842E+04  0.14206528306E+04  0.89779732075E+03 0.  0.
         23    2    4    4    0    0  0.37566140968E+03 -0.38013224124E+03  0.67604322235E+03  0.86697960878E+03  0.94853508142E+02 0.  0.
         23    2    4    4    0    0 -0.23825912199E+03  0.26935846056E+03  0.41072456182E+03  0.55367322178E+03  0.92401197774E+02 0.  0.
          4    1    3    3  502    0 -0.14115944867E+03  0.10656620862E+03  0.97183368048E+03  0.98779706888E+03  0.00000000000E+00 0. -1.
         -3    1    3    3    0  502  0.37571609827E+01  0.42075720614E+01  0.40148151236E+01  0.69237751104E+01  0.00000000000E+00 0.  1.
         11    1    5    5    0    0  0.11820333357E+02 -0.23060569574E+02  0.72270248770E+02  0.76775640714E+02  0.00000000000E+00 0. -1.
        -11    1    5    5    0    0  0.36384107632E+03 -0.35707167167E+03  0.60377297358E+03  0.79020396807E+03  0.00000000000E+00 0.  1.
          1    1    6    6  503    0 -0.21492585257E+03  0.22871070793E+03  0.30323281186E+03  0.43640789202E+03  0.00000000000E+00 0. -1.
         -1    1    6    6    0  503 -0.23333269420E+02  0.40647752626E+02  0.10749174996E+03  0.11726532976E+03  0.00000000000E+00 0.  1.
<mgrwt>
<rscale>  0 0.12568389E+04</rscale>
<asrwt>0</asrwt>
<pdfrwt beam="1">  1        2 0.34446074E+00 0.12568389E+04</pdfrwt>
<pdfrwt beam="2">  1       -1 0.27135186E-01 0.12568389E+04</pdfrwt>
<totfact> 0.67019069E+01</totfact>
</mgrwt>
</event>
<event>
12    6  0.8914180E-008  0.1854377E+04  0.7818608E-02  0.8677905E-01
         -1   -1    0    0    0  501 -0.00000000000E+00  0.00000000000E+00  0.29633527759E+03  0.29633527759E+03  0.00000000000E+00 0.  1.
          2   -1    0    0  501    0  0.00000000000E+00 -0.00000000000E+00 -0.29010328137E+04  0.29010328137E+04  0.00000000000E+00 0. -1.
         24    2    1    2    0    0 -0.40541880255E+02 -0.18246882257E+03 -0.21709952303E+04  0.21808476101E+04  0.89092610197E+02 0.  0.
        254    2    1    2    0    0  0.40541880255E+02  0.18246882257E+03 -0.43370230582E+03  0.10165204812E+04  0.90015425532E+03 0.  0.
         23    2    4    4    0    0  0.44593848869E+02  0.53829377815E+03 -0.30381658847E+03  0.62647935510E+03  0.91777230243E+02 0.  0.
         23    2    4    4    0    0 -0.40519686139E+01 -0.35582495557E+03 -0.12988571735E+03  0.39004112610E+03  0.92919120848E+02 0.  0.
          4    1    3    3  502    0 -0.49295637252E+02 -0.51804596953E+02 -0.99966381961E+03  0.10022183037E+04  0.00000000000E+00 0. -1.
         -3    1    3    3    0  502  0.87537569968E+01 -0.13066422562E+03 -0.11713314107E+04  0.11786293064E+04  0.00000000000E+00 0.  1.
         11    1    5    5    0    0  0.64840088686E+01  0.13068744434E+03 -0.30847313667E+02  0.13443514139E+03  0.00000000000E+00 0. -1.
        -11    1    5    5    0    0  0.38109840000E+02  0.40760633381E+03 -0.27296927481E+03  0.49204421372E+03  0.00000000000E+00 0.  1.
          1    1    6    6  503    0 -0.16151356430E+02 -0.85604028506E+02 -0.72943810548E+02  0.11362092901E+03  0.00000000000E+00 0. -1.
         -1    1    6    6    0  503  0.12099387816E+02 -0.27022092707E+03 -0.56941906800E+02  0.27642019709E+03  0.00000000000E+00 0.  1.
<mgrwt>
<rscale>  0 0.18543768E+04</rscale>
<asrwt>0</asrwt>
<pdfrwt beam="1">  1        2 0.44631276E+00 0.18543768E+04</pdfrwt>
<pdfrwt beam="2">  1       -1 0.45590041E-01 0.18543768E+04</pdfrwt>
<totfact> 0.10288945E+01</totfact>
</mgrwt>
</event>
<event>
12    6  0.8914180E-008  0.1769222E+04  0.7818608E-02  0.8722840E-01
         -1   -1    0    0    0  501 -0.00000000000E+00  0.00000000000E+00  0.58832073349E+03  0.58832073349E+03  0.00000000000E+00 0.  1.
          2   -1    0    0  501    0  0.00000000000E+00 -0.00000000000E+00 -0.13301193174E+04  0.13301193174E+04  0.00000000000E+00 0. -1.
         24    2    1    2    0    0 -0.14747171428E+03 -0.41277954180E+03  0.25385299612E+03  0.51299189035E+03  0.81144804414E+02 0.  0.
        254    2    1    2    0    0  0.14747171428E+03  0.41277954180E+03 -0.99565158008E+03  0.14054481606E+04  0.88984695680E+03 0.  0.
         23    2    4    4    0    0 -0.30506341404E+03  0.20228146581E+03 -0.75464634330E+03  0.84370968300E+03  0.91506544786E+02 0.  0.
         23    2    4    4    0    0  0.45253512832E+03  0.21049807599E+03 -0.24100523678E+03  0.56173847759E+03  0.91482843680E+02 0.  0.
          2    1    3    3  502    0 -0.60758826761E+02 -0.28329049528E+03  0.15760927774E+03  0.32982696096E+03  0.00000000000E+00 0. -1.
         -1    1    3    3    0  502 -0.86712887520E+02 -0.12948904651E+03  0.96243718383E+02  0.18316492939E+03  0.00000000000E+00 0.  1.
         11    1    5    5    0    0 -0.28333781693E+03  0.17471895477E+03 -0.61051705085E+03  0.69536903946E+03  0.00000000000E+00 0.  1.
        -11    1    5    5    0    0 -0.21725597108E+02  0.27562511039E+02 -0.14412929245E+03  0.14834064354E+03  0.00000000000E+00 0. -1.
          1    1    6    6  503    0  0.12805350797E+02 -0.89908483633E+01 -0.42135102886E+01  0.16203889418E+02  0.00000000000E+00 0. -1.
         -1    1    6    6    0  503  0.43972977752E+03  0.21948892435E+03 -0.23679172650E+03  0.54553458817E+03  0.00000000000E+00 0.  1.
<mgrwt>
<rscale>  0 0.17692222E+04</rscale>
<asrwt>0</asrwt>
<pdfrwt beam="1">  1        2 0.20463374E+00 0.17692222E+04</pdfrwt>
<pdfrwt beam="2">  1       -1 0.90510882E-01 0.17692222E+04</pdfrwt>
<totfact> 0.20433518E+01</totfact>
</mgrwt>
</event>
<event>
12    6  0.8914180E-008  0.2139196E+04  0.7818608E-02  0.8544171E-01
          2   -1    0    0  501    0  0.00000000000E+00  0.00000000000E+00  0.23181254522E+04  0.23181254522E+04  0.00000000000E+00 0. -1.
         -1   -1    0    0    0  501 -0.00000000000E+00 -0.00000000000E+00 -0.49351962742E+03  0.49351962742E+03  0.00000000000E+00 0.  1.
         24    2    1    2    0    0  0.82873410934E+03 -0.40863834124E+02  0.38058838184E+03  0.91630415232E+03  0.79345486524E+02 0.  0.
        254    2    1    2    0    0 -0.82873410934E+03  0.40863834124E+02  0.14440174429E+04  0.18953409273E+04  0.90479875011E+03 0.  0.
         23    2    4    4    0    0 -0.91649828312E+03 -0.17921840595E+03  0.92600521131E+03  0.13183214385E+04  0.91637457993E+02 0.  0.
         23    2    4    4    0    0  0.87764173778E+02  0.22008224008E+03  0.51801223159E+03  0.57701948880E+03  0.92065605901E+02 0.  0.
          2    1    3    3  502    0  0.59220827390E+02 -0.54207966757E+01  0.61271617915E+01  0.59783221266E+02  0.00000000000E+00 0. -1.
         -1    1    3    3    0  502  0.76951328195E+03 -0.35443037449E+02  0.37446122005E+03  0.85652093105E+03  0.00000000000E+00 0.  1.
         11    1    5    5    0    0 -0.49915706558E+02  0.65451262362E+01  0.69468201912E+02  0.85791884904E+02  0.00000000000E+00 0. -1.
        -11    1    5    5    0    0 -0.86658257656E+03 -0.18576353219E+03  0.85653700940E+03  0.12325295535E+04  0.00000000000E+00 0.  1.
          2    1    6    6  503    0  0.89685088972E+02  0.10183985095E+03  0.26437794551E+03  0.29717077329E+03  0.00000000000E+00 0. -1.
         -2    1    6    6    0  503 -0.19209151937E+01  0.11824238912E+03  0.25363428607E+03  0.27984871551E+03  0.00000000000E+00 0.  1.
<mgrwt>
<rscale>  0 0.21391965E+04</rscale>
<asrwt>0</asrwt>
<pdfrwt beam="1">  1        2 0.35663468E+00 0.21391965E+04</pdfrwt>
<pdfrwt beam="2">  1       -1 0.75926098E-01 0.21391965E+04</pdfrwt>
<totfact> 0.80655258E+00</totfact>
</mgrwt>
</event>
<event>
12    6  0.8914180E-008  0.1744618E+04  0.7818608E-02  0.8736318E-01
         -1   -1    0    0    0  501 -0.00000000000E+00  0.00000000000E+00  0.66414551184E+03  0.66414551184E+03  0.00000000000E+00 0.  1.
          2   -1    0    0  501    0  0.00000000000E+00 -0.00000000000E+00 -0.11457170058E+04  0.11457170058E+04  0.00000000000E+00 0. -1.
         24    2    1    2    0    0 -0.38555291995E+03 -0.32191967324E+03  0.21958232288E+03  0.55398754852E+03  0.80015481579E+02 0.  0.
        254    2    1    2    0    0  0.38555291995E+03  0.32191967324E+03 -0.70115381682E+03  0.12558749691E+04  0.91286468498E+03 0.  0.
         23    2    4    4    0    0  0.33145467845E+03  0.60113930350E+03 -0.65308284172E+03  0.95275996785E+03  0.10001845887E+03 0.  0.
         23    2    4    4    0    0  0.54098241496E+02 -0.27921963026E+03 -0.48070975102E+02  0.30311500126E+03  0.93153978374E+02 0.  0.
          2    1    3    3  502    0 -0.47509034560E+02 -0.52595726795E+02  0.39922118581E+01  0.70988425799E+02  0.00000000000E+00 0. -1.
         -1    1    3    3    0  502 -0.33804388539E+03 -0.26932394645E+03  0.21559011102E+03  0.48299912272E+03  0.00000000000E+00 0.  1.
         11    1    5    5    0    0  0.12566904786E+03  0.32916742148E+03 -0.31743157353E+03  0.47424329708E+03  0.00000000000E+00 0. -1.
        -11    1    5    5    0    0  0.20578563059E+03  0.27197188202E+03 -0.33565126819E+03  0.47851667077E+03  0.00000000000E+00 0.  1.
          3    1    6    6  503    0  0.64568224870E+02 -0.99090373175E+02 -0.98675137920E+01  0.11868161419E+03  0.00000000000E+00 0. -1.
         -3    1    6    6    0  503 -0.10469983374E+02 -0.18012925708E+03 -0.38203461310E+02  0.18443338707E+03  0.00000000000E+00 0.  1.
<mgrwt>
<rscale>  0 0.17446178E+04</rscale>
<asrwt>0</asrwt>
<pdfrwt beam="1">  1        2 0.17626415E+00 0.17446178E+04</pdfrwt>
<pdfrwt beam="2">  1       -1 0.10217623E+00 0.17446178E+04</pdfrwt>
<totfact> 0.20035517E+01</totfact>
</mgrwt>
</event>
<event>
12    6  0.8914180E-008  0.2344380E+04  0.7818608E-02  0.8460625E-01
         -1   -1    0    0    0  501 -0.00000000000E+00  0.00000000000E+00  0.52524589437E+03  0.52524589437E+03  0.00000000000E+00 0.  1.
          2   -1    0    0  501    0  0.00000000000E+00 -0.00000000000E+00 -0.26159736163E+04  0.26159736163E+04  0.00000000000E+00 0. -1.
         24    2    1    2    0    0 -0.69352260165E+03 -0.19434899655E+03 -0.18176273839E+04  0.19567870177E+04  0.80628745314E+02 0.  0.
        254    2    1    2    0    0  0.69352260165E+03  0.19434899655E+03 -0.27310033807E+03  0.11844324930E+04  0.89975074567E+03 0.  0.
         23    2    4    4    0    0 -0.18192942602E+03  0.17616176206E+03 -0.10050804376E+03  0.28725847078E+03  0.91018018591E+02 0.  0.
         23    2    4    4    0    0  0.87545202767E+03  0.18187234486E+02 -0.17259229430E+03  0.89717402221E+03  0.91575639867E+02 0.  0.
          4    1    3    3  502    0 -0.56641125941E+03 -0.18204413110E+03 -0.14363336435E+04  0.15546755661E+04  0.00000000000E+00 0. -1.
         -3    1    3    3    0  502 -0.12711134224E+03 -0.12304865453E+02 -0.38129374037E+03  0.40211145157E+03  0.00000000000E+00 0.  1.
         11    1    5    5    0    0 -0.32520002078E+01  0.50315422391E+02 -0.22406922988E+02  0.55175061700E+02  0.00000000000E+00 0. -1.
        -11    1    5    5    0    0 -0.17867742581E+03  0.12584633967E+03 -0.78101120777E+02  0.23208340908E+03  0.00000000000E+00 0.  1.
          1    1    6    6  503    0  0.22905341659E+03  0.44814726356E+02 -0.50875950713E+02  0.23887693424E+03  0.00000000000E+00 0. -1.
         -1    1    6    6    0  503  0.64639861108E+03 -0.26627491869E+02 -0.12171634359E+03  0.65829708797E+03  0.00000000000E+00 0.  1.
<mgrwt>
<rscale>  0 0.23443800E+04</rscale>
<asrwt>0</asrwt>
<pdfrwt beam="1">  1        2 0.40245748E+00 0.23443800E+04</pdfrwt>
<pdfrwt beam="2">  1       -1 0.80807061E-01 0.23443800E+04</pdfrwt>
<totfact> 0.46729103E+00</totfact>
</mgrwt>
</event>
<event>
12    6  0.8914180E-008  0.1187637E+04  0.7818608E-02  0.9123747E-01
         -1   -1    0    0    0  501 -0.00000000000E+00  0.00000000000E+00  0.24413296212E+03  0.24413296212E+03  0.00000000000E+00 0.  1.
          2   -1    0    0  501    0  0.00000000000E+00 -0.00000000000E+00 -0.14443785863E+04  0.14443785863E+04  0.00000000000E+00 0. -1.
         24    2    1    2    0    0 -0.17588904874E+03  0.88265305964E+02 -0.51318693230E+02  0.21835779598E+03  0.79490861663E+02 0.  0.
        254    2    1    2    0    0  0.17588904874E+03 -0.88265305964E+02 -0.11489269309E+04  0.14701537524E+04  0.89587456791E+03 0.  0.
         23    2    4    4    0    0  0.42320763711E+03 -0.28699709300E+03 -0.41307019185E+03  0.66356627613E+03  0.90670744594E+02 0.  0.
         23    2    4    4    0    0 -0.24731858837E+03  0.19873178704E+03 -0.73585673910E+03  0.80658747630E+03  0.91855370626E+02 0.  0.
          2    1    3    3  502    0 -0.22674791541E+02  0.33423797148E+02  0.14365746910E+02  0.42868065871E+02  0.00000000000E+00 0. -1.
         -1    1    3    3    0  502 -0.15321425720E+03  0.54841508816E+02 -0.65684440139E+02  0.17548973011E+03  0.00000000000E+00 0.  1.
         11    1    5    5    0    0  0.14240906198E+03 -0.11659849774E+03 -0.20130341478E+03  0.27276109585E+03  0.00000000000E+00 0. -1.
        -11    1    5    5    0    0  0.28079857513E+03 -0.17039859526E+03 -0.21176677707E+03  0.39080518028E+03  0.00000000000E+00 0.  1.
          2    1    6    6  503    0 -0.18208560738E+03  0.14606455105E+03 -0.42799577178E+03  0.48751451481E+03  0.00000000000E+00 0. -1.
         -2    1    6    6    0  503 -0.65232980996E+02  0.52667235983E+02 -0.30786096732E+03  0.31907296149E+03  0.00000000000E+00 0.  1.
<mgrwt>
<rscale>  0 0.11876370E+04</rscale>
<asrwt>0</asrwt>
<pdfrwt beam="1">  1        2 0.22221209E+00 0.11876370E+04</pdfrwt>
<pdfrwt beam="2">  1       -1 0.37558917E-01 0.11876370E+04</pdfrwt>
<totfact> 0.10488261E+02</totfact>
</mgrwt>
</event>
<event>
12    6  0.8914180E-008  0.1805134E+04  0.7818608E-02  0.8703574E-01
         -1   -1    0    0    0  501 -0.00000000000E+00  0.00000000000E+00  0.19715311062E+03  0.19715311062E+03  0.00000000000E+00 0.  1.
          2   -1    0    0  501    0  0.00000000000E+00 -0.00000000000E+00 -0.41319502453E+04  0.41319502453E+04  0.00000000000E+00 0. -1.
         24    2    1    2    0    0  0.36930923965E+03 -0.54239664217E+03 -0.14604079930E+04  0.16030289508E+04  0.79541681534E+02 0.  0.
        254    2    1    2    0    0 -0.36930923965E+03  0.54239664217E+03 -0.24743891417E+04  0.27260744051E+04  0.93717480011E+03 0.  0.
         23    2    4    4    0    0 -0.33834577221E+03 -0.18196821556E+03 -0.63472752066E+03  0.74660454384E+03  0.83360820275E+02 0.  0.
         23    2    4    4    0    0 -0.30963467442E+02  0.72436485773E+03 -0.18396616210E+04  0.19794698613E+04  0.91010265916E+02 0.  0.
          2    1    3    3  502    0  0.35258989280E+03 -0.51871323103E+03 -0.13452480040E+04  0.14842759989E+04  0.00000000000E+00 0. -1.
         -1    1    3    3    0  502  0.16719346857E+02 -0.23683411140E+02 -0.11515998899E+03  0.11875295190E+03  0.00000000000E+00 0.  1.
         11    1    5    5    0    0 -0.10559279834E+03 -0.92019722116E+02 -0.27767993070E+03  0.31100419970E+03  0.00000000000E+00 0.  1.
        -11    1    5    5    0    0 -0.23275297387E+03 -0.89948493442E+02 -0.35704758996E+03  0.43560034414E+03  0.00000000000E+00 0. -1.
          3    1    6    6  503    0  0.27119956998E+02  0.39706599446E+03 -0.10311629546E+04  0.11053026441E+04  0.00000000000E+00 0. -1.
         -3    1    6    6    0  503 -0.58083424440E+02  0.32729886327E+03 -0.80849866643E+03  0.87416721725E+03  0.00000000000E+00 0.  1.
<mgrwt>
<rscale>  0 0.18051336E+04</rscale>
<asrwt>0</asrwt>
<pdfrwt beam="1">  1        2 0.63568466E+00 0.18051336E+04</pdfrwt>
<pdfrwt beam="2">  1       -1 0.30331248E-01 0.18051336E+04</pdfrwt>
<totfact> 0.29074446E+00</totfact>
</mgrwt>
</event>
<event>
12    6  0.8914180E-008  0.1851258E+04  0.7818608E-02  0.8679506E-01
          2   -1    0    0  501    0  0.00000000000E+00  0.00000000000E+00  0.13122834889E+04  0.13122834889E+04  0.00000000000E+00 0. -1.
         -1   -1    0    0    0  501 -0.00000000000E+00 -0.00000000000E+00 -0.65289917318E+03  0.65289917318E+03  0.00000000000E+00 0.  1.
         24    2    1    2    0    0 -0.11046910828E+03 -0.34522619836E+03  0.89653321969E+03  0.97026098753E+03  0.79057055394E+02 0.  0.
        254    2    1    2    0    0  0.11046910828E+03  0.34522619836E+03 -0.23714890397E+03  0.99492167455E+03  0.89568129595E+03 0.  0.
         23    2    4    4    0    0  0.12311160490E+03 -0.27013282187E+03 -0.20429525033E+03  0.37205667695E+03  0.92527903079E+02 0.  0.
         23    2    4    4    0    0 -0.12642496621E+02  0.61535902022E+03 -0.32853653643E+02  0.62286499760E+03  0.89749017747E+02 0.  0.
          4    1    3    3  502    0  0.10465773247E+02 -0.52038045584E+02  0.10803697817E+03  0.12037225282E+03  0.00000000000E+00 0. -1.
         -3    1    3    3    0  502 -0.12093488152E+03 -0.29318815277E+03  0.78849624152E+03  0.84988873471E+03  0.00000000000E+00 0.  1.
         11    1    5    5    0    0  0.79934672200E+02 -0.23472646071E+03 -0.13262842849E+03  0.28120519771E+03  0.00000000000E+00 0. -1.
        -11    1    5    5    0    0  0.43176932698E+02 -0.35406361155E+02 -0.71666821836E+02  0.90851479237E+02  0.00000000000E+00 0.  1.
          1    1    6    6  503    0 -0.97643006844E+01  0.61157297995E+03 -0.41436190012E+02  0.61305286005E+03  0.00000000000E+00 0. -1.
         -1    1    6    6    0  503 -0.28781959365E+01  0.37860402749E+01  0.85825363686E+01  0.98121375516E+01  0.00000000000E+00 0.  1.
<mgrwt>
<rscale>  0 0.18512577E+04</rscale>
<asrwt>0</asrwt>
<pdfrwt beam="1">  1        2 0.20188977E+00 0.18512577E+04</pdfrwt>
<pdfrwt beam="2">  1       -1 0.10044603E+00 0.18512577E+04</pdfrwt>
<totfact> 0.16443276E+01</totfact>
</mgrwt>
</event>
<event>
12    6  0.8914180E-008  0.1173122E+04  0.7818608E-02  0.9136714E-01
          2   -1    0    0  501    0  0.00000000000E+00  0.00000000000E+00  0.18596526576E+04  0.18596526576E+04  0.00000000000E+00 0. -1.
         -1   -1    0    0    0  501 -0.00000000000E+00 -0.00000000000E+00 -0.18500971686E+03  0.18500971686E+03  0.00000000000E+00 0.  1.
         24    2    1    2    0    0 -0.13369411199E+03  0.18177505676E+03  0.41712287852E+03  0.48081432401E+03  0.79212571924E+02 0.  0.
        254    2    1    2    0    0  0.13369411199E+03 -0.18177505676E+03  0.12575200622E+04  0.15638480505E+04  0.90185793292E+03 0.  0.
         23    2    4    4    0    0  0.85138871545E+02 -0.53092781260E+03  0.58559782925E+03  0.80003713164E+03  0.89451801149E+02 0.  0.
         23    2    4    4    0    0  0.48555240446E+02  0.34915275585E+03  0.67192223299E+03  0.76381091883E+03  0.87534988712E+02 0.  0.
          2    1    3    3  502    0 -0.18635932174E+02  0.29060961098E+02  0.19604293562E+02  0.39700954069E+02  0.00000000000E+00 0. -1.
         -1    1    3    3    0  502 -0.11505817982E+03  0.15271409566E+03  0.39751858496E+03  0.44111336995E+03  0.00000000000E+00 0.  1.
         11    1    5    5    0    0  0.10012492198E+03 -0.44763079340E+03  0.46961156228E+03  0.65645513680E+03  0.00000000000E+00 0. -1.
        -11    1    5    5    0    0 -0.14986050437E+02 -0.83297019207E+02  0.11598626697E+03  0.14358199484E+03  0.00000000000E+00 0.  1.
          3    1    6    6  503    0  0.56549778235E+02  0.26188950393E+03  0.56695613235E+03  0.62707515156E+03  0.00000000000E+00 0. -1.
         -3    1    6    6    0  503 -0.79945377887E+01  0.87263251911E+02  0.10496610064E+03  0.13673576727E+03  0.00000000000E+00 0.  1.
<mgrwt>
<rscale>  0 0.11731220E+04</rscale>
<asrwt>0</asrwt>
<pdfrwt beam="1">  1        2 0.28610040E+00 0.11731220E+04</pdfrwt>
<pdfrwt beam="2">  1       -1 0.28463035E-01 0.11731220E+04</pdfrwt>
<totfact> 0.10079514E+02</totfact>
</mgrwt>
</event>
<event>
12    6  0.8914180E-008  0.1691276E+04  0.7818608E-02  0.8766356E-01
          2   -1    0    0  501    0  0.00000000000E+00  0.00000000000E+00  0.83407819810E+03  0.83407819810E+03  0.00000000000E+00 0. -1.
         -3   -1    0    0    0  501 -0.00000000000E+00 -0.00000000000E+00 -0.85735824328E+03  0.85735824328E+03  0.00000000000E+00 0.  1.
         24    2    1    2    0    0  0.20639391743E+03 -0.52731581334E+03 -0.21177494497E+03  0.61012573079E+03  0.82124076259E+02 0.  0.
        254    2    1    2    0    0 -0.20639391743E+03  0.52731581334E+03  0.18849489979E+03  0.10813107106E+04  0.90168847693E+03 0.  0.
         23    2    4    4    0    0 -0.50383376353E+03  0.81938946629E+02  0.42595490224E+02  0.51915540213E+03  0.84531080226E+02 0.  0.
         23    2    4    4    0    0  0.29743984610E+03  0.44537686671E+03  0.14589940956E+03  0.56215530846E+03  0.88887218811E+02 0.  0.
          2    1    3    3  502    0  0.20825161317E+03 -0.51265200796E+03 -0.19256156847E+03  0.58588460750E+03  0.00000000000E+00 0. -1.
         -1    1    3    3    0  502 -0.18576957446E+01 -0.14663805385E+02 -0.19213376501E+02  0.24241123291E+02  0.00000000000E+00 0.  1.
         11    1    5    5    0    0 -0.38086488675E+03  0.49759034145E+02 -0.30056857887E+01  0.38411333950E+03  0.00000000000E+00 0. -1.
        -11    1    5    5    0    0 -0.12296887678E+03  0.32179912484E+02  0.45601176012E+02  0.13504206262E+03  0.00000000000E+00 0.  1.
          3    1    6    6  503    0  0.74425903249E+02  0.17988989577E+03  0.72542738950E+02  0.20775475602E+03  0.00000000000E+00 0. -1.
         -3    1    6    6    0  503  0.22301394285E+03  0.26548697094E+03  0.73356670612E+02  0.35440055244E+03  0.00000000000E+00 0.  1.
<mgrwt>
<rscale>  0 0.16912762E+04</rscale>
<asrwt>0</asrwt>
<pdfrwt beam="1">  1        2 0.12831972E+00 0.16912762E+04</pdfrwt>
<pdfrwt beam="2">  1       -3 0.13190127E+00 0.16912762E+04</pdfrwt>
<totfact> 0.87607862E+00</totfact>
</mgrwt>
</event>
<event>
12    6  0.8914180E-008  0.3681954E+04  0.7818608E-02  0.8071973E-01
          2   -1    0    0  501    0  0.00000000000E+00  0.00000000000E+00  0.13514252520E+04  0.13514252520E+04  0.00000000000E+00 0. -1.
         -1   -1    0    0    0  501 -0.00000000000E+00 -0.00000000000E+00 -0.25078687546E+04  0.25078687546E+04  0.00000000000E+00 0.  1.
         24    2    1    2    0    0 -0.50873488326E+03 -0.32328106462E+03 -0.22188359085E+04  0.23007429944E+04  0.82847506534E+02 0.  0.
        254    2    1    2    0    0  0.50873488326E+03  0.32328106462E+03  0.10623924059E+04  0.15585510121E+04  0.96802985755E+03 0.  0.
         23    2    4    4    0    0  0.13969575167E+03 -0.33527761042E+03  0.27498925106E+03  0.46422095900E+03  0.89196589043E+02 0.  0.
         23    2    4    4    0    0  0.36903913159E+03  0.65855867503E+03  0.78740315482E+03  0.10943300531E+04  0.87550715660E+02 0.  0.
          4    1    3    3  502    0 -0.63295641227E+02 -0.64310985641E+02 -0.25729368393E+03  0.27265780910E+03  0.00000000000E+00 0. -1.
         -3    1    3    3    0  502 -0.44543924203E+03 -0.25897007898E+03 -0.19615422245E+04  0.20280851853E+04  0.00000000000E+00 0.  1.
         11    1    5    5    0    0  0.42187925628E+02 -0.19142013494E+03  0.11092797388E+03  0.22522545265E+03  0.00000000000E+00 0. -1.
        -11    1    5    5    0    0  0.97507826038E+02 -0.14385747548E+03  0.16406127718E+03  0.23899550636E+03  0.00000000000E+00 0.  1.
          4    1    6    6  503    0  0.14156788674E+03  0.23774963187E+03  0.34977748586E+03  0.44599399505E+03  0.00000000000E+00 0. -1.
         -4    1    6    6    0  503  0.22747124485E+03  0.42080904317E+03  0.43762566896E+03  0.64833605806E+03  0.00000000000E+00 0.  1.
<mgrwt>
<rscale>  0 0.36819545E+04</rscale>
<asrwt>0</asrwt>
<pdfrwt beam="1">  1        2 0.20791158E+00 0.36819545E+04</pdfrwt>
<pdfrwt beam="2">  1       -1 0.38582596E+00 0.36819545E+04</pdfrwt>
<totfact> 0.12704892E-01</totfact>
</mgrwt>
</event>
<event>
12    6  0.8914180E-008  0.1428073E+04  0.7818608E-02  0.8933745E-01
          2   -1    0    0  501    0  0.00000000000E+00  0.00000000000E+00  0.58082158505E+03  0.58082158505E+03  0.00000000000E+00 0. -1.
         -1   -1    0    0    0  501 -0.00000000000E+00 -0.00000000000E+00 -0.87780515919E+03  0.87780515919E+03  0.00000000000E+00 0.  1.
         24    2    1    2    0    0 -0.19829995049E+03 -0.34339601685E+03 -0.24942309069E+03  0.47493930794E+03  0.78177831312E+02 0.  0.
        254    2    1    2    0    0  0.19829995049E+03  0.34339601685E+03 -0.47560483454E+02  0.98368743629E+03  0.89896344641E+03 0.  0.
         23    2    4    4    0    0  0.12097098066E+03  0.55719007927E+03 -0.28312226710E+03  0.64294565448E+03  0.90145071286E+02 0.  0.
         23    2    4    4    0    0  0.77328969831E+02 -0.21379406242E+03  0.23556178365E+03  0.34074178182E+03  0.94487762472E+02 0.  0.
          2    1    3    3  502    0 -0.15741659435E+03 -0.26099536160E+03 -0.22761539942E+03  0.38040417060E+03  0.00000000000E+00 0. -1.
         -1    1    3    3    0  502 -0.40883356143E+02 -0.82400655247E+02 -0.21807691266E+02  0.94535137346E+02  0.00000000000E+00 0.  1.
         11    1    5    5    0    0  0.24850140212E+02  0.75199809162E+02 -0.77504982957E+01  0.79577704104E+02  0.00000000000E+00 0. -1.
        -11    1    5    5    0    0  0.96120840447E+02  0.48199027011E+03 -0.27537176881E+03  0.56336795037E+03  0.00000000000E+00 0.  1.
          1    1    6    6  503    0  0.59210303719E+02 -0.57288726473E+02  0.46377321932E+02  0.94544773716E+02  0.00000000000E+00 0. -1.
         -1    1    6    6    0  503  0.18118666113E+02 -0.15650533595E+03  0.18918446172E+03  0.24619700810E+03  0.00000000000E+00 0.  1.
<mgrwt>
<rscale>  0 0.14280731E+04</rscale>
<asrwt>0</asrwt>
<pdfrwt beam="1">  1        2 0.89357167E-01 0.14280731E+04</pdfrwt>
<pdfrwt beam="2">  1       -1 0.13504695E+00 0.14280731E+04</pdfrwt>
<totfact> 0.26357976E+01</totfact>
</mgrwt>
</event>
<event>
12    6  0.8914180E-008  0.1953762E+04  0.7818608E-02  0.8628549E-01
         -1   -1    0    0    0  501 -0.00000000000E+00  0.00000000000E+00  0.71419315612E+03  0.71419315612E+03  0.00000000000E+00 0.  1.
          2   -1    0    0  501    0  0.00000000000E+00 -0.00000000000E+00 -0.13361877036E+04  0.13361877036E+04  0.00000000000E+00 0. -1.
         24    2    1    2    0    0  0.71798979535E+03 -0.27377363885E+03 -0.28640506275E+03  0.82458882286E+03  0.86356906294E+02 0.  0.
        254    2    1    2    0    0 -0.71798979535E+03  0.27377363885E+03 -0.33558948469E+03  0.12257920368E+04  0.89413895101E+03 0.  0.
         23    2    4    4    0    0 -0.44205861573E+03 -0.27466241758E+03 -0.18166054489E+02  0.52861492135E+03  0.90821066741E+02 0.  0.
         23    2    4    4    0    0 -0.27593117962E+03  0.54843605643E+03 -0.31742343020E+03  0.69717711547E+03  0.91532357153E+02 0.  0.
          2    1    3    3  502    0  0.45742711892E+03 -0.18032122643E+03 -0.13891261866E+03  0.51093250968E+03  0.00000000000E+00 0. -1.
         -1    1    3    3    0  502  0.26056267643E+03 -0.93452412419E+02 -0.14749244409E+03  0.31365631318E+03  0.00000000000E+00 0.  1.
         11    1    5    5    0    0 -0.39454785666E+03 -0.26792506517E+03  0.10607305060E+01  0.47692030455E+03  0.00000000000E+00 0.  1.
        -11    1    5    5    0    0 -0.47510759068E+02 -0.67373524121E+01 -0.19226784996E+02  0.51694616799E+02  0.00000000000E+00 0. -1.
          3    1    6    6  503    0 -0.11354328886E+02  0.95155946188E+02 -0.45938371398E+02  0.10627280389E+03  0.00000000000E+00 0. -1.
         -3    1    6    6    0  503 -0.26457685074E+03  0.45328011025E+03 -0.27148505880E+03  0.59090431158E+03  0.00000000000E+00 0.  1.
<mgrwt>
<rscale>  0 0.19537616E+04</rscale>
<asrwt>0</asrwt>
<pdfrwt beam="1">  1        2 0.20556734E+00 0.19537616E+04</pdfrwt>
<pdfrwt beam="2">  1       -1 0.10987587E+00 0.19537616E+04</pdfrwt>
<totfact> 0.12810663E+01</totfact>
</mgrwt>
</event>
<event>
12    6  0.8914180E-008  0.1714598E+04  0.7818608E-02  0.8753082E-01
         -1   -1    0    0    0  501 -0.00000000000E+00  0.00000000000E+00  0.92860132158E+03  0.92860132158E+03  0.00000000000E+00 0.  1.
          2   -1    0    0  501    0  0.00000000000E+00 -0.00000000000E+00 -0.79147132899E+03  0.79147132899E+03  0.00000000000E+00 0. -1.
         24    2    1    2    0    0  0.38512789391E+03 -0.26869598579E+03 -0.36011273551E+03  0.59676554159E+03  0.76986374807E+02 0.  0.
        254    2    1    2    0    0 -0.38512789391E+03  0.26869598579E+03  0.49724272809E+03  0.11233071090E+04  0.89109343113E+03 0.  0.
         23    2    4    4    0    0  0.43089983286E+02 -0.35857576386E+02 -0.21052545342E+03  0.23764635515E+03  0.94933193006E+02 0.  0.
         23    2    4    4    0    0 -0.42821787719E+03  0.30455356218E+03  0.70776818151E+03  0.88566075383E+03  0.85648990298E+02 0.  0.
          2    1    3    3  502    0  0.31196810477E+03 -0.19949254584E+03 -0.24596580723E+03  0.44454533241E+03  0.00000000000E+00 0. -1.
         -1    1    3    3    0  502  0.73159789141E+02 -0.69203439955E+02 -0.11414692828E+03  0.15222020918E+03  0.00000000000E+00 0.  1.
         11    1    5    5    0    0  0.65429090181E+02 -0.29631934249E+02 -0.91199153401E+02  0.11608747973E+03  0.00000000000E+00 0.  1.
        -11    1    5    5    0    0 -0.22339106895E+02 -0.62256421370E+01 -0.11932630002E+03  0.12155887542E+03  0.00000000000E+00 0. -1.
          2    1    6    6  503    0 -0.28965289961E+03  0.21218697059E+03  0.41433046596E+03  0.54826257192E+03  0.00000000000E+00 0.  1.
         -2    1    6    6    0  503 -0.13856497758E+03  0.92366591589E+02  0.29343771555E+03  0.33739818191E+03  0.00000000000E+00 0. -1.
<mgrwt>
<rscale>  0 0.17145977E+04</rscale>
<asrwt>0</asrwt>
<pdfrwt beam="1">  1        2 0.12176482E+00 0.17145977E+04</pdfrwt>
<pdfrwt beam="2">  1       -1 0.14286174E+00 0.17145977E+04</pdfrwt>
<totfact> 0.15069308E+01</totfact>
</mgrwt>
</event>
<event>
12    6  0.8914180E-008  0.1172891E+04  0.7818608E-02  0.9136922E-01
         -1   -1    0    0    0  501 -0.00000000000E+00  0.00000000000E+00  0.11908380429E+04  0.11908380429E+04  0.00000000000E+00 0.  1.
          2   -1    0    0  501    0  0.00000000000E+00 -0.00000000000E+00 -0.28880355251E+03  0.28880355251E+03  0.00000000000E+00 0. -1.
         24    2    1    2    0    0  0.48941024071E+02  0.29454521321E+02  0.42950110326E+03  0.44104506327E+03  0.82381778730E+02 0.  0.
        254    2    1    2    0    0 -0.48941024071E+02 -0.29454521321E+02  0.47253338715E+03  0.10385965322E+04  0.92311004869E+03 0.  0.
         23    2    4    4    0    0 -0.29280986276E+01 -0.69118433386E+02 -0.26753678989E+03  0.29049853481E+03  0.89596502110E+02 0.  0.
         23    2    4    4    0    0 -0.46012925444E+02  0.39663912066E+02  0.74007017703E+03  0.74809799735E+03  0.90864357611E+02 0.  0.
          2    1    3    3  502    0  0.19500352724E+01  0.22042134085E+02  0.23546069308E+02  0.32312160133E+02  0.00000000000E+00 0. -1.
         -1    1    3    3    0  502  0.46990988799E+02  0.74123872354E+01  0.40595503396E+03  0.40873290314E+03  0.00000000000E+00 0.  1.
         11    1    5    5    0    0  0.50286520678E+01 -0.81893597181E+02 -0.26186015487E+03  0.27441317263E+03  0.00000000000E+00 0.  1.
        -11    1    5    5    0    0 -0.79567506955E+01  0.12775163794E+02 -0.56766350139E+01  0.16085362187E+02  0.00000000000E+00 0. -1.
          2    1    6    6  503    0 -0.69836091893E+02  0.46978312104E+02  0.55057283195E+03  0.55696901604E+03  0.00000000000E+00 0.  1.
         -2    1    6    6    0  503  0.23823166450E+02 -0.73144000379E+01  0.18949734508E+03  0.19112898132E+03  0.00000000000E+00 0. -1.
<mgrwt>
<rscale>  0 0.11728909E+04</rscale>
<asrwt>0</asrwt>
<pdfrwt beam="1">  1        2 0.44431316E-01 0.11728909E+04</pdfrwt>
<pdfrwt beam="2">  1       -1 0.18320585E+00 0.11728909E+04</pdfrwt>
<totfact> 0.25617629E+01</totfact>
</mgrwt>
</event>
<event>
12    6  0.8914180E-008  0.1972517E+04  0.7818608E-02  0.8619578E-01
         -1   -1    0    0    0  501 -0.00000000000E+00  0.00000000000E+00  0.46765172081E+03  0.46765172081E+03  0.00000000000E+00 0.  1.
          2   -1    0    0  501    0  0.00000000000E+00 -0.00000000000E+00 -0.20799801952E+04  0.20799801952E+04  0.00000000000E+00 0. -1.
         24    2    1    2    0    0 -0.14370322894E+03 -0.64843855647E+03 -0.11374140373E+04  0.13195206017E+04  0.79377243225E+02 0.  0.
        254    2    1    2    0    0  0.14370322894E+03  0.64843855647E+03 -0.47491443715E+03  0.12281113143E+04  0.91738241651E+03 0.  0.
         23    2    4    4    0    0  0.66952398893E+02  0.63179855648E+03 -0.71399931065E+03  0.96037593812E+03  0.94206619855E+02 0.  0.
         23    2    4    4    0    0  0.76750830047E+02  0.16639999989E+02  0.23908487350E+03  0.26773537616E+03  0.91395160675E+02 0.  0.
          2    1    3    3  502    0 -0.15108679969E+03 -0.62636978674E+03 -0.10805010080E+04  0.12580336876E+04  0.00000000000E+00 0. -1.
         -1    1    3    3    0  502  0.73835707497E+01 -0.22068769727E+02 -0.56913029259E+02  0.61486914166E+02  0.00000000000E+00 0.  1.
         11    1    5    5    0    0  0.51466855262E+00 -0.15513886822E+01 -0.13796238526E+02  0.13892727883E+02  0.00000000000E+00 0. -1.
        -11    1    5    5    0    0  0.66437730340E+02  0.63334994516E+03 -0.70020307212E+03  0.94648321024E+03  0.00000000000E+00 0.  1.
          1    1    6    6  503    0 -0.58207496601E+01  0.82848058521E+01 -0.39898290371E+01  0.10882916445E+02  0.00000000000E+00 0. -1.
         -1    1    6    6    0  503  0.82571579707E+02  0.83551941373E+01  0.24307470254E+03  0.25685245971E+03  0.00000000000E+00 0.  1.
<mgrwt>
<rscale>  0 0.19725175E+04</rscale>
<asrwt>0</asrwt>
<pdfrwt beam="1">  1        2 0.31999696E+00 0.19725175E+04</pdfrwt>
<pdfrwt beam="2">  1       -1 0.71946418E-01 0.19725175E+04</pdfrwt>
<totfact> 0.12461417E+01</totfact>
</mgrwt>
</event>
<event>
12    6  0.8914180E-008  0.1491447E+04  0.7818608E-02  0.8890161E-01
         -1   -1    0    0    0  501 -0.00000000000E+00  0.00000000000E+00  0.32187015781E+03  0.32187015781E+03  0.00000000000E+00 0.  1.
          2   -1    0    0  501    0  0.00000000000E+00 -0.00000000000E+00 -0.17277253933E+04  0.17277253933E+04  0.00000000000E+00 0. -1.
         24    2    1    2    0    0  0.63665079519E+02  0.50100491106E+02 -0.10908954353E+04  0.10969974574E+04  0.82384885107E+02 0.  0.
        254    2    1    2    0    0 -0.63665079519E+02 -0.50100491106E+02 -0.31495980020E+03  0.95259809369E+03  0.89536593123E+03 0.  0.
         23    2    4    4    0    0 -0.20300553271E+03 -0.42952455984E+03 -0.13221060848E+03  0.49973479517E+03  0.80948296422E+02 0.  0.
         23    2    4    4    0    0  0.13934045319E+03  0.37942406874E+03 -0.18274919172E+03  0.45286329852E+03  0.91156536994E+02 0.  0.
          2    1    3    3  502    0  0.24764329288E+02 -0.22251699872E+02 -0.29384703496E+03  0.29572705339E+03  0.00000000000E+00 0. -1.
         -1    1    3    3    0  502  0.38900750231E+02  0.72352190978E+02 -0.79704840035E+03  0.80127040405E+03  0.00000000000E+00 0.  1.
         11    1    5    5    0    0 -0.21150532772E+02 -0.17156320047E+02  0.68491413316E+01  0.28081935316E+02  0.00000000000E+00 0. -1.
        -11    1    5    5    0    0 -0.18185499994E+03 -0.41236823980E+03 -0.13905974981E+03  0.47165285986E+03  0.00000000000E+00 0.  1.
          1    1    6    6  503    0 -0.42144178289E+01  0.63121466257E+01 -0.19708522042E+02  0.21119430715E+02  0.00000000000E+00 0. -1.
         -1    1    6    6    0  503  0.14355487102E+03  0.37311192211E+03 -0.16304066967E+03  0.43174386780E+03  0.00000000000E+00 0.  1.
<mgrwt>
<rscale>  0 0.14914466E+04</rscale>
<asrwt>0</asrwt>
<pdfrwt beam="1">  1        2 0.26580390E+00 0.14914466E+04</pdfrwt>
<pdfrwt beam="2">  1       -1 0.49518487E-01 0.14914466E+04</pdfrwt>
<totfact> 0.42620284E+01</totfact>
</mgrwt>
</event>
<event>
12    6  0.8914180E-008  0.1411540E+04  0.7818608E-02  0.8945508E-01
         -1   -1    0    0    0  501 -0.00000000000E+00  0.00000000000E+00  0.38744825105E+03  0.38744825105E+03  0.00000000000E+00 0.  1.
          2   -1    0    0  501    0  0.00000000000E+00 -0.00000000000E+00 -0.12856198357E+04  0.12856198357E+04  0.00000000000E+00 0. -1.
         24    2    1    2    0    0  0.17340497199E+03 -0.28233357459E+03  0.25692653414E+02  0.34194886748E+03  0.80544297629E+02 0.  0.
        254    2    1    2    0    0 -0.17340497199E+03  0.28233357459E+03 -0.92386423803E+03  0.13311192192E+04  0.89920615760E+03 0.  0.
         23    2    4    4    0    0 -0.36861237946E+03  0.16628659982E+03 -0.43137691692E+02  0.41683115462E+03  0.91438675882E+02 0.  0.
         23    2    4    4    0    0  0.19520740747E+03  0.11604697476E+03 -0.88072654633E+03  0.91428806461E+03  0.93115967450E+02 0.  0.
          2    1    3    3  502    0 -0.63147406328E+01 -0.32911075657E+02  0.41795048487E+01  0.33771039530E+02  0.00000000000E+00 0. -1.
         -3    1    3    3    0  502  0.17971971263E+03 -0.24942249893E+03  0.21513148566E+02  0.30817782795E+03  0.00000000000E+00 0.  1.
         11    1    5    5    0    0 -0.89643858320E+02  0.53842031834E+02 -0.50144660048E+02  0.11597186149E+03  0.00000000000E+00 0.  1.
        -11    1    5    5    0    0 -0.27896852114E+03  0.11244456799E+03  0.70069683557E+01  0.30085929313E+03  0.00000000000E+00 0. -1.
          1    1    6    6  503    0  0.73541405479E+02  0.89968178057E+02 -0.51594369492E+03  0.52886719288E+03  0.00000000000E+00 0. -1.
         -1    1    6    6    0  503  0.12166600199E+03  0.26078796706E+02 -0.36478285142E+03  0.38542087173E+03  0.00000000000E+00 0.  1.
<mgrwt>
<rscale>  0 0.14115398E+04</rscale>
<asrwt>0</asrwt>
<pdfrwt beam="1">  1        2 0.19778767E+00 0.14115398E+04</pdfrwt>
<pdfrwt beam="2">  1       -1 0.59607424E-01 0.14115398E+04</pdfrwt>
<totfact> 0.53314238E+01</totfact>
</mgrwt>
</event>
<event>
12    6  0.8914180E-008  0.1264405E+04  0.7818608E-02  0.9058279E-01
         -1   -1    0    0    0  501 -0.00000000000E+00  0.00000000000E+00  0.30830424554E+03  0.30830424554E+03  0.00000000000E+00 0.  1.
          2   -1    0    0  501    0  0.00000000000E+00 -0.00000000000E+00 -0.12963817334E+04  0.12963817334E+04  0.00000000000E+00 0. -1.
         24    2    1    2    0    0  0.64967558301E+02 -0.43750425695E+02  0.12506033507E+03  0.17039983875E+03  0.85212289353E+02 0.  0.
        254    2    1    2    0    0 -0.64967558301E+02  0.43750425695E+02 -0.11131378229E+04  0.14342861402E+04  0.90109158011E+03 0.  0.
         23    2    4    4    0    0  0.69856895446E+02  0.43088293530E+03 -0.77862279881E+03  0.89742537692E+03  0.92621566260E+02 0.  0.
         23    2    4    4    0    0 -0.13482445375E+03 -0.38713250960E+03 -0.33451502414E+03  0.53686076329E+03  0.90939344987E+02 0.  0.
          4    1    3    3  502    0 -0.88621006016E+01  0.10838093674E+02 -0.14566167619E+01  0.14075611317E+02  0.00000000000E+00 0. -1.
         -3    1    3    3    0  502  0.73829658902E+02 -0.54588519369E+02  0.12651695183E+03  0.15632422743E+03  0.00000000000E+00 0.  1.
         11    1    5    5    0    0  0.66749255646E+02  0.22524770400E+03 -0.34357029293E+03  0.41621213037E+03  0.00000000000E+00 0.  1.
        -11    1    5    5    0    0  0.31076398001E+01  0.20563523130E+03 -0.43505250588E+03  0.48121324655E+03  0.00000000000E+00 0. -1.
          3    1    6    6  503    0 -0.13249443946E+03 -0.25174298710E+03 -0.22864137268E+03  0.36497422559E+03  0.00000000000E+00 0.  1.
         -3    1    6    6    0  503 -0.23300142850E+01 -0.13538952251E+03 -0.10587365145E+03  0.17188653770E+03  0.00000000000E+00 0. -1.
<mgrwt>
<rscale>  0 0.12644050E+04</rscale>
<asrwt>0</asrwt>
<pdfrwt beam="1">  1        2 0.19944335E+00 0.12644050E+04</pdfrwt>
<pdfrwt beam="2">  1       -1 0.47431422E-01 0.12644050E+04</pdfrwt>
<totfact> 0.82508084E+01</totfact>
</mgrwt>
</event>
<event>
12    6  0.8914180E-008  0.1133043E+04  0.7818608E-02  0.9173571E-01
          2   -1    0    0  501    0  0.00000000000E+00  0.00000000000E+00  0.12711528422E+04  0.12711528422E+04  0.00000000000E+00 0. -1.
         -1   -1    0    0    0  501 -0.00000000000E+00 -0.00000000000E+00 -0.25248457552E+03  0.25248457552E+03  0.00000000000E+00 0.  1.
         24    2    1    2    0    0  0.10446905132E+03  0.15878597384E+03  0.17047743614E+03  0.26809925444E+03  0.81779495151E+02 0.  0.
        254    2    1    2    0    0 -0.10446905132E+03 -0.15878597384E+03  0.84819083050E+03  0.12555381632E+04  0.90599206744E+03 0.  0.
         23    2    4    4    0    0 -0.31581036383E+03 -0.25096106243E+03  0.91040663381E+03  0.99985198187E+03  0.90255780958E+02 0.  0.
         23    2    4    4    0    0  0.21134131251E+03  0.92175088588E+02 -0.62215803317E+02  0.25568618138E+03  0.91341227457E+02 0.  0.
          4    1    3    3  502    0  0.30845275334E+02  0.18008981763E+02  0.74165586797E+02  0.82318216085E+02  0.00000000000E+00 0. -1.
         -3    1    3    3    0  502  0.73623775983E+02  0.14077699208E+03  0.96311849341E+02  0.18578103835E+03  0.00000000000E+00 0.  1.
         11    1    5    5    0    0 -0.12938117929E+03 -0.49702746009E+02  0.28459166320E+03  0.31654741711E+03  0.00000000000E+00 0. -1.
        -11    1    5    5    0    0 -0.18642918454E+03 -0.20125831642E+03  0.62581497061E+03  0.68330456475E+03  0.00000000000E+00 0.  1.
          3    1    6    6  503    0  0.93150733008E+02  0.36104318741E+01  0.51369571567E+01  0.93362104770E+02  0.00000000000E+00 0. -1.
         -3    1    6    6    0  503  0.11819057951E+03  0.88564656714E+02 -0.67352760474E+02  0.16232407661E+03  0.00000000000E+00 0.  1.
<mgrwt>
<rscale>  0 0.11330428E+04</rscale>
<asrwt>0</asrwt>
<pdfrwt beam="1">  1        2 0.19556197E+00 0.11330428E+04</pdfrwt>
<pdfrwt beam="2">  1       -1 0.38843782E-01 0.11330428E+04</pdfrwt>
<totfact> 0.12465038E+02</totfact>
</mgrwt>
</event>
<event>
12    6  0.8914180E-008  0.1361205E+04  0.7818608E-02  0.8982389E-01
          2   -1    0    0  501    0  0.00000000000E+00  0.00000000000E+00  0.10645727143E+04  0.10645727143E+04  0.00000000000E+00 0. -1.
         -1   -1    0    0    0  501 -0.00000000000E+00 -0.00000000000E+00 -0.43512302345E+03  0.43512302345E+03  0.00000000000E+00 0.  1.
         24    2    1    2    0    0 -0.13003700440E+02 -0.20879409990E+03  0.50918869769E+03  0.55646194362E+03  0.81318463301E+02 0.  0.
        254    2    1    2    0    0  0.13003700440E+02  0.20879409990E+03  0.12026099321E+03  0.94323379417E+03  0.91184604599E+03 0.  0.
         23    2    4    4    0    0  0.70735216659E+02  0.47233296253E+03  0.33073048796E+03  0.58882728199E+03  0.96088573568E+02 0.  0.
         23    2    4    4    0    0 -0.57731516219E+02 -0.26353886264E+03 -0.21046949475E+03  0.35440651218E+03  0.92308762157E+02 0.  0.
          4    1    3    3  502    0 -0.84654941117E+01 -0.15905621885E+03  0.45816495070E+03  0.48506253967E+03  0.00000000000E+00 0. -1.
         -3    1    3    3    0  502 -0.45382063288E+01 -0.49737881051E+02  0.51023746989E+02  0.71399403953E+02  0.00000000000E+00 0.  1.
         11    1    5    5    0    0  0.59709011334E+02  0.12888728181E+03  0.11818073731E+03  0.18478036724E+03  0.00000000000E+00 0. -1.
        -11    1    5    5    0    0  0.11026205325E+02  0.34344568072E+03  0.21254975065E+03  0.40404691474E+03  0.00000000000E+00 0.  1.
          4    1    6    6  503    0 -0.35489834708E+02 -0.32847757092E+02 -0.64099469432E+02  0.80294741391E+02  0.00000000000E+00 0. -1.
         -4    1    6    6    0  503 -0.22241681511E+02 -0.23069110555E+03 -0.14637002532E+03  0.27411177079E+03  0.00000000000E+00 0.  1.
<mgrwt>
<rscale>  0 0.13612055E+04</rscale>
<asrwt>0</asrwt>
<pdfrwt beam="1">  1        2 0.16378042E+00 0.13612055E+04</pdfrwt>
<pdfrwt beam="2">  1       -1 0.66942004E-01 0.13612055E+04</pdfrwt>
<totfact> 0.57689446E+01</totfact>
</mgrwt>
</event>
<event>
12    6  0.8914180E-008  0.1996259E+04  0.7818608E-02  0.8608371E-01
         -1   -1    0    0    0  501 -0.00000000000E+00  0.00000000000E+00  0.72933135647E+03  0.72933135647E+03  0.00000000000E+00 0.  1.
          2   -1    0    0  501    0  0.00000000000E+00 -0.00000000000E+00 -0.13659949403E+04  0.13659949403E+04  0.00000000000E+00 0. -1.
         24    2    1    2    0    0  0.37923594698E+02 -0.12362916415E+03  0.56814404265E+03  0.58824376634E+03  0.80750889679E+02 0.  0.
        254    2    1    2    0    0 -0.37923594698E+02  0.12362916415E+03 -0.12048076264E+04  0.15070825304E+04  0.89611046609E+03 0.  0.
         23    2    4    4    0    0  0.35085351463E+03  0.25993604855E+03 -0.40159742948E+03  0.59984399938E+03  0.88698309812E+02 0.  0.
         23    2    4    4    0    0 -0.38877710933E+03 -0.13630688439E+03 -0.80321019696E+03  0.90723853102E+03  0.90597594810E+02 0.  0.
          4    1    3    3  502    0  0.13883884056E+02 -0.15441644378E+02  0.19391793801E+02  0.28412115099E+02  0.00000000000E+00 0. -1.
         -3    1    3    3    0  502  0.24039710642E+02 -0.10818751978E+03  0.54875224885E+03  0.55983165125E+03  0.00000000000E+00 0.  1.
         11    1    5    5    0    0  0.22013369243E+03  0.15122256505E+03 -0.18686727572E+03  0.32595472916E+03  0.00000000000E+00 0. -1.
        -11    1    5    5    0    0  0.13071982220E+03  0.10871348349E+03 -0.21473015376E+03  0.27388927022E+03  0.00000000000E+00 0.  1.
          3    1    6    6  503    0 -0.15447411109E+02  0.18937557314E+01 -0.81921398102E+02  0.83386595372E+02  0.00000000000E+00 0. -1.
         -3    1    6    6    0  503 -0.37332969822E+03 -0.13820064013E+03 -0.72128879886E+03  0.82385193565E+03  0.00000000000E+00 0.  1.
<mgrwt>
<rscale>  0 0.19962594E+04</rscale>
<asrwt>0</asrwt>
<pdfrwt beam="1">  1        2 0.21015307E+00 0.19962594E+04</pdfrwt>
<pdfrwt beam="2">  1       -1 0.11220482E+00 0.19962594E+04</pdfrwt>
<totfact> 0.11672839E+01</totfact>
</mgrwt>
</event>
<event>
12    6  0.8914180E-008  0.2528539E+04  0.7818608E-02  0.8392888E-01
          2   -1    0    0  501    0  0.00000000000E+00  0.00000000000E+00  0.16893121895E+04  0.16893121895E+04  0.00000000000E+00 0. -1.
         -1   -1    0    0    0  501 -0.00000000000E+00 -0.00000000000E+00 -0.94617087461E+03  0.94617087461E+03  0.00000000000E+00 0.  1.
         24    2    1    2    0    0 -0.12846881554E+03 -0.10578145078E+04  0.45067834473E+02  0.10695228636E+04  0.79826540135E+02 0.  0.
        254    2    1    2    0    0  0.12846881554E+03  0.10578145078E+04  0.69807348042E+03  0.15659602005E+04  0.91074090503E+03 0.  0.
         23    2    4    4    0    0  0.53556660167E+02  0.16535791904E+02  0.48611412513E+03  0.49586266701E+03  0.80194099641E+02 0.  0.
         23    2    4    4    0    0  0.74912155372E+02  0.10412787159E+04  0.21195935529E+03  0.10700975335E+04  0.10153210205E+03 0.  0.
          2    1    3    3  502    0 -0.22437845989E+02 -0.12241724427E+03 -0.19268792671E+02  0.12593937033E+03  0.00000000000E+00 0. -1.
         -1    1    3    3    0  502 -0.10603096955E+03 -0.93539726354E+03  0.64336627143E+02  0.94358349325E+03  0.00000000000E+00 0.  1.
         11    1    5    5    0    0  0.43790187774E+02  0.37568952183E+02  0.44445116775E+03  0.44818059666E+03  0.00000000000E+00 0. -1.
        -11    1    5    5    0    0  0.97664723925E+01 -0.21033160279E+02  0.41662957385E+02  0.47682070345E+02  0.00000000000E+00 0.  1.
          2    1    6    6  503    0  0.44238936207E+02  0.17024386895E+03  0.14933295218E+02  0.17653062538E+03  0.00000000000E+00 0. -1.
         -2    1    6    6    0  503  0.30673219165E+02  0.87103484696E+03  0.19702606007E+03  0.89356690815E+03  0.00000000000E+00 0.  1.
<mgrwt>
<rscale>  0 0.25285395E+04</rscale>
<asrwt>0</asrwt>
<pdfrwt beam="1">  1        2 0.25989418E+00 0.25285395E+04</pdfrwt>
<pdfrwt beam="2">  1       -1 0.14556475E+00 0.25285395E+04</pdfrwt>
<totfact> 0.38087382E+00</totfact>
</mgrwt>
</event>
<event>
12    6  0.8914180E-008  0.1232980E+04  0.7818608E-02  0.9084469E-01
         -1   -1    0    0    0  501 -0.00000000000E+00  0.00000000000E+00  0.69554783800E+03  0.69554783800E+03  0.00000000000E+00 0.  1.
          2   -1    0    0  501    0  0.00000000000E+00 -0.00000000000E+00 -0.54641806163E+03  0.54641806163E+03  0.00000000000E+00 0. -1.
         24    2    1    2    0    0 -0.18342820222E+02  0.47952445178E+02 -0.23834489970E+03  0.25953073414E+03  0.88949506467E+02 0.  0.
        254    2    1    2    0    0  0.18342820222E+02 -0.47952445178E+02  0.38747467607E+03  0.98243516548E+03  0.90133586067E+03 0.  0.
         23    2    4    4    0    0 -0.13407619946E+03  0.31581975976E+02  0.64043982191E+03  0.66150942316E+03  0.91965770612E+02 0.  0.
         23    2    4    4    0    0  0.15241901968E+03 -0.79534421154E+02 -0.25296514585E+03  0.32092574232E+03  0.97183771091E+02 0.  0.
          2    1    3    3  502    0  0.35097727322E+02  0.28258761893E+02 -0.90557061155E+02  0.10114835348E+03  0.00000000000E+00 0. -1.
         -1    1    3    3    0  502 -0.53440547544E+02  0.19693683286E+02 -0.14778783854E+03  0.15838238066E+03  0.00000000000E+00 0.  1.
         11    1    5    5    0    0 -0.79752643333E+02  0.90150120772E+01  0.17694802758E+03  0.19429966296E+03  0.00000000000E+00 0.  1.
        -11    1    5    5    0    0 -0.54323556127E+02  0.22566963898E+02  0.46349179433E+03  0.46720976020E+03  0.00000000000E+00 0. -1.
          2    1    6    6  503    0  0.66515691707E+02 -0.64485933605E+02 -0.19590541663E+03  0.21670649538E+03  0.00000000000E+00 0. -1.
         -2    1    6    6    0  503  0.85903327975E+02 -0.15048487549E+02 -0.57059729219E+02  0.10421924694E+03  0.00000000000E+00 0.  1.
<mgrwt>
<rscale>  0 0.12329800E+04</rscale>
<asrwt>0</asrwt>
<pdfrwt beam="1">  1        2 0.84064317E-01 0.12329800E+04</pdfrwt>
<pdfrwt beam="2">  1       -1 0.10700736E+00 0.12329800E+04</pdfrwt>
<totfact> 0.50889270E+01</totfact>
</mgrwt>
</event>
<event>
12    6  0.8914180E-008  0.2188355E+04  0.7818608E-02  0.8523291E-01
          2   -1    0    0  501    0  0.00000000000E+00  0.00000000000E+00  0.30368239872E+04  0.30368239872E+04  0.00000000000E+00 0. -1.
         -1   -1    0    0    0  501 -0.00000000000E+00 -0.00000000000E+00 -0.39423551750E+03  0.39423551750E+03  0.00000000000E+00 0.  1.
         24    2    1    2    0    0  0.81303347637E+03  0.30478248895E+03  0.68721637437E+03  0.11101379679E+04  0.78893367355E+02 0.  0.
        254    2    1    2    0    0 -0.81303347637E+03 -0.30478248895E+03  0.19553720953E+04  0.23209215367E+04  0.89960043868E+03 0.  0.
         23    2    4    4    0    0  0.16635538191E+03 -0.33481695421E+02  0.13931787362E+03  0.23788434197E+03  0.91566113945E+02 0.  0.
         23    2    4    4    0    0 -0.97938885828E+03 -0.27130079353E+03  0.18160542217E+04  0.20830371948E+04  0.90467465808E+02 0.  0.
          2    1    3    3  502    0  0.39533480498E+03  0.17281869046E+03  0.38177371966E+03  0.57611377420E+03  0.00000000000E+00 0. -1.
         -1    1    3    3    0  502  0.41769867138E+03  0.13196379848E+03  0.30544265471E+03  0.53402419374E+03  0.00000000000E+00 0.  1.
         11    1    5    5    0    0  0.23657677261E+02  0.28645531800E+02  0.25138457008E+02  0.44857487739E+02  0.00000000000E+00 0.  1.
        -11    1    5    5    0    0  0.14269770465E+03 -0.62127227221E+02  0.11417941662E+03  0.19302685423E+03  0.00000000000E+00 0. -1.
          1    1    6    6  503    0 -0.74179420730E+03 -0.23530551058E+03  0.14379358931E+04  0.16350189485E+04  0.00000000000E+00 0. -1.
         -1    1    6    6    0  503 -0.23759465098E+03 -0.35995282944E+02  0.37811832854E+03  0.44801824622E+03  0.00000000000E+00 0.  1.
<mgrwt>
<rscale>  0 0.21883545E+04</rscale>
<asrwt>0</asrwt>
<pdfrwt beam="1">  1        2 0.46720367E+00 0.21883545E+04</pdfrwt>
<pdfrwt beam="2">  1       -1 0.60651620E-01 0.21883545E+04</pdfrwt>
<totfact> 0.47441080E+00</totfact>
</mgrwt>
</event>
<event>
12    6  0.8914180E-008  0.3441536E+04  0.7818608E-02  0.8127787E-01
         -1   -1    0    0    0  501 -0.00000000000E+00  0.00000000000E+00  0.18884613601E+04  0.18884613601E+04  0.00000000000E+00 0.  1.
          2   -1    0    0  501    0  0.00000000000E+00 -0.00000000000E+00 -0.15679654782E+04  0.15679654782E+04  0.00000000000E+00 0. -1.
         24    2    1    2    0    0  0.12016273521E+04  0.10416592237E+04  0.30081183521E+03  0.16204650105E+04  0.80354579416E+02 0.  0.
        254    2    1    2    0    0 -0.12016273521E+04 -0.10416592237E+04  0.19684046705E+02  0.18359618277E+04  0.91728193031E+03 0.  0.
         23    2    4    4    0    0 -0.52351581556E+03 -0.90789273281E+03  0.28477748922E+03  0.10898360410E+04  0.91139203540E+02 0.  0.
         23    2    4    4    0    0 -0.67811153649E+03 -0.13376649091E+03 -0.26509344252E+03  0.74612578676E+03  0.93276076169E+02 0.  0.
          2    1    3    3  502    0  0.68171245309E+03  0.58460445318E+03  0.21007050137E+03  0.92229271434E+03  0.00000000000E+00 0. -1.
         -1    1    3    3    0  502  0.51991489896E+03  0.45705477054E+03  0.90741333847E+02  0.69817229614E+03  0.00000000000E+00 0.  1.
         11    1    5    5    0    0 -0.40479157572E+03 -0.63688027927E+03  0.17856623413E+03  0.77547315225E+03  0.00000000000E+00 0. -1.
        -11    1    5    5    0    0 -0.11872423984E+03 -0.27101245355E+03  0.10621125509E+03  0.31436288873E+03  0.00000000000E+00 0.  1.
          3    1    6    6  503    0 -0.38895578704E+03 -0.35308861247E+02 -0.12497853907E+03  0.41006457441E+03  0.00000000000E+00 0. -1.
         -3    1    6    6    0  503 -0.28915574945E+03 -0.98457629661E+02 -0.14011490344E+03  0.33606121235E+03  0.00000000000E+00 0.  1.
<mgrwt>
<rscale>  0 0.34415358E+04</rscale>
<asrwt>0</asrwt>
<pdfrwt beam="1">  1        2 0.24122546E+00 0.34415358E+04</pdfrwt>
<pdfrwt beam="2">  1       -1 0.29053252E+00 0.34415358E+04</pdfrwt>
<totfact> 0.41548860E-01</totfact>
</mgrwt>
</event>
<event>
12    6  0.8914180E-008  0.1933863E+04  0.7818608E-02  0.8638182E-01
          2   -1    0    0  501    0  0.00000000000E+00  0.00000000000E+00  0.11115668380E+04  0.11115668380E+04  0.00000000000E+00 0. -1.
         -1   -1    0    0    0  501 -0.00000000000E+00 -0.00000000000E+00 -0.84111594383E+03  0.84111594383E+03  0.00000000000E+00 0.  1.
         24    2    1    2    0    0  0.65048664572E+03  0.14676366165E+03 -0.25418260860E+03  0.71805793817E+03  0.79535875000E+02 0.  0.
        254    2    1    2    0    0 -0.65048664572E+03 -0.14676366165E+03  0.52463350279E+03  0.12346248437E+04  0.89687554530E+03 0.  0.
         23    2    4    4    0    0 -0.17873421708E+03 -0.40304455413E+03 -0.37219167533E+02  0.45205030784E+03  0.92592555972E+02 0.  0.
         23    2    4    4    0    0 -0.47175242864E+03  0.25628089248E+03  0.56185267033E+03  0.78257453584E+03  0.92272591920E+02 0.  0.
          4    1    3    3  502    0  0.16257772343E+03  0.14387465412E+02 -0.34383270966E+02  0.16679545749E+03  0.00000000000E+00 0. -1.
         -3    1    3    3    0  502  0.48790892228E+03  0.13237619624E+03 -0.21979933764E+03  0.55126248067E+03  0.00000000000E+00 0.  1.
         11    1    5    5    0    0 -0.16012177319E+02 -0.24699825118E+02  0.20921411326E+02  0.36113385818E+02  0.00000000000E+00 0.  1.
        -11    1    5    5    0    0 -0.16272203976E+03 -0.37834472901E+03 -0.58140578859E+02  0.41593692203E+03  0.00000000000E+00 0. -1.
          1    1    6    6  503    0 -0.42086147906E+03  0.19644952013E+03  0.45723491258E+03  0.65175191890E+03  0.00000000000E+00 0. -1.
         -1    1    6    6    0  503 -0.50890949581E+02  0.59831372351E+02  0.10461775775E+03  0.13082261694E+03  0.00000000000E+00 0.  1.
<mgrwt>
<rscale>  0 0.19338631E+04</rscale>
<asrwt>0</asrwt>
<pdfrwt beam="1">  1        2 0.17101028E+00 0.19338631E+04</pdfrwt>
<pdfrwt beam="2">  1       -1 0.12940245E+00 0.19338631E+04</pdfrwt>
<totfact> 0.11714177E+01</totfact>
</mgrwt>
</event>
<event>
12    6  0.8914180E-008  0.1900999E+04  0.7818608E-02  0.8654359E-01
          2   -1    0    0  501    0  0.00000000000E+00  0.00000000000E+00  0.20407427877E+04  0.20407427877E+04  0.00000000000E+00 0. -1.
         -1   -1    0    0    0  501 -0.00000000000E+00 -0.00000000000E+00 -0.44270618443E+03  0.44270618443E+03  0.00000000000E+00 0.  1.
         24    2    1    2    0    0 -0.15240542816E+03 -0.70979045304E+03  0.47386252245E+03  0.87064986190E+03  0.80346686863E+02 0.  0.
        254    2    1    2    0    0  0.15240542816E+03  0.70979045304E+03  0.11241740808E+04  0.16127991102E+04  0.90017981770E+03 0.  0.
         23    2    4    4    0    0  0.21619047321E+03  0.13307478797E+03  0.96932055635E+03  0.10058075542E+04  0.87288460313E+02 0.  0.
         23    2    4    4    0    0 -0.63785045057E+02  0.57671566507E+03  0.15485352443E+03  0.60699155596E+03  0.88258963624E+02 0.  0.
          2    1    3    3  502    0  0.43873363896E+01 -0.12013892787E+03  0.81403827942E+02  0.14518675530E+03  0.00000000000E+00 0. -1.
         -1    1    3    3    0  502 -0.15679276455E+03 -0.58965152517E+03  0.39245869451E+03  0.72546310660E+03  0.00000000000E+00 0.  1.
         11    1    5    5    0    0  0.25105361052E+02 -0.21598078457E+01  0.38590985480E+02  0.46089131949E+02  0.00000000000E+00 0. -1.
        -11    1    5    5    0    0  0.19108511216E+03  0.13523459581E+03  0.93072957087E+03  0.95971842229E+03  0.00000000000E+00 0.  1.
          1    1    6    6  503    0  0.98503283055E+01  0.20071704150E+02  0.18892996387E+02  0.29271959068E+02  0.00000000000E+00 0. -1.
         -1    1    6    6    0  503 -0.73635373362E+02  0.55664396092E+03  0.13596052804E+03  0.57771959689E+03  0.00000000000E+00 0.  1.
<mgrwt>
<rscale>  0 0.19009992E+04</rscale>
<asrwt>0</asrwt>
<pdfrwt beam="1">  1        2 0.31396042E+00 0.19009992E+04</pdfrwt>
<pdfrwt beam="2">  1       -1 0.68108645E-01 0.19009992E+04</pdfrwt>
<totfact> 0.14756909E+01</totfact>
</mgrwt>
</event>
<event>
12    6  0.8914180E-008  0.1472647E+04  0.7818608E-02  0.8902849E-01
         -1   -1    0    0    0  501 -0.00000000000E+00  0.00000000000E+00  0.39076665581E+03  0.39076665581E+03  0.00000000000E+00 0.  1.
          2   -1    0    0  501    0  0.00000000000E+00 -0.00000000000E+00 -0.13874585349E+04  0.13874585349E+04  0.00000000000E+00 0. -1.
         24    2    1    2    0    0  0.29144260006E+03  0.29092464188E+03 -0.56185640837E+03  0.70104095269E+03  0.78739172870E+02 0.  0.
        254    2    1    2    0    0 -0.29144260006E+03 -0.29092464188E+03 -0.43483547066E+03  0.10771842380E+04  0.89535917911E+03 0.  0.
         23    2    4    4    0    0  0.17352783819E+02 -0.25334996718E+03 -0.63943510265E+03  0.69389043117E+03  0.90107463590E+02 0.  0.
         23    2    4    4    0    0 -0.30879538388E+03 -0.37574674699E+02  0.20459963198E+03  0.38329380680E+03  0.91031245434E+02 0.  0.
          2    1    3    3  502    0  0.26568720495E+03  0.27872238757E+03 -0.48633238893E+03  0.62031850910E+03  0.00000000000E+00 0. -1.
         -1    1    3    3    0  502  0.25755395106E+02  0.12202254310E+02 -0.75524019445E+02  0.80722443598E+02  0.00000000000E+00 0.  1.
         11    1    5    5    0    0  0.26601112398E+02 -0.19078709511E+03 -0.56090155158E+03  0.59305807928E+03  0.00000000000E+00 0. -1.
        -11    1    5    5    0    0 -0.92483285794E+01 -0.62562872070E+02 -0.78533551068E+02  0.10083235188E+03  0.00000000000E+00 0.  1.
          1    1    6    6  503    0 -0.26128765302E+03 -0.28293899804E+02  0.20742041622E+03  0.33480593103E+03  0.00000000000E+00 0. -1.
         -1    1    6    6    0  503 -0.47507730858E+02 -0.92807748950E+01 -0.28207842342E+01  0.48487875779E+02  0.00000000000E+00 0.  1.
<mgrwt>
<rscale>  0 0.14726473E+04</rscale>
<asrwt>0</asrwt>
<pdfrwt beam="1">  1        2 0.21345516E+00 0.14726473E+04</pdfrwt>
<pdfrwt beam="2">  1       -1 0.60117948E-01 0.14726473E+04</pdfrwt>
<totfact> 0.45544437E+01</totfact>
</mgrwt>
</event>
<event>
12    6  0.1019542E-007  0.2130444E+04  0.7818608E-02  0.8547950E-01
         -1   -1    0    0    0  501 -0.00000000000E+00  0.00000000000E+00  0.11318414910E+04  0.11318414910E+04  0.00000000000E+00 0.  1.
          2   -1    0    0  501    0  0.00000000000E+00 -0.00000000000E+00 -0.10025240288E+04  0.10025240288E+04  0.00000000000E+00 0. -1.
         24    2    1    2    0    0 -0.37736429785E+03 -0.91930593570E+02 -0.72847287704E+03  0.82949115448E+03  0.80794773668E+02 0.  0.
        254    2    1    2    0    0  0.37736429785E+03  0.91930593570E+02  0.85779033920E+03  0.13048743653E+04  0.90334810337E+03 0.  0.
         23    2    4    4    0    0 -0.71901735834E+02 -0.61020759394E+02  0.80813606723E+03  0.81894963248E+03  0.93280248033E+02 0.  0.
         23    2    4    4    0    0  0.44926603368E+03  0.15295135296E+03  0.49654271965E+02  0.48592473282E+03  0.91778068455E+02 0.  0.
          2    1    3    3  502    0 -0.32677482946E+03 -0.69001842061E+02 -0.55924774813E+03  0.65138397828E+03  0.00000000000E+00 0. -1.
         -1    1    3    3    0  502 -0.50589468388E+02 -0.22928751510E+02 -0.16922512892E+03  0.17810717620E+03  0.00000000000E+00 0.  1.
         11    1    5    5    0    0  0.16577836645E+02 -0.25821043846E+02  0.32999690430E+03  0.33142043966E+03  0.00000000000E+00 0.  1.
        -11    1    5    5    0    0 -0.88479572479E+02 -0.35199715549E+02  0.47813916293E+03  0.48752919282E+03  0.00000000000E+00 0. -1.
          2    1    6    6  503    0  0.37052328715E+03  0.10939053010E+03  0.72508590054E+02  0.39307924140E+03  0.00000000000E+00 0. -1.
         -2    1    6    6    0  503  0.78742746538E+02  0.43560822869E+02 -0.22854318089E+02  0.92845491418E+02  0.00000000000E+00 0.  1.
<mgrwt>
<rscale>  0 0.21304444E+04</rscale>
<asrwt>0</asrwt>
<pdfrwt beam="1">  1        2 0.15423447E+00 0.21304444E+04</pdfrwt>
<pdfrwt beam="2">  1       -1 0.17412946E+00 0.21304444E+04</pdfrwt>
<totfact> 0.60387584E+00</totfact>
</mgrwt>
</event>
<event>
12    6  0.8914180E-008  0.1957997E+04  0.7818608E-02  0.8626514E-01
         -1   -1    0    0    0  501 -0.00000000000E+00  0.00000000000E+00  0.67303321127E+03  0.67303321127E+03  0.00000000000E+00 0.  1.
          2   -1    0    0  501    0  0.00000000000E+00 -0.00000000000E+00 -0.14240573303E+04  0.14240573303E+04  0.00000000000E+00 0. -1.
         24    2    1    2    0    0 -0.73233619739E+03 -0.12347292730E+03 -0.10299889349E+03  0.75417616121E+03  0.81308303938E+02 0.  0.
        254    2    1    2    0    0  0.73233619739E+03  0.12347292730E+03 -0.64802522552E+03  0.13429143803E+04  0.91209674391E+03 0.  0.
         23    2    4    4    0    0  0.60389158955E+03 -0.30543030999E+03 -0.54791249244E+03  0.87521246730E+03  0.88408355658E+02 0.  0.
         23    2    4    4    0    0  0.12844460784E+03  0.42890323729E+03 -0.10011273307E+03  0.46770191304E+03  0.90920382219E+02 0.  0.
          2    1    3    3  502    0 -0.62455376153E+02 -0.11152731068E+01  0.11894921303E+02  0.63587789688E+02  0.00000000000E+00 0. -1.
         -1    1    3    3    0  502 -0.66988082124E+03 -0.12235765419E+03 -0.11489381479E+03  0.69058837152E+03  0.00000000000E+00 0.  1.
         11    1    5    5    0    0  0.17992108076E+03 -0.52726539020E+02 -0.12603914000E+03  0.22591491326E+03  0.00000000000E+00 0. -1.
        -11    1    5    5    0    0  0.42397050879E+03 -0.25270377097E+03 -0.42187335244E+03  0.64929755404E+03  0.00000000000E+00 0.  1.
          4    1    6    6  503    0 -0.79549221897E+01  0.19307142286E+02  0.84887341050E+01  0.22541187569E+02  0.00000000000E+00 0. -1.
         -4    1    6    6    0  503  0.13639953003E+03  0.40959609500E+03 -0.10860146718E+03  0.44516072548E+03  0.00000000000E+00 0.  1.
<mgrwt>
<rscale>  0 0.19579968E+04</rscale>
<asrwt>0</asrwt>
<pdfrwt beam="1">  1        2 0.21908574E+00 0.19579968E+04</pdfrwt>
<pdfrwt beam="2">  1       -1 0.10354357E+00 0.19579968E+04</pdfrwt>
<totfact> 0.13098986E+01</totfact>
</mgrwt>
</event>
<event>
12    6  0.8914180E-008  0.1537728E+04  0.7818608E-02  0.8859745E-01
         -3   -1    0    0    0  501 -0.00000000000E+00  0.00000000000E+00  0.48638813839E+03  0.48638813839E+03  0.00000000000E+00 0.  1.
          4   -1    0    0  501    0  0.00000000000E+00 -0.00000000000E+00 -0.12153907422E+04  0.12153907422E+04  0.00000000000E+00 0. -1.
         24    2    1    2    0    0  0.48569611256E+03  0.53592494887E+02 -0.10858564751E+03  0.50665611473E+03  0.78337133535E+02 0.  0.
        254    2    1    2    0    0 -0.48569611256E+03 -0.53592494887E+02 -0.62041695626E+03  0.11951227658E+04  0.89701078950E+03 0.  0.
         23    2    4    4    0    0 -0.10162643471E+03 -0.18962932762E+03  0.17828094683E+03  0.29376882710E+03  0.90712808644E+02 0.  0.
         23    2    4    4    0    0 -0.38406967785E+03  0.13603683273E+03 -0.79869790309E+03  0.90135393871E+03  0.92222801549E+02 0.  0.
          2    1    3    3  502    0  0.29856300713E+03  0.55387326042E+02 -0.35402525466E+02  0.30571385955E+03  0.00000000000E+00 0. -1.
         -1    1    3    3    0  502  0.18713310542E+03 -0.17948311545E+01 -0.73183122041E+02  0.20094225518E+03  0.00000000000E+00 0.  1.
         11    1    5    5    0    0 -0.18580790683E+02 -0.11573227127E+03  0.60852181873E+02  0.13206889276E+03  0.00000000000E+00 0. -1.
        -11    1    5    5    0    0 -0.83045644027E+02 -0.73897056346E+02  0.11742876495E+03  0.16169993434E+03  0.00000000000E+00 0.  1.
          1    1    6    6  503    0 -0.29558413422E+03  0.87014434949E+02 -0.51473846085E+03  0.59991430669E+03  0.00000000000E+00 0. -1.
         -1    1    6    6    0  503 -0.88485543626E+02  0.49022397780E+02 -0.28395944224E+03  0.30143963202E+03  0.00000000000E+00 0.  1.
<mgrwt>
<rscale>  0 0.15377277E+04</rscale>
<asrwt>0</asrwt>
<pdfrwt beam="1">  1        4 0.18698319E+00 0.15377277E+04</pdfrwt>
<pdfrwt beam="2">  1       -3 0.74828944E-01 0.15377277E+04</pdfrwt>
<totfact> 0.59758301E-01</totfact>
</mgrwt>
</event>
<event>
12    6  0.8914180E-008  0.3204769E+04  0.7818608E-02  0.8187559E-01
          2   -1    0    0  501    0  0.00000000000E+00  0.00000000000E+00  0.26533886587E+04  0.26533886587E+04  0.00000000000E+00 0. -1.
         -1   -1    0    0    0  501 -0.00000000000E+00 -0.00000000000E+00 -0.96768188122E+03  0.96768188122E+03  0.00000000000E+00 0.  1.
         24    2    1    2    0    0 -0.12657357635E+04  0.25827078143E+03  0.15839373217E+04  0.20455298923E+04  0.80896737161E+02 0.  0.
        254    2    1    2    0    0  0.12657357635E+04 -0.25827078143E+03  0.10176945581E+03  0.15755406476E+04  0.89620337570E+03 0.  0.
         23    2    4    4    0    0  0.57186960672E+03  0.31708714776E+03 -0.26191142571E+02  0.66060207034E+03  0.90166584861E+02 0.  0.
         23    2    4    4    0    0  0.69386615673E+03 -0.57535792919E+03  0.12796059838E+03  0.91493857724E+03  0.90838842199E+02 0.  0.
          2    1    3    3  502    0 -0.17353272035E+03  0.54010034135E+02  0.19008843234E+03  0.26299106625E+03  0.00000000000E+00 0. -1.
         -3    1    3    3    0  502 -0.10922030431E+04  0.20426074730E+03  0.13938488893E+04  0.17825388261E+04  0.00000000000E+00 0.  1.
         11    1    5    5    0    0  0.52941545126E+03  0.30408283903E+03 -0.45417062846E+02  0.61221712049E+03  0.00000000000E+00 0.  1.
        -11    1    5    5    0    0  0.42454155457E+02  0.13004308720E+02  0.19225920275E+02  0.48384949843E+02  0.00000000000E+00 0. -1.
          1    1    6    6  503    0  0.14866895583E+03 -0.84280610129E+02  0.51324729306E+01  0.17097374638E+03  0.00000000000E+00 0. -1.
         -1    1    6    6    0  503  0.54519720090E+03 -0.49107731906E+03  0.12282812545E+03  0.74396483086E+03  0.00000000000E+00 0.  1.
<mgrwt>
<rscale>  0 0.32047690E+04</rscale>
<asrwt>0</asrwt>
<pdfrwt beam="1">  1        2 0.40821364E+00 0.32047690E+04</pdfrwt>
<pdfrwt beam="2">  1       -1 0.14887414E+00 0.32047690E+04</pdfrwt>
<totfact> 0.96351535E-01</totfact>
</mgrwt>
</event>
<event>
12    6  0.8914180E-008  0.2820763E+04  0.7818608E-02  0.8296851E-01
          2   -1    0    0  501    0  0.00000000000E+00  0.00000000000E+00  0.17093583971E+04  0.17093583971E+04  0.00000000000E+00 0. -1.
         -1   -1    0    0    0  501 -0.00000000000E+00 -0.00000000000E+00 -0.11636973356E+04  0.11636973356E+04  0.00000000000E+00 0.  1.
         24    2    1    2    0    0  0.12426175974E+04 -0.22333579908E+03  0.14918109043E+03  0.12737615012E+04  0.78968295018E+02 0.  0.
        254    2    1    2    0    0 -0.12426175974E+04  0.22333579908E+03  0.39647997113E+03  0.15992942315E+04  0.89809147588E+03 0.  0.
         23    2    4    4    0    0 -0.12503094636E+04 -0.18781939729E+02  0.45697118919E+03  0.13344913349E+04  0.91749328510E+02 0.  0.
         23    2    4    4    0    0  0.76918661792E+01  0.24211773881E+03 -0.60491218055E+02  0.26480289663E+03  0.88211237084E+02 0.  0.
          2    1    3    3  502    0  0.11711815826E+03 -0.27718277714E+01 -0.31645533662E+00  0.11715138142E+03  0.00000000000E+00 0. -1.
         -1    1    3    3    0  502  0.11254994391E+04 -0.22056397131E+03  0.14949754577E+03  0.11566101197E+04  0.00000000000E+00 0.  1.
         11    1    5    5    0    0 -0.31468540236E+03 -0.18279264232E+02  0.75795698108E+02  0.32420058885E+03  0.00000000000E+00 0. -1.
        -11    1    5    5    0    0 -0.93562406120E+03 -0.50267549735E+00  0.38117549108E+03  0.10102907461E+04  0.00000000000E+00 0.  1.
          2    1    6    6  503    0  0.47708419324E+02  0.12787649550E+03 -0.26032706549E+02  0.13894672787E+03  0.00000000000E+00 0. -1.
         -2    1    6    6    0  503 -0.40016553144E+02  0.11424124332E+03 -0.34458511506E+02  0.12585616876E+03  0.00000000000E+00 0.  1.
<mgrwt>
<rscale>  0 0.28207629E+04</rscale>
<asrwt>0</asrwt>
<pdfrwt beam="1">  1        2 0.26297822E+00 0.28207629E+04</pdfrwt>
<pdfrwt beam="2">  1       -1 0.17903036E+00 0.28207629E+04</pdfrwt>
<totfact> 0.20263897E+00</totfact>
</mgrwt>
</event>
<event>
12    6  0.8914180E-008  0.3414450E+04  0.7818608E-02  0.8134369E-01
          2   -1    0    0  501    0  0.00000000000E+00  0.00000000000E+00  0.22594943420E+04  0.22594943420E+04  0.00000000000E+00 0. -1.
         -1   -1    0    0    0  501 -0.00000000000E+00 -0.00000000000E+00 -0.12899419918E+04  0.12899419918E+04  0.00000000000E+00 0.  1.
         24    2    1    2    0    0  0.15013607802E+04  0.47679154765E+03  0.26953155626E+03  0.16001177811E+04  0.79468744534E+02 0.  0.
        254    2    1    2    0    0 -0.15013607802E+04 -0.47679154765E+03  0.70002079403E+03  0.19493185527E+04  0.91016445512E+03 0.  0.
         23    2    4    4    0    0 -0.13844157374E+04 -0.24545953633E+03  0.26249414197E+03  0.14330138458E+04  0.88137334705E+02 0.  0.
         23    2    4    4    0    0 -0.11694504287E+03 -0.23133201132E+03  0.43752665206E+03  0.51630470689E+03  0.89164659972E+02 0.  0.
          2    1    3    3  502    0  0.12811379823E+04  0.42861724457E+03  0.21207553023E+03  0.13674806407E+04  0.00000000000E+00 0. -1.
         -1    1    3    3    0  502  0.22022279793E+03  0.48174303089E+02  0.57456026023E+02  0.23263714048E+03  0.00000000000E+00 0.  1.
         11    1    5    5    0    0 -0.56921413993E+03 -0.10047050608E+03  0.63889845051E+02  0.58153329396E+03  0.00000000000E+00 0. -1.
        -11    1    5    5    0    0 -0.81520159744E+03 -0.14498903026E+03  0.19860429692E+03  0.85148055181E+03  0.00000000000E+00 0.  1.
          4    1    6    6  503    0 -0.38973868231E+01 -0.10234260398E+03  0.15448079665E+03  0.18534701170E+03  0.00000000000E+00 0.  1.
         -4    1    6    6    0  503 -0.11304765605E+03 -0.12898940734E+03  0.28304585541E+03  0.33095769519E+03  0.00000000000E+00 0. -1.
<mgrwt>
<rscale>  0 0.34144497E+04</rscale>
<asrwt>0</asrwt>
<pdfrwt beam="1">  1        2 0.34761451E+00 0.34144497E+04</pdfrwt>
<pdfrwt beam="2">  1       -1 0.19845261E+00 0.34144497E+04</pdfrwt>
<totfact> 0.69358700E-01</totfact>
</mgrwt>
</event>
<event>
12    6  0.8914180E-008  0.1244064E+04  0.7818608E-02  0.9075138E-01
         -1   -1    0    0    0  501 -0.00000000000E+00  0.00000000000E+00  0.66676298516E+03  0.66676298516E+03  0.00000000000E+00 0.  1.
          2   -1    0    0  501    0  0.00000000000E+00 -0.00000000000E+00 -0.58030194443E+03  0.58030194443E+03  0.00000000000E+00 0. -1.
         24    2    1    2    0    0 -0.18623147132E+03 -0.13014762070E+03  0.19643523497E+03  0.31047680191E+03  0.78666885690E+02 0.  0.
        254    2    1    2    0    0  0.18623147132E+03  0.13014762070E+03 -0.10997419424E+03  0.93658812768E+03  0.90193261024E+03 0.  0.
         23    2    4    4    0    0 -0.29789204723E+03 -0.10438433321E+03  0.11137281004E+03  0.34773282473E+03  0.94225547271E+02 0.  0.
         23    2    4    4    0    0  0.48412351855E+03  0.23453195391E+03 -0.22134700428E+03  0.58885530295E+03  0.91516407735E+02 0.  0.
          4    1    3    3  502    0 -0.26539651258E+02 -0.16047500091E+02  0.71193002423E+02  0.77655128241E+02  0.00000000000E+00 0. -1.
         -3    1    3    3    0  502 -0.15969182007E+03 -0.11410012061E+03  0.12524223254E+03  0.23282167367E+03  0.00000000000E+00 0.  1.
         11    1    5    5    0    0 -0.22151299198E+03 -0.31319573779E+02  0.75525932850E+02  0.23612091786E+03  0.00000000000E+00 0. -1.
        -11    1    5    5    0    0 -0.76379055241E+02 -0.73064759430E+02  0.35846877194E+02  0.11161190687E+03  0.00000000000E+00 0.  1.
          4    1    6    6  503    0  0.40410736953E+03  0.22905839188E+03 -0.17611474624E+03  0.49677652606E+03  0.00000000000E+00 0. -1.
         -4    1    6    6    0  503  0.80016149016E+02  0.54735620266E+01 -0.45232258046E+02  0.92078776884E+02  0.00000000000E+00 0.  1.
<mgrwt>
<rscale>  0 0.12440641E+04</rscale>
<asrwt>0</asrwt>
<pdfrwt beam="1">  1        2 0.89277222E-01 0.12440641E+04</pdfrwt>
<pdfrwt beam="2">  1       -1 0.10257892E+00 0.12440641E+04</pdfrwt>
<totfact> 0.52218021E+01</totfact>
</mgrwt>
</event>
<event>
12    6  0.8914180E-008  0.2062368E+04  0.7818608E-02  0.8578004E-01
          2   -1    0    0  501    0  0.00000000000E+00  0.00000000000E+00  0.75876920796E+03  0.75876920796E+03  0.00000000000E+00 0. -1.
         -1   -1    0    0    0  501 -0.00000000000E+00 -0.00000000000E+00 -0.14014013633E+04  0.14014013633E+04  0.00000000000E+00 0.  1.
         24    2    1    2    0    0  0.38207727340E+03  0.73778420404E+03 -0.34480280246E+03  0.90311876873E+03  0.80162106271E+02 0.  0.
        254    2    1    2    0    0 -0.38207727340E+03 -0.73778420404E+03 -0.29782935285E+03  0.12570518025E+04  0.89508007248E+03 0.  0.
         23    2    4    4    0    0 -0.40906420728E+03 -0.85586953694E+03 -0.36531387970E+02  0.95371970640E+03  0.91654493207E+02 0.  0.
         23    2    4    4    0    0  0.26986933882E+02  0.11808533291E+03 -0.26129796488E+03  0.30333209609E+03  0.95190827389E+02 0.  0.
          4    1    3    3  502    0  0.22178894061E+03  0.42007924746E+03 -0.23963290180E+03  0.53205341456E+03  0.00000000000E+00 0. -1.
         -3    1    3    3    0  502  0.16028833278E+03  0.31770495658E+03 -0.10516990066E+03  0.37106535417E+03  0.00000000000E+00 0.  1.
         11    1    5    5    0    0 -0.25546970407E+03 -0.61839797582E+03 -0.45717046897E+01  0.66910516862E+03  0.00000000000E+00 0. -1.
        -11    1    5    5    0    0 -0.15359450321E+03 -0.23747156113E+03 -0.31959683281E+02  0.28461453778E+03  0.00000000000E+00 0.  1.
          2    1    6    6  503    0  0.43810779974E+02  0.12719695248E+03 -0.22107744551E+03  0.25879274734E+03  0.00000000000E+00 0. -1.
         -2    1    6    6    0  503 -0.16823846092E+02 -0.91116195748E+01 -0.40220519365E+02  0.44539348744E+02  0.00000000000E+00 0.  1.
<mgrwt>
<rscale>  0 0.20623678E+04</rscale>
<asrwt>0</asrwt>
<pdfrwt beam="1">  1        2 0.11673373E+00 0.20623678E+04</pdfrwt>
<pdfrwt beam="2">  1       -1 0.21560021E+00 0.20623678E+04</pdfrwt>
<totfact> 0.45902053E+00</totfact>
</mgrwt>
</event>
<event>
12    6  0.8914180E-008  0.2037961E+04  0.7818608E-02  0.8589075E-01
         -1   -1    0    0    0  501 -0.00000000000E+00  0.00000000000E+00  0.60192919104E+03  0.60192919104E+03  0.00000000000E+00 0.  1.
          2   -1    0    0  501    0  0.00000000000E+00 -0.00000000000E+00 -0.17249892276E+04  0.17249892276E+04  0.00000000000E+00 0. -1.
         24    2    1    2    0    0  0.12292885054E+03 -0.42925501715E+03  0.32998075393E+03  0.55968310207E+03  0.70615187694E+02 0.  0.
        254    2    1    2    0    0 -0.12292885054E+03  0.42925501715E+03 -0.14530407905E+04  0.17672353166E+04  0.90134441433E+03 0.  0.
         23    2    4    4    0    0  0.36515248160E+03  0.79624011597E+02 -0.42416122480E+03  0.57256142555E+03  0.90760802996E+02 0.  0.
         23    2    4    4    0    0 -0.48808133214E+03  0.34963100555E+03 -0.10288795657E+04  0.11946738910E+04  0.90483801577E+02 0.  0.
          4    1    3    3  502    0  0.23995040384E+02 -0.20811983402E+03  0.16327024885E+03  0.26560647853E+03  0.00000000000E+00 0. -1.
         -3    1    3    3    0  502  0.98933810157E+02 -0.22113518313E+03  0.16671050509E+03  0.29407662354E+03  0.00000000000E+00 0.  1.
         11    1    5    5    0    0  0.14257581826E+03  0.18029929471E+02 -0.22820966353E+03  0.26968980855E+03  0.00000000000E+00 0. -1.
        -11    1    5    5    0    0  0.22257666334E+03  0.61594082127E+02 -0.19595156127E+03  0.30287161700E+03  0.00000000000E+00 0.  1.
          1    1    6    6  503    0 -0.26007119639E+02  0.15873615955E+02 -0.21773113390E+02  0.37448770635E+02  0.00000000000E+00 0. -1.
         -1    1    6    6    0  503 -0.46207421250E+03  0.33375738960E+03 -0.10071064523E+04  0.11572251204E+04  0.00000000000E+00 0.  1.
<mgrwt>
<rscale>  0 0.20379611E+04</rscale>
<asrwt>0</asrwt>
<pdfrwt beam="1">  1        2 0.26538295E+00 0.20379611E+04</pdfrwt>
<pdfrwt beam="2">  1       -1 0.92604492E-01 0.20379611E+04</pdfrwt>
<totfact> 0.11358780E+01</totfact>
</mgrwt>
</event>
<event>
12    6  0.8914180E-008  0.2914602E+04  0.7818608E-02  0.8268546E-01
          2   -1    0    0  501    0  0.00000000000E+00  0.00000000000E+00  0.16122855558E+04  0.16122855558E+04  0.00000000000E+00 0. -1.
         -1   -1    0    0    0  501 -0.00000000000E+00 -0.00000000000E+00 -0.13172149844E+04  0.13172149844E+04  0.00000000000E+00 0.  1.
         24    2    1    2    0    0  0.11292390973E+04 -0.64061582766E+03  0.35468381004E+03  0.13483128142E+04  0.81100322167E+02 0.  0.
        254    2    1    2    0    0 -0.11292390973E+04  0.64061582766E+03 -0.59613238617E+02  0.15811877260E+04  0.90057276730E+03 0.  0.
         23    2    4    4    0    0  0.14070695781E+03  0.10315129075E+03 -0.25271220453E+02  0.19874969884E+03  0.91783285221E+02 0.  0.
         23    2    4    4    0    0 -0.12699460551E+04  0.53746453691E+03 -0.34342018164E+02  0.13824380272E+04  0.91238223929E+02 0.  0.
          4    1    3    3  502    0  0.69360739879E+03 -0.36389924653E+03  0.18241150838E+03  0.80423121281E+03  0.00000000000E+00 0. -1.
         -1    1    3    3    0  502  0.43563169849E+03 -0.27671658113E+03  0.17227230166E+03  0.54408160134E+03  0.00000000000E+00 0.  1.
         11    1    5    5    0    0  0.13324308984E+03  0.57710708047E+02 -0.39627224668E+02  0.15051433071E+03  0.00000000000E+00 0.  1.
        -11    1    5    5    0    0  0.74638679669E+01  0.45440582706E+02  0.14356004215E+02  0.48235368131E+02  0.00000000000E+00 0. -1.
          2    1    6    6  503    0 -0.12567380729E+04  0.52656024214E+03 -0.42951051757E+02  0.13632685228E+04  0.00000000000E+00 0.  1.
         -2    1    6    6    0  503 -0.13207982203E+02  0.10904294762E+02  0.86090335928E+01  0.19169504363E+02  0.00000000000E+00 0. -1.
<mgrwt>
<rscale>  0 0.29146023E+04</rscale>
<asrwt>0</asrwt>
<pdfrwt beam="1">  1        2 0.24804393E+00 0.29146023E+04</pdfrwt>
<pdfrwt beam="2">  1       -1 0.20264846E+00 0.29146023E+04</pdfrwt>
<totfact> 0.15546406E+00</totfact>
</mgrwt>
</event>
<event>
12    6  0.8914180E-008  0.1562508E+04  0.7818608E-02  0.8843918E-01
          2   -1    0    0  501    0  0.00000000000E+00  0.00000000000E+00  0.81991905975E+03  0.81991905975E+03  0.00000000000E+00 0. -1.
         -1   -1    0    0    0  501 -0.00000000000E+00 -0.00000000000E+00 -0.74441182661E+03  0.74441182661E+03  0.00000000000E+00 0.  1.
         24    2    1    2    0    0  0.14983269678E+03  0.26480152007E+03 -0.40487439259E+03  0.51245634595E+03  0.78221165156E+02 0.  0.
        254    2    1    2    0    0 -0.14983269678E+03 -0.26480152007E+03  0.48038162572E+03  0.10518745404E+04  0.88493155688E+03 0.  0.
         23    2    4    4    0    0 -0.16108053318E+03 -0.29636992935E+03  0.71519609669E+03  0.79591286067E+03  0.90497247863E+02 0.  0.
         23    2    4    4    0    0  0.11247836402E+02  0.31568409282E+02 -0.23481447097E+03  0.25596167973E+03  0.96205339911E+02 0.  0.
          4    1    3    3  502    0  0.77653144764E+01  0.19522544220E+02 -0.38338861850E+01  0.21357165660E+02  0.00000000000E+00 0. -1.
         -3    1    3    3    0  502  0.14206738230E+03  0.24527897585E+03 -0.40104050641E+03  0.49109918029E+03  0.00000000000E+00 0.  1.
         11    1    5    5    0    0 -0.12219186161E+02 -0.37431508443E+02  0.33657277256E+02  0.51799986941E+02  0.00000000000E+00 0. -1.
        -11    1    5    5    0    0 -0.14886134702E+03 -0.25893842091E+03  0.68153881943E+03  0.74411287373E+03  0.00000000000E+00 0.  1.
          4    1    6    6  503    0  0.26885381592E+02  0.53931266306E+01 -0.22063995731E+03  0.22233735701E+03  0.00000000000E+00 0.  1.
         -4    1    6    6    0  503 -0.15637545190E+02  0.26175282651E+02 -0.14174513658E+02  0.33624322728E+02  0.00000000000E+00 0. -1.
<mgrwt>
<rscale>  0 0.15625075E+04</rscale>
<asrwt>0</asrwt>
<pdfrwt beam="1">  1        2 0.12614139E+00 0.15625075E+04</pdfrwt>
<pdfrwt beam="2">  1       -1 0.11452490E+00 0.15625075E+04</pdfrwt>
<totfact> 0.25373963E+01</totfact>
</mgrwt>
</event>
<event>
12    6  0.8914180E-008  0.2157037E+04  0.7818608E-02  0.8536526E-01
          2   -1    0    0  501    0  0.00000000000E+00  0.00000000000E+00  0.21332066107E+04  0.21332066107E+04  0.00000000000E+00 0. -1.
         -1   -1    0    0    0  501 -0.00000000000E+00 -0.00000000000E+00 -0.54528340751E+03  0.54528340751E+03  0.00000000000E+00 0.  1.
         24    2    1    2    0    0  0.78056492145E+02 -0.36023320449E+03  0.16607852508E+04  0.17030640115E+04  0.79740831178E+02 0.  0.
        254    2    1    2    0    0 -0.78056492145E+02  0.36023320449E+03 -0.72862047684E+02  0.97542600671E+03  0.90015900761E+03 0.  0.
         23    2    4    4    0    0 -0.37540238604E+03  0.30458338024E+03 -0.30936146261E+03  0.58056505694E+03  0.87483048808E+02 0.  0.
         23    2    4    4    0    0  0.29734589390E+03  0.55649824252E+02  0.23649941492E+03  0.39486094977E+03  0.92041908024E+02 0.  0.
          4    1    3    3  502    0  0.76483834931E+02 -0.34632842142E+03  0.14868460397E+04  0.15285628212E+04  0.00000000000E+00 0. -1.
         -3    1    3    3    0  502  0.15726572137E+01 -0.13904783075E+02  0.17393921114E+03  0.17450119030E+03  0.00000000000E+00 0.  1.
         11    1    5    5    0    0 -0.35710326227E+03  0.27781849085E+03 -0.30944195080E+03  0.54814247664E+03  0.00000000000E+00 0. -1.
        -11    1    5    5    0    0 -0.18299123777E+02  0.26764889393E+02  0.80488194059E-01  0.32422580304E+02  0.00000000000E+00 0.  1.
          2    1    6    6  503    0  0.88235732206E+02  0.19690433616E+02  0.12756186504E+03  0.15634988656E+03  0.00000000000E+00 0. -1.
         -2    1    6    6    0  503  0.20911016169E+03  0.35959390636E+02  0.10893754988E+03  0.23851106321E+03  0.00000000000E+00 0.  1.
<mgrwt>
<rscale>  0 0.21570370E+04</rscale>
<asrwt>0</asrwt>
<pdfrwt beam="1">  1        2 0.32818563E+00 0.21570370E+04</pdfrwt>
<pdfrwt beam="2">  1       -1 0.83889756E-01 0.21570370E+04</pdfrwt>
<totfact> 0.82789132E+00</totfact>
</mgrwt>
</event>
<event>
12    6  0.8914180E-008  0.1201808E+04  0.7818608E-02  0.9111275E-01
          2   -1    0    0  501    0  0.00000000000E+00  0.00000000000E+00  0.22543222703E+04  0.22543222703E+04  0.00000000000E+00 0. -1.
         -1   -1    0    0    0  501 -0.00000000000E+00 -0.00000000000E+00 -0.16017486571E+03  0.16017486571E+03  0.00000000000E+00 0.  1.
         24    2    1    2    0    0 -0.24663866704E+03  0.31586747304E+02  0.37339487935E+03  0.45598387603E+03  0.81665198147E+02 0.  0.
        254    2    1    2    0    0  0.24663866704E+03 -0.31586747304E+02  0.17207525253E+04  0.19585132600E+04  0.90164104925E+03 0.  0.
         23    2    4    4    0    0  0.44699771584E+02  0.41973958133E+03  0.78059090948E+03  0.89238380617E+03  0.94060107579E+02 0.  0.
         23    2    4    4    0    0  0.20193889546E+03 -0.45132632863E+03  0.94016161580E+03  0.10661294538E+04  0.90848093584E+02 0.  0.
          2    1    3    3  502    0 -0.62836987325E+02 -0.79930710584E+01  0.15713302219E+03  0.16942007799E+03  0.00000000000E+00 0. -1.
         -1    1    3    3    0  502 -0.18380167972E+03  0.39579818362E+02  0.21626185716E+03  0.28656379805E+03  0.00000000000E+00 0.  1.
         11    1    5    5    0    0 -0.12170405154E+02  0.14433177044E+03  0.34163839601E+03  0.37107488779E+03  0.00000000000E+00 0. -1.
        -11    1    5    5    0    0  0.56870176737E+02  0.27540781089E+03  0.43895251348E+03  0.52130891839E+03  0.00000000000E+00 0.  1.
          2    1    6    6  503    0  0.92061721739E+02 -0.16651459137E+03  0.45147041553E+03  0.48992653107E+03  0.00000000000E+00 0.  1.
         -2    1    6    6    0  503  0.10987717372E+03 -0.28481173726E+03  0.48869120026E+03  0.57620292276E+03  0.00000000000E+00 0. -1.
<mgrwt>
<rscale>  0 0.12018082E+04</rscale>
<asrwt>0</asrwt>
<pdfrwt beam="1">  1        2 0.34681879E+00 0.12018082E+04</pdfrwt>
<pdfrwt beam="2">  1       -1 0.24642289E-01 0.12018082E+04</pdfrwt>
<totfact> 0.77918725E+01</totfact>
</mgrwt>
</event>
<event>
12    6  0.8914180E-008  0.1840032E+04  0.7818608E-02  0.8685296E-01
         -3   -1    0    0    0  501 -0.00000000000E+00  0.00000000000E+00  0.17646137570E+04  0.17646137570E+04  0.00000000000E+00 0.  1.
          4   -1    0    0  501    0  0.00000000000E+00 -0.00000000000E+00 -0.47966821348E+03  0.47966821348E+03  0.00000000000E+00 0. -1.
         24    2    1    2    0    0 -0.57709770544E+03 -0.37880021763E+03  0.36480562248E+03  0.78479294481E+03  0.79280877392E+02 0.  0.
        254    2    1    2    0    0  0.57709770544E+03  0.37880021763E+03  0.92013992103E+03  0.14594890257E+04  0.89828691142E+03 0.  0.
         23    2    4    4    0    0  0.66867536164E+03  0.50164362704E+02  0.28805572627E+03  0.73571737278E+03  0.93063143139E+02 0.  0.
         23    2    4    4    0    0 -0.91577656200E+02  0.32863585492E+03  0.63208419475E+03  0.72377165288E+03  0.89033611618E+02 0.  0.
          2    1    3    3  502    0 -0.50706290150E+03 -0.31478353329E+03  0.33933685960E+03  0.68655004420E+03  0.00000000000E+00 0. -1.
         -1    1    3    3    0  502 -0.70034803945E+02 -0.64016684333E+02  0.25468762885E+02  0.98242900606E+02  0.00000000000E+00 0.  1.
         11    1    5    5    0    0  0.62856949676E+02  0.17257476238E+02  0.26713750577E+01  0.65237664378E+02  0.00000000000E+00 0. -1.
        -11    1    5    5    0    0  0.60581841197E+03  0.32906886466E+02  0.28538435122E+03  0.67047970840E+03  0.00000000000E+00 0.  1.
          4    1    6    6  503    0 -0.26319958977E+02  0.16799895986E+03  0.39502775846E+03  0.43007362242E+03  0.00000000000E+00 0. -1.
         -4    1    6    6    0  503 -0.65257697223E+02  0.16063689507E+03  0.23705643629E+03  0.29369803045E+03  0.00000000000E+00 0.  1.
<mgrwt>
<rscale>  0 0.18400317E+04</rscale>
<asrwt>0</asrwt>
<pdfrwt beam="1">  1        4 0.73795111E-01 0.18400317E+04</pdfrwt>
<pdfrwt beam="2">  1       -3 0.27147904E+00 0.18400317E+04</pdfrwt>
<totfact> 0.19773166E-01</totfact>
</mgrwt>
</event>
<event>
12    6  0.8914180E-008  0.1755598E+04  0.7818608E-02  0.8730275E-01
         -3   -1    0    0    0  501 -0.00000000000E+00  0.00000000000E+00  0.12940248292E+04  0.12940248292E+04  0.00000000000E+00 0.  1.
          2   -1    0    0  501    0  0.00000000000E+00 -0.00000000000E+00 -0.59545337699E+03  0.59545337699E+03  0.00000000000E+00 0. -1.
         24    2    1    2    0    0 -0.79432853497E+02 -0.61434569298E+03  0.11817491449E+03  0.63878781769E+03  0.10175636054E+03 0.  0.
        254    2    1    2    0    0  0.79432853497E+02  0.61434569298E+03  0.58039653770E+03  0.12506903885E+04  0.91849665115E+03 0.  0.
         23    2    4    4    0    0 -0.37297635030E+03  0.63916907271E+02  0.19724118898E+03  0.43676193605E+03  0.93060051745E+02 0.  0.
         23    2    4    4    0    0  0.45240920380E+03  0.55042878571E+03  0.38315534872E+03  0.81392845243E+03  0.89585537959E+02 0.  0.
          2    1    3    3  502    0 -0.26026597771E+02 -0.29127972086E+03  0.54935098873E+01  0.29249177463E+03  0.00000000000E+00 0. -1.
         -1    1    3    3    0  502 -0.53406255726E+02 -0.32306597213E+03  0.11268140460E+03  0.34629604306E+03  0.00000000000E+00 0.  1.
         11    1    5    5    0    0 -0.25321337134E+03  0.86487192117E+02  0.12835344188E+03  0.29676868411E+03  0.00000000000E+00 0. -1.
        -11    1    5    5    0    0 -0.11976297896E+03 -0.22570284846E+02  0.68887747102E+02  0.13999325194E+03  0.00000000000E+00 0.  1.
          3    1    6    6  503    0  0.36768809307E+03  0.46287893446E+03  0.27914239795E+03  0.65373688904E+03  0.00000000000E+00 0. -1.
         -3    1    6    6    0  503  0.84721110727E+02  0.87549851251E+02  0.10401295077E+03  0.16019156340E+03  0.00000000000E+00 0.  1.
<mgrwt>
<rscale>  0 0.17555984E+04</rscale>
<asrwt>0</asrwt>
<pdfrwt beam="1">  1        2 0.91608212E-01 0.17555984E+04</pdfrwt>
<pdfrwt beam="2">  1       -3 0.19908074E+00 0.17555984E+04</pdfrwt>
<totfact> 0.44104495E+00</totfact>
</mgrwt>
</event>
<event>
12    6  0.8914180E-008  0.1503557E+04  0.7818608E-02  0.8882091E-01
         -3   -1    0    0    0  501 -0.00000000000E+00  0.00000000000E+00  0.26946912787E+03  0.26946912787E+03  0.00000000000E+00 0.  1.
          2   -1    0    0  501    0  0.00000000000E+00 -0.00000000000E+00 -0.20973483441E+04  0.20973483441E+04  0.00000000000E+00 0. -1.
         24    2    1    2    0    0  0.15030228663E+02 -0.33040979337E+01  0.16168142994E+03  0.18257450257E+03  0.83401075320E+02 0.  0.
        254    2    1    2    0    0 -0.15030228663E+02  0.33040979337E+01 -0.19895606461E+04  0.21842429694E+04  0.90129293784E+03 0.  0.
         23    2    4    4    0    0  0.42828909631E+03 -0.33270928413E+02 -0.82825392329E+03  0.93735487497E+03  0.89950516908E+02 0.  0.
         23    2    4    4    0    0 -0.44331932498E+03  0.36575026346E+02 -0.11613067229E+04  0.12468880944E+04  0.90702034158E+02 0.  0.
          4    1    3    3  502    0  0.22676440805E+02  0.36985328455E+02  0.74057359727E+02  0.85829062783E+02  0.00000000000E+00 0. -1.
         -3    1    3    3    0  502 -0.76462121428E+01 -0.40289426389E+02  0.87624070209E+02  0.96745439784E+02  0.00000000000E+00 0.  1.
         11    1    5    5    0    0  0.85200863983E+01 -0.59795462934E+01 -0.26160993739E+01  0.10732698731E+02  0.00000000000E+00 0. -1.
        -11    1    5    5    0    0  0.41976900992E+03 -0.27291382119E+02 -0.82563782391E+03  0.92662217624E+03  0.00000000000E+00 0.  1.
          1    1    6    6  503    0 -0.23443412305E+02 -0.17024105485E+02 -0.10512268201E+03  0.10904215708E+03  0.00000000000E+00 0. -1.
         -1    1    6    6    0  503 -0.41987591267E+03  0.53599131831E+02 -0.10561840409E+04  0.11378459373E+04  0.00000000000E+00 0.  1.
<mgrwt>
<rscale>  0 0.15035566E+04</rscale>
<asrwt>0</asrwt>
<pdfrwt beam="1">  1        2 0.32266897E+00 0.15035566E+04</pdfrwt>
<pdfrwt beam="2">  1       -3 0.41456789E-01 0.15035566E+04</pdfrwt>
<totfact> 0.21261197E+01</totfact>
</mgrwt>
</event>
<event>
12    6  0.8914180E-008  0.2128200E+04  0.7818608E-02  0.8548922E-01
          2   -1    0    0  501    0  0.00000000000E+00  0.00000000000E+00  0.17838811525E+04  0.17838811525E+04  0.00000000000E+00 0. -1.
         -1   -1    0    0    0  501 -0.00000000000E+00 -0.00000000000E+00 -0.63474457727E+03  0.63474457727E+03  0.00000000000E+00 0.  1.
         24    2    1    2    0    0  0.54203281645E+03 -0.57206580706E+03  0.90523776555E+03  0.12028772611E+04  0.79996446561E+02 0.  0.
        254    2    1    2    0    0 -0.54203281645E+03  0.57206580706E+03  0.24389880964E+03  0.12157484686E+04  0.89302790990E+03 0.  0.
         23    2    4    4    0    0 -0.26240973195E+03 -0.12374002517E+03 -0.17520861085E+03  0.35141747788E+03  0.92874782288E+02 0.  0.
         23    2    4    4    0    0 -0.27962308449E+03  0.69580583223E+03  0.41910742050E+03  0.86433099073E+03  0.95300608998E+02 0.  0.
          4    1    3    3  502    0  0.23462428953E+03 -0.21960125614E+03  0.31730989225E+03  0.45161802074E+03  0.00000000000E+00 0. -1.
         -1    1    3    3    0  502  0.30740852691E+03 -0.35246455092E+03  0.58792787330E+03  0.75125924039E+03  0.00000000000E+00 0.  1.
         11    1    5    5    0    0 -0.16709023428E+03 -0.11849451497E+03 -0.14613128627E+03  0.25162362627E+03  0.00000000000E+00 0. -1.
        -11    1    5    5    0    0 -0.95319497672E+02 -0.52455102067E+01 -0.29077324586E+02  0.99793851609E+02  0.00000000000E+00 0.  1.
          3    1    6    6  503    0 -0.98450896397E+02  0.14651328594E+03  0.79437105140E+02  0.19356904616E+03  0.00000000000E+00 0. -1.
         -3    1    6    6    0  503 -0.18117218810E+03  0.54929254629E+03  0.33967031536E+03  0.67076194457E+03  0.00000000000E+00 0.  1.
<mgrwt>
<rscale>  0 0.21282001E+04</rscale>
<asrwt>0</asrwt>
<pdfrwt beam="1">  1        2 0.27444325E+00 0.21282001E+04</pdfrwt>
<pdfrwt beam="2">  1       -1 0.97653012E-01 0.21282001E+04</pdfrwt>
<totfact> 0.92781880E+00</totfact>
</mgrwt>
</event>
<event>
12    6  0.8914180E-008  0.2036053E+04  0.7818608E-02  0.8589948E-01
          2   -1    0    0  501    0  0.00000000000E+00  0.00000000000E+00  0.12770926409E+04  0.12770926409E+04  0.00000000000E+00 0. -1.
         -1   -1    0    0    0  501 -0.00000000000E+00 -0.00000000000E+00 -0.81151387215E+03  0.81151387215E+03  0.00000000000E+00 0.  1.
         24    2    1    2    0    0  0.39191040686E+03  0.35701774354E+03 -0.44387508388E+03  0.69627238191E+03  0.81943294462E+02 0.  0.
        254    2    1    2    0    0 -0.39191040686E+03 -0.35701774354E+03  0.90945385264E+03  0.13923341311E+04  0.91128073966E+03 0.  0.
         23    2    4    4    0    0 -0.16491108408E+03 -0.10552929363E+03  0.10055355119E+04  0.10283907636E+04  0.90298391155E+02 0.  0.
         23    2    4    4    0    0 -0.22699932278E+03 -0.25148844991E+03 -0.96081659258E+02  0.36394336758E+03  0.91912766126E+02 0.  0.
          2    1    3    3  502    0  0.80527822910E+02  0.88325787772E+02 -0.60271062366E+02  0.13386103244E+03  0.00000000000E+00 0. -1.
         -1    1    3    3    0  502  0.31138258395E+03  0.26869195577E+03 -0.38360402151E+03  0.56241134946E+03  0.00000000000E+00 0.  1.
         11    1    5    5    0    0 -0.12513545256E+02 -0.47921802015E+02  0.16767307788E+03  0.17483520518E+03  0.00000000000E+00 0.  1.
        -11    1    5    5    0    0 -0.15239753882E+03 -0.57607491618E+02  0.83786243401E+03  0.85355555839E+03  0.00000000000E+00 0. -1.
          3    1    6    6  503    0 -0.21088289144E+03 -0.25315042549E+03 -0.75982796065E+02  0.33812736820E+03  0.00000000000E+00 0. -1.
         -3    1    6    6    0  503 -0.16116431345E+02  0.16619755855E+01 -0.20098863194E+02  0.25815999377E+02  0.00000000000E+00 0.  1.
<mgrwt>
<rscale>  0 0.20360534E+04</rscale>
<asrwt>0</asrwt>
<pdfrwt beam="1">  1        2 0.19647579E+00 0.20360534E+04</pdfrwt>
<pdfrwt beam="2">  1       -1 0.12484829E+00 0.20360534E+04</pdfrwt>
<totfact> 0.10106934E+01</totfact>
</mgrwt>
</event>
<event>
12    6  0.8914180E-008  0.1681184E+04  0.7818608E-02  0.8772169E-01
         -1   -1    0    0    0  501 -0.00000000000E+00  0.00000000000E+00  0.15698172663E+03  0.15698172663E+03  0.00000000000E+00 0.  1.
          2   -1    0    0  501    0  0.00000000000E+00 -0.00000000000E+00 -0.45011275889E+04  0.45011275889E+04  0.00000000000E+00 0. -1.
         24    2    1    2    0    0  0.21095827404E+03 -0.13365558950E+03 -0.53927748365E+02  0.26790486752E+03  0.80607729175E+02 0.  0.
        254    2    1    2    0    0 -0.21095827404E+03  0.13365558950E+03 -0.42902181139E+04  0.43902044480E+04  0.89752794966E+03 0.  0.
         23    2    4    4    0    0 -0.16606867632E+02 -0.28681466547E+03 -0.61378886322E+03  0.68351661978E+03  0.88993036335E+02 0.  0.
         23    2    4    4    0    0 -0.19435140641E+03  0.42047025498E+03 -0.36764292507E+04  0.37066878282E+04  0.93994234680E+02 0.  0.
          2    1    3    3  502    0  0.89709669952E+02 -0.38092099628E+02  0.15400599755E+02  0.98671228886E+02  0.00000000000E+00 0. -1.
         -1    1    3    3    0  502  0.12124860409E+03 -0.95563489877E+02 -0.69328348120E+02  0.16923363863E+03  0.00000000000E+00 0.  1.
         11    1    5    5    0    0  0.36008464838E+02 -0.98885421115E+02 -0.19909685736E+03  0.22519878921E+03  0.00000000000E+00 0.  1.
        -11    1    5    5    0    0 -0.52615332470E+02 -0.18792924436E+03 -0.41469200586E+03  0.45831783057E+03  0.00000000000E+00 0. -1.
          3    1    6    6  503    0 -0.19780359971E+03  0.36340300732E+03 -0.33240262538E+04  0.33496773794E+04  0.00000000000E+00 0. -1.
         -3    1    6    6    0  503  0.34521933016E+01  0.57067247660E+02 -0.35240299686E+03  0.35701044885E+03  0.00000000000E+00 0.  1.
<mgrwt>
<rscale>  0 0.16811838E+04</rscale>
<asrwt>0</asrwt>
<pdfrwt beam="1">  1        2 0.69248123E+00 0.16811838E+04</pdfrwt>
<pdfrwt beam="2">  1       -1 0.24151033E-01 0.16811838E+04</pdfrwt>
<totfact> 0.20341908E+00</totfact>
</mgrwt>
</event>
<event>
12    6  0.8914180E-008  0.1060674E+04  0.7818608E-02  0.9244393E-01
         -1   -1    0    0    0  501 -0.00000000000E+00  0.00000000000E+00  0.29710445131E+03  0.29710445131E+03  0.00000000000E+00 0.  1.
          2   -1    0    0  501    0  0.00000000000E+00 -0.00000000000E+00 -0.94666136002E+03  0.94666136002E+03  0.00000000000E+00 0. -1.
         24    2    1    2    0    0 -0.71669633638E+02 -0.16321289456E+02  0.47236109976E+02  0.11875098288E+03  0.80421545459E+02 0.  0.
        254    2    1    2    0    0  0.71669633638E+02  0.16321289456E+02 -0.69679301869E+03  0.11250148284E+04  0.88019028196E+03 0.  0.
         23    2    4    4    0    0 -0.19864685502E+03  0.56303438349E+02 -0.79026212473E+03  0.82192915668E+03  0.91775065432E+02 0.  0.
         23    2    4    4    0    0  0.27031648865E+03 -0.39982148893E+02  0.93469106047E+02  0.30308567177E+03  0.91950390841E+02 0.  0.
          2    1    3    3  502    0 -0.19766558011E+01  0.25948200148E+02  0.35264591534E+01  0.26261229469E+02  0.00000000000E+00 0. -1.
         -1    1    3    3    0  502 -0.69692977837E+02 -0.42269489603E+02  0.43709650823E+02  0.92489753412E+02  0.00000000000E+00 0.  1.
         11    1    5    5    0    0 -0.14990957822E+03  0.60890004207E+02 -0.45085790354E+03  0.47901286354E+03  0.00000000000E+00 0.  1.
        -11    1    5    5    0    0 -0.48737276799E+02 -0.45865658581E+01 -0.33940422119E+03  0.34291629314E+03  0.00000000000E+00 0. -1.
          1    1    6    6  503    0  0.49213468434E+02  0.26267466598E+02  0.31640082661E+02  0.64132987671E+02  0.00000000000E+00 0. -1.
         -1    1    6    6    0  503  0.22110302022E+03 -0.66249615491E+02  0.61829023386E+02  0.23895268409E+03  0.00000000000E+00 0.  1.
<mgrwt>
<rscale>  0 0.10606739E+04</rscale>
<asrwt>0</asrwt>
<pdfrwt beam="1">  1        2 0.14564021E+00 0.10606739E+04</pdfrwt>
<pdfrwt beam="2">  1       -1 0.45708376E-01 0.10606739E+04</pdfrwt>
<totfact> 0.14723281E+02</totfact>
</mgrwt>
</event>
<event>
12    6  0.8914180E-008  0.1732104E+04  0.7818608E-02  0.8743263E-01
          2   -1    0    0  501    0  0.00000000000E+00  0.00000000000E+00  0.61299661302E+03  0.61299661302E+03  0.00000000000E+00 0. -1.
         -1   -1    0    0    0  501 -0.00000000000E+00 -0.00000000000E+00 -0.12235724601E+04  0.12235724601E+04  0.00000000000E+00 0.  1.
         24    2    1    2    0    0 -0.16773466213E+03 -0.37511895527E+03 -0.75053970653E+03  0.85943510605E+03  0.80434463620E+02 0.  0.
        254    2    1    2    0    0  0.16773466213E+03  0.37511895527E+03  0.13996385944E+03  0.97713396709E+03  0.87541519304E+03 0.  0.
         23    2    4    4    0    0 -0.34067598605E+03  0.14644216233E+03 -0.39769235903E+02  0.38397716472E+03  0.91386194404E+02 0.  0.
         23    2    4    4    0    0  0.50841064818E+03  0.22867679294E+03  0.17973309535E+03  0.59315680236E+03  0.93576406313E+02 0.  0.
          4    1    3    3  502    0 -0.55736755378E+02 -0.55059616549E+02 -0.16851349848E+03  0.18583580506E+03  0.00000000000E+00 0. -1.
         -3    1    3    3    0  502 -0.11199790675E+03 -0.32005933872E+03 -0.58202620806E+03  0.67359930098E+03  0.00000000000E+00 0.  1.
         11    1    5    5    0    0 -0.83692162398E+02  0.21527849353E+02  0.27016601754E+02  0.90541278514E+02  0.00000000000E+00 0.  1.
        -11    1    5    5    0    0 -0.25698382365E+03  0.12491431298E+03 -0.66785837657E+02  0.29343588621E+03  0.00000000000E+00 0. -1.
          3    1    6    6  503    0  0.27461599842E+03  0.72297844229E+02  0.87528425782E+02  0.29715677712E+03  0.00000000000E+00 0. -1.
         -3    1    6    6    0  503  0.23379464976E+03  0.15637894871E+03  0.92204669564E+02  0.29600002524E+03  0.00000000000E+00 0.  1.
<mgrwt>
<rscale>  0 0.17321037E+04</rscale>
<asrwt>0</asrwt>
<pdfrwt beam="1">  1        2 0.94307171E-01 0.17321037E+04</pdfrwt>
<pdfrwt beam="2">  1       -1 0.18824192E+00 0.17321037E+04</pdfrwt>
<totfact> 0.95236345E+00</totfact>
</mgrwt>
</event>
<event>
12    6  0.8914180E-008  0.2283396E+04  0.7818608E-02  0.8484497E-01
         -1   -1    0    0    0  501 -0.00000000000E+00  0.00000000000E+00  0.49879870788E+03  0.49879870788E+03  0.00000000000E+00 0.  1.
          2   -1    0    0  501    0  0.00000000000E+00 -0.00000000000E+00 -0.26132260241E+04  0.26132260241E+04  0.00000000000E+00 0. -1.
         24    2    1    2    0    0  0.61295852988E+03 -0.73424067852E+03 -0.88633351910E+03  0.13074323136E+04  0.94681647053E+02 0.  0.
        254    2    1    2    0    0 -0.61295852988E+03  0.73424067852E+03 -0.12280937971E+04  0.18045924183E+04  0.91296872262E+03 0.  0.
         23    2    4    4    0    0 -0.17464197528E+02  0.24269131658E+03 -0.94033369327E+03  0.97558478618E+03  0.91291549291E+02 0.  0.
         23    2    4    4    0    0 -0.59549433235E+03  0.49154936194E+03 -0.28776010381E+03  0.82900763215E+03  0.90628371556E+02 0.  0.
          4    1    3    3  502    0  0.61519916769E+01 -0.30060430413E+02 -0.39089336177E+02  0.49693587926E+02  0.00000000000E+00 0. -1.
         -3    1    3    3    0  502  0.60680653820E+03 -0.70418024811E+03 -0.84724418293E+03  0.12577387257E+04  0.00000000000E+00 0.  1.
         11    1    5    5    0    0 -0.39605700603E+02  0.15107182780E+03 -0.45154674971E+03  0.47779260757E+03  0.00000000000E+00 0.  1.
        -11    1    5    5    0    0  0.22141503075E+02  0.91619488789E+02 -0.48878694356E+03  0.49779217860E+03  0.00000000000E+00 0. -1.
          2    1    6    6  503    0 -0.41065044513E+02  0.24053520970E+02  0.29684861051E+01  0.47683557561E+02  0.00000000000E+00 0.  1.
         -2    1    6    6    0  503 -0.55442928784E+03  0.46749584097E+03 -0.29072858992E+03  0.78132407459E+03  0.00000000000E+00 0. -1.
<mgrwt>
<rscale>  0 0.22833955E+04</rscale>
<asrwt>0</asrwt>
<pdfrwt beam="1">  1        2 0.40203478E+00 0.22833955E+04</pdfrwt>
<pdfrwt beam="2">  1       -1 0.76738262E-01 0.22833955E+04</pdfrwt>
<totfact> 0.52613809E+00</totfact>
</mgrwt>
</event>
<event>
12    6  0.8914180E-008  0.1991252E+04  0.7818608E-02  0.8610722E-01
         -1   -1    0    0    0  501 -0.00000000000E+00  0.00000000000E+00  0.70226848621E+03  0.70226848621E+03  0.00000000000E+00 0.  1.
          2   -1    0    0  501    0  0.00000000000E+00 -0.00000000000E+00 -0.14115272578E+04  0.14115272578E+04  0.00000000000E+00 0. -1.
         24    2    1    2    0    0 -0.47053556126E+03  0.56817393803E+03 -0.61259357519E+03  0.96216424426E+03  0.79144212052E+02 0.  0.
        254    2    1    2    0    0  0.47053556126E+03 -0.56817393803E+03 -0.96665196441E+02  0.11516314998E+04  0.87902537668E+03 0.  0.
         23    2    4    4    0    0 -0.80494370938E+02  0.15120659662E+03 -0.13845369531E+03  0.23993337284E+03  0.95162067243E+02 0.  0.
         23    2    4    4    0    0  0.55102993220E+03 -0.71938053465E+03  0.41788498870E+02  0.91169812696E+03  0.91130984025E+02 0.  0.
          2    1    3    3  502    0 -0.31553841510E+03  0.43613782412E+03 -0.44800563189E+03  0.70034972637E+03  0.00000000000E+00 0. -1.
         -1    1    3    3    0  502 -0.15499714617E+03  0.13203611391E+03 -0.16458794331E+03  0.26181451789E+03  0.00000000000E+00 0.  1.
         11    1    5    5    0    0  0.50764329912E+01  0.80719276471E+02 -0.34410631442E+02  0.87894614864E+02  0.00000000000E+00 0. -1.
        -11    1    5    5    0    0 -0.85570803929E+02  0.70487320148E+02 -0.10404306387E+03  0.15203875797E+03  0.00000000000E+00 0.  1.
          1    1    6    6  503    0  0.69767119916E+02 -0.13388373306E+03 -0.14731957134E+02  0.15168828419E+03  0.00000000000E+00 0. -1.
         -1    1    6    6    0  503  0.48126281228E+03 -0.58549680159E+03  0.56520456004E+02  0.76000984277E+03  0.00000000000E+00 0.  1.
<mgrwt>
<rscale>  0 0.19912520E+04</rscale>
<asrwt>0</asrwt>
<pdfrwt beam="1">  1        2 0.21715804E+00 0.19912520E+04</pdfrwt>
<pdfrwt beam="2">  1       -1 0.10804131E+00 0.19912520E+04</pdfrwt>
<totfact> 0.12024296E+01</totfact>
</mgrwt>
</event>
<event>
12    6  0.9176078E-008  0.1739099E+04  0.7818608E-02  0.8739374E-01
          2   -1    0    0  501    0  0.00000000000E+00  0.00000000000E+00  0.93840518040E+03  0.93840518040E+03  0.00000000000E+00 0. -1.
         -1   -1    0    0    0  501 -0.00000000000E+00 -0.00000000000E+00 -0.80574587106E+03  0.80574587106E+03  0.00000000000E+00 0.  1.
         24    2    1    2    0    0 -0.16526814682E+03  0.34307001946E+02  0.66128687590E+03  0.68710580915E+03  0.79520626285E+02 0.  0.
        254    2    1    2    0    0  0.16526814682E+03 -0.34307001946E+02 -0.52862756656E+03  0.10570452423E+04  0.89967050047E+03 0.  0.
         23    2    4    4    0    0 -0.13867789626E+03  0.27062954347E+03  0.59157008178E+02  0.32292682774E+03  0.91160713844E+02 0.  0.
         23    2    4    4    0    0  0.30394604308E+03 -0.30493654541E+03 -0.58778457473E+03  0.73411841456E+03  0.89831211004E+02 0.  0.
          4    1    3    3  502    0 -0.11927867652E+03  0.94226161778E+01  0.56506308612E+03  0.57759196641E+03  0.00000000000E+00 0. -1.
         -3    1    3    3    0  502 -0.45989470295E+02  0.24884385768E+02  0.96223789779E+02  0.10951384274E+03  0.00000000000E+00 0.  1.
         11    1    5    5    0    0 -0.10845272747E+03  0.16554000693E+03 -0.14428269647E+01  0.19790798301E+03  0.00000000000E+00 0.  1.
        -11    1    5    5    0    0 -0.30225168796E+02  0.10508953654E+03  0.60599835143E+02  0.12501884473E+03  0.00000000000E+00 0. -1.
          4    1    6    6  503    0  0.31016082732E+03 -0.30007997724E+03 -0.57274791683E+03  0.71713869494E+03  0.00000000000E+00 0.  1.
         -4    1    6    6    0  503 -0.62147842405E+01 -0.48565681764E+01 -0.15036657905E+02  0.16979719626E+02  0.00000000000E+00 0. -1.
<mgrwt>
<rscale>  0 0.17390987E+04</rscale>
<asrwt>0</asrwt>
<pdfrwt beam="1">  1        2 0.14437003E+00 0.17390987E+04</pdfrwt>
<pdfrwt beam="2">  1       -1 0.12396090E+00 0.17390987E+04</pdfrwt>
<totfact> 0.17094179E+01</totfact>
</mgrwt>
</event>
<event>
12    6  0.8914180E-008  0.1940289E+04  0.7818608E-02  0.8635058E-01
         -1   -1    0    0    0  501 -0.00000000000E+00  0.00000000000E+00  0.18917479407E+03  0.18917479407E+03  0.00000000000E+00 0.  1.
          2   -1    0    0  501    0  0.00000000000E+00 -0.00000000000E+00 -0.49751886165E+04  0.49751886165E+04  0.00000000000E+00 0. -1.
         24    2    1    2    0    0 -0.33184833672E+03 -0.17349561540E+03 -0.36606590464E+04  0.36806393601E+04  0.80357934853E+02 0.  0.
        254    2    1    2    0    0  0.33184833672E+03  0.17349561540E+03 -0.11253547760E+04  0.14837240505E+04  0.89150975260E+03 0.  0.
         23    2    4    4    0    0 -0.24964157119E+03 -0.27502887098E+02 -0.99752725366E+02  0.28437506040E+03  0.88550809663E+02 0.  0.
         23    2    4    4    0    0  0.58148990792E+03  0.20099850249E+03 -0.10256020506E+04  0.11993489901E+04  0.89707985971E+02 0.  0.
          4    1    3    3  502    0 -0.32143468296E+03 -0.15485924164E+03 -0.35540030662E+04  0.35718677796E+04  0.00000000000E+00 0. -1.
         -1    1    3    3    0  502 -0.10413653765E+02 -0.18636373753E+02 -0.10665598021E+03  0.10877158051E+03  0.00000000000E+00 0.  1.
         11    1    5    5    0    0 -0.22144303859E+03  0.54082955428E+01 -0.94102271116E+02  0.24066887300E+03  0.00000000000E+00 0. -1.
        -11    1    5    5    0    0 -0.28198532600E+02 -0.32911182641E+02 -0.56504542495E+01  0.43706187398E+02  0.00000000000E+00 0.  1.
          2    1    6    6  503    0  0.22942660858E+03  0.33756964144E+02 -0.39251519790E+03  0.45589942085E+03  0.00000000000E+00 0. -1.
         -2    1    6    6    0  503  0.35206329934E+03  0.16724153835E+03 -0.63308685275E+03  0.74344956925E+03  0.00000000000E+00 0.  1.
<mgrwt>
<rscale>  0 0.19402889E+04</rscale>
<asrwt>0</asrwt>
<pdfrwt beam="1">  1        2 0.76541349E+00 0.19402889E+04</pdfrwt>
<pdfrwt beam="2">  1       -1 0.29103820E-01 0.19402889E+04</pdfrwt>
<totfact> 0.43337685E-01</totfact>
</mgrwt>
</event>
<event>
12    6  0.8914180E-008  0.2742362E+04  0.7818608E-02  0.8321389E-01
          2   -1    0    0  501    0  0.00000000000E+00  0.00000000000E+00  0.17769933441E+04  0.17769933441E+04  0.00000000000E+00 0. -1.
         -1   -1    0    0    0  501 -0.00000000000E+00 -0.00000000000E+00 -0.10580443113E+04  0.10580443113E+04  0.00000000000E+00 0.  1.
         24    2    1    2    0    0 -0.60677783976E+03 -0.98357877323E+03  0.77376210499E+03  0.13931254527E+04  0.80524417043E+02 0.  0.
        254    2    1    2    0    0  0.60677783976E+03  0.98357877323E+03 -0.54813072160E+02  0.14419122028E+04  0.86052296754E+03 0.  0.
         23    2    4    4    0    0  0.56264841489E+03  0.16513590580E+03  0.10624152285E+03  0.60283637984E+03  0.91001832473E+02 0.  0.
         23    2    4    4    0    0  0.44129424871E+02  0.81844286743E+03 -0.16105459501E+03  0.83907582294E+03  0.79457665943E+02 0.  0.
          2    1    3    3  502    0 -0.47451228705E+03 -0.70506752668E+03  0.55385901502E+03  0.10144170426E+04  0.00000000000E+00 0. -1.
         -1    1    3    3    0  502 -0.13226555271E+03 -0.27851124655E+03  0.21990308997E+03  0.37870841009E+03  0.00000000000E+00 0.  1.
         11    1    5    5    0    0  0.21638421684E+03  0.54202917411E+02 -0.32992807214E+01  0.22309408510E+03  0.00000000000E+00 0. -1.
        -11    1    5    5    0    0  0.34626419806E+03  0.11093298839E+03  0.10954080357E+03  0.37974229474E+03  0.00000000000E+00 0.  1.
          3    1    6    6  503    0 -0.70618070188E+01  0.70084119531E+01  0.11194214804E+01  0.10011995851E+02  0.00000000000E+00 0. -1.
         -3    1    6    6    0  503  0.51191231890E+02  0.81143445548E+03 -0.16217401649E+03  0.82906382709E+03  0.00000000000E+00 0.  1.
<mgrwt>
<rscale>  0 0.27423623E+04</rscale>
<asrwt>0</asrwt>
<pdfrwt beam="1">  1        2 0.27338359E+00 0.27423623E+04</pdfrwt>
<pdfrwt beam="2">  1       -1 0.16277605E+00 0.27423623E+04</pdfrwt>
<totfact> 0.24624354E+00</totfact>
</mgrwt>
</event>
<event>
12    6  0.8914180E-008  0.1631144E+04  0.7818608E-02  0.8801640E-01
         -1   -1    0    0    0  501 -0.00000000000E+00  0.00000000000E+00  0.24559563371E+03  0.24559563371E+03  0.00000000000E+00 0.  1.
          2   -1    0    0  501    0  0.00000000000E+00 -0.00000000000E+00 -0.27083451389E+04  0.27083451389E+04  0.00000000000E+00 0. -1.
         24    2    1    2    0    0 -0.45661973343E+03  0.16237452989E+03 -0.14365631598E+04  0.15181648747E+04  0.79017755981E+02 0.  0.
        254    2    1    2    0    0  0.45661973343E+03 -0.16237452989E+03 -0.10261863453E+04  0.14357758979E+04  0.87950380591E+03 0.  0.
         23    2    4    4    0    0  0.38441004516E+03  0.31384088797E+03 -0.61346471069E+03  0.79466629061E+03  0.94278186165E+02 0.  0.
         23    2    4    4    0    0  0.72209688268E+02 -0.47621541786E+03 -0.41272163465E+03  0.64110960726E+03  0.93204171164E+02 0.  0.
          4    1    3    3  502    0 -0.32920212154E+03  0.15308952329E+03 -0.10424837131E+04  0.11038943477E+04  0.00000000000E+00 0. -1.
         -3    1    3    3    0  502 -0.12741761189E+03  0.92850065987E+01 -0.39407944675E+03  0.41427052697E+03  0.00000000000E+00 0.  1.
         11    1    5    5    0    0  0.36741134305E+03  0.29326019192E+03 -0.53710137021E+03  0.71377203437E+03  0.00000000000E+00 0.  1.
        -11    1    5    5    0    0  0.16998702115E+02  0.20580696045E+02 -0.76363340482E+02  0.80894256241E+02  0.00000000000E+00 0. -1.
          3    1    6    6  503    0  0.60142279679E+02 -0.17482856600E+03 -0.19774029554E+03  0.27070896877E+03  0.00000000000E+00 0. -1.
         -3    1    6    6    0  503  0.12067408589E+02 -0.30138685186E+03 -0.21498133912E+03  0.37040063849E+03  0.00000000000E+00 0.  1.
<mgrwt>
<rscale>  0 0.16311441E+04</rscale>
<asrwt>0</asrwt>
<pdfrwt beam="1">  1        2 0.41666847E+00 0.16311441E+04</pdfrwt>
<pdfrwt beam="2">  1       -1 0.37783944E-01 0.16311441E+04</pdfrwt>
<totfact> 0.19390560E+01</totfact>
</mgrwt>
</event>
<event>
12    6  0.8914180E-008  0.1067687E+04  0.7818608E-02  0.9237272E-01
          2   -1    0    0  501    0  0.00000000000E+00  0.00000000000E+00  0.12288659626E+04  0.12288659626E+04  0.00000000000E+00 0. -1.
         -1   -1    0    0    0  501 -0.00000000000E+00 -0.00000000000E+00 -0.23191200422E+03  0.23191200422E+03  0.00000000000E+00 0.  1.
         24    2    1    2    0    0 -0.27600509016E+02  0.24639523152E+02  0.24875678463E+03  0.26466745448E+03  0.82462290519E+02 0.  0.
        254    2    1    2    0    0  0.27600509016E+02 -0.24639523152E+02  0.74819717374E+03  0.11961105123E+04  0.93247651592E+03 0.  0.
         23    2    4    4    0    0  0.29955276483E+03 -0.12585815966E+03  0.81857324585E+03  0.88542150033E+03  0.91306840698E+02 0.  0.
         23    2    4    4    0    0 -0.27195225581E+03  0.10121863651E+03 -0.70376072108E+02  0.31068901201E+03  0.85858190292E+02 0.  0.
          4    1    3    3  502    0 -0.54209250438E+02  0.21926641838E+01  0.12876639876E+03  0.13972915250E+03  0.00000000000E+00 0. -1.
         -3    1    3    3    0  502  0.26608741423E+02  0.22446858968E+02  0.11999038588E+03  0.12493830198E+03  0.00000000000E+00 0.  1.
         11    1    5    5    0    0  0.16344162248E+03 -0.11665717503E+03  0.50495971303E+03  0.54342098986E+03  0.00000000000E+00 0.  1.
        -11    1    5    5    0    0  0.13611114235E+03 -0.92009846275E+01  0.31361353282E+03  0.34200051047E+03  0.00000000000E+00 0. -1.
          3    1    6    6  503    0  0.35396685403E+01 -0.57660080850E+01 -0.37516024506E+01  0.77363184758E+01  0.00000000000E+00 0. -1.
         -3    1    6    6    0  503 -0.27549192435E+03  0.10698464459E+03 -0.66624469657E+02  0.30295269353E+03  0.00000000000E+00 0.  1.
<mgrwt>
<rscale>  0 0.10676868E+04</rscale>
<asrwt>0</asrwt>
<pdfrwt beam="1">  1        2 0.18905630E+00 0.10676868E+04</pdfrwt>
<pdfrwt beam="2">  1       -1 0.35678771E-01 0.10676868E+04</pdfrwt>
<totfact> 0.15456107E+02</totfact>
</mgrwt>
</event>
<event>
12    6  0.8914180E-008  0.1290848E+04  0.7818608E-02  0.9036854E-01
          2   -1    0    0  501    0  0.00000000000E+00  0.00000000000E+00  0.17225833712E+04  0.17225833712E+04  0.00000000000E+00 0. -1.
         -1   -1    0    0    0  501 -0.00000000000E+00 -0.00000000000E+00 -0.24182992728E+03  0.24182992728E+03  0.00000000000E+00 0.  1.
         24    2    1    2    0    0  0.85113063937E+02  0.31885422614E+03  0.37969038339E+03  0.50953037819E+03  0.80896031320E+02 0.  0.
        254    2    1    2    0    0 -0.85113063937E+02 -0.31885422614E+03  0.11010630606E+04  0.14548829203E+04  0.89187005628E+03 0.  0.
         23    2    4    4    0    0  0.35880806971E+03 -0.30527760088E+03  0.43253608846E+03  0.64592357064E+03  0.90510478924E+02 0.  0.
         23    2    4    4    0    0 -0.44392113365E+03 -0.13576625263E+02  0.66852697210E+03  0.80895934967E+03  0.10117617972E+03 0.  0.
          2    1    3    3  502    0  0.74625318720E+02  0.21869131465E+03  0.21019739917E+03  0.31237441623E+03  0.00000000000E+00 0. -1.
         -1    1    3    3    0  502  0.10487745217E+02  0.10016291149E+03  0.16949298422E+03  0.19715596196E+03  0.00000000000E+00 0.  1.
         11    1    5    5    0    0  0.33877394658E+03 -0.25953225723E+03  0.36269607382E+03  0.56006537242E+03  0.00000000000E+00 0. -1.
        -11    1    5    5    0    0  0.20034123133E+02 -0.45745343651E+02  0.69840014646E+02  0.85858198218E+02  0.00000000000E+00 0.  1.
          4    1    6    6  503    0 -0.43812860982E+03 -0.27047212664E+02  0.63098031070E+03  0.76865101506E+03  0.00000000000E+00 0. -1.
         -4    1    6    6    0  503 -0.57925238283E+01  0.13470587401E+02  0.37546661398E+02  0.40308334614E+02  0.00000000000E+00 0.  1.
<mgrwt>
<rscale>  0 0.12908481E+04</rscale>
<asrwt>0</asrwt>
<pdfrwt beam="1">  1        2 0.26501282E+00 0.12908481E+04</pdfrwt>
<pdfrwt beam="2">  1       -1 0.37204605E-01 0.12908481E+04</pdfrwt>
<totfact> 0.73985758E+01</totfact>
</mgrwt>
</event>
<event>
12    6  0.8914180E-008  0.2094112E+04  0.7818608E-02  0.8563841E-01
         -3   -1    0    0    0  501 -0.00000000000E+00  0.00000000000E+00  0.44732433588E+03  0.44732433588E+03  0.00000000000E+00 0.  1.
          2   -1    0    0  501    0  0.00000000000E+00 -0.00000000000E+00 -0.24508543027E+04  0.24508543027E+04  0.00000000000E+00 0. -1.
         24    2    1    2    0    0 -0.34599249525E+03  0.38640925357E+03  0.11378144100E+03  0.53637841395E+03  0.75714388439E+02 0.  0.
        254    2    1    2    0    0  0.34599249525E+03 -0.38640925357E+03 -0.21173114078E+04  0.23618002246E+04  0.90888381288E+03 0.  0.
         23    2    4    4    0    0  0.85005359513E+02 -0.20687119013E+03 -0.24107218459E+02  0.24280799947E+03  0.91394563157E+02 0.  0.
         23    2    4    4    0    0  0.26098713574E+03 -0.17953806344E+03 -0.20932041894E+04  0.21189922251E+04  0.90972911531E+02 0.  0.
          2    1    3    3  502    0 -0.10328058662E+03  0.15133593316E+03  0.67864957892E+02  0.19538448441E+03  0.00000000000E+00 0. -1.
         -1    1    3    3    0  502 -0.24271190864E+03  0.23507332041E+03  0.45916483111E+02  0.34099392954E+03  0.00000000000E+00 0.  1.
         11    1    5    5    0    0  0.31230477182E+02 -0.55263884173E+02  0.33707283687E+02  0.71872251757E+02  0.00000000000E+00 0. -1.
        -11    1    5    5    0    0  0.53774882331E+02 -0.15160730596E+03 -0.57814502147E+02  0.17093574772E+03  0.00000000000E+00 0.  1.
          3    1    6    6  503    0  0.21187541481E+03 -0.17280970870E+03 -0.15883539139E+04  0.16117141628E+04  0.00000000000E+00 0. -1.
         -3    1    6    6    0  503  0.49111720934E+02 -0.67283547433E+01 -0.50485027543E+03  0.50727806230E+03  0.00000000000E+00 0.  1.
<mgrwt>
<rscale>  0 0.20941125E+04</rscale>
<asrwt>0</asrwt>
<pdfrwt beam="1">  1        2 0.37705450E+00 0.20941125E+04</pdfrwt>
<pdfrwt beam="2">  1       -3 0.68819129E-01 0.20941125E+04</pdfrwt>
<totfact> 0.44527556E+00</totfact>
</mgrwt>
</event>
<event>
12    6  0.8914180E-008  0.2270345E+04  0.7818608E-02  0.8489706E-01
         -1   -1    0    0    0  501 -0.00000000000E+00  0.00000000000E+00  0.94617710524E+03  0.94617710524E+03  0.00000000000E+00 0.  1.
          2   -1    0    0  501    0  0.00000000000E+00 -0.00000000000E+00 -0.13619186575E+04  0.13619186575E+04  0.00000000000E+00 0. -1.
         24    2    1    2    0    0  0.12093176031E+03  0.93705427263E+03 -0.28760778019E+02  0.94896511462E+03  0.83740109347E+02 0.  0.
        254    2    1    2    0    0 -0.12093176031E+03 -0.93705427263E+03 -0.38698077428E+03  0.13591306482E+04  0.89709910189E+03 0.  0.
         23    2    4    4    0    0  0.24449259860E+03  0.28873859972E+02 -0.13041601814E+03  0.29113247706E+03  0.84495271167E+02 0.  0.
         23    2    4    4    0    0 -0.36542435891E+03 -0.96592813260E+03 -0.25656475614E+03  0.10679981711E+04  0.90788214846E+02 0.  0.
          2    1    3    3  502    0  0.74709310173E+02  0.36084544139E+03 -0.41028135482E+02  0.37077516300E+03  0.00000000000E+00 0. -1.
         -1    1    3    3    0  502  0.46222450136E+02  0.57620883124E+03  0.12267357463E+02  0.57818995162E+03  0.00000000000E+00 0.  1.
         11    1    5    5    0    0  0.67545035861E+02  0.10666117644E+02 -0.82016058144E+02  0.10678357425E+03  0.00000000000E+00 0.  1.
        -11    1    5    5    0    0  0.17694756274E+03  0.18207742327E+02 -0.48399959995E+02  0.18434890281E+03  0.00000000000E+00 0. -1.
          2    1    6    6  503    0 -0.33710377145E+03 -0.87640689560E+03 -0.25901436829E+03  0.97407209300E+03  0.00000000000E+00 0. -1.
         -2    1    6    6    0  503 -0.28320587460E+02 -0.89521237006E+02  0.24496121517E+01  0.93926078108E+02  0.00000000000E+00 0.  1.
<mgrwt>
<rscale>  0 0.22703447E+04</rscale>
<asrwt>0</asrwt>
<pdfrwt beam="1">  1        2 0.20952595E+00 0.22703447E+04</pdfrwt>
<pdfrwt beam="2">  1       -1 0.14556571E+00 0.22703447E+04</pdfrwt>
<totfact> 0.59600596E+00</totfact>
</mgrwt>
</event>
<event>
12    6  0.8914180E-008  0.1521721E+04  0.7818608E-02  0.8870136E-01
         -1   -1    0    0    0  501 -0.00000000000E+00  0.00000000000E+00  0.30509634057E+03  0.30509634057E+03  0.00000000000E+00 0.  1.
          2   -1    0    0  501    0  0.00000000000E+00 -0.00000000000E+00 -0.18974609271E+04  0.18974609271E+04  0.00000000000E+00 0. -1.
         24    2    1    2    0    0 -0.78688374027E+02  0.10561916656E+03 -0.12003700919E+04  0.12100557224E+04  0.77454664404E+02 0.  0.
        254    2    1    2    0    0  0.78688374027E+02 -0.10561916656E+03 -0.39199449460E+03  0.99250154533E+03  0.90224850520E+03 0.  0.
         23    2    4    4    0    0 -0.25360208297E+03 -0.30010026670E+03 -0.43683220938E+03  0.59453184749E+03  0.90948072901E+02 0.  0.
         23    2    4    4    0    0  0.33229045699E+03  0.19448110014E+03  0.44837714783E+02  0.39796969784E+03  0.90164369978E+02 0.  0.
          2    1    3    3  502    0 -0.91126023171E+02  0.10560009713E+03 -0.11322934345E+04  0.11408522053E+04  0.00000000000E+00 0. -1.
         -1    1    3    3    0  502  0.12437649143E+02  0.19069429918E-01 -0.68076657424E+02  0.69203517005E+02  0.00000000000E+00 0.  1.
         11    1    5    5    0    0 -0.46145521248E+02 -0.11943794828E+03 -0.13109330853E+03  0.18324925146E+03  0.00000000000E+00 0.  1.
        -11    1    5    5    0    0 -0.20745656172E+03 -0.18066231841E+03 -0.30573890086E+03  0.41128259602E+03  0.00000000000E+00 0. -1.
          4    1    6    6  503    0  0.26396916856E+03  0.13324272546E+03  0.67855370748E+02  0.30337715336E+03  0.00000000000E+00 0. -1.
         -4    1    6    6    0  503  0.68321288430E+02  0.61238374675E+02 -0.23017655965E+02  0.94592544483E+02  0.00000000000E+00 0.  1.
<mgrwt>
<rscale>  0 0.15217206E+04</rscale>
<asrwt>0</asrwt>
<pdfrwt beam="1">  1        2 0.29191707E+00 0.15217206E+04</pdfrwt>
<pdfrwt beam="2">  1       -1 0.46937898E-01 0.15217206E+04</pdfrwt>
<totfact> 0.37881213E+01</totfact>
</mgrwt>
</event>
<event>
12    6  0.8914180E-008  0.1138449E+04  0.7818608E-02  0.9168506E-01
          2   -1    0    0  501    0  0.00000000000E+00  0.00000000000E+00  0.58225895528E+03  0.58225895528E+03  0.00000000000E+00 0. -1.
         -1   -1    0    0    0  501 -0.00000000000E+00 -0.00000000000E+00 -0.55648189106E+03  0.55648189106E+03  0.00000000000E+00 0.  1.
         24    2    1    2    0    0 -0.76129175751E+02  0.16929343311E+03 -0.11270695054E+03  0.23125797668E+03  0.79507717763E+02 0.  0.
        254    2    1    2    0    0  0.76129175751E+02 -0.16929343311E+03  0.13848401476E+03  0.90748286965E+03  0.87743456649E+03 0.  0.
         23    2    4    4    0    0 -0.24829335026E+03  0.21067713124E+03 -0.90847632852E+02  0.35022292336E+03  0.91478752940E+02 0.  0.
         23    2    4    4    0    0  0.32442252601E+03 -0.37997056436E+03  0.22933164761E+03  0.55725994630E+03  0.91203278405E+02 0.  0.
          4    1    3    3  502    0 -0.33998115158E+02  0.79547881040E+01 -0.15093281826E+02  0.38038896466E+02  0.00000000000E+00 0. -1.
         -3    1    3    3    0  502 -0.42131060593E+02  0.16133864501E+03 -0.97613668711E+02  0.19321908022E+03  0.00000000000E+00 0.  1.
         11    1    5    5    0    0 -0.13183967303E+02  0.21598409305E+02  0.16248286817E+02  0.30071832383E+02  0.00000000000E+00 0. -1.
        -11    1    5    5    0    0 -0.23510938295E+03  0.18907872194E+03 -0.10709591967E+03  0.32015109097E+03  0.00000000000E+00 0.  1.
          3    1    6    6  503    0  0.19090964242E+03 -0.27938989670E+03  0.17828831094E+03  0.38248127767E+03  0.00000000000E+00 0. -1.
         -3    1    6    6    0  503  0.13351288359E+03 -0.10058066765E+03  0.51043336678E+02  0.17477866863E+03  0.00000000000E+00 0.  1.
<mgrwt>
<rscale>  0 0.11384491E+04</rscale>
<asrwt>0</asrwt>
<pdfrwt beam="1">  1        2 0.89578301E-01 0.11384491E+04</pdfrwt>
<pdfrwt beam="2">  1       -1 0.85612598E-01 0.11384491E+04</pdfrwt>
<totfact> 0.78524749E+01</totfact>
</mgrwt>
</event>
<event>
12    6  0.8914180E-008  0.2147504E+04  0.7818608E-02  0.8540602E-01
         -1   -1    0    0    0  501 -0.00000000000E+00  0.00000000000E+00  0.49193908409E+03  0.49193908409E+03  0.00000000000E+00 0.  1.
          2   -1    0    0  501    0  0.00000000000E+00 -0.00000000000E+00 -0.23436699611E+04  0.23436699611E+04  0.00000000000E+00 0. -1.
         24    2    1    2    0    0  0.52295366306E+03  0.70921377492E+03 -0.89377902043E+03  0.12575179103E+04  0.77753747060E+02 0.  0.
        254    2    1    2    0    0 -0.52295366306E+03 -0.70921377492E+03 -0.95795185660E+03  0.15780911349E+04  0.89232009851E+03 0.  0.
         23    2    4    4    0    0 -0.39111343257E+03 -0.85760231517E+03 -0.97437914703E+03  0.13586937138E+04  0.90456826900E+02 0.  0.
         23    2    4    4    0    0 -0.13184023049E+03  0.14838854025E+03  0.16427290430E+02  0.21939742113E+03  0.92001996028E+02 0.  0.
          2    1    3    3  502    0  0.40837231833E+03  0.54631080471E+03 -0.64405659942E+03  0.93810039387E+03  0.00000000000E+00 0. -1.
         -1    1    3    3    0  502  0.11458134472E+03  0.16290297021E+03 -0.24972242101E+03  0.31941751645E+03  0.00000000000E+00 0.  1.
         11    1    5    5    0    0 -0.15791453557E+02 -0.64424939229E+02 -0.42950492414E+02  0.79023335786E+02  0.00000000000E+00 0.  1.
        -11    1    5    5    0    0 -0.37532197901E+03 -0.79317737594E+03 -0.93142865462E+03  0.12796703780E+04  0.00000000000E+00 0. -1.
          1    1    6    6  503    0 -0.12330478982E+03  0.87139132407E+02  0.34678742515E+02  0.15491905877E+03  0.00000000000E+00 0. -1.
         -1    1    6    6    0  503 -0.85354406705E+01  0.61249407842E+02 -0.18251452085E+02  0.64478362353E+02  0.00000000000E+00 0.  1.
<mgrwt>
<rscale>  0 0.21475035E+04</rscale>
<asrwt>0</asrwt>
<pdfrwt beam="1">  1        2 0.36056461E+00 0.21475035E+04</pdfrwt>
<pdfrwt beam="2">  1       -1 0.75682936E-01 0.21475035E+04</pdfrwt>
<totfact> 0.78472083E+00</totfact>
</mgrwt>
</event>
<event>
12    6  0.8914180E-008  0.1815884E+04  0.7818608E-02  0.8697898E-01
         -1   -1    0    0    0  501 -0.00000000000E+00  0.00000000000E+00  0.98403907339E+03  0.98403907339E+03  0.00000000000E+00 0.  1.
          2   -1    0    0  501    0  0.00000000000E+00 -0.00000000000E+00 -0.83772929418E+03  0.83772929418E+03  0.00000000000E+00 0. -1.
         24    2    1    2    0    0  0.15890830217E+03 -0.33236062850E+02  0.72236864107E+03  0.74460466712E+03  0.79140206806E+02 0.  0.
        254    2    1    2    0    0 -0.15890830217E+03  0.33236062850E+02 -0.57605886185E+03  0.10771637004E+04  0.89558994013E+03 0.  0.
         23    2    4    4    0    0 -0.33171243030E+03 -0.28979489342E+03 -0.53274323080E+03  0.69795693152E+03  0.96510681420E+02 0.  0.
         23    2    4    4    0    0  0.17280412813E+03  0.32303095627E+03 -0.43315631054E+02  0.37920676892E+03  0.87813804715E+02 0.  0.
          4    1    3    3  502    0  0.87811222268E+02  0.19708863011E+02  0.30904443850E+03  0.32188152325E+03  0.00000000000E+00 0. -1.
         -3    1    3    3    0  502  0.71097079902E+02 -0.52944925861E+02  0.41332420256E+03  0.42272314387E+03  0.00000000000E+00 0.  1.
         11    1    5    5    0    0 -0.27173050549E+01 -0.34035142452E+02 -0.43466353094E+02  0.55272945641E+02  0.00000000000E+00 0. -1.
        -11    1    5    5    0    0 -0.32899512525E+03 -0.25575975096E+03 -0.48927687771E+03  0.64268398588E+03  0.00000000000E+00 0.  1.
          2    1    6    6  503    0 -0.91890866562E+01  0.19213865844E+02  0.47006849453E+01  0.21810740318E+02  0.00000000000E+00 0. -1.
         -2    1    6    6    0  503  0.18199321479E+03  0.30381709042E+03 -0.48016315999E+02  0.35739602861E+03  0.00000000000E+00 0.  1.
<mgrwt>
<rscale>  0 0.18158837E+04</rscale>
<asrwt>0</asrwt>
<pdfrwt beam="1">  1        2 0.12888143E+00 0.18158837E+04</pdfrwt>
<pdfrwt beam="2">  1       -1 0.15139063E+00 0.18158837E+04</pdfrwt>
<totfact> 0.11856519E+01</totfact>
</mgrwt>
</event>
<event>
12    6  0.8914180E-008  0.1537414E+04  0.7818608E-02  0.8859947E-01
          2   -1    0    0  501    0  0.00000000000E+00  0.00000000000E+00  0.14471160187E+04  0.14471160187E+04  0.00000000000E+00 0. -1.
         -1   -1    0    0    0  501 -0.00000000000E+00 -0.00000000000E+00 -0.40833645086E+03  0.40833645086E+03  0.00000000000E+00 0.  1.
         24    2    1    2    0    0 -0.31705296808E+03  0.38701958100E+03  0.39533519467E+03  0.64263269661E+03  0.79875690694E+02 0.  0.
        254    2    1    2    0    0  0.31705296808E+03 -0.38701958100E+03  0.64344437318E+03  0.12128197730E+04  0.89811157417E+03 0.  0.
         23    2    4    4    0    0 -0.79750619765E+02  0.32489796459E+02  0.61472866992E+03  0.62743038585E+03  0.91442896095E+02 0.  0.
         23    2    4    4    0    0  0.39680358784E+03 -0.41950937746E+03  0.28715703263E+02  0.58538938711E+03  0.91732970203E+02 0.  0.
          4    1    3    3  502    0 -0.15685718405E+03  0.21100127079E+03  0.15917906426E+03  0.30734945415E+03  0.00000000000E+00 0. -1.
         -3    1    3    3    0  502 -0.16019578403E+03  0.17601831021E+03  0.23615613041E+03  0.33528324246E+03  0.00000000000E+00 0.  1.
         11    1    5    5    0    0 -0.54712181469E+02 -0.89008016177E+01  0.14527736465E+03  0.15549327879E+03  0.00000000000E+00 0. -1.
        -11    1    5    5    0    0 -0.25038438297E+02  0.41390598077E+02  0.46945130527E+03  0.47193710706E+03  0.00000000000E+00 0.  1.
          4    1    6    6  503    0  0.10062939839E+02  0.31626416552E+01 -0.46197516187E+01  0.11515518462E+02  0.00000000000E+00 0. -1.
         -4    1    6    6    0  503  0.38674064801E+03 -0.42267201911E+03  0.33335454882E+02  0.57387386864E+03  0.00000000000E+00 0.  1.
<mgrwt>
<rscale>  0 0.15374137E+04</rscale>
<asrwt>0</asrwt>
<pdfrwt beam="1">  1        2 0.22263323E+00 0.15374137E+04</pdfrwt>
<pdfrwt beam="2">  1       -1 0.62820993E-01 0.15374137E+04</pdfrwt>
<totfact> 0.38381000E+01</totfact>
</mgrwt>
</event>
<event>
12    6  0.8914180E-008  0.3417479E+04  0.7818608E-02  0.8133630E-01
          2   -1    0    0  501    0  0.00000000000E+00  0.00000000000E+00  0.17801207814E+04  0.17801207814E+04  0.00000000000E+00 0. -1.
         -1   -1    0    0    0  501 -0.00000000000E+00 -0.00000000000E+00 -0.16402208062E+04  0.16402208062E+04  0.00000000000E+00 0.  1.
         24    2    1    2    0    0 -0.92296200360E+03  0.12537640143E+04 -0.24217034973E+03  0.15777889040E+04  0.83595954908E+02 0.  0.
        254    2    1    2    0    0  0.92296200360E+03 -0.12537640143E+04  0.38207032494E+03  0.18425526836E+04  0.90842698942E+03 0.  0.
         23    2    4    4    0    0  0.84768667417E+03 -0.49228129959E+03  0.51155152428E+01  0.98464164879E+03  0.92625226335E+02 0.  0.
         23    2    4    4    0    0  0.75275329429E+02 -0.76148271469E+03  0.37695480970E+03  0.85791103482E+03  0.91619403630E+02 0.  0.
          4    1    3    3  502    0 -0.25874373721E+03  0.37570499406E+03 -0.10673183683E+03  0.46850213351E+03  0.00000000000E+00 0. -1.
         -3    1    3    3    0  502 -0.66421826639E+03  0.87805902022E+03 -0.13543851290E+03  0.11092867705E+04  0.00000000000E+00 0.  1.
         11    1    5    5    0    0  0.77828519228E+03 -0.47899601914E+03  0.82437463153E+01  0.91391081963E+03  0.00000000000E+00 0.  1.
        -11    1    5    5    0    0  0.69401481885E+02 -0.13285280443E+02 -0.31282310725E+01  0.70730829162E+02  0.00000000000E+00 0. -1.
          3    1    6    6  503    0  0.75565516170E+02 -0.43192719969E+03  0.24999152742E+03  0.50474450651E+03  0.00000000000E+00 0. -1.
         -3    1    6    6    0  503 -0.29018674120E+00 -0.32955551500E+03  0.12696328227E+03  0.35316652831E+03  0.00000000000E+00 0.  1.
<mgrwt>
<rscale>  0 0.34174793E+04</rscale>
<asrwt>0</asrwt>
<pdfrwt beam="1">  1        2 0.27386474E+00 0.34174793E+04</pdfrwt>
<pdfrwt beam="2">  1       -1 0.25234166E+00 0.34174793E+04</pdfrwt>
<totfact> 0.56079561E-01</totfact>
</mgrwt>
</event>
<event>
12    6  0.8914180E-008  0.2257004E+04  0.7818608E-02  0.8495070E-01
         -1   -1    0    0    0  501 -0.00000000000E+00  0.00000000000E+00  0.16524950301E+04  0.16524950301E+04  0.00000000000E+00 0.  1.
          2   -1    0    0  501    0  0.00000000000E+00 -0.00000000000E+00 -0.77066277322E+03  0.77066277322E+03  0.00000000000E+00 0. -1.
         24    2    1    2    0    0  0.48633384645E+03 -0.56007410963E+03 -0.26076955626E+03  0.79014349627E+03  0.78245541331E+02 0.  0.
        254    2    1    2    0    0 -0.48633384645E+03  0.56007410963E+03  0.11426018131E+04  0.16330143071E+04  0.90055161161E+03 0.  0.
         23    2    4    4    0    0 -0.16574838979E+03 -0.10396964129E+03 -0.57103851043E+02  0.22173603136E+03  0.87314390405E+02 0.  0.
         23    2    4    4    0    0 -0.32058545666E+03  0.66404375092E+03  0.11997056642E+04  0.14112782757E+04  0.93185581570E+02 0.  0.
          2    1    3    3  502    0  0.46833230234E+03 -0.50892617352E+03 -0.24355948603E+03  0.73325453885E+03  0.00000000000E+00 0. -1.
         -1    1    3    3    0  502  0.18001544112E+02 -0.51147936109E+02 -0.17210070237E+02  0.56888957418E+02  0.00000000000E+00 0.  1.
         11    1    5    5    0    0 -0.94364838629E+02 -0.10652420269E+02 -0.39850706374E+02  0.10298677403E+03  0.00000000000E+00 0. -1.
        -11    1    5    5    0    0 -0.71383551164E+02 -0.93317221018E+02 -0.17253144670E+02  0.11874925733E+03  0.00000000000E+00 0.  1.
          3    1    6    6  503    0 -0.56881932012E+02  0.12418680443E+03  0.29701630001E+03  0.32691986641E+03  0.00000000000E+00 0. -1.
         -3    1    6    6    0  503 -0.26370352464E+03  0.53985694649E+03  0.90268936418E+03  0.10843584093E+04  0.00000000000E+00 0.  1.
<mgrwt>
<rscale>  0 0.22570037E+04</rscale>
<asrwt>0</asrwt>
<pdfrwt beam="1">  1        2 0.11856350E+00 0.22570037E+04</pdfrwt>
<pdfrwt beam="2">  1       -1 0.25423000E+00 0.22570037E+04</pdfrwt>
<totfact> 0.24578086E+00</totfact>
</mgrwt>
</event>
<event>
12    6  0.8914180E-008  0.1157552E+04  0.7818608E-02  0.9150845E-01
         -1   -1    0    0    0  501 -0.00000000000E+00  0.00000000000E+00  0.26736493386E+03  0.26736493386E+03  0.00000000000E+00 0.  1.
          2   -1    0    0  501    0  0.00000000000E+00 -0.00000000000E+00 -0.12529006090E+04  0.12529006090E+04  0.00000000000E+00 0. -1.
         24    2    1    2    0    0 -0.15257502169E+03  0.24218303225E+02 -0.83013702020E+02  0.19154737122E+03  0.77028937702E+02 0.  0.
        254    2    1    2    0    0  0.15257502169E+03 -0.24218303225E+02 -0.90252197309E+03  0.13287181716E+04  0.96285014629E+03 0.  0.
         23    2    4    4    0    0 -0.18718617924E+03  0.23425890154E+02 -0.94883833513E+03  0.97167147318E+03  0.90905596871E+02 0.  0.
         23    2    4    4    0    0  0.33976120093E+03 -0.47644193380E+02  0.46316362036E+02  0.35704669844E+03  0.87346989949E+02 0.  0.
          4    1    3    3  502    0 -0.84640865484E+02  0.16054103480E+01 -0.84939891393E+02  0.11992263590E+03  0.00000000000E+00 0. -1.
         -1    1    3    3    0  502 -0.67934156207E+02  0.22612892877E+02  0.19261893722E+01  0.71624735317E+02  0.00000000000E+00 0.  1.
         11    1    5    5    0    0 -0.99190506937E+02  0.30719673674E+02 -0.31405061854E+03  0.33077219656E+03  0.00000000000E+00 0. -1.
        -11    1    5    5    0    0 -0.87995672304E+02 -0.72937835198E+01 -0.63478771659E+03  0.64089927661E+03  0.00000000000E+00 0.  1.
          3    1    6    6  503    0  0.35847797750E+02 -0.27079632088E+02 -0.12887545345E+02  0.46738206026E+02  0.00000000000E+00 0. -1.
         -3    1    6    6    0  503  0.30391340318E+03 -0.20564561292E+02  0.59203907381E+02  0.31030849241E+03  0.00000000000E+00 0.  1.
<mgrwt>
<rscale>  0 0.11575521E+04</rscale>
<asrwt>0</asrwt>
<pdfrwt beam="1">  1        2 0.19275394E+00 0.11575521E+04</pdfrwt>
<pdfrwt beam="2">  1       -1 0.41133066E-01 0.11575521E+04</pdfrwt>
<totfact> 0.11488880E+02</totfact>
</mgrwt>
</event>
<event>
12    6  0.8914180E-008  0.3445475E+04  0.7818608E-02  0.8126835E-01
          2   -1    0    0  501    0  0.00000000000E+00  0.00000000000E+00  0.11597206049E+04  0.11597206049E+04  0.00000000000E+00 0. -1.
         -1   -1    0    0    0  501 -0.00000000000E+00 -0.00000000000E+00 -0.25590852888E+04  0.25590852888E+04  0.00000000000E+00 0.  1.
         24    2    1    2    0    0  0.17025645584E+03  0.13029771391E+04 -0.16520208920E+04  0.21124022194E+04  0.79582807404E+02 0.  0.
        254    2    1    2    0    0 -0.17025645584E+03 -0.13029771391E+04  0.25265620812E+03  0.16064036743E+04  0.88879745698E+03 0.  0.
         23    2    4    4    0    0  0.31242773206E+03 -0.26574481361E+03 -0.36948441543E+02  0.42199177794E+03  0.92089519463E+02 0.  0.
         23    2    4    4    0    0 -0.48268418790E+03 -0.10372323255E+04  0.28960464967E+03  0.11844118963E+04  0.10062685940E+03 0.  0.
          2    1    3    3  502    0  0.13430989921E+03  0.87062924095E+03 -0.11565455265E+04  0.14538335459E+04  0.00000000000E+00 0. -1.
         -1    1    3    3    0  502  0.35946556623E+02  0.43234789812E+03 -0.49547536550E+03  0.65856867354E+03  0.00000000000E+00 0.  1.
         11    1    5    5    0    0  0.71602208369E+02 -0.41059840286E+02  0.26263545453E+02  0.86617322444E+02  0.00000000000E+00 0. -1.
        -11    1    5    5    0    0  0.24082552370E+03 -0.22468497332E+03 -0.63211986996E+02  0.33537445550E+03  0.00000000000E+00 0.  1.
          1    1    6    6  503    0 -0.32887975779E+03 -0.60459153559E+03  0.14896736461E+03  0.70419038314E+03  0.00000000000E+00 0. -1.
         -1    1    6    6    0  503 -0.15380443011E+03 -0.43264078988E+03  0.14063728506E+03  0.48022151320E+03  0.00000000000E+00 0.  1.
<mgrwt>
<rscale>  0 0.34454747E+04</rscale>
<asrwt>0</asrwt>
<pdfrwt beam="1">  1        2 0.17841855E+00 0.34454747E+04</pdfrwt>
<pdfrwt beam="2">  1       -1 0.39370543E+00 0.34454747E+04</pdfrwt>
<totfact> 0.14861896E-01</totfact>
</mgrwt>
</event>
<event>
12    6  0.8914180E-008  0.3073213E+04  0.7818608E-02  0.8223128E-01
          2   -1    0    0  501    0  0.00000000000E+00  0.00000000000E+00  0.31464903324E+04  0.31464903324E+04  0.00000000000E+00 0. -1.
         -1   -1    0    0    0  501 -0.00000000000E+00 -0.00000000000E+00 -0.75041038710E+03  0.75041038710E+03  0.00000000000E+00 0.  1.
         24    2    1    2    0    0  0.32613288213E+03  0.37089265540E+03  0.27662154761E+04  0.28110489681E+04  0.78257407053E+02 0.  0.
        254    2    1    2    0    0 -0.32613288213E+03 -0.37089265540E+03 -0.37013553089E+03  0.10858517514E+04  0.89339224091E+03 0.  0.
         23    2    4    4    0    0  0.29340693621E+02 -0.58210783137E+03 -0.28052935769E+03  0.65367894406E+03  0.94281693505E+02 0.  0.
         23    2    4    4    0    0 -0.35547357575E+03  0.21121517598E+03 -0.89606173195E+02  0.43217280732E+03  0.88151888767E+02 0.  0.
          4    1    3    3  502    0  0.22362905157E+03  0.24375149523E+03  0.16373431692E+04  0.16704243167E+04  0.00000000000E+00 0. -1.
         -3    1    3    3    0  502  0.10250383057E+03  0.12714116016E+03  0.11288723070E+04  0.11406246514E+04  0.00000000000E+00 0.  1.
         11    1    5    5    0    0  0.43296973523E+02 -0.56003021259E+03 -0.25403796416E+03  0.61647688859E+03  0.00000000000E+00 0. -1.
        -11    1    5    5    0    0 -0.13956279902E+02 -0.22077618780E+02 -0.26491393530E+02  0.37202055466E+02  0.00000000000E+00 0.  1.
          1    1    6    6  503    0 -0.35232332465E+03  0.20257105868E+03 -0.72604701745E+02  0.41284161809E+03  0.00000000000E+00 0. -1.
         -1    1    6    6    0  503 -0.31502511012E+01  0.86441172981E+01 -0.17001471450E+02  0.19331189237E+02  0.00000000000E+00 0.  1.
<mgrwt>
<rscale>  0 0.30732127E+04</rscale>
<asrwt>0</asrwt>
<pdfrwt beam="1">  1        2 0.48407543E+00 0.30732127E+04</pdfrwt>
<pdfrwt beam="2">  1       -1 0.11544775E+00 0.30732127E+04</pdfrwt>
<totfact> 0.92265987E-01</totfact>
</mgrwt>
</event>
<event>
12    6  0.8914180E-008  0.1456625E+04  0.7818608E-02  0.8913820E-01
          4   -1    0    0  501    0  0.00000000000E+00  0.00000000000E+00  0.60701095073E+03  0.60701095073E+03  0.00000000000E+00 0. -1.
         -3   -1    0    0    0  501 -0.00000000000E+00 -0.00000000000E+00 -0.87385415742E+03  0.87385415742E+03  0.00000000000E+00 0.  1.
         24    2    1    2    0    0  0.44629463290E+03  0.50521591741E+02 -0.14260288394E+03  0.47785218035E+03  0.79219903908E+02 0.  0.
        254    2    1    2    0    0 -0.44629463290E+03 -0.50521591741E+02 -0.12424032275E+03  0.10030129278E+04  0.88818238271E+03 0.  0.
         23    2    4    4    0    0 -0.15146944465E+03  0.78024286192E+02 -0.47822738284E+03  0.51605542842E+03  0.92633652664E+02 0.  0.
         23    2    4    4    0    0 -0.29482518825E+03 -0.12854587793E+03  0.35398706009E+03  0.48695749938E+03  0.91514114402E+02 0.  0.
          2    1    3    3  502    0  0.39933957190E+03  0.19733506226E+02 -0.12169097085E+03  0.41793563779E+03  0.00000000000E+00 0. -1.
         -1    1    3    3    0  502  0.46955060998E+02  0.30788085515E+02 -0.20911913093E+02  0.59916542559E+02  0.00000000000E+00 0.  1.
         11    1    5    5    0    0 -0.15242887826E+03  0.50698692450E+02 -0.44450469568E+03  0.47264082010E+03  0.00000000000E+00 0.  1.
        -11    1    5    5    0    0  0.95943361337E+00  0.27325593742E+02 -0.33722687161E+02  0.43414608320E+02  0.00000000000E+00 0. -1.
          1    1    6    6  503    0 -0.40088591742E+02 -0.89298171881E+01  0.95435603650E+01  0.42165345573E+02  0.00000000000E+00 0. -1.
         -1    1    6    6    0  503 -0.25473659651E+03 -0.11961606075E+03  0.34444349972E+03  0.44479215381E+03  0.00000000000E+00 0.  1.
<mgrwt>
<rscale>  0 0.14566249E+04</rscale>
<asrwt>0</asrwt>
<pdfrwt beam="1">  1        4 0.93386300E-01 0.14566249E+04</pdfrwt>
<pdfrwt beam="2">  1       -3 0.13443910E+00 0.14566249E+04</pdfrwt>
<totfact> 0.91876716E-01</totfact>
</mgrwt>
</event>
<event>
12    6  0.8914180E-008  0.4180745E+04  0.7818608E-02  0.7969045E-01
         -1   -1    0    0    0  501 -0.00000000000E+00  0.00000000000E+00  0.16635325540E+04  0.16635325540E+04  0.00000000000E+00 0.  1.
          2   -1    0    0  501    0  0.00000000000E+00 -0.00000000000E+00 -0.26267332728E+04  0.26267332728E+04  0.00000000000E+00 0. -1.
         24    2    1    2    0    0  0.54456528647E+03  0.16763671260E+04  0.49273864195E+03  0.18319483467E+04  0.80531258366E+02 0.  0.
        254    2    1    2    0    0 -0.54456528647E+03 -0.16763671260E+04 -0.14559393608E+04  0.24583174800E+04  0.90377393088E+03 0.  0.
         23    2    4    4    0    0 -0.43123646985E+03 -0.10025875572E+04 -0.34113055931E+03  0.11470325040E+04  0.90370370808E+02 0.  0.
         23    2    4    4    0    0 -0.11332881662E+03 -0.67377956876E+03 -0.11148088015E+04  0.13112849761E+04  0.99233545850E+02 0.  0.
          2    1    3    3  502    0  0.40499737398E+03  0.13132945907E+04  0.41118363554E+03  0.14345164820E+04  0.00000000000E+00 0. -1.
         -1    1    3    3    0  502  0.13956791249E+03  0.36307253521E+03  0.81555006411E+02  0.39743186471E+03  0.00000000000E+00 0.  1.
         11    1    5    5    0    0 -0.15251800445E+03 -0.33213854552E+03 -0.15829663770E+03  0.39829082416E+03  0.00000000000E+00 0.  1.
        -11    1    5    5    0    0 -0.27871846540E+03 -0.67044901167E+03 -0.18283392161E+03  0.74874167982E+03  0.00000000000E+00 0. -1.
          4    1    6    6  503    0 -0.14183268121E+02 -0.37307747018E+03 -0.62650340949E+03  0.72931096656E+03  0.00000000000E+00 0.  1.
         -4    1    6    6    0  503 -0.99145548497E+02 -0.30070209859E+03 -0.48830539199E+03  0.58197400949E+03  0.00000000000E+00 0. -1.
<mgrwt>
<rscale>  0 0.41807446E+04</rscale>
<asrwt>0</asrwt>
<pdfrwt beam="1">  1        2 0.40411281E+00 0.41807446E+04</pdfrwt>
<pdfrwt beam="2">  1       -1 0.25592808E+00 0.41807446E+04</pdfrwt>
<totfact> 0.16537948E-01</totfact>
</mgrwt>
</event>
<event>
12    6  0.8914180E-008  0.1552556E+04  0.7818608E-02  0.8850237E-01
         -1   -1    0    0    0  501 -0.00000000000E+00  0.00000000000E+00  0.28815121663E+03  0.28815121663E+03  0.00000000000E+00 0.  1.
          2   -1    0    0  501    0  0.00000000000E+00 -0.00000000000E+00 -0.20912886738E+04  0.20912886738E+04  0.00000000000E+00 0. -1.
         24    2    1    2    0    0 -0.28964748175E+02  0.21299070563E+03 -0.12223283524E+04  0.12437182922E+04  0.80898652585E+02 0.  0.
        254    2    1    2    0    0  0.28964748175E+02 -0.21299070563E+03 -0.58080910477E+03  0.11357215982E+04  0.95200857935E+03 0.  0.
         23    2    4    4    0    0 -0.36186752084E+03 -0.45557139563E+02 -0.59103430572E+03  0.70051645338E+03  0.91532482248E+02 0.  0.
         23    2    4    4    0    0  0.39083226901E+03 -0.16743356606E+03  0.10225200957E+02  0.43520514484E+03  0.92277309311E+02 0.  0.
          4    1    3    3  502    0 -0.28086670182E+02  0.21878176723E+03 -0.12114111177E+04  0.12313290457E+04  0.00000000000E+00 0. -1.
         -3    1    3    3    0  502 -0.87807799300E+00 -0.57910616040E+01 -0.10917234665E+02  0.12389246474E+02  0.00000000000E+00 0.  1.
         11    1    5    5    0    0 -0.18159187905E+03 -0.13136641283E+02 -0.37801813305E+03  0.41957822965E+03  0.00000000000E+00 0.  1.
        -11    1    5    5    0    0 -0.18027564179E+03 -0.32420498280E+02 -0.21301617268E+03  0.28093822373E+03  0.00000000000E+00 0. -1.
          3    1    6    6  503    0  0.35664803402E+03 -0.13183249316E+03 -0.13435610939E+02  0.38047094773E+03  0.00000000000E+00 0. -1.
         -3    1    6    6    0  503  0.34184234992E+02 -0.35601072903E+02  0.23660811896E+02  0.54734197111E+02  0.00000000000E+00 0.  1.
<mgrwt>
<rscale>  0 0.15525558E+04</rscale>
<asrwt>0</asrwt>
<pdfrwt beam="1">  1        2 0.32173671E+00 0.15525558E+04</pdfrwt>
<pdfrwt beam="2">  1       -1 0.44330957E-01 0.15525558E+04</pdfrwt>
<totfact> 0.32822248E+01</totfact>
</mgrwt>
</event>
<event>
12    6  0.8914180E-008  0.1876951E+04  0.7818608E-02  0.8666415E-01
          2   -1    0    0  501    0  0.00000000000E+00  0.00000000000E+00  0.10447834151E+04  0.10447834151E+04  0.00000000000E+00 0. -1.
         -1   -1    0    0    0  501 -0.00000000000E+00 -0.00000000000E+00 -0.84298490201E+03  0.84298490201E+03  0.00000000000E+00 0.  1.
         24    2    1    2    0    0  0.58230447521E+03  0.12720618476E+03 -0.30989046944E+03  0.68023020108E+03  0.10686958463E+03 0.  0.
        254    2    1    2    0    0 -0.58230447521E+03 -0.12720618476E+03  0.51168898254E+03  0.12075381160E+04  0.91709474514E+03 0.  0.
         23    2    4    4    0    0 -0.49310389612E+03 -0.34952945945E+03  0.66800738523E+03  0.90547687244E+03  0.91280909337E+02 0.  0.
         23    2    4    4    0    0 -0.89200579087E+02  0.22232327470E+03 -0.15631840269E+03  0.30206124360E+03  0.97062712122E+02 0.  0.
          2    1    3    3  502    0  0.18760388018E+03  0.19421123588E+01 -0.13276501875E+03  0.22983806878E+03  0.00000000000E+00 0. -1.
         -1    1    3    3    0  502  0.39470059503E+03  0.12526407240E+03 -0.17712545070E+03  0.45039213230E+03  0.00000000000E+00 0.  1.
         11    1    5    5    0    0 -0.20992101704E+03 -0.20141363635E+03  0.29561332995E+03  0.41475477954E+03  0.00000000000E+00 0. -1.
        -11    1    5    5    0    0 -0.28318287908E+03 -0.14811582310E+03  0.37239405528E+03  0.49072209290E+03  0.00000000000E+00 0.  1.
          2    1    6    6  503    0  0.11979156238E+02  0.91117607330E+02 -0.67848448829E+02  0.11423366648E+03  0.00000000000E+00 0.  1.
         -2    1    6    6    0  503 -0.10117973532E+03  0.13120566737E+03 -0.88469953863E+02  0.18782757712E+03  0.00000000000E+00 0. -1.
<mgrwt>
<rscale>  0 0.18769514E+04</rscale>
<asrwt>0</asrwt>
<pdfrwt beam="1">  1        2 0.16073591E+00 0.18769514E+04</pdfrwt>
<pdfrwt beam="2">  1       -1 0.12968999E+00 0.18769514E+04</pdfrwt>
<totfact> 0.12881304E+01</totfact>
</mgrwt>
</event>
<event>
12    6  0.8914180E-008  0.1992614E+04  0.7818608E-02  0.8610081E-01
         -1   -1    0    0    0  501 -0.00000000000E+00  0.00000000000E+00  0.30581892384E+03  0.30581892384E+03  0.00000000000E+00 0.  1.
          2   -1    0    0  501    0  0.00000000000E+00 -0.00000000000E+00 -0.32458033393E+04  0.32458033393E+04  0.00000000000E+00 0. -1.
         24    2    1    2    0    0 -0.29303992192E+03  0.91173850485E+02  0.13418377671E+03  0.34443652842E+03  0.80288039737E+02 0.  0.
        254    2    1    2    0    0  0.29303992192E+03 -0.91173850485E+02 -0.30741681921E+04  0.32071857347E+04  0.86101405121E+03 0.  0.
         23    2    4    4    0    0  0.52356608821E+03  0.14995362027E+03 -0.15886518880E+04  0.16819928652E+04  0.93153854179E+02 0.  0.
         23    2    4    4    0    0 -0.23052616629E+03 -0.24112747076E+03 -0.14855163042E+04  0.15251928695E+04  0.90387104348E+02 0.  0.
          4    1    3    3  502    0 -0.15470034510E+02 -0.87339571028E+01  0.23261200463E+02  0.29269223109E+02  0.00000000000E+00 0. -1.
         -3    1    3    3    0  502 -0.27756988741E+03  0.99907807588E+02  0.11092257624E+03  0.31516730531E+03  0.00000000000E+00 0.  1.
         11    1    5    5    0    0  0.37942703925E+03  0.14041002847E+03 -0.12492684527E+04  0.13131456587E+04  0.00000000000E+00 0. -1.
        -11    1    5    5    0    0  0.14413904896E+03  0.95435918003E+01 -0.33938343531E+03  0.36884720650E+03  0.00000000000E+00 0.  1.
          3    1    6    6  503    0 -0.41375109815E+02 -0.50543038731E+02 -0.16123586282E+03  0.17396408231E+03  0.00000000000E+00 0. -1.
         -3    1    6    6    0  503 -0.18915105647E+03 -0.19058443202E+03 -0.13242804414E+04  0.13512287872E+04  0.00000000000E+00 0.  1.
<mgrwt>
<rscale>  0 0.19926144E+04</rscale>
<asrwt>0</asrwt>
<pdfrwt beam="1">  1        2 0.49935436E+00 0.19926144E+04</pdfrwt>
<pdfrwt beam="2">  1       -1 0.47049065E-01 0.19926144E+04</pdfrwt>
<totfact> 0.57896918E+00</totfact>
</mgrwt>
</event>
<event>
12    6  0.8914180E-008  0.1527407E+04  0.7818608E-02  0.8866430E-01
          2   -1    0    0  501    0  0.00000000000E+00  0.00000000000E+00  0.52361836764E+03  0.52361836764E+03  0.00000000000E+00 0. -1.
         -1   -1    0    0    0  501 -0.00000000000E+00 -0.00000000000E+00 -0.11138700656E+04  0.11138700656E+04  0.00000000000E+00 0.  1.
         24    2    1    2    0    0 -0.57160546556E+02 -0.18092472560E+03 -0.68308221887E+03  0.71410468262E+03  0.85691864156E+02 0.  0.
        254    2    1    2    0    0  0.57160546556E+02  0.18092472560E+03  0.92830520904E+02  0.92338375062E+03  0.89889874896E+03 0.  0.
         23    2    4    4    0    0  0.11911116633E+03  0.11570080114E+03  0.47955052447E+03  0.51591790625E+03  0.92889370411E+02 0.  0.
         23    2    4    4    0    0 -0.61950619779E+02  0.65223924465E+02 -0.38672000357E+03  0.40746584438E+03  0.91564259201E+02 0.  0.
          2    1    3    3  502    0 -0.14849897930E+02 -0.16043023819E+03 -0.53605669902E+03  0.55974562559E+03  0.00000000000E+00 0. -1.
         -1    1    3    3    0  502 -0.42310648626E+02 -0.20494487410E+02 -0.14702551985E+03  0.15435905703E+03  0.00000000000E+00 0.  1.
         11    1    5    5    0    0  0.81053887393E+02  0.94953227991E+02  0.43955191424E+03  0.45693734087E+03  0.00000000000E+00 0.  1.
        -11    1    5    5    0    0  0.38057278941E+02  0.20747573148E+02  0.39998610232E+02  0.58980565379E+02  0.00000000000E+00 0. -1.
          1    1    6    6  503    0 -0.76108801988E+02  0.50636325187E+02 -0.20310622908E+03  0.22273016737E+03  0.00000000000E+00 0. -1.
         -1    1    6    6    0  503  0.14158182209E+02  0.14587599277E+02 -0.18361377449E+03  0.18473567700E+03  0.00000000000E+00 0.  1.
<mgrwt>
<rscale>  0 0.15274067E+04</rscale>
<asrwt>0</asrwt>
<pdfrwt beam="1">  1        2 0.80556673E-01 0.15274067E+04</pdfrwt>
<pdfrwt beam="2">  1       -1 0.17136462E+00 0.15274067E+04</pdfrwt>
<totfact> 0.15460184E+01</totfact>
</mgrwt>
</event>
<event>
12    6  0.8914180E-008  0.1734374E+04  0.7818608E-02  0.8741999E-01
         -3   -1    0    0    0  501 -0.00000000000E+00  0.00000000000E+00  0.54720242510E+03  0.54720242510E+03  0.00000000000E+00 0.  1.
          2   -1    0    0  501    0  0.00000000000E+00 -0.00000000000E+00 -0.13742869310E+04  0.13742869310E+04  0.00000000000E+00 0. -1.
         24    2    1    2    0    0 -0.39653233896E+03  0.21162383203E+03 -0.79252807901E+03  0.91455233227E+03  0.79263297439E+02 0.  0.
        254    2    1    2    0    0  0.39653233896E+03 -0.21162383203E+03 -0.34556426908E+02  0.10069370238E+04  0.90039184871E+03 0.  0.
         23    2    4    4    0    0  0.31369100979E+03 -0.39877539632E+03  0.30593029952E+03  0.59965229313E+03  0.92550840952E+02 0.  0.
         23    2    4    4    0    0  0.82841329171E+02  0.18715156429E+03 -0.34048672643E+03  0.40728473071E+03  0.89784448343E+02 0.  0.
          4    1    3    3  502    0 -0.39502671711E+03  0.21505253478E+03 -0.77017254322E+03  0.89188533247E+03  0.00000000000E+00 0. -1.
         -3    1    3    3    0  502 -0.15056218541E+01 -0.34287027454E+01 -0.22355535789E+02  0.22666999804E+02  0.00000000000E+00 0.  1.
         11    1    5    5    0    0  0.82904640462E+02 -0.10276336900E+03  0.12937294186E+03  0.18485358396E+03  0.00000000000E+00 0. -1.
        -11    1    5    5    0    0  0.23078636933E+03 -0.29601202732E+03  0.17655735766E+03  0.41479870917E+03  0.00000000000E+00 0.  1.
          2    1    6    6  503    0  0.30317534423E+02  0.23457264472E+01 -0.60610154036E+02  0.67810368664E+02  0.00000000000E+00 0. -1.
         -2    1    6    6    0  503  0.52523794749E+02  0.18480583785E+03 -0.27987657239E+03  0.33947436205E+03  0.00000000000E+00 0.  1.
<mgrwt>
<rscale>  0 0.17343738E+04</rscale>
<asrwt>0</asrwt>
<pdfrwt beam="1">  1        2 0.21142876E+00 0.17343738E+04</pdfrwt>
<pdfrwt beam="2">  1       -3 0.84184989E-01 0.17343738E+04</pdfrwt>
<totfact> 0.11734387E+01</totfact>
</mgrwt>
</event>
<event>
12    6  0.8914180E-008  0.1813533E+04  0.7818608E-02  0.8699136E-01
          2   -1    0    0  501    0  0.00000000000E+00  0.00000000000E+00  0.43227851401E+04  0.43227851401E+04  0.00000000000E+00 0. -1.
         -1   -1    0    0    0  501 -0.00000000000E+00 -0.00000000000E+00 -0.19020724282E+03  0.19020724282E+03  0.00000000000E+00 0.  1.
         24    2    1    2    0    0  0.63925277916E+02  0.26877963959E+03  0.30832913731E+04  0.30966915422E+04  0.80522545548E+02 0.  0.
        254    2    1    2    0    0 -0.63925277916E+02 -0.26877963959E+03  0.10492865242E+04  0.14163008407E+04  0.91026200943E+03 0.  0.
         23    2    4    4    0    0 -0.14410564012E+03  0.55669505615E+02  0.10541511257E+04  0.10693461706E+04  0.91657555716E+02 0.  0.
         23    2    4    4    0    0  0.80180362209E+02 -0.32444914520E+03 -0.48646014553E+01  0.34695467012E+03  0.93046979884E+02 0.  0.
          2    1    3    3  502    0  0.80422073772E+02  0.24366829331E+03  0.26660325542E+04  0.26783523904E+04  0.00000000000E+00 0. -1.
         -1    1    3    3    0  502 -0.16496795856E+02  0.25111346284E+02  0.41725881888E+03  0.41833915179E+03  0.00000000000E+00 0.  1.
         11    1    5    5    0    0 -0.15573902310E+03  0.42725110723E+02  0.91935128947E+03  0.93342748613E+03  0.00000000000E+00 0.  1.
        -11    1    5    5    0    0  0.11633382972E+02  0.12944394891E+02  0.13479983619E+03  0.13591868450E+03  0.00000000000E+00 0. -1.
          2    1    6    6  503    0  0.60171686248E+02 -0.13871238854E+03  0.36664451887E+02  0.15558290585E+03  0.00000000000E+00 0.  1.
         -2    1    6    6    0  503  0.20008675961E+02 -0.18573675666E+03 -0.41529053342E+02  0.19137176427E+03  0.00000000000E+00 0. -1.
<mgrwt>
<rscale>  0 0.18135325E+04</rscale>
<asrwt>0</asrwt>
<pdfrwt beam="1">  1        2 0.66504379E+00 0.18135325E+04</pdfrwt>
<pdfrwt beam="2">  1       -1 0.29262656E-01 0.18135325E+04</pdfrwt>
<totfact> 0.21099629E+00</totfact>
</mgrwt>
</event>
<event>
12    6  0.8914180E-008  0.2606791E+04  0.7818608E-02  0.8365898E-01
          2   -1    0    0  501    0  0.00000000000E+00  0.00000000000E+00  0.13296897203E+04  0.13296897203E+04  0.00000000000E+00 0. -1.
         -1   -1    0    0    0  501 -0.00000000000E+00 -0.00000000000E+00 -0.12776216230E+04  0.12776216230E+04  0.00000000000E+00 0.  1.
         24    2    1    2    0    0  0.81053456584E+03 -0.18175327724E+02 -0.80737742033E+03  0.11470299395E+04  0.80763594448E+02 0.  0.
        254    2    1    2    0    0 -0.81053456584E+03  0.18175327724E+02  0.85944551762E+03  0.14602814039E+04  0.85818328804E+03 0.  0.
         23    2    4    4    0    0 -0.10445364232E+03  0.19350731835E+03 -0.96711031176E+02  0.25543845396E+03  0.86833948204E+02 0.  0.
         23    2    4    4    0    0 -0.70608092352E+03 -0.17533199063E+03  0.95615654880E+03  0.12048429499E+04  0.90108882674E+02 0.  0.
          4    1    3    3  502    0  0.47536479824E+02 -0.59699217895E+01 -0.77274118603E+02  0.90921099235E+02  0.00000000000E+00 0. -1.
         -3    1    3    3    0  502  0.76299808602E+03 -0.12205405934E+02 -0.73010330173E+03  0.10561088402E+04  0.00000000000E+00 0.  1.
         11    1    5    5    0    0 -0.10753782071E+03  0.18642007361E+03 -0.10875191856E+03  0.24113026877E+03  0.00000000000E+00 0.  1.
        -11    1    5    5    0    0  0.30841783910E+01  0.70872447421E+01  0.12040887383E+02  0.14308185187E+02  0.00000000000E+00 0. -1.
          4    1    6    6  503    0 -0.27637892408E+03 -0.46722592614E+02  0.30597385825E+03  0.41495579556E+03  0.00000000000E+00 0. -1.
         -4    1    6    6    0  503 -0.42970199943E+03 -0.12860939801E+03  0.65018269055E+03  0.78988715439E+03  0.00000000000E+00 0.  1.
<mgrwt>
<rscale>  0 0.26067914E+04</rscale>
<asrwt>0</asrwt>
<pdfrwt beam="1">  1        2 0.20456765E+00 0.26067914E+04</pdfrwt>
<pdfrwt beam="2">  1       -1 0.19655717E+00 0.26067914E+04</pdfrwt>
<totfact> 0.25442423E+00</totfact>
</mgrwt>
</event>
<event>
12    6  0.8914180E-008  0.2192764E+04  0.7818608E-02  0.8521446E-01
          2   -1    0    0  501    0  0.00000000000E+00  0.00000000000E+00  0.49027955513E+03  0.49027955513E+03  0.00000000000E+00 0. -1.
         -1   -1    0    0    0  501 -0.00000000000E+00 -0.00000000000E+00 -0.24517718191E+04  0.24517718191E+04  0.00000000000E+00 0.  1.
         24    2    1    2    0    0  0.40764018143E+03  0.46716354302E+03 -0.17487797919E+04  0.18571317522E+04  0.79342869106E+02 0.  0.
        254    2    1    2    0    0 -0.40764018143E+03 -0.46716354302E+03 -0.21271247206E+03  0.10849196221E+04  0.86451818785E+03 0.  0.
         23    2    4    4    0    0 -0.65426056490E+03 -0.41891978075E+03 -0.85625907580E+02  0.78837566062E+03  0.10321684318E+03 0.  0.
         23    2    4    4    0    0  0.24662038347E+03 -0.48243762279E+02 -0.12708656448E+03  0.29654396145E+03  0.92942197395E+02 0.  0.
          2    1    3    3  502    0  0.28630236276E+02  0.28276435201E+02 -0.66671646182E+02  0.77873972684E+02  0.00000000000E+00 0. -1.
         -1    1    3    3    0  502  0.37900994515E+03  0.43888710782E+03 -0.16821081457E+04  0.17792577795E+04  0.00000000000E+00 0.  1.
         11    1    5    5    0    0 -0.96028660708E+02 -0.90722736378E+02  0.15324985134E+02  0.13299238227E+03  0.00000000000E+00 0. -1.
        -11    1    5    5    0    0 -0.55823190419E+03 -0.32819704437E+03 -0.10095089271E+03  0.65538327834E+03  0.00000000000E+00 0.  1.
          1    1    6    6  503    0  0.15134502627E+03 -0.64681730285E+02 -0.47463732305E+02  0.17129462657E+03  0.00000000000E+00 0. -1.
         -1    1    6    6    0  503  0.95275357205E+02  0.16437968006E+02 -0.79622832177E+02  0.12524933487E+03  0.00000000000E+00 0.  1.
<mgrwt>
<rscale>  0 0.21927641E+04</rscale>
<asrwt>0</asrwt>
<pdfrwt beam="1">  1        2 0.75427624E-01 0.21927641E+04</pdfrwt>
<pdfrwt beam="2">  1       -1 0.37719567E+00 0.21927641E+04</pdfrwt>
<totfact> 0.67322099E-01</totfact>
</mgrwt>
</event>
<event>
12    6  0.8914180E-008  0.1536346E+04  0.7818608E-02  0.8860637E-01
         -1   -1    0    0    0  501 -0.00000000000E+00  0.00000000000E+00  0.39118056910E+03  0.39118056910E+03  0.00000000000E+00 0.  1.
          2   -1    0    0  501    0  0.00000000000E+00 -0.00000000000E+00 -0.15084842908E+04  0.15084842908E+04  0.00000000000E+00 0. -1.
         24    2    1    2    0    0  0.17883201355E+03  0.22574274073E+03 -0.87450123178E+03  0.92453267191E+03  0.84068918086E+02 0.  0.
        254    2    1    2    0    0 -0.17883201355E+03 -0.22574274073E+03 -0.24280248990E+03  0.97513218797E+03  0.89943819179E+03 0.  0.
         23    2    4    4    0    0  0.32450959757E+03 -0.25452095189E+03 -0.18053260919E+03  0.45901134142E+03  0.89509746414E+02 0.  0.
         23    2    4    4    0    0 -0.50334161113E+03  0.28778211161E+02 -0.62269880706E+02  0.51612084655E+03  0.91226242198E+02 0.  0.
          2    1    3    3  502    0  0.86956921491E+02  0.14686002777E+03 -0.40135993210E+03  0.43614122603E+03  0.00000000000E+00 0. -1.
         -1    1    3    3    0  502  0.91875092062E+02  0.78882712963E+02 -0.47314129968E+03  0.48839144588E+03  0.00000000000E+00 0.  1.
         11    1    5    5    0    0  0.24224515012E+03 -0.17948030323E+03 -0.17255433058E+03  0.34737715671E+03  0.00000000000E+00 0.  1.
        -11    1    5    5    0    0  0.82264447459E+02 -0.75040648659E+02 -0.79782786153E+01  0.11163418471E+03  0.00000000000E+00 0. -1.
          4    1    6    6  503    0 -0.29425112306E+03 -0.71117861959E+01 -0.74503861934E+02  0.30362003618E+03  0.00000000000E+00 0. -1.
         -4    1    6    6    0  503 -0.20909048807E+03  0.35889997357E+02  0.12233981228E+02  0.21250081037E+03  0.00000000000E+00 0.  1.
<mgrwt>
<rscale>  0 0.15363460E+04</rscale>
<asrwt>0</asrwt>
<pdfrwt beam="1">  1        2 0.23207451E+00 0.15363460E+04</pdfrwt>
<pdfrwt beam="2">  1       -1 0.60181625E-01 0.15363460E+04</pdfrwt>
<totfact> 0.38590256E+01</totfact>
</mgrwt>
</event>
<event>
12    6  0.8914180E-008  0.2014755E+04  0.7818608E-02  0.8599753E-01
          2   -1    0    0  501    0  0.00000000000E+00  0.00000000000E+00  0.13326470462E+04  0.13326470462E+04  0.00000000000E+00 0. -1.
         -1   -1    0    0    0  501 -0.00000000000E+00 -0.00000000000E+00 -0.76149903977E+03  0.76149903977E+03  0.00000000000E+00 0.  1.
         24    2    1    2    0    0 -0.16427852002E+03 -0.63095161040E+03 -0.26375581321E+03  0.70784415282E+03  0.79930275072E+02 0.  0.
        254    2    1    2    0    0  0.16427852002E+03  0.63095161040E+03  0.83490381968E+03  0.13863019332E+04  0.89424901175E+03 0.  0.
         23    2    4    4    0    0 -0.35205940162E+03  0.25770678205E+03  0.46261708940E+03  0.64275498856E+03  0.93599124664E+02 0.  0.
         23    2    4    4    0    0  0.51633792164E+03  0.37324482835E+03  0.37228673028E+03  0.74354694462E+03  0.91367927080E+02 0.  0.
          2    1    3    3  502    0 -0.24617798893E+02 -0.13364428204E+03 -0.89412170355E+02  0.16266950038E+03  0.00000000000E+00 0. -1.
         -1    1    3    3    0  502 -0.13966072113E+03 -0.49730732836E+03 -0.17434364286E+03  0.54517465244E+03  0.00000000000E+00 0.  1.
         11    1    5    5    0    0 -0.15629578977E+03  0.80653097029E+02  0.13315689554E+03  0.22059930822E+03  0.00000000000E+00 0. -1.
        -11    1    5    5    0    0 -0.19576361185E+03  0.17705368503E+03  0.32946019386E+03  0.42215568034E+03  0.00000000000E+00 0.  1.
          2    1    6    6  503    0  0.11076870221E+03  0.37900305431E+02  0.58991008513E+02  0.13109568119E+03  0.00000000000E+00 0. -1.
         -2    1    6    6    0  503  0.40556921942E+03  0.33534452292E+03  0.31329572177E+03  0.61245126343E+03  0.00000000000E+00 0.  1.
<mgrwt>
<rscale>  0 0.20147550E+04</rscale>
<asrwt>0</asrwt>
<pdfrwt beam="1">  1        2 0.20502262E+00 0.20147550E+04</pdfrwt>
<pdfrwt beam="2">  1       -1 0.11715370E+00 0.20147550E+04</pdfrwt>
<totfact> 0.10986156E+01</totfact>
</mgrwt>
</event>
<event>
12    6  0.8914180E-008  0.1437634E+04  0.7818608E-02  0.8927019E-01
          2   -1    0    0  501    0  0.00000000000E+00  0.00000000000E+00  0.40345317918E+04  0.40345317918E+04  0.00000000000E+00 0. -1.
         -1   -1    0    0    0  501 -0.00000000000E+00 -0.00000000000E+00 -0.12806877632E+03  0.12806877632E+03  0.00000000000E+00 0.  1.
         24    2    1    2    0    0  0.11791533107E+03  0.38303986526E+03  0.69986872345E+03  0.81045716701E+03  0.80006411155E+02 0.  0.
        254    2    1    2    0    0 -0.11791533107E+03 -0.38303986526E+03  0.32065942920E+04  0.33521434011E+04  0.89106389457E+03 0.  0.
         23    2    4    4    0    0  0.12131917606E+02  0.27379807258E+03  0.73778343354E+03  0.79249479818E+03  0.92795702285E+02 0.  0.
         23    2    4    4    0    0 -0.13004724868E+03 -0.65683793784E+03  0.24688108585E+04  0.25596486029E+04  0.91790805542E+02 0.  0.
          2    1    3    3  502    0  0.42405407214E+01  0.26215645884E+02  0.98484757613E+02  0.10200240074E+03  0.00000000000E+00 0. -1.
         -1    1    3    3    0  502  0.11367479035E+03  0.35682421937E+03  0.60138396583E+03  0.70845476627E+03  0.00000000000E+00 0.  1.
         11    1    5    5    0    0  0.28244753352E+02  0.24192835273E+03  0.69675195067E+03  0.73809916319E+03  0.00000000000E+00 0. -1.
        -11    1    5    5    0    0 -0.16112835746E+02  0.31869719848E+02  0.41031482876E+02  0.54395634990E+02  0.00000000000E+00 0.  1.
          2    1    6    6  503    0 -0.13205528786E+03 -0.55828657950E+03  0.21912302650E+04  0.22650855565E+04  0.00000000000E+00 0. -1.
         -2    1    6    6    0  503  0.20080391796E+01 -0.98551358332E+02  0.27758059351E+03  0.29456304647E+03  0.00000000000E+00 0.  1.
<mgrwt>
<rscale>  0 0.14376335E+04</rscale>
<asrwt>0</asrwt>
<pdfrwt beam="1">  1        2 0.62069710E+00 0.14376335E+04</pdfrwt>
<pdfrwt beam="2">  1       -1 0.19702892E-01 0.14376335E+04</pdfrwt>
<totfact> 0.76395998E+00</totfact>
</mgrwt>
</event>
<event>
12    6  0.8914180E-008  0.5117362E+04  0.7818608E-02  0.7810654E-01
          2   -1    0    0  501    0  0.00000000000E+00  0.00000000000E+00  0.34385434026E+04  0.34385434026E+04  0.00000000000E+00 0. -1.
         -1   -1    0    0    0  501 -0.00000000000E+00 -0.00000000000E+00 -0.19039599786E+04  0.19039599786E+04  0.00000000000E+00 0.  1.
         24    2    1    2    0    0 -0.10886234009E+04  0.12119101056E+02  0.30567243754E+04  0.32458211784E+04  0.80891491607E+02 0.  0.
        254    2    1    2    0    0  0.10886234009E+04 -0.12119101056E+02 -0.15221409514E+04  0.20966822029E+04  0.94547099488E+03 0.  0.
         23    2    4    4    0    0  0.10863614237E+04  0.18913480170E+03 -0.86834095258E+03  0.14065661083E+04  0.91973315782E+02 0.  0.
         23    2    4    4    0    0  0.22619772196E+01 -0.20125390276E+03 -0.65379999883E+03  0.69011609460E+03  0.91090809880E+02 0.  0.
          2    1    3    3  502    0 -0.86987294669E+03 -0.22794060026E+02  0.24344472552E+04  0.25852914635E+04  0.00000000000E+00 0. -1.
         -1    1    3    3    0  502 -0.21875045424E+03  0.34913161082E+02  0.62227712017E+03  0.66052971495E+03  0.00000000000E+00 0.  1.
         11    1    5    5    0    0  0.28554804988E+03  0.14911181857E+02 -0.19818407505E+03  0.34790366445E+03  0.00000000000E+00 0. -1.
        -11    1    5    5    0    0  0.80081337384E+03  0.17422361984E+03 -0.67015687752E+03  0.10586624438E+04  0.00000000000E+00 0.  1.
          4    1    6    6  503    0 -0.43906944140E+02 -0.11007113224E+03 -0.36600187645E+03  0.38470878267E+03  0.00000000000E+00 0.  1.
         -4    1    6    6    0  503  0.46168921360E+02 -0.91182770516E+02 -0.28779812237E+03  0.30540731193E+03  0.00000000000E+00 0. -1.
<mgrwt>
<rscale>  0 0.51173622E+04</rscale>
<asrwt>0</asrwt>
<pdfrwt beam="1">  1        2 0.52900668E+00 0.51173622E+04</pdfrwt>
<pdfrwt beam="2">  1       -1 0.29291692E+00 0.51173622E+04</pdfrwt>
<totfact> 0.26933146E-02</totfact>
</mgrwt>
</event>
<event>
12    6  0.8914180E-008  0.1744155E+04  0.7818608E-02  0.8736574E-01
          2   -1    0    0  501    0  0.00000000000E+00  0.00000000000E+00  0.14515049889E+04  0.14515049889E+04  0.00000000000E+00 0. -1.
         -1   -1    0    0    0  501 -0.00000000000E+00 -0.00000000000E+00 -0.52395227540E+03  0.52395227540E+03  0.00000000000E+00 0.  1.
         24    2    1    2    0    0 -0.46749352726E+03 -0.52939920922E+03  0.36598663399E+03  0.79889430871E+03  0.73974181202E+02 0.  0.
        254    2    1    2    0    0  0.46749352726E+03  0.52939920922E+03  0.56156607946E+03  0.11765629555E+04  0.75506966964E+03 0.  0.
         23    2    4    4    0    0 -0.63487155919E+02  0.43947792559E+03  0.10886780017E+03  0.46688389979E+03  0.94640963197E+02 0.  0.
         23    2    4    4    0    0  0.53098068318E+03  0.89921283623E+02  0.45269827929E+03  0.70967905576E+03  0.93178897554E+02 0.  0.
          2    1    3    3  502    0 -0.14882477247E+03 -0.15872552298E+03  0.75709678220E+02  0.23037916555E+03  0.00000000000E+00 0. -1.
         -1    1    3    3    0  502 -0.31866875479E+03 -0.37067368624E+03  0.29027695577E+03  0.56851514316E+03  0.00000000000E+00 0.  1.
         11    1    5    5    0    0 -0.68258071621E+02  0.35246665774E+03  0.12109623890E+03  0.37888812100E+03  0.00000000000E+00 0. -1.
        -11    1    5    5    0    0  0.47709157026E+01  0.87011267858E+02 -0.12228438730E+02  0.87995778789E+02  0.00000000000E+00 0.  1.
          2    1    6    6  503    0  0.34062321655E+03  0.37142173072E+02  0.23370008898E+03  0.41475227336E+03  0.00000000000E+00 0. -1.
         -2    1    6    6    0  503  0.19035746663E+03  0.52779110551E+02  0.21899819031E+03  0.29492678239E+03  0.00000000000E+00 0.  1.
<mgrwt>
<rscale>  0 0.17441552E+04</rscale>
<asrwt>0</asrwt>
<pdfrwt beam="1">  1        2 0.22330846E+00 0.17441552E+04</pdfrwt>
<pdfrwt beam="2">  1       -1 0.80608043E-01 0.17441552E+04</pdfrwt>
<totfact> 0.22430736E+01</totfact>
</mgrwt>
</event>
<event>
12    6  0.8914180E-008  0.1516204E+04  0.7818608E-02  0.8873749E-01
         -1   -1    0    0    0  501 -0.00000000000E+00  0.00000000000E+00  0.24167101660E+03  0.24167101660E+03  0.00000000000E+00 0.  1.
          2   -1    0    0  501    0  0.00000000000E+00 -0.00000000000E+00 -0.23781019258E+04  0.23781019258E+04  0.00000000000E+00 0. -1.
         24    2    1    2    0    0 -0.82735163408E+02  0.48054174330E+01 -0.15154033260E+04  0.15197565545E+04  0.79652653601E+02 0.  0.
        254    2    1    2    0    0  0.82735163408E+02 -0.48054174330E+01 -0.62102758318E+03  0.11000163879E+04  0.90415297113E+03 0.  0.
         23    2    4    4    0    0 -0.23389577155E+03  0.26617158054E+03 -0.23275513497E+02  0.36598695986E+03  0.88601145702E+02 0.  0.
         23    2    4    4    0    0  0.31663093496E+03 -0.27097699798E+03 -0.59775206969E+03  0.73402942801E+03  0.88362786069E+02 0.  0.
          4    1    3    3  502    0 -0.80042227016E+02  0.27011898751E+02 -0.90247349663E+03  0.90641867418E+03  0.00000000000E+00 0. -1.
         -3    1    3    3    0  502 -0.26929363916E+01 -0.22206481317E+02 -0.61292982939E+03  0.61333788035E+03  0.00000000000E+00 0.  1.
         11    1    5    5    0    0 -0.57437865018E+02  0.36654759303E+02 -0.34268849465E+02  0.76269481190E+02  0.00000000000E+00 0. -1.
        -11    1    5    5    0    0 -0.17645790653E+03  0.22951682124E+03  0.10993335968E+02  0.28971747867E+03  0.00000000000E+00 0.  1.
          4    1    6    6  503    0  0.29707530910E+03 -0.21843008634E+03 -0.53642260632E+03  0.65093367901E+03  0.00000000000E+00 0.  1.
         -4    1    6    6    0  503  0.19555625864E+02 -0.52546911635E+02 -0.61329463364E+02  0.83095749000E+02  0.00000000000E+00 0. -1.
<mgrwt>
<rscale>  0 0.15162036E+04</rscale>
<asrwt>0</asrwt>
<pdfrwt beam="1">  1        2 0.36586183E+00 0.15162036E+04</pdfrwt>
<pdfrwt beam="2">  1       -1 0.37180157E-01 0.15162036E+04</pdfrwt>
<totfact> 0.31355074E+01</totfact>
</mgrwt>
</event>
<event>
12    6  0.8914180E-008  0.2345316E+04  0.7818608E-02  0.8460265E-01
         -1   -1    0    0    0  501 -0.00000000000E+00  0.00000000000E+00  0.17883089507E+04  0.17883089507E+04  0.00000000000E+00 0.  1.
          2   -1    0    0  501    0  0.00000000000E+00 -0.00000000000E+00 -0.76895341196E+03  0.76895341196E+03  0.00000000000E+00 0. -1.
         24    2    1    2    0    0  0.16643289168E+02 -0.82085364539E+03 -0.16713395741E+03  0.84157116629E+03  0.78933909027E+02 0.  0.
        254    2    1    2    0    0 -0.16643289168E+02  0.82085364539E+03  0.11864894961E+04  0.17156911963E+04  0.92831096649E+03 0.  0.
         23    2    4    4    0    0 -0.46249404287E+03  0.40109340453E+03  0.63019546162E+03  0.88336229417E+03  0.91684044759E+02 0.  0.
         23    2    4    4    0    0  0.44585075370E+03  0.41976024086E+03  0.55629403449E+03  0.83232890215E+03  0.91251269328E+02 0.  0.
          2    1    3    3  502    0 -0.17655528967E+02 -0.64606853191E+03 -0.12047095555E+03  0.65744164514E+03  0.00000000000E+00 0. -1.
         -1    1    3    3    0  502  0.34298818135E+02 -0.17478511348E+03 -0.46663001858E+02  0.18412952115E+03  0.00000000000E+00 0.  1.
         11    1    5    5    0    0 -0.12836572863E+03  0.12603220728E+03  0.24524547859E+03  0.30414999972E+03  0.00000000000E+00 0.  1.
        -11    1    5    5    0    0 -0.33412831424E+03  0.27506119724E+03  0.38494998303E+03  0.57921229445E+03  0.00000000000E+00 0. -1.
          3    1    6    6  503    0  0.18347784452E+03  0.16231782246E+03  0.28289765245E+03  0.37422222900E+03  0.00000000000E+00 0. -1.
         -3    1    6    6    0  503  0.26237290919E+03  0.25744241840E+03  0.27339638204E+03  0.45810667315E+03  0.00000000000E+00 0.  1.
<mgrwt>
<rscale>  0 0.23453156E+04</rscale>
<asrwt>0</asrwt>
<pdfrwt beam="1">  1        2 0.11830053E+00 0.23453156E+04</pdfrwt>
<pdfrwt beam="2">  1       -1 0.27512445E+00 0.23453156E+04</pdfrwt>
<totfact> 0.17903893E+00</totfact>
</mgrwt>
</event>
<event>
12    6  0.8914180E-008  0.1491538E+04  0.7818608E-02  0.8890100E-01
          2   -1    0    0  501    0  0.00000000000E+00  0.00000000000E+00  0.10044356691E+04  0.10044356691E+04  0.00000000000E+00 0. -1.
         -1   -1    0    0    0  501 -0.00000000000E+00 -0.00000000000E+00 -0.55371526136E+03  0.55371526136E+03  0.00000000000E+00 0.  1.
         24    2    1    2    0    0  0.18604843723E+03 -0.42780158496E+03  0.21377081001E+03  0.51941867329E+03  0.80433710964E+02 0.  0.
        254    2    1    2    0    0 -0.18604843723E+03  0.42780158496E+03  0.23694959777E+03  0.10387322572E+04  0.89732456401E+03 0.  0.
         23    2    4    4    0    0 -0.27758147712E+03  0.66298511801E+03  0.25624313670E+03  0.76933295482E+03  0.98040334206E+02 0.  0.
         23    2    4    4    0    0  0.91533039897E+02 -0.23518353304E+03 -0.19293538932E+02  0.26939930238E+03  0.92272161948E+02 0.  0.
          2    1    3    3  502    0  0.18013368070E+03 -0.37561871578E+03  0.21064911437E+03  0.46680896730E+03  0.00000000000E+00 0. -1.
         -1    1    3    3    0  502  0.59147565307E+01 -0.52182869186E+02  0.31216956432E+01  0.52609705996E+02  0.00000000000E+00 0.  1.
         11    1    5    5    0    0 -0.34333528474E+02  0.71217239673E+02  0.62648475153E+02  0.10087377183E+03  0.00000000000E+00 0.  1.
        -11    1    5    5    0    0 -0.24324794865E+03  0.59176787833E+03  0.19359466155E+03  0.66845918299E+03  0.00000000000E+00 0. -1.
          1    1    6    6  503    0  0.91671705163E+02 -0.19439864720E+03  0.15917217179E+02  0.21551773330E+03  0.00000000000E+00 0. -1.
         -1    1    6    6    0  503 -0.13866526624E+00 -0.40784885839E+02 -0.35210756111E+02  0.53881569083E+02  0.00000000000E+00 0.  1.
<mgrwt>
<rscale>  0 0.14915379E+04</rscale>
<asrwt>0</asrwt>
<pdfrwt beam="1">  1        2 0.15452856E+00 0.14915379E+04</pdfrwt>
<pdfrwt beam="2">  1       -1 0.85186963E-01 0.14915379E+04</pdfrwt>
<totfact> 0.37618385E+01</totfact>
</mgrwt>
</event>
<event>
12    6  0.8914180E-008  0.2978394E+04  0.7818608E-02  0.8249927E-01
          2   -1    0    0  501    0  0.00000000000E+00  0.00000000000E+00  0.23861902007E+04  0.23861902007E+04  0.00000000000E+00 0. -1.
         -1   -1    0    0    0  501 -0.00000000000E+00 -0.00000000000E+00 -0.92939298425E+03  0.92939298425E+03  0.00000000000E+00 0.  1.
         24    2    1    2    0    0  0.51017243172E+03  0.12174413325E+04  0.34615977059E+03  0.13670179789E+04  0.80450354415E+02 0.  0.
        254    2    1    2    0    0 -0.51017243172E+03 -0.12174413325E+04  0.11106374459E+04  0.19485652061E+04  0.90606374941E+03 0.  0.
         23    2    4    4    0    0  0.20886401459E+03 -0.18963655623E+03  0.46338124364E+02  0.30107716869E+03  0.94414192193E+02 0.  0.
         23    2    4    4    0    0 -0.71903644630E+03 -0.10278047763E+04  0.10642993215E+04  0.16474880374E+04  0.89931742672E+02 0.  0.
          2    1    3    3  502    0  0.20905078875E+01 -0.97696620462E+00  0.10979866574E+01  0.25554375149E+01  0.00000000000E+00 0. -1.
         -1    1    3    3    0  502  0.50808192383E+03  0.12184182987E+04  0.34506178393E+03  0.13644625414E+04  0.00000000000E+00 0.  1.
         11    1    5    5    0    0  0.17950868143E+03 -0.18069826164E+03  0.11947003242E+02  0.25498619444E+03  0.00000000000E+00 0.  1.
        -11    1    5    5    0    0  0.29355333155E+02 -0.89382945853E+01  0.34391121122E+02  0.46090974244E+02  0.00000000000E+00 0. -1.
          3    1    6    6  503    0 -0.34727955563E+03 -0.52323689209E+03  0.47732874062E+03  0.78881091626E+03  0.00000000000E+00 0. -1.
         -3    1    6    6    0  503 -0.37175689067E+03 -0.50456788422E+03  0.58697058090E+03  0.85867712115E+03  0.00000000000E+00 0.  1.
<mgrwt>
<rscale>  0 0.29783945E+04</rscale>
<asrwt>0</asrwt>
<pdfrwt beam="1">  1        2 0.36710618E+00 0.29783945E+04</pdfrwt>
<pdfrwt beam="2">  1       -1 0.14298354E+00 0.29783945E+04</pdfrwt>
<totfact> 0.15647811E+00</totfact>
</mgrwt>
</event>
<event>
12    6  0.8914180E-008  0.2678537E+04  0.7818608E-02  0.8342003E-01
         -1   -1    0    0    0  501 -0.00000000000E+00  0.00000000000E+00  0.10991021455E+04  0.10991021455E+04  0.00000000000E+00 0.  1.
          2   -1    0    0  501    0  0.00000000000E+00 -0.00000000000E+00 -0.16319139926E+04  0.16319139926E+04  0.00000000000E+00 0. -1.
         24    2    1    2    0    0 -0.41810171098E+03  0.68140034439E+03  0.65700246545E+03  0.10378334957E+04  0.79565414148E+02 0.  0.
        254    2    1    2    0    0  0.41810171098E+03 -0.68140034439E+03 -0.11898143125E+04  0.16931826425E+04  0.90116252272E+03 0.  0.
         23    2    4    4    0    0  0.39796983478E+03 -0.46535273693E+03 -0.12951394287E+04  0.14352401497E+04  0.87149230089E+02 0.  0.
         23    2    4    4    0    0  0.20131876198E+02 -0.21604760746E+03  0.10532511616E+03  0.25794249279E+03  0.91428050200E+02 0.  0.
          2    1    3    3  502    0 -0.50065688830E+02  0.13376599337E+03  0.10009548855E+03  0.17441049569E+03  0.00000000000E+00 0. -1.
         -1    1    3    3    0  502 -0.36803602215E+03  0.54763435102E+03  0.55690697691E+03  0.86342300001E+03  0.00000000000E+00 0.  1.
         11    1    5    5    0    0  0.25879936596E+03 -0.28935263192E+03 -0.91288948706E+03  0.99200265776E+03  0.00000000000E+00 0. -1.
        -11    1    5    5    0    0  0.13917046882E+03 -0.17600010501E+03 -0.38224994163E+03  0.44323749191E+03  0.00000000000E+00 0.  1.
          3    1    6    6  503    0  0.40281833863E+02 -0.18227207821E+03  0.56064745138E+02  0.19490765065E+03  0.00000000000E+00 0. -1.
         -3    1    6    6    0  503 -0.20149957664E+02 -0.33775529246E+02  0.49260371024E+02  0.63034842136E+02  0.00000000000E+00 0.  1.
<mgrwt>
<rscale>  0 0.26785370E+04</rscale>
<asrwt>0</asrwt>
<pdfrwt beam="1">  1        2 0.25106369E+00 0.26785370E+04</pdfrwt>
<pdfrwt beam="2">  1       -1 0.16909264E+00 0.26785370E+04</pdfrwt>
<totfact> 0.26761545E+00</totfact>
</mgrwt>
</event>
<event>
12    6  0.8914180E-008  0.1092558E+04  0.7818608E-02  0.9212475E-01
         -1   -1    0    0    0  501 -0.00000000000E+00  0.00000000000E+00  0.13480475904E+04  0.13480475904E+04  0.00000000000E+00 0.  1.
          2   -1    0    0  501    0  0.00000000000E+00 -0.00000000000E+00 -0.22137271677E+03  0.22137271677E+03  0.00000000000E+00 0. -1.
         24    2    1    2    0    0  0.10801529707E+03  0.97706846832E+02  0.86865473672E+02  0.18692636638E+03  0.78625209775E+02 0.  0.
        254    2    1    2    0    0 -0.10801529707E+03 -0.97706846832E+02  0.10398093999E+04  0.13824939407E+04  0.89937310150E+03 0.  0.
         23    2    4    4    0    0  0.12014546182E+03 -0.22895722527E+03 -0.31946589457E+02  0.27506555260E+03  0.88227720412E+02 0.  0.
         23    2    4    4    0    0 -0.22816075890E+03  0.13125037844E+03  0.10717559894E+04  0.11074283881E+04  0.91938785912E+02 0.  0.
          2    1    3    3  502    0  0.45258572749E+02  0.47164213831E+02 -0.39875318295E+01  0.65488181252E+02  0.00000000000E+00 0. -1.
         -1    1    3    3    0  502  0.62756724323E+02  0.50542633001E+02  0.90853005502E+02  0.12143818513E+03  0.00000000000E+00 0.  1.
         11    1    5    5    0    0  0.71486955102E+02 -0.65526208082E+02  0.15172652524E+02  0.98154358436E+02  0.00000000000E+00 0.  1.
        -11    1    5    5    0    0  0.48658506721E+02 -0.16343101719E+03 -0.47119241981E+02  0.17691119417E+03  0.00000000000E+00 0. -1.
          2    1    6    6  503    0 -0.92545254954E+02  0.70709739222E+02  0.64843011217E+03  0.65880657390E+03  0.00000000000E+00 0. -1.
         -2    1    6    6    0  503 -0.13561550394E+03  0.60540639219E+02  0.42332587720E+03  0.44862181424E+03  0.00000000000E+00 0.  1.
<mgrwt>
<rscale>  0 0.10925584E+04</rscale>
<asrwt>0</asrwt>
<pdfrwt beam="1">  1        2 0.34057342E-01 0.10925584E+04</pdfrwt>
<pdfrwt beam="2">  1       -1 0.20739193E+00 0.10925584E+04</pdfrwt>
<totfact> 0.23576800E+01</totfact>
</mgrwt>
</event>
<event>
12    6  0.8914180E-008  0.1258490E+04  0.7818608E-02  0.9063147E-01
          2   -1    0    0  501    0  0.00000000000E+00  0.00000000000E+00  0.24331230666E+03  0.24331230666E+03  0.00000000000E+00 0. -1.
         -1   -1    0    0    0  501 -0.00000000000E+00 -0.00000000000E+00 -0.16273290583E+04  0.16273290583E+04  0.00000000000E+00 0.  1.
         24    2    1    2    0    0 -0.14926062485E+03  0.66690633268E+02  0.25789757517E+02  0.18636299479E+03  0.85671929687E+02 0.  0.
        254    2    1    2    0    0  0.14926062485E+03 -0.66690633268E+02 -0.14098065092E+04  0.16842783702E+04  0.90692494742E+03 0.  0.
         23    2    4    4    0    0 -0.32889135634E+03 -0.22597993542E+03 -0.62710987665E+03  0.74892123398E+03  0.91541039019E+02 0.  0.
         23    2    4    4    0    0  0.47815198119E+03  0.15928930215E+03 -0.78269663251E+03  0.93535713620E+03  0.90975572515E+02 0.  0.
          4    1    3    3  502    0 -0.11167875962E+03  0.54209980015E+02  0.56360645558E+02  0.13633557735E+03  0.00000000000E+00 0. -1.
         -3    1    3    3    0  502 -0.37581865235E+02  0.12480653253E+02 -0.30570888041E+02  0.50027417440E+02  0.00000000000E+00 0.  1.
         11    1    5    5    0    0 -0.37417922409E+01 -0.28589225591E+02 -0.38433476785E+02  0.48046612439E+02  0.00000000000E+00 0. -1.
        -11    1    5    5    0    0 -0.32514956410E+03 -0.19739070983E+03 -0.58867639987E+03  0.70087462154E+03  0.00000000000E+00 0.  1.
          4    1    6    6  503    0  0.19868587324E+02  0.23368879454E+02 -0.25449230174E+02  0.39856349627E+02  0.00000000000E+00 0. -1.
         -4    1    6    6    0  503  0.45828339387E+03  0.13592042270E+03 -0.75724740234E+03  0.89550078657E+03  0.00000000000E+00 0.  1.
<mgrwt>
<rscale>  0 0.12584899E+04</rscale>
<asrwt>0</asrwt>
<pdfrwt beam="1">  1        2 0.37432662E-01 0.12584899E+04</pdfrwt>
<pdfrwt beam="2">  1       -1 0.25035832E+00 0.12584899E+04</pdfrwt>
<totfact> 0.10863157E+01</totfact>
</mgrwt>
</event>
<event>
12    6  0.8914180E-008  0.1418385E+04  0.7818608E-02  0.8940617E-01
          2   -1    0    0  501    0  0.00000000000E+00  0.00000000000E+00  0.87190601829E+03  0.87190601829E+03  0.00000000000E+00 0. -1.
         -1   -1    0    0    0  501 -0.00000000000E+00 -0.00000000000E+00 -0.57684455035E+03  0.57684455035E+03  0.00000000000E+00 0.  1.
         24    2    1    2    0    0  0.13582685913E+03 -0.26111698071E+03  0.38741555104E+03  0.49337436276E+03  0.81831774771E+02 0.  0.
        254    2    1    2    0    0 -0.13582685913E+03  0.26111698071E+03 -0.92354083104E+02  0.95537620589E+03  0.90420318781E+03 0.  0.
         23    2    4    4    0    0  0.25978281060E+03  0.17598738670E+03  0.25353145935E+03  0.41555585058E+03  0.99748659685E+02 0.  0.
         23    2    4    4    0    0 -0.39560966972E+03  0.85129594005E+02 -0.34588554246E+03  0.53982035531E+03  0.89527364372E+02 0.  0.
          4    1    3    3  502    0  0.13636932870E+03 -0.21047012332E+03  0.28864615214E+03  0.38237529701E+03  0.00000000000E+00 0. -1.
         -3    1    3    3    0  502 -0.54246957494E+00 -0.50646857391E+02  0.98769398902E+02  0.11099906575E+03  0.00000000000E+00 0.  1.
         11    1    5    5    0    0  0.26556542566E+03  0.15717177727E+03  0.22998239070E+03  0.38486343410E+03  0.00000000000E+00 0. -1.
        -11    1    5    5    0    0 -0.57826150562E+01  0.18815609429E+02  0.23549068648E+02  0.30692416478E+02  0.00000000000E+00 0.  1.
          2    1    6    6  503    0 -0.32411607699E+03  0.90513121371E+02 -0.24590001516E+03  0.41678612497E+03  0.00000000000E+00 0. -1.
         -2    1    6    6    0  503 -0.71493592731E+02 -0.53835273659E+01 -0.99985527292E+02  0.12303423034E+03  0.00000000000E+00 0.  1.
<mgrwt>
<rscale>  0 0.14183853E+04</rscale>
<asrwt>0</asrwt>
<pdfrwt beam="1">  1        2 0.13413939E+00 0.14183853E+04</pdfrwt>
<pdfrwt beam="2">  1       -1 0.88745316E-01 0.14183853E+04</pdfrwt>
<totfact> 0.42378882E+01</totfact>
</mgrwt>
</event>
<event>
12    6  0.8914180E-008  0.1964221E+04  0.7818608E-02  0.8623534E-01
          2   -1    0    0  501    0  0.00000000000E+00  0.00000000000E+00  0.15160808796E+04  0.15160808796E+04  0.00000000000E+00 0. -1.
         -1   -1    0    0    0  501 -0.00000000000E+00 -0.00000000000E+00 -0.63620677955E+03  0.63620677955E+03  0.00000000000E+00 0.  1.
         24    2    1    2    0    0 -0.41388558499E+03  0.38059658644E+03 -0.23382012875E+03  0.61425188476E+03  0.80489044290E+02 0.  0.
        254    2    1    2    0    0  0.41388558499E+03 -0.38059658644E+03  0.11136942288E+04  0.15380357744E+04  0.89949106108E+03 0.  0.
         23    2    4    4    0    0  0.18324013804E+03  0.28468154531E+03  0.36422184591E+03  0.50571391199E+03  0.92024329989E+02 0.  0.
         23    2    4    4    0    0  0.23064544695E+03 -0.66527813176E+03  0.74947238289E+03  0.10323218624E+04  0.90483479633E+02 0.  0.
          4    1    3    3  502    0 -0.10669023106E+03  0.97152952261E+02 -0.23018867128E+02  0.14612107918E+03  0.00000000000E+00 0. -1.
         -3    1    3    3    0  502 -0.30719535393E+03  0.28344363418E+03 -0.21080126162E+03  0.46813080559E+03  0.00000000000E+00 0.  1.
         11    1    5    5    0    0  0.41488998050E+02  0.13894275462E+03  0.12217736315E+03  0.18961469902E+03  0.00000000000E+00 0.  1.
        -11    1    5    5    0    0  0.14175113999E+03  0.14573879070E+03  0.24204448276E+03  0.31609921297E+03  0.00000000000E+00 0. -1.
          3    1    6    6  503    0  0.24465735601E+02 -0.64913056767E+02  0.39012007143E+02  0.79587774555E+02  0.00000000000E+00 0. -1.
         -3    1    6    6    0  503  0.20617971135E+03 -0.60036507499E+03  0.71046037574E+03  0.95273408784E+03  0.00000000000E+00 0.  1.
<mgrwt>
<rscale>  0 0.19642209E+04</rscale>
<asrwt>0</asrwt>
<pdfrwt beam="1">  1        2 0.23324321E+00 0.19642209E+04</pdfrwt>
<pdfrwt beam="2">  1       -1 0.97877966E-01 0.19642209E+04</pdfrwt>
<totfact> 0.13208862E+01</totfact>
</mgrwt>
</event>
<event>
12    6  0.8914180E-008  0.1720095E+04  0.7818608E-02  0.8749986E-01
          2   -1    0    0  501    0  0.00000000000E+00  0.00000000000E+00  0.11854654163E+04  0.11854654163E+04  0.00000000000E+00 0. -1.
         -1   -1    0    0    0  501 -0.00000000000E+00 -0.00000000000E+00 -0.62395877760E+03  0.62395877760E+03  0.00000000000E+00 0.  1.
         24    2    1    2    0    0 -0.59440267640E+03  0.11180888658E+03  0.37017562828E+03  0.71364563405E+03  0.80276561894E+02 0.  0.
        254    2    1    2    0    0  0.59440267640E+03 -0.11180888658E+03  0.19133101047E+03  0.10957785599E+04  0.89348045750E+03 0.  0.
         23    2    4    4    0    0  0.42729305371E+03 -0.45371296825E+03  0.28400542362E+03  0.69066438399E+03  0.89013478577E+02 0.  0.
         23    2    4    4    0    0  0.16710962270E+03  0.34190408167E+03 -0.92674413147E+02  0.40511417590E+03  0.10346459108E+03 0.  0.
          4    1    3    3  502    0 -0.49785561039E+03  0.10348493825E+03  0.34171034521E+03  0.61264614686E+03  0.00000000000E+00 0. -1.
         -3    1    3    3    0  502 -0.96547066013E+02  0.83239483297E+01  0.28465283070E+02  0.10099948719E+03  0.00000000000E+00 0.  1.
         11    1    5    5    0    0  0.35747876172E+03 -0.35634839109E+03  0.26254108115E+03  0.56894908402E+03  0.00000000000E+00 0.  1.
        -11    1    5    5    0    0  0.69814291984E+02 -0.97364577155E+02  0.21464342475E+02  0.12171529997E+03  0.00000000000E+00 0. -1.
          3    1    6    6  503    0  0.71990139175E+01  0.83341642642E+02  0.99552015708E+01  0.84242277023E+02  0.00000000000E+00 0. -1.
         -3    1    6    6    0  503  0.15991060878E+03  0.25856243902E+03 -0.10262961472E+03  0.32087189888E+03  0.00000000000E+00 0.  1.
<mgrwt>
<rscale>  0 0.17200948E+04</rscale>
<asrwt>0</asrwt>
<pdfrwt beam="1">  1        2 0.18237929E+00 0.17200948E+04</pdfrwt>
<pdfrwt beam="2">  1       -1 0.95993658E-01 0.17200948E+04</pdfrwt>
<totfact> 0.21900523E+01</totfact>
</mgrwt>
</event>
<event>
12    6  0.8914180E-008  0.2360255E+04  0.7818608E-02  0.8454535E-01
         -1   -1    0    0    0  501 -0.00000000000E+00  0.00000000000E+00  0.79663893799E+03  0.79663893799E+03  0.00000000000E+00 0.  1.
          2   -1    0    0  501    0  0.00000000000E+00 -0.00000000000E+00 -0.17482215772E+04  0.17482215772E+04  0.00000000000E+00 0. -1.
         24    2    1    2    0    0 -0.19869151915E+03  0.66369075686E+03  0.37674524269E+03  0.79260096074E+03  0.79470526322E+02 0.  0.
        254    2    1    2    0    0  0.19869151915E+03 -0.66369075686E+03 -0.13283278819E+04  0.17522595545E+04  0.90884258473E+03 0.  0.
         23    2    4    4    0    0 -0.30420867405E+03 -0.20517269204E+02 -0.31541952709E+03  0.44806298672E+03  0.91143218572E+02 0.  0.
         23    2    4    4    0    0  0.50290019320E+03 -0.64317348766E+03 -0.10129083549E+04  0.13041965678E+04  0.91458255533E+02 0.  0.
          2    1    3    3  502    0 -0.21695474786E+02  0.90651046045E+02  0.82858831314E+02  0.12471524246E+03  0.00000000000E+00 0. -1.
         -1    1    3    3    0  502 -0.17699604436E+03  0.57303971082E+03  0.29388641138E+03  0.66788571828E+03  0.00000000000E+00 0.  1.
         11    1    5    5    0    0 -0.22530826097E+03 -0.44607271351E+02 -0.26782239701E+03  0.35282071574E+03  0.00000000000E+00 0. -1.
        -11    1    5    5    0    0 -0.78900413082E+02  0.24090002146E+02 -0.47597130078E+02  0.95242270970E+02  0.00000000000E+00 0.  1.
          3    1    6    6  503    0  0.27575448253E+03 -0.28126924733E+03 -0.50554163153E+03  0.64087851059E+03  0.00000000000E+00 0. -1.
         -3    1    6    6    0  503  0.22714571067E+03 -0.36190424033E+03 -0.50736672333E+03  0.66331805718E+03  0.00000000000E+00 0.  1.
<mgrwt>
<rscale>  0 0.23602554E+04</rscale>
<asrwt>0</asrwt>
<pdfrwt beam="1">  1        2 0.26895716E+00 0.23602554E+04</pdfrwt>
<pdfrwt beam="2">  1       -1 0.12255984E+00 0.23602554E+04</pdfrwt>
<totfact> 0.55653529E+00</totfact>
</mgrwt>
</event>
<event>
12    6  0.8914180E-008  0.1480841E+04  0.7818608E-02  0.8897294E-01
         -1   -1    0    0    0  501 -0.00000000000E+00  0.00000000000E+00  0.59874962063E+03  0.59874962063E+03  0.00000000000E+00 0.  1.
          2   -1    0    0  501    0  0.00000000000E+00 -0.00000000000E+00 -0.91561289313E+03  0.91561289313E+03  0.00000000000E+00 0. -1.
         24    2    1    2    0    0 -0.18227536721E+02  0.28345396942E+03  0.25978886508E+03  0.39355187260E+03  0.81941601982E+02 0.  0.
        254    2    1    2    0    0  0.18227536721E+02 -0.28345396942E+03 -0.57665213758E+03  0.11208106412E+04  0.91815598330E+03 0.  0.
         23    2    4    4    0    0  0.26486633289E+03  0.23585326952E+03 -0.31604602201E+03  0.48332110162E+03  0.89068850930E+02 0.  0.
         23    2    4    4    0    0 -0.24663879617E+03 -0.51930723893E+03 -0.26060611558E+03  0.63748953953E+03  0.89256155825E+02 0.  0.
          2    1    3    3  502    0  0.56291126758E+01  0.47144606300E+02  0.93366637320E+01  0.48388780749E+02  0.00000000000E+00 0. -1.
         -1    1    3    3    0  502 -0.23856649397E+02  0.23630936312E+03  0.25045220135E+03  0.34516309185E+03  0.00000000000E+00 0.  1.
         11    1    5    5    0    0  0.83179880165E+02  0.11290011657E+03 -0.81623356467E+02  0.16225813110E+03  0.00000000000E+00 0.  1.
        -11    1    5    5    0    0  0.18168645273E+03  0.12295315294E+03 -0.23442266554E+03  0.32106297052E+03  0.00000000000E+00 0. -1.
          1    1    6    6  503    0 -0.95909503909E+02 -0.24715185796E+03 -0.76229259759E+02  0.27585063690E+03  0.00000000000E+00 0. -1.
         -1    1    6    6    0  503 -0.15072929226E+03 -0.27215538097E+03 -0.18437685582E+03  0.36163890264E+03  0.00000000000E+00 0.  1.
<mgrwt>
<rscale>  0 0.14808415E+04</rscale>
<asrwt>0</asrwt>
<pdfrwt beam="1">  1        2 0.14086352E+00 0.14808415E+04</pdfrwt>
<pdfrwt beam="2">  1       -1 0.92115327E-01 0.14808415E+04</pdfrwt>
<totfact> 0.36266809E+01</totfact>
</mgrwt>
</event>
<event>
12    6  0.8914180E-008  0.3464332E+04  0.7818608E-02  0.8122295E-01
         -1   -1    0    0    0  501 -0.00000000000E+00  0.00000000000E+00  0.96923575069E+03  0.96923575069E+03  0.00000000000E+00 0.  1.
          2   -1    0    0  501    0  0.00000000000E+00 -0.00000000000E+00 -0.30956341151E+04  0.30956341151E+04  0.00000000000E+00 0. -1.
         24    2    1    2    0    0 -0.13469635933E+04 -0.70907609946E+03 -0.35309434880E+03  0.15646109006E+04  0.78941843518E+02 0.  0.
        254    2    1    2    0    0  0.13469635933E+04  0.70907609946E+03 -0.17733040156E+04  0.25002589652E+04  0.88858760115E+03 0.  0.
         23    2    4    4    0    0  0.91561758777E+03  0.22168347484E+03 -0.15291324624E+04  0.17990187970E+04  0.10355392053E+03 0.  0.
         23    2    4    4    0    0  0.43134600549E+03  0.48739262462E+03 -0.24417155316E+03  0.70124016814E+03  0.92233828120E+02 0.  0.
          2    1    3    3  502    0 -0.70097791875E+03 -0.38963739532E+03 -0.15009840097E+03  0.81591474578E+03  0.00000000000E+00 0. -1.
         -1    1    3    3    0  502 -0.64598567450E+03 -0.31943870414E+03 -0.20299594782E+03  0.74869615479E+03  0.00000000000E+00 0.  1.
         11    1    5    5    0    0  0.87518277408E+01  0.12195986334E+02 -0.42376666420E+02  0.44956850739E+02  0.00000000000E+00 0.  1.
        -11    1    5    5    0    0  0.90686576003E+03  0.20948748851E+03 -0.14867557960E+04  0.17540619463E+04  0.00000000000E+00 0. -1.
          2    1    6    6  503    0  0.35205061931E+03  0.37904957213E+03 -0.15490748864E+03  0.54001346902E+03  0.00000000000E+00 0. -1.
         -2    1    6    6    0  503  0.79295386177E+02  0.10834305249E+03 -0.89264064525E+02  0.16122669912E+03  0.00000000000E+00 0.  1.
<mgrwt>
<rscale>  0 0.34643321E+04</rscale>
<asrwt>0</asrwt>
<pdfrwt beam="1">  1        2 0.47625139E+00 0.34643321E+04</pdfrwt>
<pdfrwt beam="2">  1       -1 0.14911319E+00 0.34643321E+04</pdfrwt>
<totfact> 0.50204109E-01</totfact>
</mgrwt>
</event>
<event>
12    6  0.8914180E-008  0.1881094E+04  0.7818608E-02  0.8664324E-01
          2   -1    0    0  501    0  0.00000000000E+00  0.00000000000E+00  0.18317760799E+04  0.18317760799E+04  0.00000000000E+00 0. -1.
         -1   -1    0    0    0  501 -0.00000000000E+00 -0.00000000000E+00 -0.48293518631E+03  0.48293518631E+03  0.00000000000E+00 0.  1.
         24    2    1    2    0    0  0.19459225080E+03  0.34319894031E+03  0.12580657889E+04  0.13208821673E+04  0.79677562204E+02 0.  0.
        254    2    1    2    0    0 -0.19459225080E+03 -0.34319894031E+03  0.90775104746E+02  0.99382909900E+03  0.90763676747E+03 0.  0.
         23    2    4    4    0    0  0.10997416182E+03 -0.50781565508E+03 -0.16550791709E+03  0.55272365841E+03  0.90219266985E+02 0.  0.
         23    2    4    4    0    0 -0.30456641262E+03  0.16461671477E+03  0.25628302184E+03  0.44110544059E+03  0.95045567779E+02 0.  0.
          2    1    3    3  502    0  0.20204442147E+03  0.33629532345E+03  0.12246739019E+04  0.12859792607E+04  0.00000000000E+00 0. -1.
         -1    1    3    3    0  502 -0.74521706723E+01  0.69036168627E+01  0.33391886971E+02  0.34902906598E+02  0.00000000000E+00 0.  1.
         11    1    5    5    0    0  0.29095499121E+02 -0.32726212128E+03 -0.11944462357E+03  0.34959127877E+03  0.00000000000E+00 0.  1.
        -11    1    5    5    0    0  0.80878662701E+02 -0.18055353380E+03 -0.46063293522E+02  0.20313237964E+03  0.00000000000E+00 0. -1.
          1    1    6    6  503    0 -0.30355206888E+03  0.14054030770E+03  0.24410960958E+03  0.41410739924E+03  0.00000000000E+00 0. -1.
         -1    1    6    6    0  503 -0.10143437373E+01  0.24076407076E+02  0.12173412251E+02  0.26998041350E+02  0.00000000000E+00 0.  1.
<mgrwt>
<rscale>  0 0.18810945E+04</rscale>
<asrwt>0</asrwt>
<pdfrwt beam="1">  1        2 0.28181170E+00 0.18810945E+04</pdfrwt>
<pdfrwt beam="2">  1       -1 0.74297722E-01 0.18810945E+04</pdfrwt>
<totfact> 0.16137810E+01</totfact>
</mgrwt>
</event>
<event>
12    6  0.8914180E-008  0.2297370E+04  0.7818608E-02  0.8478959E-01
          2   -1    0    0  501    0  0.00000000000E+00  0.00000000000E+00  0.10880340812E+04  0.10880340812E+04  0.00000000000E+00 0. -1.
         -1   -1    0    0    0  501 -0.00000000000E+00 -0.00000000000E+00 -0.12127168829E+04  0.12127168829E+04  0.00000000000E+00 0.  1.
         24    2    1    2    0    0 -0.72309357110E+03  0.61441171600E+02  0.60372735703E+03  0.94725622650E+03  0.78538569417E+02 0.  0.
        254    2    1    2    0    0  0.72309357110E+03 -0.61441171600E+02 -0.72841015870E+03  0.13534947376E+04  0.88018595495E+03 0.  0.
         23    2    4    4    0    0  0.64815742115E+03  0.20006232653E+03 -0.80496401706E+03  0.10566038024E+04  0.91167699581E+02 0.  0.
         23    2    4    4    0    0  0.74936149944E+02 -0.26150349813E+03  0.76553858368E+02  0.29689093518E+03  0.91017734856E+02 0.  0.
          2    1    3    3  502    0 -0.46608086383E+03  0.13951420713E+02  0.42227609672E+03  0.62908116776E+03  0.00000000000E+00 0. -1.
         -1    1    3    3    0  502 -0.25701270727E+03  0.47489750887E+02  0.18145126031E+03  0.31817505874E+03  0.00000000000E+00 0.  1.
         11    1    5    5    0    0  0.56258546099E+03  0.14939158308E+03 -0.65065730565E+03  0.87302644600E+03  0.00000000000E+00 0. -1.
        -11    1    5    5    0    0  0.85571960164E+02  0.50670743443E+02 -0.15430671141E+03  0.18357735643E+03  0.00000000000E+00 0.  1.
          4    1    6    6  503    0  0.75914129908E+02 -0.22207387889E+03  0.31151445285E+02  0.23674918236E+03  0.00000000000E+00 0. -1.
         -4    1    6    6    0  503 -0.97797996412E+00 -0.39429619231E+02  0.45402413082E+02  0.60141752811E+02  0.00000000000E+00 0.  1.
<mgrwt>
<rscale>  0 0.22973701E+04</rscale>
<asrwt>0</asrwt>
<pdfrwt beam="1">  1        2 0.16738986E+00 0.22973701E+04</pdfrwt>
<pdfrwt beam="2">  1       -1 0.18657183E+00 0.22973701E+04</pdfrwt>
<totfact> 0.42803613E+00</totfact>
</mgrwt>
</event>
<event>
12    6  0.8914180E-008  0.1140867E+04  0.7818608E-02  0.9166251E-01
         -1   -1    0    0    0  501 -0.00000000000E+00  0.00000000000E+00  0.26687825589E+03  0.26687825589E+03  0.00000000000E+00 0.  1.
          2   -1    0    0  501    0  0.00000000000E+00 -0.00000000000E+00 -0.12192609554E+04  0.12192609554E+04  0.00000000000E+00 0. -1.
         24    2    1    2    0    0  0.71372972313E+02 -0.17353576414E+03 -0.17852675961E+03  0.27077809801E+03  0.78995011572E+02 0.  0.
        254    2    1    2    0    0 -0.71372972313E+02  0.17353576414E+03 -0.77385593990E+03  0.12153611133E+04  0.91817256403E+03 0.  0.
         23    2    4    4    0    0 -0.19587441945E+03  0.67684909721E+01 -0.91986157934E+03  0.94490005135E+03  0.90984510946E+02 0.  0.
         23    2    4    4    0    0  0.12450144713E+03  0.16676727317E+03  0.14600563944E+03  0.27046106193E+03  0.92301709254E+02 0.  0.
          2    1    3    3  502    0  0.66649892163E+02 -0.12435701158E+03 -0.84226684761E+02  0.16431983715E+03  0.00000000000E+00 0. -1.
         -1    1    3    3    0  502  0.47230801503E+01 -0.49178752554E+02 -0.94300074844E+02  0.10645826086E+03  0.00000000000E+00 0.  1.
         11    1    5    5    0    0 -0.87100547471E+02  0.34783753563E+02 -0.56361459120E+03  0.57136487667E+03  0.00000000000E+00 0.  1.
        -11    1    5    5    0    0 -0.10877387198E+03 -0.28015262591E+02 -0.35624698815E+03  0.37353517468E+03  0.00000000000E+00 0. -1.
          2    1    6    6  503    0  0.10544884529E+03  0.75699604037E+02  0.57230284543E+02  0.14186329509E+03  0.00000000000E+00 0. -1.
         -2    1    6    6    0  503  0.19052601841E+02  0.91067669130E+02  0.88775354900E+02  0.12859776684E+03  0.00000000000E+00 0.  1.
<mgrwt>
<rscale>  0 0.11408668E+04</rscale>
<asrwt>0</asrwt>
<pdfrwt beam="1">  1        2 0.18757861E+00 0.11408668E+04</pdfrwt>
<pdfrwt beam="2">  1       -1 0.41058193E-01 0.11408668E+04</pdfrwt>
<totfact> 0.12081772E+02</totfact>
</mgrwt>
</event>
<event>
12    6  0.8914180E-008  0.2296280E+04  0.7818608E-02  0.8479389E-01
         -1   -1    0    0    0  501 -0.00000000000E+00  0.00000000000E+00  0.41681416226E+03  0.41681416226E+03  0.00000000000E+00 0.  1.
          2   -1    0    0  501    0  0.00000000000E+00 -0.00000000000E+00 -0.31626229387E+04  0.31626229387E+04  0.00000000000E+00 0. -1.
         24    2    1    2    0    0 -0.72946299258E+03 -0.30209640200E+03 -0.25423113559E+03  0.83659051026E+03  0.10895741321E+03 0.  0.
        254    2    1    2    0    0  0.72946299258E+03  0.30209640200E+03 -0.24915776408E+04  0.27428465907E+04  0.83178710386E+03 0.  0.
         23    2    4    4    0    0  0.29750192736E+03 -0.26048812434E+03 -0.64180652884E+03  0.75970979009E+03  0.94243753102E+02 0.  0.
         23    2    4    4    0    0  0.43196106522E+03  0.56258452635E+03 -0.18497711120E+04  0.19831368006E+04  0.89926036176E+02 0.  0.
          4    1    3    3  502    0 -0.17770053664E+03 -0.10626003523E+03 -0.10613129826E+03  0.23266398148E+03  0.00000000000E+00 0. -1.
         -3    1    3    3    0  502 -0.55176245594E+03 -0.19583636678E+03 -0.14809983733E+03  0.60392652877E+03  0.00000000000E+00 0.  1.
         11    1    5    5    0    0  0.29331282806E+02  0.31608461505E+01 -0.61388671397E+02  0.68109353802E+02  0.00000000000E+00 0.  1.
        -11    1    5    5    0    0  0.26817064455E+03 -0.26364897049E+03 -0.58041785744E+03  0.69160043629E+03  0.00000000000E+00 0. -1.
          1    1    6    6  503    0  0.42047393658E+03  0.54049586601E+03 -0.18185231527E+04  0.19431831024E+04  0.00000000000E+00 0. -1.
         -1    1    6    6    0  503  0.11487128643E+02  0.22088660336E+02 -0.31247959238E+02  0.39953698157E+02  0.00000000000E+00 0.  1.
<mgrwt>
<rscale>  0 0.22962805E+04</rscale>
<asrwt>0</asrwt>
<pdfrwt beam="1">  1        2 0.48655737E+00 0.22962805E+04</pdfrwt>
<pdfrwt beam="2">  1       -1 0.64125256E-01 0.22962805E+04</pdfrwt>
<totfact> 0.34941237E+00</totfact>
</mgrwt>
</event>
<event>
12    6  0.8914180E-008  0.1066383E+04  0.7818608E-02  0.9238591E-01
         -1   -1    0    0    0  501 -0.00000000000E+00  0.00000000000E+00  0.55640215098E+03  0.55640215098E+03  0.00000000000E+00 0.  1.
          2   -1    0    0  501    0  0.00000000000E+00 -0.00000000000E+00 -0.51094896726E+03  0.51094896726E+03  0.00000000000E+00 0. -1.
         24    2    1    2    0    0  0.92343207131E+02 -0.62880328332E+02  0.69943156577E+02  0.15561034906E+03  0.82712344829E+02 0.  0.
        254    2    1    2    0    0 -0.92343207131E+02  0.62880328332E+02 -0.24489972863E+02  0.91174076919E+03  0.90453870444E+03 0.  0.
         23    2    4    4    0    0 -0.13722801351E+03  0.40428421964E+03 -0.23877724288E+03  0.49727259722E+03  0.89376765919E+02 0.  0.
         23    2    4    4    0    0  0.44884806379E+02 -0.34140389131E+03  0.21428727002E+03  0.41446817196E+03  0.85402392421E+02 0.  0.
          4    1    3    3  502    0  0.66068317145E+02  0.32403199321E+01  0.45879705808E+02  0.80501364018E+02  0.00000000000E+00 0. -1.
         -3    1    3    3    0  502  0.26274889986E+02 -0.66120648264E+02  0.24063450769E+02  0.75108985039E+02  0.00000000000E+00 0.  1.
         11    1    5    5    0    0  0.84537238405E+01  0.22286620886E+02 -0.37279614616E-01  0.23836113505E+02  0.00000000000E+00 0. -1.
        -11    1    5    5    0    0 -0.14568173735E+03  0.38199759876E+03 -0.23873996327E+03  0.47343648372E+03  0.00000000000E+00 0.  1.
          3    1    6    6  503    0 -0.21539632176E+02 -0.81902516496E+02  0.32349863024E+02  0.90655896666E+02  0.00000000000E+00 0. -1.
         -3    1    6    6    0  503  0.66424438555E+02 -0.25950137482E+03  0.18193740700E+03  0.32381227530E+03  0.00000000000E+00 0.  1.
<mgrwt>
<rscale>  0 0.10663829E+04</rscale>
<asrwt>0</asrwt>
<pdfrwt beam="1">  1        2 0.78607534E-01 0.10663829E+04</pdfrwt>
<pdfrwt beam="2">  1       -1 0.85600331E-01 0.10663829E+04</pdfrwt>
<totfact> 0.92146368E+01</totfact>
</mgrwt>
</event>
<event>
12    6  0.8914180E-008  0.1425905E+04  0.7818608E-02  0.8935278E-01
          2   -1    0    0  501    0  0.00000000000E+00  0.00000000000E+00  0.15183661918E+04  0.15183661918E+04  0.00000000000E+00 0. -1.
         -1   -1    0    0    0  501 -0.00000000000E+00 -0.00000000000E+00 -0.33476839253E+03  0.33476839253E+03  0.00000000000E+00 0.  1.
         24    2    1    2    0    0  0.34115343440E+03  0.18382489012E+03  0.11372217267E+03  0.41145639514E+03  0.78653521951E+02 0.  0.
        254    2    1    2    0    0 -0.34115343440E+03 -0.18382489012E+03  0.10698756266E+04  0.14416781892E+04  0.88522589702E+03 0.  0.
         23    2    4    4    0    0 -0.79291383012E+02  0.27567171062E+03  0.72604100347E+02  0.30912263753E+03  0.89461914741E+02 0.  0.
         23    2    4    4    0    0 -0.26186205139E+03 -0.45949660075E+03  0.99727152624E+03  0.11325555516E+04  0.91775380454E+02 0.  0.
          4    1    3    3  502    0  0.33495256858E+02  0.44096749721E+02  0.31449626544E+02  0.63683079211E+02  0.00000000000E+00 0. -1.
         -1    1    3    3    0  502  0.30765817754E+03  0.13972814040E+03  0.82272546130E+02  0.34777331593E+03  0.00000000000E+00 0.  1.
         11    1    5    5    0    0 -0.81292292627E+02  0.14747918072E+03  0.16599556543E+02  0.16921610699E+03  0.00000000000E+00 0.  1.
        -11    1    5    5    0    0  0.20009096154E+01  0.12819252990E+03  0.56004543804E+02  0.13990653054E+03  0.00000000000E+00 0. -1.
          1    1    6    6  503    0 -0.60431864698E+02 -0.14016864621E+03  0.37257736699E+03  0.40263277816E+03  0.00000000000E+00 0. -1.
         -1    1    6    6    0  503 -0.20143018669E+03 -0.31932795454E+03  0.62469415925E+03  0.72992277349E+03  0.00000000000E+00 0.  1.
<mgrwt>
<rscale>  0 0.14259046E+04</rscale>
<asrwt>0</asrwt>
<pdfrwt beam="1">  1        2 0.23359479E+00 0.14259046E+04</pdfrwt>
<pdfrwt beam="2">  1       -1 0.51502830E-01 0.14259046E+04</pdfrwt>
<totfact> 0.52033273E+01</totfact>
</mgrwt>
</event>
<event>
12    6  0.8914180E-008  0.1976132E+04  0.7818608E-02  0.8617862E-01
          2   -1    0    0  501    0  0.00000000000E+00  0.00000000000E+00  0.16698505704E+04  0.16698505704E+04  0.00000000000E+00 0. -1.
         -1   -1    0    0    0  501 -0.00000000000E+00 -0.00000000000E+00 -0.58464800094E+03  0.58464800094E+03  0.00000000000E+00 0.  1.
         24    2    1    2    0    0  0.20794057551E+03 -0.71816919254E+02 -0.42498129689E+03  0.48528755765E+03  0.80609912974E+02 0.  0.
        254    2    1    2    0    0 -0.20794057551E+03  0.71816919254E+02  0.15101838664E+04  0.17692110137E+04  0.89501695397E+03 0.  0.
         23    2    4    4    0    0  0.54459769749E+01  0.43793674498E+03  0.10278892073E+04  0.11208244815E+04  0.88730178146E+02 0.  0.
         23    2    4    4    0    0 -0.21338655248E+03 -0.36611982572E+03  0.48229465908E+03  0.64838653223E+03  0.90660958714E+02 0.  0.
          2    1    3    3  502    0  0.36830423887E+02 -0.20644278206E+02 -0.29969736064E+02  0.51776939134E+02  0.00000000000E+00 0. -1.
         -1    1    3    3    0  502  0.17111015162E+03 -0.51172641047E+02 -0.39501156083E+03  0.43351061852E+03  0.00000000000E+00 0.  1.
         11    1    5    5    0    0  0.44175406675E+02  0.15285062098E+03  0.35746678098E+03  0.39127647309E+03  0.00000000000E+00 0. -1.
        -11    1    5    5    0    0 -0.38729429700E+02  0.28508612399E+03  0.67042242632E+03  0.72954800838E+03  0.00000000000E+00 0.  1.
          3    1    6    6  503    0 -0.11614665855E+03 -0.15292597762E+03  0.27575272272E+03  0.33602970853E+03  0.00000000000E+00 0. -1.
         -3    1    6    6    0  503 -0.97239893935E+02 -0.21319384810E+03  0.20654193635E+03  0.31235682371E+03  0.00000000000E+00 0.  1.
<mgrwt>
<rscale>  0 0.19761324E+04</rscale>
<asrwt>0</asrwt>
<pdfrwt beam="1">  1        2 0.25690009E+00 0.19761324E+04</pdfrwt>
<pdfrwt beam="2">  1       -1 0.89945847E-01 0.19761324E+04</pdfrwt>
<totfact> 0.13072376E+01</totfact>
</mgrwt>
</event>
<event>
12    6  0.8914180E-008  0.2897787E+04  0.7818608E-02  0.8273536E-01
          2   -1    0    0  501    0  0.00000000000E+00  0.00000000000E+00  0.15588353690E+04  0.15588353690E+04  0.00000000000E+00 0. -1.
         -1   -1    0    0    0  501 -0.00000000000E+00 -0.00000000000E+00 -0.13467058243E+04  0.13467058243E+04  0.00000000000E+00 0.  1.
         24    2    1    2    0    0 -0.80288648053E+03  0.90920799477E+03 -0.38798742545E+03  0.12760829626E+04  0.81040771507E+02 0.  0.
        254    2    1    2    0    0  0.80288648053E+03 -0.90920799477E+03  0.60011697012E+03  0.16294582307E+04  0.90758353306E+03 0.  0.
         23    2    4    4    0    0  0.61344162880E+03 -0.55442625073E+02  0.35210872234E+03  0.71542267765E+03  0.92002927847E+02 0.  0.
         23    2    4    4    0    0  0.18944485173E+03 -0.85376536970E+03  0.24800824778E+03  0.91403555308E+03  0.95646447772E+02 0.  0.
          4    1    3    3  502    0 -0.82429452452E+02  0.87166991132E+02 -0.64170633076E+02  0.13605355241E+03  0.00000000000E+00 0. -1.
         -3    1    3    3    0  502 -0.72045702808E+03  0.82204100364E+03 -0.32381679237E+03  0.11400294101E+04  0.00000000000E+00 0.  1.
         11    1    5    5    0    0  0.11727713205E+03  0.42278831177E+01  0.30889212714E+02  0.12135050127E+03  0.00000000000E+00 0. -1.
        -11    1    5    5    0    0  0.49616449675E+03 -0.59670508191E+02  0.32121950962E+03  0.59407217638E+03  0.00000000000E+00 0.  1.
          1    1    6    6  503    0  0.83835378069E+02 -0.20619536551E+03  0.43692782168E+02  0.22683465032E+03  0.00000000000E+00 0. -1.
         -1    1    6    6    0  503  0.10560947366E+03 -0.64757000419E+03  0.20431546561E+03  0.68720090276E+03  0.00000000000E+00 0.  1.
<mgrwt>
<rscale>  0 0.28977872E+04</rscale>
<asrwt>0</asrwt>
<pdfrwt beam="1">  1        2 0.23982082E+00 0.28977872E+04</pdfrwt>
<pdfrwt beam="2">  1       -1 0.20718551E+00 0.28977872E+04</pdfrwt>
<totfact> 0.15530596E+00</totfact>
</mgrwt>
</event>
<event>
12    6  0.8914180E-008  0.2064802E+04  0.7818608E-02  0.8576909E-01
          2   -1    0    0  501    0  0.00000000000E+00  0.00000000000E+00  0.16196462886E+04  0.16196462886E+04  0.00000000000E+00 0. -1.
         -1   -1    0    0    0  501 -0.00000000000E+00 -0.00000000000E+00 -0.65807669013E+03  0.65807669013E+03  0.00000000000E+00 0.  1.
         24    2    1    2    0    0  0.64980937304E+03  0.47598782894E+03  0.62224371283E+03  0.10212501932E+04  0.83355169422E+02 0.  0.
        254    2    1    2    0    0 -0.64980937304E+03 -0.47598782894E+03  0.33932588566E+03  0.12564727856E+04  0.90264343440E+03 0.  0.
         23    2    4    4    0    0 -0.65252548881E+03 -0.49785306473E+03 -0.76747787007E+02  0.82838135417E+03  0.81720606425E+02 0.  0.
         23    2    4    4    0    0  0.27161157729E+01  0.21865235798E+02  0.41607367266E+03  0.42809143142E+03  0.98282789693E+02 0.  0.
          2    1    3    3  502    0  0.61891730514E+03  0.43590665732E+03  0.56352224083E+03  0.94373225038E+03  0.00000000000E+00 0. -1.
         -1    1    3    3    0  502  0.30892067894E+02  0.40081171619E+02  0.58721472004E+02  0.77517942771E+02  0.00000000000E+00 0.  1.
         11    1    5    5    0    0 -0.59309227759E+03 -0.47907965266E+03 -0.67963778643E+02  0.76543767776E+03  0.00000000000E+00 0. -1.
        -11    1    5    5    0    0 -0.59433211222E+02 -0.18773412073E+02 -0.87840083634E+01  0.62943676409E+02  0.00000000000E+00 0.  1.
          3    1    6    6  503    0  0.27909757029E+02  0.36365734449E+02  0.37488998913E+03  0.37768230715E+03  0.00000000000E+00 0. -1.
         -3    1    6    6    0  503 -0.25193641256E+02 -0.14500498651E+02  0.41183683533E+02  0.50409124275E+02  0.00000000000E+00 0.  1.
<mgrwt>
<rscale>  0 0.20648017E+04</rscale>
<asrwt>0</asrwt>
<pdfrwt beam="1">  1        2 0.24917635E+00 0.20648017E+04</pdfrwt>
<pdfrwt beam="2">  1       -1 0.10124257E+00 0.20648017E+04</pdfrwt>
<totfact> 0.10604129E+01</totfact>
</mgrwt>
</event>
<event>
12    6  0.8914180E-008  0.2464956E+04  0.7818608E-02  0.8415578E-01
         -1   -1    0    0    0  501 -0.00000000000E+00  0.00000000000E+00  0.62761249384E+03  0.62761249384E+03  0.00000000000E+00 0.  1.
          2   -1    0    0  501    0  0.00000000000E+00 -0.00000000000E+00 -0.24202857082E+04  0.24202857082E+04  0.00000000000E+00 0. -1.
         24    2    1    2    0    0 -0.32669792750E+03  0.97587925714E+03 -0.11165304151E+04  0.15207955911E+04  0.84304221442E+02 0.  0.
        254    2    1    2    0    0  0.32669792750E+03 -0.97587925714E+03 -0.67614279932E+03  0.15271026110E+04  0.90321727124E+03 0.  0.
         23    2    4    4    0    0  0.54796797368E+03 -0.96265008316E+03 -0.45480539302E+03  0.12008788511E+04  0.91093285859E+02 0.  0.
         23    2    4    4    0    0 -0.22127004618E+03 -0.13229173979E+02 -0.22133740630E+03  0.32622375988E+03  0.91083751028E+02 0.  0.
          2    1    3    3  502    0 -0.22774587011E+03  0.77924265609E+03 -0.89900828765E+03  0.12113229131E+04  0.00000000000E+00 0. -1.
         -1    1    3    3    0  502 -0.98952057389E+02  0.19663660105E+03 -0.21752212741E+03  0.30947267803E+03  0.00000000000E+00 0.  1.
         11    1    5    5    0    0  0.38013898798E+03 -0.74683372045E+03 -0.34586918040E+03  0.90658245413E+03  0.00000000000E+00 0. -1.
        -11    1    5    5    0    0  0.16782898570E+03 -0.21581636271E+03 -0.10893621262E+03  0.29429639697E+03  0.00000000000E+00 0.  1.
          2    1    6    6  503    0 -0.21827620181E+03  0.63645510804E+01 -0.21186273297E+03  0.30425454049E+03  0.00000000000E+00 0. -1.
         -2    1    6    6    0  503 -0.29938443691E+01 -0.19593725059E+02 -0.94746733268E+01  0.21969219386E+02  0.00000000000E+00 0.  1.
<mgrwt>
<rscale>  0 0.24649556E+04</rscale>
<asrwt>0</asrwt>
<pdfrwt beam="1">  1        2 0.37235165E+00 0.24649556E+04</pdfrwt>
<pdfrwt beam="2">  1       -1 0.96555768E-01 0.24649556E+04</pdfrwt>
<totfact> 0.40640186E+00</totfact>
</mgrwt>
</event>
<event>
12    6  0.8914180E-008  0.1231942E+04  0.7818608E-02  0.9085348E-01
          2   -1    0    0  501    0  0.00000000000E+00  0.00000000000E+00  0.97675191906E+03  0.97675191906E+03  0.00000000000E+00 0. -1.
         -1   -1    0    0    0  501 -0.00000000000E+00 -0.00000000000E+00 -0.38845119615E+03  0.38845119615E+03  0.00000000000E+00 0.  1.
         24    2    1    2    0    0 -0.90056340934E+02 -0.25099685884E+03  0.10757579852E+02  0.27865681672E+03  0.80151907592E+02 0.  0.
        254    2    1    2    0    0  0.90056340934E+02  0.25099685884E+03  0.57754314306E+03  0.10865462985E+04  0.88086162873E+03 0.  0.
         23    2    4    4    0    0  0.29280175258E+03  0.75147240974E+02 -0.11518166196E+03  0.33807883983E+03  0.98237022302E+02 0.  0.
         23    2    4    4    0    0 -0.20274541165E+03  0.17584961787E+03  0.69272480502E+03  0.74846745866E+03  0.91143245144E+02 0.  0.
          4    1    3    3  502    0  0.44952822677E+01 -0.43746898364E+02  0.24685850016E+02  0.50432032183E+02  0.00000000000E+00 0. -1.
         -3    1    3    3    0  502 -0.94551623202E+02 -0.20724996048E+03 -0.13928270164E+02  0.22822478454E+03  0.00000000000E+00 0.  1.
         11    1    5    5    0    0  0.19162210247E+03  0.34086376117E+02 -0.12022523898E+03  0.22876848402E+03  0.00000000000E+00 0. -1.
        -11    1    5    5    0    0  0.10117965011E+03  0.41060864857E+02  0.50435770220E+01  0.10931035581E+03  0.00000000000E+00 0.  1.
          2    1    6    6  503    0 -0.15553195844E+03  0.16627772279E+03  0.49331890297E+03  0.54332495913E+03  0.00000000000E+00 0. -1.
         -2    1    6    6    0  503 -0.47213453205E+02  0.95718950815E+01  0.19940590205E+03  0.20514249953E+03  0.00000000000E+00 0.  1.
<mgrwt>
<rscale>  0 0.12319423E+04</rscale>
<asrwt>0</asrwt>
<pdfrwt beam="1">  1        2 0.15026953E+00 0.12319423E+04</pdfrwt>
<pdfrwt beam="2">  1       -1 0.59761723E-01 0.12319423E+04</pdfrwt>
<totfact> 0.83158589E+01</totfact>
</mgrwt>
</event>
<event>
12    6  0.8914180E-008  0.2022647E+04  0.7818608E-02  0.8596105E-01
         -1   -1    0    0    0  501 -0.00000000000E+00  0.00000000000E+00  0.12812892421E+04  0.12812892421E+04  0.00000000000E+00 0.  1.
          2   -1    0    0  501    0  0.00000000000E+00 -0.00000000000E+00 -0.79823905967E+03  0.79823905967E+03  0.00000000000E+00 0. -1.
         24    2    1    2    0    0 -0.45192741486E+03 -0.14143374828E+03  0.87398080130E+03  0.99715512225E+03  0.78955704916E+02 0.  0.
        254    2    1    2    0    0  0.45192741486E+03  0.14143374828E+03 -0.39093061890E+03  0.10823731795E+04  0.89132657170E+03 0.  0.
         23    2    4    4    0    0  0.14967474635E+03  0.49543466299E+03 -0.27886687436E+03  0.59486222925E+03  0.90754080843E+02 0.  0.
         23    2    4    4    0    0  0.30225266851E+03 -0.35400091471E+03 -0.11206374454E+03  0.48751095023E+03  0.91844000977E+02 0.  0.
          2    1    3    3  502    0 -0.27274537243E+03 -0.12011970234E+03  0.58320125691E+03  0.65493701005E+03  0.00000000000E+00 0. -1.
         -1    1    3    3    0  502 -0.17918204243E+03 -0.21314045939E+02  0.29077954439E+03  0.34221811220E+03  0.00000000000E+00 0.  1.
         11    1    5    5    0    0 -0.10833542566E+02  0.55046234528E+02 -0.38994373944E+02  0.68322871569E+02  0.00000000000E+00 0.  1.
        -11    1    5    5    0    0  0.16050828891E+03  0.44038842846E+03 -0.23987250042E+03  0.52653935768E+03  0.00000000000E+00 0. -1.
          4    1    6    6  503    0  0.11005710410E+03 -0.10858156158E+03 -0.80193717148E+02  0.17416530638E+03  0.00000000000E+00 0. -1.
         -4    1    6    6    0  503  0.19219556442E+03 -0.24541935314E+03 -0.31870027394E+02  0.31334564385E+03  0.00000000000E+00 0.  1.
<mgrwt>
<rscale>  0 0.20226469E+04</rscale>
<asrwt>0</asrwt>
<pdfrwt beam="1">  1        2 0.12280601E+00 0.20226469E+04</pdfrwt>
<pdfrwt beam="2">  1       -1 0.19712142E+00 0.20226469E+04</pdfrwt>
<totfact> 0.57606878E+00</totfact>
</mgrwt>
</event>
<event>
12    6  0.8914180E-008  0.2433493E+04  0.7818608E-02  0.8427070E-01
         -1   -1    0    0    0  501 -0.00000000000E+00  0.00000000000E+00  0.82677009495E+03  0.82677009495E+03  0.00000000000E+00 0.  1.
          2   -1    0    0  501    0  0.00000000000E+00 -0.00000000000E+00 -0.17906698970E+04  0.17906698970E+04  0.00000000000E+00 0. -1.
         24    2    1    2    0    0  0.62181619147E+03  0.15920260951E+03  0.47690850459E+03  0.80326083120E+03  0.76061779771E+02 0.  0.
        254    2    1    2    0    0 -0.62181619147E+03 -0.15920260951E+03 -0.14408083066E+04  0.18141791608E+04  0.89627931137E+03 0.  0.
         23    2    4    4    0    0 -0.42558044638E+03 -0.82137358268E+02 -0.10012825331E+03  0.45389799818E+03  0.90180173425E+02 0.  0.
         23    2    4    4    0    0 -0.19623574509E+03 -0.77065251242E+02 -0.13406800533E+04  0.13602811626E+04  0.92164609545E+02 0.  0.
          4    1    3    3  502    0  0.87458991109E+02 -0.36779232219E+01  0.71508484257E+02  0.11303125924E+03  0.00000000000E+00 0. -1.
         -3    1    3    3    0  502  0.53435720036E+03  0.16288053273E+03  0.40540002033E+03  0.69022957196E+03  0.00000000000E+00 0.  1.
         11    1    5    5    0    0 -0.31538263381E+01  0.92222788750E+00  0.91569496695E+01  0.97286613723E+01  0.00000000000E+00 0.  1.
        -11    1    5    5    0    0 -0.42242662004E+03 -0.83059586155E+02 -0.10928520298E+03  0.44416933681E+03  0.00000000000E+00 0. -1.
          1    1    6    6  503    0 -0.54438056979E+02  0.63587213894E+01 -0.54639432473E+03  0.54913631594E+03  0.00000000000E+00 0. -1.
         -1    1    6    6    0  503 -0.14179768811E+03 -0.83423972631E+02 -0.79428572860E+03  0.81114484664E+03  0.00000000000E+00 0.  1.
<mgrwt>
<rscale>  0 0.24334932E+04</rscale>
<asrwt>0</asrwt>
<pdfrwt beam="1">  1        2 0.27548767E+00 0.24334932E+04</pdfrwt>
<pdfrwt beam="2">  1       -1 0.12719540E+00 0.24334932E+04</pdfrwt>
<totfact> 0.47761634E+00</totfact>
</mgrwt>
</event>
<event>
12    6  0.8914180E-008  0.1232396E+04  0.7818608E-02  0.9084964E-01
         -1   -1    0    0    0  501 -0.00000000000E+00  0.00000000000E+00  0.24065318364E+03  0.24065318364E+03  0.00000000000E+00 0.  1.
          2   -1    0    0  501    0  0.00000000000E+00 -0.00000000000E+00 -0.15777889378E+04  0.15777889378E+04  0.00000000000E+00 0. -1.
         24    2    1    2    0    0 -0.23914852341E+03  0.16555504367E+03 -0.50117644233E+03  0.58485897027E+03  0.79257176460E+02 0.  0.
        254    2    1    2    0    0  0.23914852341E+03 -0.16555504367E+03 -0.83595931184E+03  0.12335831512E+04  0.85924323164E+03 0.  0.
         23    2    4    4    0    0 -0.29256326614E+03 -0.19510966808E+03 -0.35982247820E+03  0.51361657140E+03  0.10328949278E+03 0.  0.
         23    2    4    4    0    0  0.53171178955E+03  0.29554624417E+02 -0.47613683364E+03  0.71996657980E+03  0.89747917548E+02 0.  0.
          2    1    3    3  502    0 -0.23388452586E+03  0.14614503573E+03 -0.48882518326E+03  0.56125787540E+03  0.00000000000E+00 0. -1.
         -1    1    3    3    0  502 -0.52639975464E+01  0.19410007941E+02 -0.12351259075E+02  0.23601094873E+02  0.00000000000E+00 0.  1.
         11    1    5    5    0    0 -0.28240886692E+03 -0.15719148544E+03 -0.34182180223E+03  0.47043179706E+03  0.00000000000E+00 0. -1.
        -11    1    5    5    0    0 -0.10154399227E+02 -0.37918182649E+02 -0.18000675972E+02  0.43184774337E+02  0.00000000000E+00 0.  1.
          2    1    6    6  503    0  0.44769398849E+03  0.55824538806E+02 -0.38293343226E+03  0.59176371975E+03  0.00000000000E+00 0. -1.
         -2    1    6    6    0  503  0.84017801062E+02 -0.26269914388E+02 -0.93203401376E+02  0.12820286005E+03  0.00000000000E+00 0.  1.
<mgrwt>
<rscale>  0 0.12323959E+04</rscale>
<asrwt>0</asrwt>
<pdfrwt beam="1">  1        2 0.24273677E+00 0.12323959E+04</pdfrwt>
<pdfrwt beam="2">  1       -1 0.37023566E-01 0.12323959E+04</pdfrwt>
<totfact> 0.90247669E+01</totfact>
</mgrwt>
</event>
<event>
12    6  0.8914180E-008  0.2416193E+04  0.7818608E-02  0.8433466E-01
          2   -1    0    0  501    0  0.00000000000E+00  0.00000000000E+00  0.15786856975E+04  0.15786856975E+04  0.00000000000E+00 0. -1.
         -1   -1    0    0    0  501 -0.00000000000E+00 -0.00000000000E+00 -0.92450107913E+03  0.92450107913E+03  0.00000000000E+00 0.  1.
         24    2    1    2    0    0 -0.99842367999E+03 -0.25064458229E+02 -0.18426394785E+02  0.10021461464E+04  0.80494067679E+02 0.  0.
        254    2    1    2    0    0  0.99842367999E+03  0.25064458229E+02  0.67261101319E+03  0.15010406302E+04  0.89623620029E+03 0.  0.
         23    2    4    4    0    0  0.77867031597E+03 -0.30034859943E+03  0.70578370218E+03  0.10966095828E+04  0.88798652295E+02 0.  0.
         23    2    4    4    0    0  0.21975336402E+03  0.32541305766E+03 -0.33172688994E+02  0.40443104744E+03  0.90988162663E+02 0.  0.
          4    1    3    3  502    0 -0.39249482997E+03 -0.11987413974E+02 -0.46529782081E+02  0.39542497426E+03  0.00000000000E+00 0. -1.
         -3    1    3    3    0  502 -0.60592885002E+03 -0.13077044255E+02  0.28103387296E+02  0.60672117216E+03  0.00000000000E+00 0.  1.
         11    1    5    5    0    0  0.74421967267E+03 -0.26796947180E+03  0.67777715971E+03  0.10416585032E+04  0.00000000000E+00 0.  1.
        -11    1    5    5    0    0  0.34450643304E+02 -0.32379127634E+02  0.28006542470E+02  0.54951079621E+02  0.00000000000E+00 0. -1.
          4    1    6    6  503    0  0.45900693336E+02  0.18859972803E+02 -0.13667841714E+02  0.51472148974E+02  0.00000000000E+00 0. -1.
         -4    1    6    6    0  503  0.17385267068E+03  0.30655308486E+03 -0.19504847280E+02  0.35295889846E+03  0.00000000000E+00 0.  1.
<mgrwt>
<rscale>  0 0.24161926E+04</rscale>
<asrwt>0</asrwt>
<pdfrwt beam="1">  1        2 0.24287472E+00 0.24161926E+04</pdfrwt>
<pdfrwt beam="2">  1       -1 0.14223094E+00 0.24161926E+04</pdfrwt>
<totfact> 0.47142278E+00</totfact>
</mgrwt>
</event>
<event>
12    6  0.8914180E-008  0.2218636E+04  0.7818608E-02  0.8510711E-01
          2   -1    0    0  501    0  0.00000000000E+00  0.00000000000E+00  0.23417815971E+04  0.23417815971E+04  0.00000000000E+00 0. -1.
         -1   -1    0    0    0  501 -0.00000000000E+00 -0.00000000000E+00 -0.52549145252E+03  0.52549145252E+03  0.00000000000E+00 0.  1.
         24    2    1    2    0    0 -0.12237774236E+03 -0.80588980301E+03  0.13204179227E+04  0.15538172739E+04  0.80062123659E+02 0.  0.
        254    2    1    2    0    0  0.12237774236E+03  0.80588980301E+03  0.49587222192E+03  0.13134557758E+04  0.90268606282E+03 0.  0.
         23    2    4    4    0    0 -0.83415406574E+00  0.55379576242E+03 -0.16917015498E+03  0.58582473361E+03  0.88778572192E+02 0.  0.
         23    2    4    4    0    0  0.12321189642E+03  0.25209404059E+03  0.66504237691E+03  0.72763104216E+03  0.91831332983E+02 0.  0.
          4    1    3    3  502    0 -0.95498964685E+02 -0.75291257468E+03  0.12403078549E+04  0.14540842384E+04  0.00000000000E+00 0. -1.
         -3    1    3    3    0  502 -0.26878777674E+02 -0.52977228323E+02  0.80110067798E+02  0.99733035513E+02  0.00000000000E+00 0.  1.
         11    1    5    5    0    0 -0.76423941550E+01  0.81974622949E+01  0.60552223807E+01  0.12738535810E+02  0.00000000000E+00 0.  1.
        -11    1    5    5    0    0  0.68082400893E+01  0.54559830013E+03 -0.17522537736E+03  0.57308619780E+03  0.00000000000E+00 0. -1.
          1    1    6    6  503    0  0.10429202332E+03  0.25298416604E+03  0.64143810045E+03  0.69736694151E+03  0.00000000000E+00 0. -1.
         -1    1    6    6    0  503  0.18919873103E+02 -0.89012545329E+00  0.23604276454E+02  0.30264100655E+02  0.00000000000E+00 0.  1.
<mgrwt>
<rscale>  0 0.22186358E+04</rscale>
<asrwt>0</asrwt>
<pdfrwt beam="1">  1        2 0.36027409E+00 0.22186358E+04</pdfrwt>
<pdfrwt beam="2">  1       -1 0.80844840E-01 0.22186358E+04</pdfrwt>
<totfact> 0.67988389E+00</totfact>
</mgrwt>
</event>
<event>
12    6  0.8914180E-008  0.2532283E+04  0.7818608E-02  0.8391574E-01
         -1   -1    0    0    0  501 -0.00000000000E+00  0.00000000000E+00  0.14084676261E+04  0.14084676261E+04  0.00000000000E+00 0.  1.
          2   -1    0    0  501    0  0.00000000000E+00 -0.00000000000E+00 -0.11381978623E+04  0.11381978623E+04  0.00000000000E+00 0. -1.
         24    2    1    2    0    0 -0.24051134756E+03 -0.31478669834E+03 -0.91839464609E+03  0.10033907076E+04  0.80048812660E+02 0.  0.
        254    2    1    2    0    0  0.24051134756E+03  0.31478669834E+03  0.11886644099E+04  0.15432747808E+04  0.90102030822E+03 0.  0.
         23    2    4    4    0    0 -0.18164392747E+03 -0.15563563555E+03  0.68041751240E+03  0.72692896304E+03  0.90778624605E+02 0.  0.
         23    2    4    4    0    0  0.42215527503E+03  0.47042233389E+03  0.50824689754E+03  0.81634581775E+03  0.92700252654E+02 0.  0.
          4    1    3    3  502    0 -0.24698161706E+03 -0.30730079031E+03 -0.89462721041E+03  0.97764591776E+03  0.00000000000E+00 0. -1.
         -3    1    3    3    0  502  0.64702694984E+01 -0.74859080243E+01 -0.23767435679E+02  0.25744789863E+02  0.00000000000E+00 0.  1.
         11    1    5    5    0    0 -0.70445387605E+02 -0.10822182300E+02  0.15257436794E+03  0.16840014850E+03  0.00000000000E+00 0. -1.
        -11    1    5    5    0    0 -0.11119853987E+03 -0.14481345326E+03  0.52784314446E+03  0.55852881453E+03  0.00000000000E+00 0.  1.
          2    1    6    6  503    0  0.27363275098E+02  0.49146438780E+01  0.30198143576E+02  0.41046685908E+02  0.00000000000E+00 0. -1.
         -2    1    6    6    0  503  0.39479199993E+03  0.46550769002E+03  0.47804875396E+03  0.77529913184E+03  0.00000000000E+00 0.  1.
<mgrwt>
<rscale>  0 0.25322834E+04</rscale>
<asrwt>0</asrwt>
<pdfrwt beam="1">  1        2 0.17510736E+00 0.25322834E+04</pdfrwt>
<pdfrwt beam="2">  1       -1 0.21668733E+00 0.25322834E+04</pdfrwt>
<totfact> 0.24241102E+00</totfact>
</mgrwt>
</event>
<event>
12    6  0.8914180E-008  0.2112547E+04  0.7818608E-02  0.8555736E-01
          2   -1    0    0  501    0  0.00000000000E+00  0.00000000000E+00  0.28234078720E+04  0.28234078720E+04  0.00000000000E+00 0. -1.
         -1   -1    0    0    0  501 -0.00000000000E+00 -0.00000000000E+00 -0.39516578837E+03  0.39516578837E+03  0.00000000000E+00 0.  1.
         24    2    1    2    0    0  0.68722838038E+03  0.24629724505E+03  0.16938396111E+04  0.18461616374E+04  0.79214792423E+02 0.  0.
        254    2    1    2    0    0 -0.68722838038E+03 -0.24629724505E+03  0.73440247250E+03  0.13724120230E+04  0.90067896031E+03 0.  0.
         23    2    4    4    0    0 -0.82803500137E+03 -0.30209366313E+03  0.79500419439E+03  0.11906335485E+04  0.93134488004E+02 0.  0.
         23    2    4    4    0    0  0.14080662099E+03  0.55796418078E+02 -0.60601721892E+02  0.18177847453E+03  0.80194141430E+02 0.  0.
          4    1    3    3  502    0  0.65641301397E+03  0.24600080729E+03  0.16483621409E+04  0.17912264485E+04  0.00000000000E+00 0. -1.
         -3    1    3    3    0  502  0.30815366407E+02  0.29643775704E+00  0.45477470231E+02  0.54935188912E+02  0.00000000000E+00 0.  1.
         11    1    5    5    0    0 -0.27874998528E+03 -0.83474809741E+02  0.31766605487E+03  0.43079150476E+03  0.00000000000E+00 0.  1.
        -11    1    5    5    0    0 -0.54928501609E+03 -0.21861885339E+03  0.47733813952E+03  0.75984204372E+03  0.00000000000E+00 0. -1.
          2    1    6    6  503    0  0.56947030675E+02  0.42293200707E+02  0.96025565635E+01  0.71581339896E+02  0.00000000000E+00 0. -1.
         -2    1    6    6    0  503  0.83859590317E+02  0.13503217371E+02 -0.70204278456E+02  0.11019713463E+03  0.00000000000E+00 0.  1.
<mgrwt>
<rscale>  0 0.21125475E+04</rscale>
<asrwt>0</asrwt>
<pdfrwt beam="1">  1        2 0.43437043E+00 0.21125475E+04</pdfrwt>
<pdfrwt beam="2">  1       -1 0.60794738E-01 0.21125475E+04</pdfrwt>
<totfact> 0.64407119E+00</totfact>
</mgrwt>
</event>
<event>
12    6  0.8914180E-008  0.1463565E+04  0.7818608E-02  0.8909050E-01
         -1   -1    0    0    0  501 -0.00000000000E+00  0.00000000000E+00  0.48617848220E+03  0.48617848220E+03  0.00000000000E+00 0.  1.
          2   -1    0    0  501    0  0.00000000000E+00 -0.00000000000E+00 -0.11014589290E+04  0.11014589290E+04  0.00000000000E+00 0. -1.
         24    2    1    2    0    0  0.40939938507E+03 -0.17166465378E+03 -0.14105030974E+03  0.47256487965E+03  0.79660314779E+02 0.  0.
        254    2    1    2    0    0 -0.40939938507E+03  0.17166465378E+03 -0.47423013703E+03  0.11150725315E+04  0.90631998645E+03 0.  0.
         23    2    4    4    0    0 -0.45314723651E+03  0.48773458803E+03 -0.36929161056E+03  0.76697833933E+03  0.93016305348E+02 0.  0.
         23    2    4    4    0    0  0.43747851441E+02 -0.31606993425E+03 -0.10493852647E+03  0.34809419219E+03  0.91342183331E+02 0.  0.
          2    1    3    3  502    0  0.13384663342E+03 -0.28298453670E+02 -0.71059726143E+02  0.15415968486E+03  0.00000000000E+00 0. -1.
         -1    1    3    3    0  502  0.27555275165E+03 -0.14336620011E+03 -0.69990583594E+02  0.31840519479E+03  0.00000000000E+00 0.  1.
         11    1    5    5    0    0 -0.31143981436E+03  0.38033326545E+03 -0.23936111690E+03  0.54675579106E+03  0.00000000000E+00 0. -1.
        -11    1    5    5    0    0 -0.14170742215E+03  0.10740132258E+03 -0.12993049366E+03  0.22022254827E+03  0.00000000000E+00 0.  1.
          3    1    6    6  503    0 -0.35161795526E+00 -0.24873516399E+03 -0.97857571467E+02  0.26729274165E+03  0.00000000000E+00 0. -1.
         -3    1    6    6    0  503  0.44099469396E+02 -0.67334770254E+02 -0.70809550054E+01  0.80801450544E+02  0.00000000000E+00 0.  1.
<mgrwt>
<rscale>  0 0.14635650E+04</rscale>
<asrwt>0</asrwt>
<pdfrwt beam="1">  1        2 0.16945522E+00 0.14635650E+04</pdfrwt>
<pdfrwt beam="2">  1       -1 0.74796691E-01 0.14635650E+04</pdfrwt>
<totfact> 0.43202877E+01</totfact>
</mgrwt>
</event>
<event>
12    6  0.8914180E-008  0.1475208E+04  0.7818608E-02  0.8901109E-01
          2   -1    0    0  501    0  0.00000000000E+00  0.00000000000E+00  0.96556320985E+03  0.96556320985E+03  0.00000000000E+00 0. -1.
         -1   -1    0    0    0  501 -0.00000000000E+00 -0.00000000000E+00 -0.56346376064E+03  0.56346376064E+03  0.00000000000E+00 0.  1.
         24    2    1    2    0    0 -0.78453055798E+01  0.87272619916E+02  0.61833355436E+03  0.62976099802E+03  0.81144754435E+02 0.  0.
        254    2    1    2    0    0  0.78453055798E+01 -0.87272619916E+02 -0.21623410514E+03  0.89926597247E+03  0.86847224596E+03 0.  0.
         23    2    4    4    0    0 -0.35355709604E+02 -0.45878189143E+03 -0.27022258323E+02  0.46975204809E+03  0.90586611226E+02 0.  0.
         23    2    4    4    0    0  0.43201015184E+02  0.37150927152E+03 -0.18921184682E+03  0.42951392437E+03  0.93784975968E+02 0.  0.
          2    1    3    3  502    0 -0.36395658003E+02  0.66031652926E+02  0.51458467606E+03  0.52007904394E+03  0.00000000000E+00 0. -1.
         -1    1    3    3    0  502  0.28550352424E+02  0.21240966991E+02  0.10374887830E+03  0.10968195408E+03  0.00000000000E+00 0.  1.
         11    1    5    5    0    0  0.18351959680E+02 -0.18226333638E+03  0.19612288346E+02  0.18423181068E+03  0.00000000000E+00 0. -1.
        -11    1    5    5    0    0 -0.53707669284E+02 -0.27651855505E+03 -0.46634546669E+02  0.28552023741E+03  0.00000000000E+00 0.  1.
          2    1    6    6  503    0  0.64559838953E+00  0.89407986875E+02 -0.91552053690E+02  0.12796868152E+03  0.00000000000E+00 0. -1.
         -2    1    6    6    0  503  0.42555416795E+02  0.28210128464E+03 -0.97659793132E+02  0.30154524286E+03  0.00000000000E+00 0.  1.
<mgrwt>
<rscale>  0 0.14752083E+04</rscale>
<asrwt>0</asrwt>
<pdfrwt beam="1">  1        2 0.14854819E+00 0.14752083E+04</pdfrwt>
<pdfrwt beam="2">  1       -1 0.86686732E-01 0.14752083E+04</pdfrwt>
<totfact> 0.38430461E+01</totfact>
</mgrwt>
</event>
<event>
12    6  0.8914180E-008  0.2956925E+04  0.7818608E-02  0.8256139E-01
          4   -1    0    0  501    0  0.00000000000E+00  0.00000000000E+00  0.12840327897E+04  0.12840327897E+04  0.00000000000E+00 0. -1.
         -3   -1    0    0    0  501 -0.00000000000E+00 -0.00000000000E+00 -0.17023327921E+04  0.17023327921E+04  0.00000000000E+00 0.  1.
         24    2    1    2    0    0 -0.10039324176E+04  0.81873195060E+03 -0.53721903690E+03  0.14046921878E+04  0.79709113999E+02 0.  0.
        254    2    1    2    0    0  0.10039324176E+04 -0.81873195060E+03  0.11891903447E+03  0.15816733940E+04  0.89963697259E+03 0.  0.
         23    2    4    4    0    0  0.44180516621E+03 -0.30825692796E+03  0.48795780101E+03  0.73266327058E+03  0.92078846515E+02 0.  0.
         23    2    4    4    0    0  0.56212725141E+03 -0.51047502263E+03 -0.36903876654E+03  0.84901012341E+03  0.89759584138E+02 0.  0.
          4    1    3    3  502    0 -0.43419460282E+03  0.34445097469E+03 -0.27187173922E+03  0.61732136661E+03  0.00000000000E+00 0. -1.
         -3    1    3    3    0  502 -0.56973781480E+03  0.47428097591E+03 -0.26534729767E+03  0.78737082122E+03  0.00000000000E+00 0.  1.
         11    1    5    5    0    0  0.98395546812E+02 -0.66117548314E+02  0.16262902003E+03  0.20124962605E+03  0.00000000000E+00 0. -1.
        -11    1    5    5    0    0  0.34340961940E+03 -0.24213937965E+03  0.32532878097E+03  0.53141364454E+03  0.00000000000E+00 0.  1.
          3    1    6    6  503    0  0.56144129248E+02 -0.48650139763E+02 -0.82241390003E+01  0.74743801149E+02  0.00000000000E+00 0. -1.
         -3    1    6    6    0  503  0.50598312216E+03 -0.46182488287E+03 -0.36081462754E+03  0.77426632227E+03  0.00000000000E+00 0.  1.
<mgrwt>
<rscale>  0 0.29569248E+04</rscale>
<asrwt>0</asrwt>
<pdfrwt beam="1">  1        4 0.19754351E+00 0.29569248E+04</pdfrwt>
<pdfrwt beam="2">  1       -3 0.26189735E+00 0.29569248E+04</pdfrwt>
<totfact> 0.16636625E-02</totfact>
</mgrwt>
</event>
<event>
12    6  0.8914180E-008  0.3670845E+04  0.7818608E-02  0.8074454E-01
         -1   -1    0    0    0  501 -0.00000000000E+00  0.00000000000E+00  0.14327665033E+04  0.14327665033E+04  0.00000000000E+00 0.  1.
          2   -1    0    0  501    0  0.00000000000E+00 -0.00000000000E+00 -0.23512386003E+04  0.23512386003E+04  0.00000000000E+00 0. -1.
         24    2    1    2    0    0  0.85421595590E+03  0.12593847017E+04  0.40527138230E+03  0.15769456697E+04  0.82328766478E+02 0.  0.
        254    2    1    2    0    0 -0.85421595590E+03 -0.12593847017E+04 -0.13237434792E+04  0.22070594339E+04  0.89614720866E+03 0.  0.
         23    2    4    4    0    0 -0.29055046308E+03 -0.31006939758E+03 -0.93842326000E+03  0.10342554529E+04  0.92106047318E+02 0.  0.
         23    2    4    4    0    0 -0.56366549282E+03 -0.94931530413E+03 -0.38532021922E+03  0.11728039810E+04  0.89884214703E+02 0.  0.
          4    1    3    3  502    0  0.29439842701E+03  0.46632082694E+03  0.18335639450E+03  0.58115842493E+03  0.00000000000E+00 0. -1.
         -3    1    3    3    0  502  0.55981752889E+03  0.79306387477E+03  0.22191498780E+03  0.99578724481E+03  0.00000000000E+00 0.  1.
         11    1    5    5    0    0 -0.10783007459E+03 -0.13436201640E+03 -0.48632303564E+03  0.51593659632E+03  0.00000000000E+00 0. -1.
        -11    1    5    5    0    0 -0.18272038849E+03 -0.17570738118E+03 -0.45210022436E+03  0.51831885653E+03  0.00000000000E+00 0.  1.
          3    1    6    6  503    0 -0.46244790556E+03 -0.80042836273E+03 -0.35498850108E+03  0.99023253084E+03  0.00000000000E+00 0. -1.
         -3    1    6    6    0  503 -0.10121758726E+03 -0.14888694140E+03 -0.30331718139E+02  0.18257145016E+03  0.00000000000E+00 0.  1.
<mgrwt>
<rscale>  0 0.36708451E+04</rscale>
<asrwt>0</asrwt>
<pdfrwt beam="1">  1        2 0.36172901E+00 0.36708451E+04</pdfrwt>
<pdfrwt beam="2">  1       -1 0.22042562E+00 0.36708451E+04</pdfrwt>
<totfact> 0.42691984E-01</totfact>
</mgrwt>
</event>
<event>
12    6  0.8914180E-008  0.3745918E+04  0.7818608E-02  0.8057861E-01
          2   -1    0    0  501    0  0.00000000000E+00  0.00000000000E+00  0.22834841100E+04  0.22834841100E+04  0.00000000000E+00 0. -1.
         -1   -1    0    0    0  501 -0.00000000000E+00 -0.00000000000E+00 -0.15362378201E+04  0.15362378201E+04  0.00000000000E+00 0.  1.
         24    2    1    2    0    0 -0.55407370670E+02  0.91501239345E+03  0.18751269058E+04  0.20887053014E+04  0.79191327320E+02 0.  0.
        254    2    1    2    0    0  0.55407370670E+02 -0.91501239345E+03 -0.11278806159E+04  0.17310166287E+04  0.94020541821E+03 0.  0.
         23    2    4    4    0    0  0.19142357356E+03 -0.27677966687E+03 -0.10011081284E+04  0.10599974652E+04  0.90150834859E+02 0.  0.
         23    2    4    4    0    0 -0.13601620289E+03 -0.63823272658E+03 -0.12677248749E+03  0.67101916353E+03  0.91400402210E+02 0.  0.
          2    1    3    3  502    0 -0.12198920228E+01  0.22329822035E+03  0.38762525791E+03  0.44734430132E+03  0.00000000000E+00 0. -1.
         -1    1    3    3    0  502 -0.54187478648E+02  0.69171417310E+03  0.14875016479E+04  0.16413610001E+04  0.00000000000E+00 0.  1.
         11    1    5    5    0    0  0.15334870065E+03 -0.17332450749E+03 -0.76849266056E+03  0.80258219406E+03  0.00000000000E+00 0. -1.
        -11    1    5    5    0    0  0.38074872912E+02 -0.10345515938E+03 -0.23261546782E+03  0.25741527114E+03  0.00000000000E+00 0.  1.
          2    1    6    6  503    0 -0.38390463301E+02 -0.31230450251E+03 -0.98029526700E+02  0.32957202258E+03  0.00000000000E+00 0. -1.
         -2    1    6    6    0  503 -0.97625739587E+02 -0.32592822407E+03 -0.28742960794E+02  0.34144714096E+03  0.00000000000E+00 0.  1.
<mgrwt>
<rscale>  0 0.37459176E+04</rscale>
<asrwt>0</asrwt>
<pdfrwt beam="1">  1        2 0.35130524E+00 0.37459176E+04</pdfrwt>
<pdfrwt beam="2">  1       -1 0.23634428E+00 0.37459176E+04</pdfrwt>
<totfact> 0.36350568E-01</totfact>
</mgrwt>
</event>
<event>
12    6  0.9353399E-008  0.2932461E+04  0.7818608E-02  0.8263285E-01
         -1   -1    0    0    0  501 -0.00000000000E+00  0.00000000000E+00  0.84546700885E+03  0.84546700885E+03  0.00000000000E+00 0.  1.
          2   -1    0    0  501    0  0.00000000000E+00 -0.00000000000E+00 -0.25427736355E+04  0.25427736355E+04  0.00000000000E+00 0. -1.
         24    2    1    2    0    0 -0.83753570154E+03 -0.99581871827E+03 -0.10401311971E+04  0.16677283703E+04  0.79523825751E+02 0.  0.
        254    2    1    2    0    0  0.83753570154E+03  0.99581871827E+03 -0.65717542953E+03  0.17205122740E+04  0.91387196530E+03 0.  0.
         23    2    4    4    0    0  0.38013640072E+03  0.47857552121E+02 -0.52422522935E+03  0.65550380071E+03  0.89883887367E+02 0.  0.
         23    2    4    4    0    0  0.45739930083E+03  0.94796116615E+03 -0.13295020018E+03  0.10650084733E+04  0.93395929492E+02 0.  0.
          2    1    3    3  502    0 -0.81757731377E+03 -0.95299802838E+03 -0.99131477806E+03  0.15997946416E+04  0.00000000000E+00 0. -1.
         -1    1    3    3    0  502 -0.19958387770E+02 -0.42820689890E+02 -0.48816419066E+02  0.67933728703E+02  0.00000000000E+00 0.  1.
         11    1    5    5    0    0  0.13053362221E+03  0.58985138547E+02 -0.17616222420E+03  0.22704933898E+03  0.00000000000E+00 0. -1.
        -11    1    5    5    0    0  0.24960277851E+03 -0.11127586426E+02 -0.34806300515E+03  0.42845446173E+03  0.00000000000E+00 0.  1.
          1    1    6    6  503    0  0.21757853301E+01  0.26598268709E+02  0.76194154766E+01  0.27753512071E+02  0.00000000000E+00 0. -1.
         -1    1    6    6    0  503  0.45522351550E+03  0.92136289744E+03 -0.14056961566E+03  0.10372549613E+04  0.00000000000E+00 0.  1.
<mgrwt>
<rscale>  0 0.29324606E+04</rscale>
<asrwt>0</asrwt>
<pdfrwt beam="1">  1        2 0.39119594E+00 0.29324606E+04</pdfrwt>
<pdfrwt beam="2">  1       -1 0.13007185E+00 0.29324606E+04</pdfrwt>
<totfact> 0.16283936E+00</totfact>
</mgrwt>
</event>
<event>
12    6  0.8914180E-008  0.2949875E+04  0.7818608E-02  0.8258191E-01
         -1   -1    0    0    0  501 -0.00000000000E+00  0.00000000000E+00  0.28512396746E+04  0.28512396746E+04  0.00000000000E+00 0.  1.
          2   -1    0    0  501    0  0.00000000000E+00 -0.00000000000E+00 -0.76298076986E+03  0.76298076986E+03  0.00000000000E+00 0. -1.
         24    2    1    2    0    0  0.34961854982E+03  0.12767421820E+04  0.11617712336E+04  0.17631245599E+04  0.81191653444E+02 0.  0.
        254    2    1    2    0    0 -0.34961854982E+03 -0.12767421820E+04  0.92648767109E+03  0.18510958846E+04  0.90325679596E+03 0.  0.
         23    2    4    4    0    0  0.19110999908E+03 -0.25110897344E+03  0.52856735425E+03  0.62259133323E+03  0.93047149072E+02 0.  0.
         23    2    4    4    0    0 -0.54072854890E+03 -0.10256332086E+04  0.39792031685E+03  0.12285045513E+04  0.81067946524E+02 0.  0.
          2    1    3    3  502    0  0.32544388586E+03  0.11149960602E+04  0.10419977368E+04  0.15604131570E+04  0.00000000000E+00 0. -1.
         -1    1    3    3    0  502  0.24174663958E+02  0.16174612184E+03  0.11977349685E+03  0.20271140287E+03  0.00000000000E+00 0.  1.
         11    1    5    5    0    0  0.13648294583E+03 -0.14140434911E+03  0.39581719054E+03  0.44192084447E+03  0.00000000000E+00 0. -1.
        -11    1    5    5    0    0  0.54627053255E+02 -0.10970462432E+03  0.13275016371E+03  0.18067048876E+03  0.00000000000E+00 0.  1.
          3    1    6    6  503    0 -0.15797846800E+03 -0.38155436284E+03  0.14854748362E+03  0.43887046272E+03  0.00000000000E+00 0. -1.
         -3    1    6    6    0  503 -0.38275008090E+03 -0.64407884574E+03  0.24937283323E+03  0.78963408862E+03  0.00000000000E+00 0.  1.
<mgrwt>
<rscale>  0 0.29498753E+04</rscale>
<asrwt>0</asrwt>
<pdfrwt beam="1">  1        2 0.11738166E+00 0.29498753E+04</pdfrwt>
<pdfrwt beam="2">  1       -1 0.43865225E+00 0.29498753E+04</pdfrwt>
<totfact> 0.13912722E-01</totfact>
</mgrwt>
</event>
<event>
12    6  0.8914180E-008  0.1676117E+04  0.7818608E-02  0.8775104E-01
         -1   -1    0    0    0  501 -0.00000000000E+00  0.00000000000E+00  0.38989045210E+03  0.38989045210E+03  0.00000000000E+00 0.  1.
          2   -1    0    0  501    0  0.00000000000E+00 -0.00000000000E+00 -0.18013821491E+04  0.18013821491E+04  0.00000000000E+00 0. -1.
         24    2    1    2    0    0  0.42643985639E+03 -0.21918672045E+03 -0.96585902708E+03  0.10812049505E+04  0.78909538885E+02 0.  0.
        254    2    1    2    0    0 -0.42643985639E+03  0.21918672045E+03 -0.44563266992E+03  0.11100676507E+04  0.89653106082E+03 0.  0.
         23    2    4    4    0    0 -0.65380152015E+03  0.30829050549E+03 -0.21021004231E+03  0.75815838463E+03  0.90091124876E+02 0.  0.
         23    2    4    4    0    0  0.22736166376E+03 -0.89103785038E+02 -0.23542262761E+03  0.35190926603E+03  0.93720367449E+02 0.  0.
          2    1    3    3  502    0  0.42468782470E+03 -0.20504445130E+03 -0.93416324872E+03  0.10464530332E+04  0.00000000000E+00 0. -1.
         -1    1    3    3    0  502  0.17520316921E+01 -0.14142269154E+02 -0.31695778360E+02  0.34751917324E+02  0.00000000000E+00 0.  1.
         11    1    5    5    0    0 -0.11734519087E+03  0.47232673334E+02 -0.27875832703E+01  0.12652505630E+03  0.00000000000E+00 0.  1.
        -11    1    5    5    0    0 -0.53645632927E+03  0.26105783216E+03 -0.20742245904E+03  0.63163332834E+03  0.00000000000E+00 0. -1.
          3    1    6    6  503    0  0.11478501169E+03 -0.33318768189E+01 -0.71197640742E+02  0.13511404205E+03  0.00000000000E+00 0. -1.
         -3    1    6    6    0  503  0.11257665207E+03 -0.85771908219E+02 -0.16422498687E+03  0.21679522398E+03  0.00000000000E+00 0.  1.
<mgrwt>
<rscale>  0 0.16761166E+04</rscale>
<asrwt>0</asrwt>
<pdfrwt beam="1">  1        2 0.27713571E+00 0.16761166E+04</pdfrwt>
<pdfrwt beam="2">  1       -1 0.59983147E-01 0.16761166E+04</pdfrwt>
<totfact> 0.26358807E+01</totfact>
</mgrwt>
</event>
<event>
12    6  0.8914180E-008  0.2588834E+04  0.7818608E-02  0.8372004E-01
         -3   -1    0    0    0  501 -0.00000000000E+00  0.00000000000E+00  0.77333772757E+03  0.77333772757E+03  0.00000000000E+00 0.  1.
          2   -1    0    0  501    0  0.00000000000E+00 -0.00000000000E+00 -0.21666021869E+04  0.21666021869E+04  0.00000000000E+00 0. -1.
         24    2    1    2    0    0 -0.51963494479E+03  0.84982625568E+03 -0.12370211127E+04  0.15901866079E+04  0.79038434782E+02 0.  0.
        254    2    1    2    0    0  0.51963494479E+03 -0.84982625568E+03 -0.15624334664E+03  0.13497533065E+04  0.89732762379E+03 0.  0.
         23    2    4    4    0    0  0.61325765130E+03 -0.20092226994E+03 -0.21213146765E+03  0.68538709232E+03  0.91109831072E+02 0.  0.
         23    2    4    4    0    0 -0.93622706509E+02 -0.64890398573E+03  0.55888121005E+02  0.66436621420E+03  0.91746338480E+02 0.  0.
          4    1    3    3  502    0 -0.34614371664E+03  0.51586376372E+03 -0.81432039018E+03  0.10242307324E+04  0.00000000000E+00 0. -1.
         -3    1    3    3    0  502 -0.17349122815E+03  0.33396249195E+03 -0.42270072248E+03  0.56595587554E+03  0.00000000000E+00 0.  1.
         11    1    5    5    0    0  0.16399377181E+02  0.85507070730E+01 -0.11515394260E+02  0.21786658034E+02  0.00000000000E+00 0. -1.
        -11    1    5    5    0    0  0.59685827412E+03 -0.20947297701E+03 -0.20061607339E+03  0.66360043429E+03  0.00000000000E+00 0.  1.
          3    1    6    6  503    0 -0.24194639341E+02 -0.70137298902E+02  0.32449951037E+02  0.80979136772E+02  0.00000000000E+00 0. -1.
         -3    1    6    6    0  503 -0.69428067168E+02 -0.57876668683E+03  0.23438169968E+02  0.58338707743E+03  0.00000000000E+00 0.  1.
<mgrwt>
<rscale>  0 0.25888339E+04</rscale>
<asrwt>0</asrwt>
<pdfrwt beam="1">  1        2 0.33332340E+00 0.25888339E+04</pdfrwt>
<pdfrwt beam="2">  1       -3 0.11897504E+00 0.25888339E+04</pdfrwt>
<totfact> 0.17559399E+00</totfact>
</mgrwt>
</event>
<event>
12    6  0.8914180E-008  0.1485039E+04  0.7818608E-02  0.8894463E-01
         -1   -1    0    0    0  501 -0.00000000000E+00  0.00000000000E+00  0.17499220083E+03  0.17499220083E+03  0.00000000000E+00 0.  1.
          2   -1    0    0  501    0  0.00000000000E+00 -0.00000000000E+00 -0.31506285262E+04  0.31506285262E+04  0.00000000000E+00 0. -1.
         24    2    1    2    0    0  0.45099235831E+02 -0.13764133583E+03 -0.19502254102E+04  0.19572170856E+04  0.79627201260E+02 0.  0.
        254    2    1    2    0    0 -0.45099235831E+02  0.13764133583E+03 -0.10254109152E+04  0.13684036414E+04  0.89447297473E+03 0.  0.
         23    2    4    4    0    0 -0.31642276066E+03 -0.23226901975E+03 -0.66727260760E+03  0.77928177051E+03  0.89191277604E+02 0.  0.
         23    2    4    4    0    0  0.27132352483E+03  0.36991035558E+03 -0.35813830756E+03  0.58912187091E+03  0.91386022738E+02 0.  0.
          4    1    3    3  502    0  0.21275483784E+02 -0.13027611017E+03 -0.13409039998E+04  0.13473856344E+04  0.00000000000E+00 0. -1.
         -3    1    3    3    0  502  0.23823752048E+02 -0.73652256571E+01 -0.60932141036E+03  0.60983145117E+03  0.00000000000E+00 0.  1.
         11    1    5    5    0    0 -0.31186358671E+03 -0.23260713390E+03 -0.66939257099E+03  0.77424246173E+03  0.00000000000E+00 0.  1.
        -11    1    5    5    0    0 -0.45591739452E+01  0.33811415047E+00  0.21199633838E+01  0.50393087809E+01  0.00000000000E+00 0. -1.
          3    1    6    6  503    0  0.35591071936E+02  0.34764881755E+02 -0.78886386265E+02  0.93265123937E+02  0.00000000000E+00 0. -1.
         -3    1    6    6    0  503  0.23573245289E+03  0.33514547382E+03 -0.27925192129E+03  0.49585674697E+03  0.00000000000E+00 0.  1.
<mgrwt>
<rscale>  0 0.14850393E+04</rscale>
<asrwt>0</asrwt>
<pdfrwt beam="1">  1        2 0.48471209E+00 0.14850393E+04</pdfrwt>
<pdfrwt beam="2">  1       -1 0.26921877E-01 0.14850393E+04</pdfrwt>
<totfact> 0.19136749E+01</totfact>
</mgrwt>
</event>
<event>
12    6  0.8914180E-008  0.1499382E+04  0.7818608E-02  0.8884864E-01
          2   -1    0    0  501    0  0.00000000000E+00  0.00000000000E+00  0.10969972666E+04  0.10969972666E+04  0.00000000000E+00 0. -1.
         -1   -1    0    0    0  501 -0.00000000000E+00 -0.00000000000E+00 -0.51234108881E+03  0.51234108881E+03  0.00000000000E+00 0.  1.
         24    2    1    2    0    0  0.72630226576E+02  0.36476177880E+03  0.50602928776E+03  0.63252988227E+03  0.75512295763E+02 0.  0.
        254    2    1    2    0    0 -0.72630226576E+02 -0.36476177880E+03  0.78626890046E+02  0.97680847316E+03  0.89980347872E+03 0.  0.
         23    2    4    4    0    0  0.67233223567E+01 -0.45401870952E+02  0.45635167295E+03  0.46755299176E+03  0.90787762115E+02 0.  0.
         23    2    4    4    0    0 -0.79353548933E+02 -0.31935990785E+03 -0.37772478290E+03  0.50925548140E+03  0.91528122720E+02 0.  0.
          4    1    3    3  502    0  0.80199730610E+02  0.30897183873E+03  0.45946836956E+03  0.55947008548E+03  0.00000000000E+00 0. -1.
         -3    1    3    3    0  502 -0.75695040336E+01  0.55789940066E+02  0.46560918202E+02  0.73059796795E+02  0.00000000000E+00 0.  1.
         11    1    5    5    0    0 -0.23468896402E+01  0.26593499337E+02  0.17348128889E+03  0.17552344485E+03  0.00000000000E+00 0. -1.
        -11    1    5    5    0    0  0.90702119968E+01 -0.71995370289E+02  0.28287038406E+03  0.29202954691E+03  0.00000000000E+00 0.  1.
          1    1    6    6  503    0  0.17207085464E-01 -0.14562937121E+03 -0.20686307037E+03  0.25298269494E+03  0.00000000000E+00 0. -1.
         -1    1    6    6    0  503 -0.79370756018E+02 -0.17373053664E+03 -0.17086171253E+03  0.25627278646E+03  0.00000000000E+00 0.  1.
<mgrwt>
<rscale>  0 0.14993822E+04</rscale>
<asrwt>0</asrwt>
<pdfrwt beam="1">  1        2 0.16876881E+00 0.14993822E+04</pdfrwt>
<pdfrwt beam="2">  1       -1 0.78821706E-01 0.14993822E+04</pdfrwt>
<totfact> 0.38826929E+01</totfact>
</mgrwt>
</event>
<event>
12    6  0.8914180E-008  0.1303804E+04  0.7818608E-02  0.9026554E-01
          2   -1    0    0  501    0  0.00000000000E+00  0.00000000000E+00  0.10302208946E+04  0.10302208946E+04  0.00000000000E+00 0. -1.
         -1   -1    0    0    0  501 -0.00000000000E+00 -0.00000000000E+00 -0.41251010404E+03  0.41251010404E+03  0.00000000000E+00 0.  1.
         24    2    1    2    0    0 -0.23649836760E+02  0.17258769183E+03 -0.12300572940E+03  0.22762613108E+03  0.79607913767E+02 0.  0.
        254    2    1    2    0    0  0.23649836760E+02 -0.17258769183E+03  0.74071651997E+03  0.12151048676E+04  0.94735054234E+03 0.  0.
         23    2    4    4    0    0  0.52891574075E+02 -0.44332392973E+02 -0.21634365714E+03  0.24475298181E+03  0.91304788737E+02 0.  0.
         23    2    4    4    0    0 -0.29241737316E+02 -0.12825529886E+03  0.95706017711E+03  0.97035188575E+03  0.91181679609E+02 0.  0.
          4    1    3    3  502    0 -0.21521467485E+01  0.54263926466E+01  0.10902563873E+02  0.12367027605E+02  0.00000000000E+00 0. -1.
         -3    1    3    3    0  502 -0.21497690011E+02  0.16716129919E+03 -0.13390829328E+03  0.21525910348E+03  0.00000000000E+00 0.  1.
         11    1    5    5    0    0  0.12087114597E+02 -0.20882592990E+02 -0.18856746234E+03  0.19010488916E+03  0.00000000000E+00 0.  1.
        -11    1    5    5    0    0  0.40804459479E+02 -0.23449799983E+02 -0.27776194793E+02  0.54648092645E+02  0.00000000000E+00 0. -1.
          3    1    6    6  503    0 -0.18587682595E+02  0.57212703846E+01  0.55060474166E+02  0.58394269363E+02  0.00000000000E+00 0. -1.
         -3    1    6    6    0  503 -0.10654054721E+02 -0.13397656924E+03  0.90199970294E+03  0.91195761639E+03  0.00000000000E+00 0.  1.
<mgrwt>
<rscale>  0 0.13038045E+04</rscale>
<asrwt>0</asrwt>
<pdfrwt beam="1">  1        2 0.15849552E+00 0.13038045E+04</pdfrwt>
<pdfrwt beam="2">  1       -1 0.63463093E-01 0.13038045E+04</pdfrwt>
<totfact> 0.67820350E+01</totfact>
</mgrwt>
</event>
<event>
12    6  0.8914180E-008  0.2112945E+04  0.7818608E-02  0.8555563E-01
         -1   -1    0    0    0  501 -0.00000000000E+00  0.00000000000E+00  0.19536668620E+04  0.19536668620E+04  0.00000000000E+00 0.  1.
          2   -1    0    0  501    0  0.00000000000E+00 -0.00000000000E+00 -0.57130195128E+03  0.57130195128E+03  0.00000000000E+00 0. -1.
         24    2    1    2    0    0  0.76100009092E+03  0.16197957079E+03  0.10689553325E+03  0.78930952575E+03  0.78894566805E+02 0.  0.
        254    2    1    2    0    0 -0.76100009092E+03 -0.16197957079E+03  0.12754693774E+04  0.17356592875E+04  0.88336431317E+03 0.  0.
         23    2    4    4    0    0 -0.77948487343E+03 -0.31680871580E+03  0.13047655989E+04  0.15552795107E+04  0.92285739755E+02 0.  0.
         23    2    4    4    0    0  0.18484782510E+02  0.15482914501E+03 -0.29296221500E+02  0.18037977685E+03  0.85818669155E+02 0.  0.
          2    1    3    3  502    0  0.54569713422E+03  0.99598483872E+02  0.10810843276E+03  0.56514834648E+03  0.00000000000E+00 0. -1.
         -1    1    3    3    0  502  0.21530295670E+03  0.62381086920E+02 -0.12128995062E+01  0.22416117927E+03  0.00000000000E+00 0.  1.
         11    1    5    5    0    0 -0.12216482043E+03 -0.86821712849E+02  0.21885666863E+03  0.26525552695E+03  0.00000000000E+00 0. -1.
        -11    1    5    5    0    0 -0.65732005300E+03 -0.22998700295E+03  0.10859089303E+04  0.12900239837E+04  0.00000000000E+00 0.  1.
          2    1    6    6  503    0  0.16661753742E+02  0.61850451391E+02 -0.54417722242E+02  0.84049871320E+02  0.00000000000E+00 0.  1.
         -2    1    6    6    0  503  0.18230287683E+01  0.92978693617E+02  0.25121500742E+02  0.96329905533E+02  0.00000000000E+00 0. -1.
<mgrwt>
<rscale>  0 0.21129446E+04</rscale>
<asrwt>0</asrwt>
<pdfrwt beam="1">  1        2 0.87892609E-01 0.21129446E+04</pdfrwt>
<pdfrwt beam="2">  1       -1 0.30056413E+00 0.21129446E+04</pdfrwt>
<totfact> 0.18120308E+00</totfact>
</mgrwt>
</event>
<event>
12    6  0.8914180E-008  0.3019622E+04  0.7818608E-02  0.8238150E-01
         -1   -1    0    0    0  501 -0.00000000000E+00  0.00000000000E+00  0.12773259104E+04  0.12773259104E+04  0.00000000000E+00 0.  1.
          2   -1    0    0  501    0  0.00000000000E+00 -0.00000000000E+00 -0.17846109212E+04  0.17846109212E+04  0.00000000000E+00 0. -1.
         24    2    1    2    0    0 -0.29758523214E+01  0.13754954698E+03  0.11597069976E+04  0.11705518815E+04  0.79640777465E+02 0.  0.
        254    2    1    2    0    0  0.29758523214E+01 -0.13754954698E+03 -0.16669920084E+04  0.18913849502E+04  0.88291898838E+03 0.  0.
         23    2    4    4    0    0  0.30814240245E+03 -0.29157224221E+03 -0.45537278626E+03  0.62969209594E+03  0.95820919467E+02 0.  0.
         23    2    4    4    0    0 -0.30516655013E+03  0.15402269523E+03 -0.12116192221E+04  0.12616928542E+04  0.83654676832E+02 0.  0.
          4    1    3    3  502    0  0.76244799062E+01  0.32324265162E+02  0.95642695016E+02  0.10124483158E+03  0.00000000000E+00 0. -1.
         -3    1    3    3    0  502 -0.10600332228E+02  0.10522528182E+03  0.10640643026E+04  0.10693070499E+04  0.00000000000E+00 0.  1.
         11    1    5    5    0    0  0.16507914915E+03 -0.16251073230E+03 -0.17882335804E+03  0.29264083272E+03  0.00000000000E+00 0. -1.
        -11    1    5    5    0    0  0.14306325330E+03 -0.12906150991E+03 -0.27654942823E+03  0.33705126322E+03  0.00000000000E+00 0.  1.
          4    1    6    6  503    0 -0.29544059193E+03  0.15473987395E+03 -0.10949236035E+04  0.11445904375E+04  0.00000000000E+00 0. -1.
         -4    1    6    6    0  503 -0.97259581991E+01 -0.71717871881E+00 -0.11669561859E+03  0.11710241674E+03  0.00000000000E+00 0.  1.
<mgrwt>
<rscale>  0 0.30196223E+04</rscale>
<asrwt>0</asrwt>
<pdfrwt beam="1">  1        2 0.27455553E+00 0.30196223E+04</pdfrwt>
<pdfrwt beam="2">  1       -1 0.19651168E+00 0.30196223E+04</pdfrwt>
<totfact> 0.13619203E+00</totfact>
</mgrwt>
</event>
<event>
12    6  0.8914180E-008  0.3840756E+04  0.7818608E-02  0.8037465E-01
         -1   -1    0    0    0  501 -0.00000000000E+00  0.00000000000E+00  0.18799888118E+04  0.18799888118E+04  0.00000000000E+00 0.  1.
          2   -1    0    0  501    0  0.00000000000E+00 -0.00000000000E+00 -0.19616349765E+04  0.19616349765E+04  0.00000000000E+00 0. -1.
         24    2    1    2    0    0 -0.10578523049E+04  0.14042433571E+04  0.40377296330E+03  0.18056222857E+04  0.79298976299E+02 0.  0.
        254    2    1    2    0    0  0.10578523049E+04 -0.14042433571E+04 -0.48541912801E+03  0.20360015025E+04  0.90483119065E+03 0.  0.
         23    2    4    4    0    0  0.14267442719E+02 -0.91462976591E+02  0.18637144881E+03  0.22713858787E+03  0.91041667163E+02 0.  0.
         23    2    4    4    0    0  0.10435848621E+04 -0.13127803806E+04 -0.67179057682E+03  0.18088629147E+04  0.90668478331E+02 0.  0.
          4    1    3    3  502    0 -0.74887935574E+03  0.97370508081E+03  0.31708868015E+03  0.12686477466E+04  0.00000000000E+00 0. -1.
         -1    1    3    3    0  502 -0.30897294912E+03  0.43053827633E+03  0.86684283147E+02  0.53697453908E+03  0.00000000000E+00 0.  1.
         11    1    5    5    0    0  0.38244338616E+02 -0.22278713142E+02  0.12151228604E+03  0.12932210234E+03  0.00000000000E+00 0.  1.
        -11    1    5    5    0    0 -0.23976895897E+02 -0.69184263449E+02  0.64859162765E+02  0.97816485525E+02  0.00000000000E+00 0. -1.
          2    1    6    6  503    0  0.14738615510E+03 -0.14442003529E+03 -0.99246951402E+02  0.22897550671E+03  0.00000000000E+00 0. -1.
         -2    1    6    6    0  503  0.89619870703E+03 -0.11683603453E+04 -0.57254362541E+03  0.15798874080E+04  0.00000000000E+00 0.  1.
<mgrwt>
<rscale>  0 0.38407561E+04</rscale>
<asrwt>0</asrwt>
<pdfrwt beam="1">  1        2 0.30179000E+00 0.38407561E+04</pdfrwt>
<pdfrwt beam="2">  1       -1 0.28922905E+00 0.38407561E+04</pdfrwt>
<totfact> 0.24745505E-01</totfact>
</mgrwt>
</event>
<event>
12    6  0.8914180E-008  0.4033848E+04  0.7818608E-02  0.7997753E-01
          2   -1    0    0  501    0  0.00000000000E+00  0.00000000000E+00  0.36505104269E+04  0.36505104269E+04  0.00000000000E+00 0. -1.
         -1   -1    0    0    0  501 -0.00000000000E+00 -0.00000000000E+00 -0.11143596324E+04  0.11143596324E+04  0.00000000000E+00 0.  1.
         24    2    1    2    0    0 -0.15078064803E+03  0.18921932764E+04  0.90615086259E+03  0.21048970504E+04  0.79699484764E+02 0.  0.
        254    2    1    2    0    0  0.15078064803E+03 -0.18921932764E+04  0.16299999319E+04  0.26599730089E+04  0.90300965165E+03 0.  0.
         23    2    4    4    0    0 -0.32435056312E+03 -0.34314153471E+03  0.36779354015E+03  0.60407407279E+03  0.81755712928E+02 0.  0.
         23    2    4    4    0    0  0.47513121115E+03 -0.15490517417E+04  0.12622063918E+04  0.20558989362E+04  0.90799195265E+02 0.  0.
          2    1    3    3  502    0 -0.66826889456E+02  0.89622781498E+03  0.38526627934E+03  0.97781400864E+03  0.00000000000E+00 0. -1.
         -3    1    3    3    0  502 -0.83953758572E+02  0.99596546145E+03  0.52088458324E+03  0.11270830418E+04  0.00000000000E+00 0.  1.
         11    1    5    5    0    0 -0.16233202820E+03 -0.13587848316E+03  0.12361464803E+03  0.24514328621E+03  0.00000000000E+00 0.  1.
        -11    1    5    5    0    0 -0.16201853492E+03 -0.20726305155E+03  0.24417889212E+03  0.35893078658E+03  0.00000000000E+00 0. -1.
          2    1    6    6  503    0  0.43868306203E+02 -0.14373375325E+03  0.85207487054E+02  0.17275455410E+03  0.00000000000E+00 0. -1.
         -2    1    6    6    0  503  0.43126290495E+03 -0.14053179885E+04  0.11769989047E+04  0.18831443821E+04  0.00000000000E+00 0.  1.
<mgrwt>
<rscale>  0 0.40338475E+04</rscale>
<asrwt>0</asrwt>
<pdfrwt beam="1">  1        2 0.56161698E+00 0.40338475E+04</pdfrwt>
<pdfrwt beam="2">  1       -1 0.17143995E+00 0.40338475E+04</pdfrwt>
<totfact> 0.13573616E-01</totfact>
</mgrwt>
</event>
<event>
12    6  0.8914180E-008  0.1476570E+04  0.7818608E-02  0.8900185E-01
          2   -1    0    0  501    0  0.00000000000E+00  0.00000000000E+00  0.11424837053E+04  0.11424837053E+04  0.00000000000E+00 0. -1.
         -1   -1    0    0    0  501 -0.00000000000E+00 -0.00000000000E+00 -0.47708755681E+03  0.47708755681E+03  0.00000000000E+00 0.  1.
         24    2    1    2    0    0  0.24007242563E+03 -0.19052770367E+03  0.57807284741E+03  0.65978330526E+03  0.84913000032E+02 0.  0.
        254    2    1    2    0    0 -0.24007242563E+03  0.19052770367E+03  0.87323301110E+02  0.95978795688E+03  0.90533529029E+03 0.  0.
         23    2    4    4    0    0  0.11420120142E+03 -0.13041713650E+03 -0.28612625781E+03  0.34706336591E+03  0.92380737452E+02 0.  0.
         23    2    4    4    0    0 -0.35427362705E+03  0.32094484017E+03  0.37344955892E+03  0.61272459097E+03  0.86321828439E+02 0.  0.
          4    1    3    3  502    0  0.18848978133E+03 -0.18391569585E+03  0.51142457843E+03  0.57524645176E+03  0.00000000000E+00 0. -1.
         -3    1    3    3    0  502  0.51582644309E+02 -0.66120078165E+01  0.66648268979E+02  0.84536853497E+02  0.00000000000E+00 0.  1.
         11    1    5    5    0    0 -0.13496447803E+02 -0.28270987702E+02 -0.31321341448E+02  0.44299314656E+02  0.00000000000E+00 0.  1.
        -11    1    5    5    0    0  0.12769764922E+03 -0.10214614880E+03 -0.25480491636E+03  0.30276405126E+03  0.00000000000E+00 0. -1.
          1    1    6    6  503    0 -0.30976291859E+03  0.28493211600E+03  0.36016716773E+03  0.55394924422E+03  0.00000000000E+00 0. -1.
         -1    1    6    6    0  503 -0.44510708464E+02  0.36012724166E+02  0.13282391193E+02  0.58775346750E+02  0.00000000000E+00 0.  1.
<mgrwt>
<rscale>  0 0.14765700E+04</rscale>
<asrwt>0</asrwt>
<pdfrwt beam="1">  1        2 0.17576672E+00 0.14765700E+04</pdfrwt>
<pdfrwt beam="2">  1       -1 0.73398086E-01 0.14765700E+04</pdfrwt>
<totfact> 0.42363453E+01</totfact>
</mgrwt>
</event>
<event>
12    6  0.8914180E-008  0.1381609E+04  0.7818608E-02  0.8967240E-01
          2   -1    0    0  501    0  0.00000000000E+00  0.00000000000E+00  0.11474652141E+04  0.11474652141E+04  0.00000000000E+00 0. -1.
         -1   -1    0    0    0  501 -0.00000000000E+00 -0.00000000000E+00 -0.41588253175E+03  0.41588253175E+03  0.00000000000E+00 0.  1.
         24    2    1    2    0    0  0.10849552661E+03 -0.10087560833E+03 -0.19967119921E+03  0.26090002691E+03  0.79076346646E+02 0.  0.
        254    2    1    2    0    0 -0.10849552661E+03  0.10087560833E+03  0.93125388157E+03  0.13024477189E+04  0.89843703229E+03 0.  0.
         23    2    4    4    0    0 -0.38408567947E+03 -0.62736511265E+02  0.10769786092E+03  0.41370584100E+03  0.89977856206E+02 0.  0.
         23    2    4    4    0    0  0.27559015286E+03  0.16361211959E+03  0.82355602065E+03  0.88874187795E+03  0.94333177806E+02 0.  0.
          2    1    3    3  502    0  0.18079268888E+01 -0.46613705237E+02 -0.72929234555E+02  0.86572393800E+02  0.00000000000E+00 0. -1.
         -1    1    3    3    0  502  0.10668759973E+03 -0.54261903091E+02 -0.12674196465E+03  0.17432763311E+03  0.00000000000E+00 0.  1.
         11    1    5    5    0    0 -0.96871809608E+02 -0.48323521883E+02  0.50968607306E+01  0.10837568110E+03  0.00000000000E+00 0. -1.
        -11    1    5    5    0    0 -0.28721386986E+03 -0.14412989382E+02  0.10260100019E+03  0.30533015990E+03  0.00000000000E+00 0.  1.
          4    1    6    6  503    0  0.14759888239E+03  0.11077684989E+03  0.57909006987E+03  0.60778470660E+03  0.00000000000E+00 0. -1.
         -4    1    6    6    0  503  0.12799127046E+03  0.52835269706E+02  0.24446595078E+03  0.28095717135E+03  0.00000000000E+00 0.  1.
<mgrwt>
<rscale>  0 0.13816088E+04</rscale>
<asrwt>0</asrwt>
<pdfrwt beam="1">  1        2 0.17653311E+00 0.13816088E+04</pdfrwt>
<pdfrwt beam="2">  1       -1 0.63981929E-01 0.13816088E+04</pdfrwt>
<totfact> 0.56097762E+01</totfact>
</mgrwt>
</event>
<event>
12    6  0.8914180E-008  0.2402612E+04  0.7818608E-02  0.8438526E-01
         -1   -1    0    0    0  501 -0.00000000000E+00  0.00000000000E+00  0.52948938456E+03  0.52948938456E+03  0.00000000000E+00 0.  1.
          2   -1    0    0  501    0  0.00000000000E+00 -0.00000000000E+00 -0.27255241937E+04  0.27255241937E+04  0.00000000000E+00 0. -1.
         24    2    1    2    0    0 -0.31048918968E+03 -0.50416014840E+03 -0.20954792783E+04  0.21789430544E+04  0.78603030143E+02 0.  0.
        254    2    1    2    0    0  0.31048918968E+03  0.50416014840E+03 -0.10055553083E+03  0.10760705239E+04  0.89288037574E+03 0.  0.
         23    2    4    4    0    0  0.27325496259E+03 -0.18486325929E+03 -0.15822488316E+03  0.37757151156E+03  0.93179576506E+02 0.  0.
         23    2    4    4    0    0  0.37234227090E+02  0.68902340769E+03  0.57669352334E+02  0.69849901229E+03  0.91844825457E+02 0.  0.
          4    1    3    3  502    0 -0.24472583781E+03 -0.37374286093E+03 -0.14559176624E+04  0.15229151984E+04  0.00000000000E+00 0. -1.
         -3    1    3    3    0  502 -0.65763351868E+02 -0.13041728747E+03 -0.63956161591E+03  0.65602785602E+03  0.00000000000E+00 0.  1.
         11    1    5    5    0    0  0.22789401317E+03 -0.11628970037E+03 -0.14563230907E+03  0.29439386049E+03  0.00000000000E+00 0.  1.
        -11    1    5    5    0    0  0.45360949416E+02 -0.68573558923E+02 -0.12592574094E+02  0.83177651070E+02  0.00000000000E+00 0. -1.
          1    1    6    6  503    0  0.50161662214E+02  0.67564136194E+03  0.56633665103E+02  0.67986382044E+03  0.00000000000E+00 0. -1.
         -1    1    6    6    0  503 -0.12927435124E+02  0.13382045751E+02  0.10356872305E+01  0.18635191853E+02  0.00000000000E+00 0.  1.
<mgrwt>
<rscale>  0 0.24026120E+04</rscale>
<asrwt>0</asrwt>
<pdfrwt beam="1">  1        2 0.41931141E+00 0.24026120E+04</pdfrwt>
<pdfrwt beam="2">  1       -1 0.81459906E-01 0.24026120E+04</pdfrwt>
<totfact> 0.39350404E+00</totfact>
</mgrwt>
</event>
<event>
12    6  0.8914180E-008  0.2093771E+04  0.7818608E-02  0.8563992E-01
         -1   -1    0    0    0  501 -0.00000000000E+00  0.00000000000E+00  0.39859902185E+03  0.39859902185E+03  0.00000000000E+00 0.  1.
          2   -1    0    0  501    0  0.00000000000E+00 -0.00000000000E+00 -0.27495544995E+04  0.27495544995E+04  0.00000000000E+00 0. -1.
         24    2    1    2    0    0 -0.80093762587E+03  0.26710945881E+03 -0.78064518824E+03  0.11527901359E+04  0.81667888243E+02 0.  0.
        254    2    1    2    0    0  0.80093762587E+03 -0.26710945881E+03 -0.15703102894E+04  0.19953633854E+04  0.89596433601E+03 0.  0.
         23    2    4    4    0    0 -0.22002463073E+02 -0.27558615191E+03 -0.10298431207E+03  0.31079144857E+03  0.97743135113E+02 0.  0.
         23    2    4    4    0    0  0.82294008895E+03  0.84766931029E+01 -0.14673259773E+04  0.16845719368E+04  0.86225532346E+02 0.  0.
          4    1    3    3  502    0 -0.58427672259E+03  0.16261111441E+03 -0.53063253374E+03  0.80584896162E+03  0.00000000000E+00 0. -1.
         -3    1    3    3    0  502 -0.21666090329E+03  0.10449834440E+03 -0.25001265450E+03  0.34694117427E+03  0.00000000000E+00 0.  1.
         11    1    5    5    0    0  0.25367471216E+02 -0.27385173935E+02 -0.29686019897E+02  0.47693984156E+02  0.00000000000E+00 0.  1.
        -11    1    5    5    0    0 -0.47369934289E+02 -0.24820097798E+03 -0.73298292178E+02  0.26309746441E+03  0.00000000000E+00 0. -1.
          1    1    6    6  503    0  0.81986462037E+03  0.13736488130E+02 -0.14629248550E+04  0.16770556992E+04  0.00000000000E+00 0. -1.
         -1    1    6    6    0  503  0.30754685759E+01 -0.52597950267E+01 -0.44011222603E+01  0.75162376116E+01  0.00000000000E+00 0.  1.
<mgrwt>
<rscale>  0 0.20937715E+04</rscale>
<asrwt>0</asrwt>
<pdfrwt beam="1">  1        2 0.42300839E+00 0.20937715E+04</pdfrwt>
<pdfrwt beam="2">  1       -1 0.61322926E-01 0.20937715E+04</pdfrwt>
<totfact> 0.70259277E+00</totfact>
</mgrwt>
</event>
<event>
12    6  0.8914180E-008  0.1701616E+04  0.7818608E-02  0.8760443E-01
          2   -1    0    0  501    0  0.00000000000E+00  0.00000000000E+00  0.13863732388E+04  0.13863732388E+04  0.00000000000E+00 0. -1.
         -1   -1    0    0    0  501 -0.00000000000E+00 -0.00000000000E+00 -0.52213512417E+03  0.52213512417E+03  0.00000000000E+00 0.  1.
         24    2    1    2    0    0  0.16191220827E+03  0.46965337469E+03  0.71003035292E+03  0.87039894497E+03  0.81617190523E+02 0.  0.
        254    2    1    2    0    0 -0.16191220827E+03 -0.46965337469E+03  0.15420776172E+03  0.10381094180E+04  0.89838815355E+03 0.  0.
         23    2    4    4    0    0  0.15404632829E+03  0.40921394518E+01 -0.26845779720E+03  0.32299270554E+03  0.92237097138E+02 0.  0.
         23    2    4    4    0    0 -0.31595853656E+03 -0.47374551414E+03  0.42266555892E+03  0.71511671247E+03  0.92093044079E+02 0.  0.
          4    1    3    3  502    0  0.15270554629E+03  0.41496635317E+03  0.58235724805E+03  0.73120176592E+03  0.00000000000E+00 0. -1.
         -3    1    3    3    0  502  0.92066619799E+01  0.54687021523E+02  0.12767310486E+03  0.13919717904E+03  0.00000000000E+00 0.  1.
         11    1    5    5    0    0 -0.92977877093E+01 -0.88007098265E+01 -0.74378689604E+01  0.14806189395E+02  0.00000000000E+00 0. -1.
        -11    1    5    5    0    0  0.16334411600E+03  0.12892849278E+02 -0.26101992824E+03  0.30818651614E+03  0.00000000000E+00 0.  1.
          2    1    6    6  503    0 -0.12315935107E+03 -0.12075237625E+03  0.99205004927E+02  0.19897486054E+03  0.00000000000E+00 0. -1.
         -2    1    6    6    0  503 -0.19279918549E+03 -0.35299313789E+03  0.32346055399E+03  0.51614185193E+03  0.00000000000E+00 0.  1.
<mgrwt>
<rscale>  0 0.17016159E+04</rscale>
<asrwt>0</asrwt>
<pdfrwt beam="1">  1        2 0.21328819E+00 0.17016159E+04</pdfrwt>
<pdfrwt beam="2">  1       -1 0.80328481E-01 0.17016159E+04</pdfrwt>
<totfact> 0.24706371E+01</totfact>
</mgrwt>
</event>
<event>
12    6  0.8914180E-008  0.1626240E+04  0.7818608E-02  0.8804588E-01
          2   -1    0    0  501    0  0.00000000000E+00  0.00000000000E+00  0.13708483848E+04  0.13708483848E+04  0.00000000000E+00 0. -1.
         -1   -1    0    0    0  501 -0.00000000000E+00 -0.00000000000E+00 -0.48230279645E+03  0.48230279645E+03  0.00000000000E+00 0.  1.
         24    2    1    2    0    0  0.21073586331E+03  0.17621678798E+02 -0.26755485076E+03  0.35040582687E+03  0.80489239626E+02 0.  0.
        254    2    1    2    0    0 -0.21073586331E+03 -0.17621678798E+02  0.11561004391E+04  0.15027453544E+04  0.93645888706E+03 0.  0.
         23    2    4    4    0    0 -0.50760420664E+03 -0.24473505808E+03  0.62105445686E+03  0.84391707761E+03  0.94499292278E+02 0.  0.
         23    2    4    4    0    0  0.29686834333E+03  0.22711337928E+03  0.53504598229E+03  0.65882827680E+03  0.89828697143E+02 0.  0.
          2    1    3    3  502    0  0.44940444508E+02 -0.27969690485E+02 -0.80323298782E+02  0.96196566808E+02  0.00000000000E+00 0. -1.
         -1    1    3    3    0  502  0.16579541880E+03  0.45591369283E+02 -0.18723155197E+03  0.25420926007E+03  0.00000000000E+00 0.  1.
         11    1    5    5    0    0 -0.99632645524E+02 -0.67473779074E+02  0.18731113769E+03  0.22263161774E+03  0.00000000000E+00 0.  1.
        -11    1    5    5    0    0 -0.40797156112E+03 -0.17726127901E+03  0.43374331917E+03  0.62128545987E+03  0.00000000000E+00 0. -1.
          2    1    6    6  503    0  0.22193562874E+03  0.12189160618E+03  0.32129480370E+03  0.40907620053E+03  0.00000000000E+00 0. -1.
         -2    1    6    6    0  503  0.74932714591E+02  0.10522177311E+03  0.21375117859E+03  0.24975207627E+03  0.00000000000E+00 0.  1.
<mgrwt>
<rscale>  0 0.16262398E+04</rscale>
<asrwt>0</asrwt>
<pdfrwt beam="1">  1        2 0.21089975E+00 0.16262398E+04</pdfrwt>
<pdfrwt beam="2">  1       -1 0.74200431E-01 0.16262398E+04</pdfrwt>
<totfact> 0.29996657E+01</totfact>
</mgrwt>
</event>
<event>
12    6  0.8914180E-008  0.2058611E+04  0.7818608E-02  0.8579698E-01
          2   -1    0    0  501    0  0.00000000000E+00  0.00000000000E+00  0.26697119480E+04  0.26697119480E+04  0.00000000000E+00 0. -1.
         -1   -1    0    0    0  501 -0.00000000000E+00 -0.00000000000E+00 -0.39684809013E+03  0.39684809013E+03  0.00000000000E+00 0.  1.
         24    2    1    2    0    0  0.16418069585E+03 -0.79281259336E+03  0.11839665631E+04  0.14365209447E+04  0.79426023089E+02 0.  0.
        254    2    1    2    0    0 -0.16418069585E+03  0.79281259336E+03  0.10888972948E+04  0.16300390934E+04  0.90322921690E+03 0.  0.
         23    2    4    4    0    0 -0.20319402564E+03  0.21248911831E+03 -0.82597120982E+02  0.31893723308E+03  0.91974109374E+02 0.  0.
         23    2    4    4    0    0  0.39013329786E+02  0.58032347506E+03  0.11714944158E+04  0.13111018603E+04  0.91057928155E+02 0.  0.
          4    1    3    3  502    0  0.70803330499E+02 -0.19008787021E+03  0.26918002453E+03  0.33705251166E+03  0.00000000000E+00 0. -1.
         -3    1    3    3    0  502  0.93377365353E+02 -0.60272472315E+03  0.91478653852E+03  0.10994684331E+04  0.00000000000E+00 0.  1.
         11    1    5    5    0    0 -0.26123140147E+02  0.84427575596E+02 -0.11421783399E+02  0.89111677732E+02  0.00000000000E+00 0. -1.
        -11    1    5    5    0    0 -0.17707088549E+03  0.12806154271E+03 -0.71175337583E+02  0.22982555534E+03  0.00000000000E+00 0.  1.
          4    1    6    6  503    0 -0.73465377838E+01  0.38896628198E+03  0.83626450343E+03  0.92232698097E+03  0.00000000000E+00 0. -1.
         -4    1    6    6    0  503  0.46359867569E+02  0.19135719308E+03  0.33522991239E+03  0.38877487937E+03  0.00000000000E+00 0.  1.
<mgrwt>
<rscale>  0 0.20586113E+04</rscale>
<asrwt>0</asrwt>
<pdfrwt beam="1">  1        2 0.41072490E+00 0.20586113E+04</pdfrwt>
<pdfrwt beam="2">  1       -1 0.61053554E-01 0.20586113E+04</pdfrwt>
<totfact> 0.79325228E+00</totfact>
</mgrwt>
</event>
<event>
12    6  0.8914180E-008  0.1724263E+04  0.7818608E-02  0.8747646E-01
          2   -1    0    0  501    0  0.00000000000E+00  0.00000000000E+00  0.14853717094E+04  0.14853717094E+04  0.00000000000E+00 0. -1.
         -1   -1    0    0    0  501 -0.00000000000E+00 -0.00000000000E+00 -0.50039358486E+03  0.50039358486E+03  0.00000000000E+00 0.  1.
         24    2    1    2    0    0  0.10056753046E+03 -0.59576624110E+03  0.28946280737E+03  0.67483647315E+03  0.81020407448E+02 0.  0.
        254    2    1    2    0    0 -0.10056753046E+03  0.59576624110E+03  0.69551531715E+03  0.13109288211E+04  0.93259936486E+03 0.  0.
         23    2    4    4    0    0  0.11743179535E+03  0.50359553211E+03 -0.46240003727E+02  0.52696905005E+03  0.90330256498E+02 0.  0.
         23    2    4    4    0    0 -0.21799932581E+03  0.92170708988E+02  0.74175532088E+03  0.78395977104E+03  0.91503119658E+02 0.  0.
          2    1    3    3  502    0 -0.11998889764E+02 -0.64345454257E+02  0.19866634067E+02  0.68403172355E+02  0.00000000000E+00 0. -1.
         -1    1    3    3    0  502  0.11256642022E+03 -0.53142078684E+03  0.26959617330E+03  0.60643330079E+03  0.00000000000E+00 0.  1.
         11    1    5    5    0    0  0.91300412618E+02  0.42129062898E+03 -0.71583213597E+02  0.43697335831E+03  0.00000000000E+00 0. -1.
        -11    1    5    5    0    0  0.26131382733E+02  0.82304903136E+02  0.25343209870E+02  0.89995691732E+02  0.00000000000E+00 0.  1.
          2    1    6    6  503    0 -0.12051109375E+03  0.98994616642E+02  0.46499145361E+03  0.49044868209E+03  0.00000000000E+00 0. -1.
         -2    1    6    6    0  503 -0.97488232067E+02 -0.68239076546E+01  0.27676386728E+03  0.29351108895E+03  0.00000000000E+00 0.  1.
<mgrwt>
<rscale>  0 0.17242627E+04</rscale>
<asrwt>0</asrwt>
<pdfrwt beam="1">  1        2 0.22851872E+00 0.17242627E+04</pdfrwt>
<pdfrwt beam="2">  1       -1 0.76983629E-01 0.17242627E+04</pdfrwt>
<totfact> 0.23697623E+01</totfact>
</mgrwt>
</event>
<event>
12    6  0.8914180E-008  0.2029925E+04  0.7818608E-02  0.8592756E-01
         -1   -1    0    0    0  501 -0.00000000000E+00  0.00000000000E+00  0.83000363955E+03  0.83000363955E+03  0.00000000000E+00 0.  1.
          2   -1    0    0  501    0  0.00000000000E+00 -0.00000000000E+00 -0.12411381030E+04  0.12411381030E+04  0.00000000000E+00 0. -1.
         24    2    1    2    0    0 -0.80376776434E+03  0.11952863282E+03 -0.21818607783E+03  0.84526297329E+03  0.80836974177E+02 0.  0.
        254    2    1    2    0    0  0.80376776434E+03 -0.11952863282E+03 -0.19294838560E+03  0.12258787692E+04  0.89734049518E+03 0.  0.
         23    2    4    4    0    0  0.86892141188E+03 -0.28560194339E+03  0.38278162452E+02  0.92002557231E+03  0.91591188997E+02 0.  0.
         23    2    4    4    0    0 -0.65153647533E+02  0.16607331056E+03 -0.23122654805E+03  0.30585319692E+03  0.90857686952E+02 0.  0.
          2    1    3    3  502    0 -0.50371881536E+02  0.24953719436E+02 -0.26419304845E+02  0.62112754179E+02  0.00000000000E+00 0. -1.
         -1    1    3    3    0  502 -0.75339588281E+03  0.94574913387E+02 -0.19176677299E+03  0.78315021911E+03  0.00000000000E+00 0.  1.
         11    1    5    5    0    0  0.20517424515E+03 -0.10873828840E+03  0.15975037320E+02  0.23275671431E+03  0.00000000000E+00 0. -1.
        -11    1    5    5    0    0  0.66374716672E+03 -0.17686365498E+03  0.22303125132E+02  0.68726885800E+03  0.00000000000E+00 0.  1.
          2    1    6    6  503    0  0.13883084897E+02  0.53877749669E+01 -0.45430503272E+02  0.47808982346E+02  0.00000000000E+00 0. -1.
         -2    1    6    6    0  503 -0.79036732431E+02  0.16068553560E+03 -0.18579604477E+03  0.25804421458E+03  0.00000000000E+00 0.  1.
<mgrwt>
<rscale>  0 0.20299253E+04</rscale>
<asrwt>0</asrwt>
<pdfrwt beam="1">  1        2 0.19094432E+00 0.20299253E+04</pdfrwt>
<pdfrwt beam="2">  1       -1 0.12769287E+00 0.20299253E+04</pdfrwt>
<totfact> 0.10036675E+01</totfact>
</mgrwt>
</event>
<event>
12    6  0.8914180E-008  0.1435398E+04  0.7818608E-02  0.8928587E-01
         -1   -1    0    0    0  501 -0.00000000000E+00  0.00000000000E+00  0.19080836650E+03  0.19080836650E+03  0.00000000000E+00 0.  1.
          2   -1    0    0  501    0  0.00000000000E+00 -0.00000000000E+00 -0.26995226251E+04  0.26995226251E+04  0.00000000000E+00 0. -1.
         24    2    1    2    0    0 -0.77553931084E+01 -0.41423581429E+03 -0.10662977743E+04  0.11466641895E+04  0.78716986530E+02 0.  0.
        254    2    1    2    0    0  0.77553931084E+01  0.41423581429E+03 -0.14424164843E+04  0.17436668021E+04  0.88778215049E+03 0.  0.
         23    2    4    4    0    0  0.12106680972E+03  0.52410829223E+03 -0.14608271940E+04  0.15593153668E+04  0.90009153803E+02 0.  0.
         23    2    4    4    0    0 -0.11331141661E+03 -0.10987247794E+03  0.18410709762E+02  0.18435143536E+03  0.93461537235E+02 0.  0.
          4    1    3    3  502    0 -0.15726375361E+02 -0.34588500895E+03 -0.80188004043E+03  0.87343881156E+03  0.00000000000E+00 0. -1.
         -3    1    3    3    0  502  0.79709822527E+01 -0.68350805345E+02 -0.26441773387E+03  0.27322537791E+03  0.00000000000E+00 0.  1.
         11    1    5    5    0    0  0.58616629844E+02  0.41701324319E+03 -0.11498993806E+04  0.12245834148E+04  0.00000000000E+00 0.  1.
        -11    1    5    5    0    0  0.62450179874E+02  0.10709504904E+03 -0.31092781347E+03  0.33473195199E+03  0.00000000000E+00 0. -1.
          4    1    6    6  503    0  0.75750910474E+01  0.66441779152E+01  0.12892606932E+02  0.16362958719E+02  0.00000000000E+00 0. -1.
         -4    1    6    6    0  503 -0.12088650766E+03 -0.11651665585E+03  0.55181028298E+01  0.16798847664E+03  0.00000000000E+00 0.  1.
<mgrwt>
<rscale>  0 0.14353975E+04</rscale>
<asrwt>0</asrwt>
<pdfrwt beam="1">  1        2 0.41531117E+00 0.14353975E+04</pdfrwt>
<pdfrwt beam="2">  1       -1 0.29355134E-01 0.14353975E+04</pdfrwt>
<totfact> 0.31302912E+01</totfact>
</mgrwt>
</event>
<event>
12    6  0.8914180E-008  0.2728551E+04  0.7818608E-02  0.8325800E-01
          2   -1    0    0  501    0  0.00000000000E+00  0.00000000000E+00  0.20694141929E+04  0.20694141929E+04  0.00000000000E+00 0. -1.
         -1   -1    0    0    0  501 -0.00000000000E+00 -0.00000000000E+00 -0.89940774588E+03  0.89940774588E+03  0.00000000000E+00 0.  1.
         24    2    1    2    0    0  0.11362195783E+04 -0.39133644722E+03  0.35946195523E+03  0.12570568640E+04  0.82703790185E+02 0.  0.
        254    2    1    2    0    0 -0.11362195783E+04  0.39133644722E+03  0.81054449178E+03  0.17117650748E+04  0.91050433986E+03 0.  0.
         23    2    4    4    0    0 -0.65214959984E+02  0.13640721522E+02  0.52452791406E+03  0.53720843502E+03  0.94996367004E+02 0.  0.
         23    2    4    4    0    0 -0.10710046184E+04  0.37769572570E+03  0.28601657772E+03  0.11745566397E+04  0.89849115017E+02 0.  0.
          2    1    3    3  502    0  0.36783575454E+03 -0.12127397069E+03  0.76150736645E+02  0.39472706137E+03  0.00000000000E+00 0. -1.
         -1    1    3    3    0  502  0.76838382381E+03 -0.27006247654E+03  0.28331121858E+03  0.86232980263E+03  0.00000000000E+00 0.  1.
         11    1    5    5    0    0  0.19246264690E+02  0.23812091283E+02  0.15776373089E+03  0.16070727793E+03  0.00000000000E+00 0.  1.
        -11    1    5    5    0    0 -0.84461224673E+02 -0.10171369760E+02  0.36676418317E+03  0.37650115709E+03  0.00000000000E+00 0. -1.
          1    1    6    6  503    0 -0.37024560337E+03  0.17577636454E+03  0.96316301691E+02  0.42101777530E+03  0.00000000000E+00 0. -1.
         -1    1    6    6    0  503 -0.70075901499E+03  0.20191936116E+03  0.18970027603E+03  0.75353886445E+03  0.00000000000E+00 0.  1.
<mgrwt>
<rscale>  0 0.27285506E+04</rscale>
<asrwt>0</asrwt>
<pdfrwt beam="1">  1        2 0.31837141E+00 0.27285506E+04</pdfrwt>
<pdfrwt beam="2">  1       -1 0.13837042E+00 0.27285506E+04</pdfrwt>
<totfact> 0.26297068E+00</totfact>
</mgrwt>
</event>
<event>
12    6  0.8914180E-008  0.1259487E+04  0.7818608E-02  0.9062324E-01
          2   -1    0    0  501    0  0.00000000000E+00  0.00000000000E+00  0.14917974469E+04  0.14917974469E+04  0.00000000000E+00 0. -1.
         -1   -1    0    0    0  501 -0.00000000000E+00 -0.00000000000E+00 -0.26583844494E+03  0.26583844494E+03  0.00000000000E+00 0.  1.
         24    2    1    2    0    0 -0.68750731695E+02 -0.24670321782E+03  0.49163085605E+03  0.56007872907E+03  0.79988395039E+02 0.  0.
        254    2    1    2    0    0  0.68750731695E+02  0.24670321782E+03  0.73432814592E+03  0.11975571628E+04  0.91066799188E+03 0.  0.
         23    2    4    4    0    0  0.35851044948E+03 -0.18368263349E+03  0.25566563413E+03  0.48577635770E+03  0.91349334936E+02 0.  0.
         23    2    4    4    0    0 -0.28975971778E+03  0.43038585131E+03  0.47866251179E+03  0.71178080508E+03  0.91221922942E+02 0.  0.
          2    1    3    3  502    0 -0.82890371404E+02 -0.20497790911E+03  0.37399918869E+03  0.43446766282E+03  0.00000000000E+00 0. -1.
         -1    1    3    3    0  502  0.14139639709E+02 -0.41725308713E+02  0.11763166736E+03  0.12561106625E+03  0.00000000000E+00 0.  1.
         11    1    5    5    0    0 -0.16533855160E+00 -0.96987120306E+01 -0.34768754993E+01  0.10304417263E+02  0.00000000000E+00 0. -1.
        -11    1    5    5    0    0  0.35867578803E+03 -0.17398392146E+03  0.25914250963E+03  0.47547194043E+03  0.00000000000E+00 0.  1.
          1    1    6    6  503    0 -0.30485986055E+02  0.87809236660E+02  0.12215637683E+03  0.15349930876E+03  0.00000000000E+00 0. -1.
         -1    1    6    6    0  503 -0.25927373173E+03  0.34257661465E+03  0.35650613496E+03  0.55828149632E+03  0.00000000000E+00 0.  1.
<mgrwt>
<rscale>  0 0.12594874E+04</rscale>
<asrwt>0</asrwt>
<pdfrwt beam="1">  1        2 0.22950729E+00 0.12594874E+04</pdfrwt>
<pdfrwt beam="2">  1       -1 0.40898223E-01 0.12594874E+04</pdfrwt>
<totfact> 0.83990899E+01</totfact>
</mgrwt>
</event>
<event>
12    6  0.8914180E-008  0.2312423E+04  0.7818608E-02  0.8473039E-01
         -1   -1    0    0    0  501 -0.00000000000E+00  0.00000000000E+00  0.72131094793E+03  0.72131094793E+03  0.00000000000E+00 0.  1.
          2   -1    0    0  501    0  0.00000000000E+00 -0.00000000000E+00 -0.18533265706E+04  0.18533265706E+04  0.00000000000E+00 0. -1.
         24    2    1    2    0    0 -0.61507425400E+03 -0.71675584796E+03 -0.77038180684E+03  0.12215974253E+04  0.82200107782E+02 0.  0.
        254    2    1    2    0    0  0.61507425400E+03  0.71675584796E+03 -0.36163381587E+03  0.13530400932E+04  0.89882322713E+03 0.  0.
         23    2    4    4    0    0  0.11194830669E+03 -0.18519867151E+03 -0.18962897371E+03  0.30179992825E+03  0.91066336921E+02 0.  0.
         23    2    4    4    0    0  0.50312594731E+03  0.90195451947E+03 -0.17200484216E+03  0.10512401650E+04  0.94141089464E+02 0.  0.
          2    1    3    3  502    0 -0.84036450769E+01  0.71330906711E+00 -0.57960977560E+01  0.10233514040E+02  0.00000000000E+00 0. -1.
         -1    1    3    3    0  502 -0.60667060892E+03 -0.71746915703E+03 -0.76458570908E+03  0.12113639113E+04  0.00000000000E+00 0.  1.
         11    1    5    5    0    0  0.13420896284E+02  0.67639981007E+01 -0.76653809285E+00  0.15048578273E+02  0.00000000000E+00 0.  1.
        -11    1    5    5    0    0  0.98527410408E+02 -0.19196266961E+03 -0.18886243561E+03  0.28675134998E+03  0.00000000000E+00 0. -1.
          3    1    6    6  503    0  0.41525338904E+03  0.79150279383E+03 -0.12522957724E+03  0.90254888886E+03  0.00000000000E+00 0. -1.
         -3    1    6    6    0  503  0.87872558264E+02  0.11045172564E+03 -0.46775264918E+02  0.14869127614E+03  0.00000000000E+00 0.  1.
<mgrwt>
<rscale>  0 0.23124228E+04</rscale>
<asrwt>0</asrwt>
<pdfrwt beam="1">  1        2 0.28512716E+00 0.23124228E+04</pdfrwt>
<pdfrwt beam="2">  1       -1 0.11097092E+00 0.23124228E+04</pdfrwt>
<totfact> 0.62110209E+00</totfact>
</mgrwt>
</event>
<event>
12    6  0.8914180E-008  0.1961824E+04  0.7818608E-02  0.8624680E-01
          2   -1    0    0  501    0  0.00000000000E+00  0.00000000000E+00  0.17337767026E+04  0.17337767026E+04  0.00000000000E+00 0. -1.
         -1   -1    0    0    0  501 -0.00000000000E+00 -0.00000000000E+00 -0.55496642778E+03  0.55496642778E+03  0.00000000000E+00 0.  1.
         24    2    1    2    0    0 -0.48403263576E+02  0.38028541835E+03  0.12080067562E+04  0.12700844018E+04  0.82910731487E+02 0.  0.
        254    2    1    2    0    0  0.48403263576E+02 -0.38028541835E+03 -0.29196481399E+02  0.10186587285E+04  0.94332035669E+03 0.  0.
         23    2    4    4    0    0  0.21245433425E+02 -0.49402958419E+03 -0.38497600651E+03  0.63349640603E+03  0.92706916459E+02 0.  0.
         23    2    4    4    0    0  0.27157830151E+02  0.11374416584E+03  0.35577952511E+03  0.38516232250E+03  0.89975892234E+02 0.  0.
          4    1    3    3  502    0  0.14377024812E+02  0.21310851632E+03  0.64806037258E+03  0.68235195103E+03  0.00000000000E+00 0. -1.
         -3    1    3    3    0  502 -0.62780288388E+02  0.16717690203E+03  0.55994638360E+03  0.58773245077E+03  0.00000000000E+00 0.  1.
         11    1    5    5    0    0  0.35781495518E+02 -0.89036129294E+02 -0.96230325151E+02  0.13589710527E+03  0.00000000000E+00 0.  1.
        -11    1    5    5    0    0 -0.14536062093E+02 -0.40499345490E+03 -0.28874568136E+03  0.49759930076E+03  0.00000000000E+00 0. -1.
          2    1    6    6  503    0  0.10322814461E+02  0.11217844862E+03  0.34936578818E+03  0.36707903615E+03  0.00000000000E+00 0. -1.
         -2    1    6    6    0  503  0.16835015690E+02  0.15657172196E+01  0.64137369361E+01  0.18083286349E+02  0.00000000000E+00 0.  1.
<mgrwt>
<rscale>  0 0.19618235E+04</rscale>
<asrwt>0</asrwt>
<pdfrwt beam="1">  1        2 0.26673487E+00 0.19618235E+04</pdfrwt>
<pdfrwt beam="2">  1       -1 0.85379451E-01 0.19618235E+04</pdfrwt>
<totfact> 0.13515351E+01</totfact>
</mgrwt>
</event>
<event>
12    6  0.8914180E-008  0.1411046E+04  0.7818608E-02  0.8945862E-01
          2   -1    0    0  501    0  0.00000000000E+00  0.00000000000E+00  0.23114543151E+04  0.23114543151E+04  0.00000000000E+00 0. -1.
         -1   -1    0    0    0  501 -0.00000000000E+00 -0.00000000000E+00 -0.21534597902E+03  0.21534597902E+03  0.00000000000E+00 0.  1.
         24    2    1    2    0    0  0.29309316096E+03 -0.24560877611E+03  0.88690039925E+03  0.96927070573E+03  0.81646254713E+02 0.  0.
        254    2    1    2    0    0 -0.29309316096E+03  0.24560877611E+03  0.12092079368E+04  0.15575295884E+04  0.90415004964E+03 0.  0.
         23    2    4    4    0    0 -0.50522598123E+03  0.22021206378E+03  0.11999857655E+04  0.13241128621E+04  0.97787468541E+02 0.  0.
         23    2    4    4    0    0  0.21213282027E+03  0.25396712322E+02  0.92221713649E+01  0.23341672632E+03  0.93557432890E+02 0.  0.
          2    1    3    3  502    0  0.18861730967E+03 -0.20436863212E+03  0.65526465694E+03  0.71183902530E+03  0.00000000000E+00 0. -1.
         -1    1    3    3    0  502  0.10447585129E+03 -0.41240143988E+02  0.23163574231E+03  0.25743168044E+03  0.00000000000E+00 0.  1.
         11    1    5    5    0    0 -0.25139756377E+03  0.77191972035E+02  0.66159319549E+03  0.71194444442E+03  0.00000000000E+00 0.  1.
        -11    1    5    5    0    0 -0.25382841746E+03  0.14302009175E+03  0.53839256997E+03  0.61216841764E+03  0.00000000000E+00 0. -1.
          2    1    6    6  503    0  0.21447524193E+03  0.39593798868E+02  0.13168119533E+02  0.21849644775E+03  0.00000000000E+00 0. -1.
         -2    1    6    6    0  503 -0.23424216570E+01 -0.14197086546E+02 -0.39459481676E+01  0.14920278568E+02  0.00000000000E+00 0.  1.
<mgrwt>
<rscale>  0 0.14110456E+04</rscale>
<asrwt>0</asrwt>
<pdfrwt beam="1">  1        2 0.35560834E+00 0.14110456E+04</pdfrwt>
<pdfrwt beam="2">  1       -1 0.33130152E-01 0.14110456E+04</pdfrwt>
<totfact> 0.42440741E+01</totfact>
</mgrwt>
</event>
<event>
12    6  0.8914180E-008  0.1238693E+04  0.7818608E-02  0.9079647E-01
          2   -1    0    0  501    0  0.00000000000E+00  0.00000000000E+00  0.90124373115E+03  0.90124373115E+03  0.00000000000E+00 0. -1.
         -1   -1    0    0    0  501 -0.00000000000E+00 -0.00000000000E+00 -0.42562309400E+03  0.42562309400E+03  0.00000000000E+00 0.  1.
         24    2    1    2    0    0  0.12036627194E+03 -0.17502849271E+03  0.31475304851E+03  0.38817993473E+03  0.80567782046E+02 0.  0.
        254    2    1    2    0    0 -0.12036627194E+03  0.17502849271E+03  0.16086758864E+03  0.93868689041E+03  0.90007315507E+03 0.  0.
         23    2    4    4    0    0  0.51827650116E+02  0.25081923674E+03  0.48309497169E+03  0.55443925190E+03  0.91791816357E+02 0.  0.
         23    2    4    4    0    0 -0.17219392206E+03 -0.75790744027E+02 -0.32222738305E+03  0.38424763851E+03  0.91764795205E+02 0.  0.
          4    1    3    3  502    0  0.62734545479E+02 -0.15269647763E+03  0.23768852776E+03  0.28939190332E+03  0.00000000000E+00 0. -1.
         -3    1    3    3    0  502  0.57631726466E+02 -0.22332015075E+02  0.77064520747E+02  0.98788031414E+02  0.00000000000E+00 0.  1.
         11    1    5    5    0    0  0.58632548832E+02  0.17722070866E+03  0.26488286442E+03  0.32404920494E+03  0.00000000000E+00 0. -1.
        -11    1    5    5    0    0 -0.68048987165E+01  0.73598528075E+02  0.21821210726E+03  0.23039004696E+03  0.00000000000E+00 0.  1.
          3    1    6    6  503    0 -0.17419209997E+03 -0.89242397021E+02 -0.30101154728E+03  0.35904741290E+03  0.00000000000E+00 0. -1.
         -3    1    6    6    0  503  0.19981779062E+01  0.13451652994E+02 -0.21215835772E+02  0.25200225609E+02  0.00000000000E+00 0.  1.
<mgrwt>
<rscale>  0 0.12386931E+04</rscale>
<asrwt>0</asrwt>
<pdfrwt beam="1">  1        2 0.13865288E+00 0.12386931E+04</pdfrwt>
<pdfrwt beam="2">  1       -1 0.65480476E-01 0.12386931E+04</pdfrwt>
<totfact> 0.77724484E+01</totfact>
</mgrwt>
</event>
<event>
12    6  0.8914180E-008  0.2345807E+04  0.7818608E-02  0.8460076E-01
         -1   -1    0    0    0  501 -0.00000000000E+00  0.00000000000E+00  0.83757255389E+03  0.83757255389E+03  0.00000000000E+00 0.  1.
          2   -1    0    0  501    0  0.00000000000E+00 -0.00000000000E+00 -0.16424870218E+04  0.16424870218E+04  0.00000000000E+00 0. -1.
         24    2    1    2    0    0 -0.77404891241E+03  0.33225060832E+02  0.31731435960E+03  0.84087976203E+03  0.78324631654E+02 0.  0.
        254    2    1    2    0    0  0.77404891241E+03 -0.33225060832E+02 -0.11222288275E+04  0.16391798136E+04  0.90953685835E+03 0.  0.
         23    2    4    4    0    0  0.41822488988E+03 -0.32197330041E+03 -0.10319052746E+04  0.11625274016E+04  0.89791976505E+02 0.  0.
         23    2    4    4    0    0  0.35582402253E+03  0.28874823957E+03 -0.90323552935E+02  0.47665241207E+03  0.95146712231E+02 0.  0.
          2    1    3    3  502    0 -0.38503993089E+03  0.30122938722E+02  0.19775170605E+03  0.43389961634E+03  0.00000000000E+00 0. -1.
         -1    1    3    3    0  502 -0.38900898152E+03  0.31021221095E+01  0.11956265355E+03  0.40698014569E+03  0.00000000000E+00 0.  1.
         11    1    5    5    0    0  0.19840195944E+03 -0.17075535323E+03 -0.41872703542E+03  0.49381480168E+03  0.00000000000E+00 0. -1.
        -11    1    5    5    0    0  0.21982293044E+03 -0.15121794717E+03 -0.61317823913E+03  0.66871259988E+03  0.00000000000E+00 0.  1.
          1    1    6    6  503    0  0.98082939430E+02  0.10570691431E+03 -0.68861839736E+02  0.15980039960E+03  0.00000000000E+00 0. -1.
         -1    1    6    6    0  503  0.25774108310E+03  0.18304132527E+03 -0.21461713199E+02  0.31685201247E+03  0.00000000000E+00 0.  1.
<mgrwt>
<rscale>  0 0.23458065E+04</rscale>
<asrwt>0</asrwt>
<pdfrwt beam="1">  1        2 0.25269031E+00 0.23458065E+04</pdfrwt>
<pdfrwt beam="2">  1       -1 0.12885732E+00 0.23458065E+04</pdfrwt>
<totfact> 0.56318077E+00</totfact>
</mgrwt>
</event>
<event>
12    6  0.8914180E-008  0.1679649E+04  0.7818608E-02  0.8773057E-01
          2   -1    0    0  501    0  0.00000000000E+00  0.00000000000E+00  0.27411105183E+04  0.27411105183E+04  0.00000000000E+00 0. -1.
         -1   -1    0    0    0  501 -0.00000000000E+00 -0.00000000000E+00 -0.25730625110E+03  0.25730625110E+03  0.00000000000E+00 0.  1.
         24    2    1    2    0    0  0.12462745247E+02 -0.51090421123E+03  0.10394190095E+04  0.11611589095E+04  0.81973792119E+02 0.  0.
        254    2    1    2    0    0 -0.12462745247E+02  0.51090421123E+03  0.14443852577E+04  0.18372578599E+04  0.10139473548E+04 0.  0.
         23    2    4    4    0    0  0.12750842104E+03 -0.15695980804E+03  0.98498928903E+03  0.10096268208E+04  0.90816513207E+02 0.  0.
         23    2    4    4    0    0 -0.13997116629E+03  0.66786401926E+03  0.45939596865E+03  0.82763103911E+03  0.91072527534E+02 0.  0.
          4    1    3    3  502    0  0.24083008057E+02 -0.45454450322E+03  0.96604515070E+03  0.10679110122E+04  0.00000000000E+00 0. -1.
         -3    1    3    3    0  502 -0.11620262810E+02 -0.56359708007E+02  0.73373858845E+02  0.93247897329E+02  0.00000000000E+00 0.  1.
         11    1    5    5    0    0  0.63770819363E+02 -0.10203022743E+03  0.37417125095E+03  0.39304072277E+03  0.00000000000E+00 0. -1.
        -11    1    5    5    0    0  0.63737601682E+02 -0.54929580603E+02  0.61081803808E+03  0.61658609807E+03  0.00000000000E+00 0.  1.
          1    1    6    6  503    0 -0.41876158966E+02  0.62991811952E+02  0.49183838930E+02  0.90225445827E+02  0.00000000000E+00 0. -1.
         -1    1    6    6    0  503 -0.98095007325E+02  0.60487220731E+03  0.41021212972E+03  0.73740559328E+03  0.00000000000E+00 0.  1.
<mgrwt>
<rscale>  0 0.16796486E+04</rscale>
<asrwt>0</asrwt>
<pdfrwt beam="1">  1        2 0.42170929E+00 0.16796486E+04</pdfrwt>
<pdfrwt beam="2">  1       -1 0.39585579E-01 0.16796486E+04</pdfrwt>
<totfact> 0.16959013E+01</totfact>
</mgrwt>
</event>
<event>
12    6  0.8914180E-008  0.1652080E+04  0.7818608E-02  0.8789177E-01
          2   -1    0    0  501    0  0.00000000000E+00  0.00000000000E+00  0.25887882632E+04  0.25887882632E+04  0.00000000000E+00 0. -1.
         -1   -1    0    0    0  501 -0.00000000000E+00 -0.00000000000E+00 -0.26357570109E+03  0.26357570109E+03  0.00000000000E+00 0.  1.
         24    2    1    2    0    0  0.35258326554E+03  0.34683974314E+03  0.30916922317E+03  0.58874675878E+03  0.80152173127E+02 0.  0.
        254    2    1    2    0    0 -0.35258326554E+03 -0.34683974314E+03  0.20160433389E+04  0.22636172055E+04  0.90272883084E+03 0.  0.
         23    2    4    4    0    0 -0.46552593165E+03 -0.28337964355E+01  0.17282223286E+04  0.17926674542E+04  0.10090471192E+03 0.  0.
         23    2    4    4    0    0  0.11294266612E+03 -0.34400594671E+03  0.28782101032E+03  0.47094975128E+03  0.88637447203E+02 0.  0.
          2    1    3    3  502    0  0.10723645852E+03  0.14241306394E+03  0.78445679316E+02  0.19476874344E+03  0.00000000000E+00 0. -1.
         -3    1    3    3    0  502  0.24534680702E+03  0.20442667920E+03  0.23072354385E+03  0.39397801534E+03  0.00000000000E+00 0.  1.
         11    1    5    5    0    0 -0.16971149893E+03 -0.16439799898E+02  0.46717816086E+03  0.49732051423E+03  0.00000000000E+00 0.  1.
        -11    1    5    5    0    0 -0.29581443272E+03  0.13606003463E+02  0.12610441677E+04  0.12953469400E+04  0.00000000000E+00 0. -1.
          3    1    6    6  503    0  0.11588168723E+03 -0.28116660624E+03  0.20419608803E+03  0.36630488431E+03  0.00000000000E+00 0. -1.
         -3    1    6    6    0  503 -0.29390211130E+01 -0.62839340468E+02  0.83624922288E+02  0.10464486697E+03  0.00000000000E+00 0.  1.
<mgrwt>
<rscale>  0 0.16520795E+04</rscale>
<asrwt>0</asrwt>
<pdfrwt beam="1">  1        2 0.39827510E+00 0.16520795E+04</pdfrwt>
<pdfrwt beam="2">  1       -1 0.40550110E-01 0.16520795E+04</pdfrwt>
<totfact> 0.20008193E+01</totfact>
</mgrwt>
</event>
<event>
12    6  0.8914180E-008  0.2679170E+04  0.7818608E-02  0.8341795E-01
         -1   -1    0    0    0  501 -0.00000000000E+00  0.00000000000E+00  0.61991211611E+03  0.61991211611E+03  0.00000000000E+00 0.  1.
          2   -1    0    0  501    0  0.00000000000E+00 -0.00000000000E+00 -0.28947454604E+04  0.28947454604E+04  0.00000000000E+00 0. -1.
         24    2    1    2    0    0 -0.84809837845E+03  0.52662574944E+03 -0.18478645533E+04  0.21017888387E+04  0.79418987956E+02 0.  0.
        254    2    1    2    0    0  0.84809837845E+03 -0.52662574944E+03 -0.42696879095E+03  0.14128687378E+04  0.90404102905E+03 0.  0.
         23    2    4    4    0    0  0.79840936087E+03 -0.72874273647E+03 -0.22372945143E+03  0.11076008845E+04  0.90561406508E+02 0.  0.
         23    2    4    4    0    0  0.49689017585E+02  0.20211698703E+03 -0.20323933952E+03  0.30526785331E+03  0.92530850085E+02 0.  0.
          4    1    3    3  502    0 -0.67765711474E+03  0.45494368430E+03 -0.15276556949E+04  0.17320291115E+04  0.00000000000E+00 0. -1.
         -1    1    3    3    0  502 -0.17044126371E+03  0.71682065143E+02 -0.32020885842E+03  0.36975972719E+03  0.00000000000E+00 0.  1.
         11    1    5    5    0    0  0.27068137115E+03 -0.19194168796E+03 -0.77713879663E+02  0.34080707645E+03  0.00000000000E+00 0. -1.
        -11    1    5    5    0    0  0.52772798972E+03 -0.53680104851E+03 -0.14601557177E+03  0.76679380802E+03  0.00000000000E+00 0.  1.
          2    1    6    6  503    0 -0.25637434961E+02  0.36841860172E+02 -0.28122483436E+02  0.52966733021E+02  0.00000000000E+00 0. -1.
         -2    1    6    6    0  503  0.75326452546E+02  0.16527512686E+03 -0.17511685609E+03  0.25230112028E+03  0.00000000000E+00 0.  1.
<mgrwt>
<rscale>  0 0.26791699E+04</rscale>
<asrwt>0</asrwt>
<pdfrwt beam="1">  1        2 0.44534544E+00 0.26791699E+04</pdfrwt>
<pdfrwt beam="2">  1       -1 0.95371099E-01 0.26791699E+04</pdfrwt>
<totfact> 0.21457137E+00</totfact>
</mgrwt>
</event>
<event>
12    6  0.8914180E-008  0.1826786E+04  0.7818608E-02  0.8692183E-01
         -1   -1    0    0    0  501 -0.00000000000E+00  0.00000000000E+00  0.85953201965E+03  0.85953201965E+03  0.00000000000E+00 0.  1.
          2   -1    0    0  501    0  0.00000000000E+00 -0.00000000000E+00 -0.97062867294E+03  0.97062867294E+03  0.00000000000E+00 0. -1.
         24    2    1    2    0    0 -0.34537011663E+03 -0.49308973355E+03 -0.37478537641E+03  0.71236266371E+03  0.67664492062E+02 0.  0.
        254    2    1    2    0    0  0.34537011663E+03  0.49308973355E+03  0.26368872311E+03  0.11177980289E+04  0.90416961234E+03 0.  0.
         23    2    4    4    0    0 -0.86574338188E+02  0.34437013521E+03 -0.23499045503E+03  0.43567183735E+03  0.92214585846E+02 0.  0.
         23    2    4    4    0    0  0.43194445482E+03  0.14871959833E+03  0.49867917814E+03  0.68212619153E+03  0.89003862193E+02 0.  0.
          2    1    3    3  502    0 -0.22324477688E+03 -0.29984031596E+03 -0.19560323001E+03  0.42190409937E+03  0.00000000000E+00 0. -1.
         -1    1    3    3    0  502 -0.12212533975E+03 -0.19324941759E+03 -0.17918214640E+03  0.29045856434E+03  0.00000000000E+00 0.  1.
         11    1    5    5    0    0 -0.49119504930E+02  0.16732846964E+03 -0.16959687452E+03  0.24325838601E+03  0.00000000000E+00 0.  1.
        -11    1    5    5    0    0 -0.37454833259E+02  0.17704166558E+03 -0.65393580505E+02  0.19241345134E+03  0.00000000000E+00 0. -1.
          2    1    6    6  503    0  0.11949604909E+03  0.38022736029E+02  0.82643909145E+02  0.15018338764E+03  0.00000000000E+00 0. -1.
         -2    1    6    6    0  503  0.31244840573E+03  0.11069686230E+03  0.41603526900E+03  0.53194280390E+03  0.00000000000E+00 0.  1.
<mgrwt>
<rscale>  0 0.18267856E+04</rscale>
<asrwt>0</asrwt>
<pdfrwt beam="1">  1        2 0.14932749E+00 0.18267856E+04</pdfrwt>
<pdfrwt beam="2">  1       -1 0.13223569E+00 0.18267856E+04</pdfrwt>
<totfact> 0.13739045E+01</totfact>
</mgrwt>
</event>
<event>
12    6  0.8914180E-008  0.1360672E+04  0.7818608E-02  0.8982788E-01
          2   -1    0    0  501    0  0.00000000000E+00  0.00000000000E+00  0.19137797852E+04  0.19137797852E+04  0.00000000000E+00 0. -1.
         -1   -1    0    0    0  501 -0.00000000000E+00 -0.00000000000E+00 -0.24185505610E+03  0.24185505610E+03  0.00000000000E+00 0.  1.
         24    2    1    2    0    0  0.14330612615E+03 -0.24196466615E+03  0.90191497808E+03  0.94804431277E+03  0.79081260945E+02 0.  0.
        254    2    1    2    0    0 -0.14330612615E+03  0.24196466615E+03  0.77000975101E+03  0.12075905285E+04  0.88672223522E+03 0.  0.
         23    2    4    4    0    0  0.58320915978E+02  0.13669093269E+03  0.90929294476E+03  0.92604557065E+03  0.93064489533E+02 0.  0.
         23    2    4    4    0    0 -0.20162704213E+03  0.10527373347E+03 -0.13928319375E+03  0.28154495786E+03  0.90176117444E+02 0.  0.
          4    1    3    3  502    0  0.13037453171E+03 -0.23936081633E+03  0.79732616933E+03  0.84262692766E+03  0.00000000000E+00 0. -1.
         -3    1    3    3    0  502  0.12931594434E+02 -0.26038498256E+01  0.10458880875E+03  0.10541738512E+03  0.00000000000E+00 0.  1.
         11    1    5    5    0    0  0.69488630723E+02  0.81847945444E+02  0.41776158343E+03  0.43133803051E+03  0.00000000000E+00 0. -1.
        -11    1    5    5    0    0 -0.11167714745E+02  0.54842987243E+02  0.49153136133E+03  0.49470754015E+03  0.00000000000E+00 0.  1.
          1    1    6    6  503    0 -0.18881828670E+03  0.61772704345E+02 -0.12124543431E+03  0.23274163301E+03  0.00000000000E+00 0. -1.
         -1    1    6    6    0  503 -0.12808755421E+02  0.43501029121E+02 -0.18037759444E+02  0.48803324844E+02  0.00000000000E+00 0.  1.
<mgrwt>
<rscale>  0 0.13606724E+04</rscale>
<asrwt>0</asrwt>
<pdfrwt beam="1">  1        2 0.29442765E+00 0.13606724E+04</pdfrwt>
<pdfrwt beam="2">  1       -1 0.37208471E-01 0.13606724E+04</pdfrwt>
<totfact> 0.57669062E+01</totfact>
</mgrwt>
</event>
<event>
12    6  0.8914180E-008  0.1556544E+04  0.7818608E-02  0.8847699E-01
         -1   -1    0    0    0  501 -0.00000000000E+00  0.00000000000E+00  0.73670728803E+03  0.73670728803E+03  0.00000000000E+00 0.  1.
          2   -1    0    0  501    0  0.00000000000E+00 -0.00000000000E+00 -0.82218175310E+03  0.82218175310E+03  0.00000000000E+00 0. -1.
         24    2    1    2    0    0  0.29620179588E+03  0.35250647565E+03 -0.25736004684E+03  0.53364352497E+03  0.80900548684E+02 0.  0.
        254    2    1    2    0    0 -0.29620179588E+03 -0.35250647565E+03  0.17188558177E+03  0.10252455162E+04  0.89977074632E+03 0.  0.
         23    2    4    4    0    0 -0.30617316542E+03  0.84698870406E+02 -0.24689071713E+03  0.41266763048E+03  0.91780396454E+02 0.  0.
         23    2    4    4    0    0  0.99713695369E+01 -0.43720534606E+03  0.41877629890E+03  0.61257788568E+03  0.92898518147E+02 0.  0.
          4    1    3    3  502    0  0.29956202114E+03  0.34029613149E+03 -0.24259003667E+03  0.51418750229E+03  0.00000000000E+00 0. -1.
         -3    1    3    3    0  502 -0.33602252600E+01  0.12210344161E+02 -0.14770010170E+02  0.19456022686E+02  0.00000000000E+00 0.  1.
         11    1    5    5    0    0 -0.16303576927E+03  0.31200858983E+02 -0.18291902399E+03  0.24700915975E+03  0.00000000000E+00 0. -1.
        -11    1    5    5    0    0 -0.14313739615E+03  0.53498011422E+02 -0.63971693138E+02  0.16565847073E+03  0.00000000000E+00 0.  1.
          1    1    6    6  503    0  0.32224678411E+02 -0.29642693096E+03  0.23292055386E+03  0.37836403068E+03  0.00000000000E+00 0. -1.
         -1    1    6    6    0  503 -0.22253308874E+02 -0.14077841509E+03  0.18585574504E+03  0.23421385500E+03  0.00000000000E+00 0.  1.
<mgrwt>
<rscale>  0 0.15565440E+04</rscale>
<asrwt>0</asrwt>
<pdfrwt beam="1">  1        2 0.12648950E+00 0.15565440E+04</pdfrwt>
<pdfrwt beam="2">  1       -1 0.11333958E+00 0.15565440E+04</pdfrwt>
<totfact> 0.25929504E+01</totfact>
</mgrwt>
</event>
<event>
12    6  0.8914180E-008  0.2571190E+04  0.7818608E-02  0.8378054E-01
         -1   -1    0    0    0  501 -0.00000000000E+00  0.00000000000E+00  0.73904004051E+03  0.73904004051E+03  0.00000000000E+00 0.  1.
          2   -1    0    0  501    0  0.00000000000E+00 -0.00000000000E+00 -0.22363532292E+04  0.22363532292E+04  0.00000000000E+00 0. -1.
         24    2    1    2    0    0  0.67231320526E+02  0.70699291839E+03 -0.16666135828E+04  0.18134874625E+04  0.82321959902E+02 0.  0.
        254    2    1    2    0    0 -0.67231320526E+02 -0.70699291839E+03  0.16930039415E+03  0.11619058072E+04  0.90388242832E+03 0.  0.
         23    2    4    4    0    0  0.20448197378E+03  0.12865672990E+03  0.87705998297E+02  0.27475181456E+03  0.97112232575E+02 0.  0.
         23    2    4    4    0    0 -0.27171329430E+03 -0.83564964829E+03  0.81594395857E+02  0.88715399264E+03  0.90808106659E+02 0.  0.
          4    1    3    3  502    0  0.84602303622E+02  0.52795463456E+03 -0.12719199162E+04  0.13797369021E+04  0.00000000000E+00 0. -1.
         -3    1    3    3    0  502 -0.17370983097E+02  0.17903828383E+03 -0.39469366659E+03  0.43375056032E+03  0.00000000000E+00 0.  1.
         11    1    5    5    0    0  0.11127071396E+03  0.13884684917E+02  0.30411402492E+02  0.11618437788E+03  0.00000000000E+00 0.  1.
        -11    1    5    5    0    0  0.93211259813E+02  0.11477204499E+03  0.57294595805E+02  0.15856743668E+03  0.00000000000E+00 0. -1.
          2    1    6    6  503    0 -0.26155745666E+03 -0.72227994504E+03  0.54258902684E+02  0.77009392328E+03  0.00000000000E+00 0. -1.
         -2    1    6    6    0  503 -0.10155837639E+02 -0.11336970325E+03  0.27335493173E+02  0.11706006936E+03  0.00000000000E+00 0.  1.
<mgrwt>
<rscale>  0 0.25711901E+04</rscale>
<asrwt>0</asrwt>
<pdfrwt beam="1">  1        2 0.34405435E+00 0.25711901E+04</pdfrwt>
<pdfrwt beam="2">  1       -1 0.11369847E+00 0.25711901E+04</pdfrwt>
<totfact> 0.35038286E+00</totfact>
</mgrwt>
</event>
<event>
12    6  0.8914180E-008  0.2124027E+04  0.7818608E-02  0.8550732E-01
          2   -1    0    0  501    0  0.00000000000E+00  0.00000000000E+00  0.28242230117E+04  0.28242230117E+04  0.00000000000E+00 0. -1.
         -1   -1    0    0    0  501 -0.00000000000E+00 -0.00000000000E+00 -0.39935684166E+03  0.39935684166E+03  0.00000000000E+00 0.  1.
         24    2    1    2    0    0 -0.25849885945E+01 -0.83039329229E+03  0.10583484941E+04  0.13476869059E+04  0.81232747344E+02 0.  0.
        254    2    1    2    0    0  0.25849885945E+01  0.83039329229E+03  0.13665176759E+04  0.18758929474E+04  0.98083846259E+03 0.  0.
         23    2    4    4    0    0 -0.33423378723E+03 -0.10795358203E+01  0.59553620883E+03  0.68888631562E+03  0.90485302059E+02 0.  0.
         23    2    4    4    0    0  0.33681877583E+03  0.83147282811E+03  0.77098146705E+03  0.11870066318E+04  0.98885640079E+02 0.  0.
          2    1    3    3  502    0 -0.24372300784E+02 -0.73662453452E+03  0.91322414176E+03  0.11735365555E+04  0.00000000000E+00 0. -1.
         -1    1    3    3    0  502  0.21787312189E+02 -0.93768757770E+02  0.14512435235E+03  0.17415035042E+03  0.00000000000E+00 0.  1.
         11    1    5    5    0    0 -0.85684354195E+02  0.39459230418E+02  0.15500094763E+03  0.18145008455E+03  0.00000000000E+00 0.  1.
        -11    1    5    5    0    0 -0.24854943304E+03 -0.40538766238E+02  0.44053526120E+03  0.50743623106E+03  0.00000000000E+00 0. -1.
          3    1    6    6  503    0  0.95616141813E+02  0.25629288142E+03  0.29589716988E+03  0.40296851339E+03  0.00000000000E+00 0.  1.
         -3    1    6    6    0  503  0.24120263401E+03  0.57517994670E+03  0.47508429717E+03  0.78403811843E+03  0.00000000000E+00 0. -1.
<mgrwt>
<rscale>  0 0.21240271E+04</rscale>
<asrwt>0</asrwt>
<pdfrwt beam="1">  1        2 0.43449583E+00 0.21240271E+04</pdfrwt>
<pdfrwt beam="2">  1       -1 0.61439516E-01 0.21240271E+04</pdfrwt>
<totfact> 0.62933344E+00</totfact>
</mgrwt>
</event>
<event>
12    6  0.8914180E-008  0.1511047E+04  0.7818608E-02  0.8877140E-01
          2   -1    0    0  501    0  0.00000000000E+00  0.00000000000E+00  0.83780646164E+03  0.83780646164E+03  0.00000000000E+00 0. -1.
         -3   -1    0    0    0  501 -0.00000000000E+00 -0.00000000000E+00 -0.68132151361E+03  0.68132151361E+03  0.00000000000E+00 0.  1.
         24    2    1    2    0    0 -0.21990183880E+03 -0.73488045328E+02 -0.37469906502E+03  0.44774689849E+03  0.79502102275E+02 0.  0.
        254    2    1    2    0    0  0.21990183880E+03  0.73488045328E+02  0.53118401304E+03  0.10713810768E+04  0.90107915546E+03 0.  0.
         23    2    4    4    0    0 -0.16579028529E+03 -0.27527690241E+03  0.14889974640E+02  0.33290215714E+03  0.85664130094E+02 0.  0.
         23    2    4    4    0    0  0.38569212409E+03  0.34876494774E+03  0.51629403840E+03  0.73847891962E+03  0.91630656891E+02 0.  0.
          2    1    3    3  502    0 -0.21436024445E+02  0.16541733417E+02 -0.45545206698E+02  0.52985827743E+02  0.00000000000E+00 0. -1.
         -1    1    3    3    0  502 -0.19846581435E+03 -0.90029778745E+02 -0.32915385832E+03  0.39476107074E+03  0.00000000000E+00 0.  1.
         11    1    5    5    0    0 -0.17715886126E+02  0.23749851946E+01 -0.13027477424E+00  0.17874846780E+02  0.00000000000E+00 0.  1.
        -11    1    5    5    0    0 -0.14807439916E+03 -0.27765188761E+03  0.15020249415E+02  0.31502731036E+03  0.00000000000E+00 0. -1.
          1    1    6    6  503    0  0.28032879864E+03  0.19518124545E+03  0.32506346488E+03  0.47153601147E+03  0.00000000000E+00 0. -1.
         -1    1    6    6    0  503  0.10536332545E+03  0.15358370229E+03  0.19123057353E+03  0.26694290815E+03  0.00000000000E+00 0.  1.
<mgrwt>
<rscale>  0 0.15110467E+04</rscale>
<asrwt>0</asrwt>
<pdfrwt beam="1">  1        2 0.12889330E+00 0.15110467E+04</pdfrwt>
<pdfrwt beam="2">  1       -3 0.10481869E+00 0.15110467E+04</pdfrwt>
<totfact> 0.15460980E+01</totfact>
</mgrwt>
</event>
<event>
12    6  0.8914180E-008  0.2975400E+04  0.7818608E-02  0.8250791E-01
          2   -1    0    0  501    0  0.00000000000E+00  0.00000000000E+00  0.20322194240E+04  0.20322194240E+04  0.00000000000E+00 0. -1.
         -1   -1    0    0    0  501 -0.00000000000E+00 -0.00000000000E+00 -0.10890807441E+04  0.10890807441E+04  0.00000000000E+00 0.  1.
         24    2    1    2    0    0  0.87813105242E+03 -0.90077035004E+03 -0.88982955778E+02  0.12636216134E+04  0.79499979110E+02 0.  0.
        254    2    1    2    0    0 -0.87813105242E+03  0.90077035004E+03  0.10321216357E+04  0.18576785547E+04  0.89621045129E+03 0.  0.
         23    2    4    4    0    0 -0.36837999650E+03  0.18975987613E+03  0.86346620824E+03  0.96198113269E+03  0.90117559183E+02 0.  0.
         23    2    4    4    0    0 -0.50975105592E+03  0.71101047391E+03  0.16865542751E+03  0.89569742204E+03  0.91908572000E+02 0.  0.
          2    1    3    3  502    0  0.80041570128E+02 -0.11665149749E+03 -0.32712287475E+01  0.14150945464E+03  0.00000000000E+00 0. -1.
         -1    1    3    3    0  502  0.79808948229E+03 -0.78411885255E+03 -0.85711727030E+02  0.11221121588E+04  0.00000000000E+00 0.  1.
         11    1    5    5    0    0  0.19817689434E+01 -0.51001396016E+01  0.89611488650E+01  0.10499572424E+02  0.00000000000E+00 0.  1.
        -11    1    5    5    0    0 -0.37036176545E+03  0.19486001573E+03  0.85450505937E+03  0.95148156027E+03  0.00000000000E+00 0. -1.
          2    1    6    6  503    0 -0.77703778836E+02  0.12829794022E+03 -0.39095781252E+01  0.15004507159E+03  0.00000000000E+00 0. -1.
         -2    1    6    6    0  503 -0.43204727708E+03  0.58271253369E+03  0.17256500563E+03  0.74565235045E+03  0.00000000000E+00 0.  1.
<mgrwt>
<rscale>  0 0.29753998E+04</rscale>
<asrwt>0</asrwt>
<pdfrwt beam="1">  1        2 0.31264914E+00 0.29753998E+04</pdfrwt>
<pdfrwt beam="2">  1       -1 0.16755088E+00 0.29753998E+04</pdfrwt>
<totfact> 0.16045024E+00</totfact>
</mgrwt>
</event>
<event>
12    6  0.8914180E-008  0.2555983E+04  0.7818608E-02  0.8383308E-01
         -1   -1    0    0    0  501 -0.00000000000E+00  0.00000000000E+00  0.95445218739E+03  0.95445218739E+03  0.00000000000E+00 0.  1.
          2   -1    0    0  501    0  0.00000000000E+00 -0.00000000000E+00 -0.17112044625E+04  0.17112044625E+04  0.00000000000E+00 0. -1.
         24    2    1    2    0    0  0.12434391580E+03  0.75551472891E+03  0.51573149623E+03  0.92696539148E+03  0.83797051356E+02 0.  0.
        254    2    1    2    0    0 -0.12434391580E+03 -0.75551472891E+03 -0.12724837714E+04  0.17386912584E+04  0.90419490641E+03 0.  0.
         23    2    4    4    0    0  0.14898683163E+03 -0.64262940778E+03 -0.12639299628E+04  0.14286390800E+04  0.91219725378E+02 0.  0.
         23    2    4    4    0    0 -0.27333074742E+03 -0.11288532113E+03 -0.85538085958E+01  0.31005217847E+03  0.92770644697E+02 0.  0.
          4    1    3    3  502    0  0.31249578654E+01  0.19100781805E+03  0.10112175204E+03  0.21614661842E+03  0.00000000000E+00 0. -1.
         -3    1    3    3    0  502  0.12121895793E+03  0.56450691086E+03  0.41460974419E+03  0.71081877306E+03  0.00000000000E+00 0.  1.
         11    1    5    5    0    0  0.15137285743E+03 -0.59766824348E+03 -0.12127596116E+04  0.13604804103E+04  0.00000000000E+00 0. -1.
        -11    1    5    5    0    0 -0.23860258024E+01 -0.44961164300E+02 -0.51170351116E+02  0.68158669644E+02  0.00000000000E+00 0.  1.
          4    1    6    6  503    0 -0.30618712063E+02  0.16103113860E+02  0.44857338179E+01  0.34884632896E+02  0.00000000000E+00 0.  1.
         -4    1    6    6    0  503 -0.24271203536E+03 -0.12898843499E+03 -0.13039542414E+02  0.27516754557E+03  0.00000000000E+00 0. -1.
<mgrwt>
<rscale>  0 0.25559834E+04</rscale>
<asrwt>0</asrwt>
<pdfrwt beam="1">  1        2 0.26326222E+00 0.25559834E+04</pdfrwt>
<pdfrwt beam="2">  1       -1 0.14683880E+00 0.25559834E+04</pdfrwt>
<totfact> 0.36097842E+00</totfact>
</mgrwt>
</event>
<event>
12    6  0.8914180E-008  0.2418945E+04  0.7818608E-02  0.8432445E-01
          2   -1    0    0  501    0  0.00000000000E+00  0.00000000000E+00  0.11438290347E+04  0.11438290347E+04  0.00000000000E+00 0. -1.
         -1   -1    0    0    0  501 -0.00000000000E+00 -0.00000000000E+00 -0.12788836599E+04  0.12788836599E+04  0.00000000000E+00 0.  1.
         24    2    1    2    0    0  0.66102250839E+03 -0.20602207386E+03  0.71886401147E+03  0.10012222591E+04  0.79276059925E+02 0.  0.
        254    2    1    2    0    0 -0.66102250839E+03  0.20602207386E+03 -0.85391863669E+03  0.14214904355E+04  0.90114492103E+03 0.  0.
         23    2    4    4    0    0 -0.70770512979E+03  0.17466886375E+03 -0.20435306937E+03  0.76317278888E+03  0.96523396268E+02 0.  0.
         23    2    4    4    0    0  0.46682621397E+02  0.31353210110E+02 -0.64956556732E+03  0.65831764665E+03  0.91018716345E+02 0.  0.
          4    1    3    3  502    0  0.39724290036E+03 -0.16383057105E+03  0.43612845559E+03  0.61225028189E+03  0.00000000000E+00 0. -1.
         -3    1    3    3    0  502  0.26377960803E+03 -0.42191502812E+02  0.28273555588E+03  0.38897197725E+03  0.00000000000E+00 0.  1.
         11    1    5    5    0    0 -0.30311241069E+02 -0.74460569848E+01  0.39218372070E+01  0.31457843328E+02  0.00000000000E+00 0.  1.
        -11    1    5    5    0    0 -0.67739388872E+03  0.18211492073E+03 -0.20827490658E+03  0.73171494555E+03  0.00000000000E+00 0. -1.
          1    1    6    6  503    0  0.67674952569E+02  0.19041905688E+02 -0.30958128917E+03  0.31746349079E+03  0.00000000000E+00 0. -1.
         -1    1    6    6    0  503 -0.20992331172E+02  0.12311304422E+02 -0.33998427815E+03  0.34085415587E+03  0.00000000000E+00 0.  1.
<mgrwt>
<rscale>  0 0.24189454E+04</rscale>
<asrwt>0</asrwt>
<pdfrwt beam="1">  1        2 0.17597370E+00 0.24189454E+04</pdfrwt>
<pdfrwt beam="2">  1       -1 0.19675133E+00 0.24189454E+04</pdfrwt>
<totfact> 0.33220761E+00</totfact>
</mgrwt>
</event>
<event>
12    6  0.8914180E-008  0.1401024E+04  0.7818608E-02  0.8953077E-01
         -1   -1    0    0    0  501 -0.00000000000E+00  0.00000000000E+00  0.47965917889E+03  0.47965917889E+03  0.00000000000E+00 0.  1.
          2   -1    0    0  501    0  0.00000000000E+00 -0.00000000000E+00 -0.10230540951E+04  0.10230540951E+04  0.00000000000E+00 0. -1.
         24    2    1    2    0    0  0.39631301596E+03 -0.62534088705E+02 -0.22903104537E+03  0.46877700995E+03  0.79511926384E+02 0.  0.
        254    2    1    2    0    0 -0.39631301596E+03  0.62534088705E+02 -0.31436387081E+03  0.10339362640E+04  0.89956936135E+03 0.  0.
         23    2    4    4    0    0 -0.48848488155E+03 -0.34657806086E+02 -0.55389024048E+03  0.74495492964E+03  0.91349907844E+02 0.  0.
         23    2    4    4    0    0  0.92171865591E+02  0.97191894790E+02  0.23952636967E+03  0.28898133437E+03  0.90528518311E+02 0.  0.
          2    1    3    3  502    0  0.24208109045E+03 -0.60202625307E+02 -0.17745278969E+03  0.30613249259E+03  0.00000000000E+00 0. -1.
         -1    1    3    3    0  502  0.15423192551E+03 -0.23314633971E+01 -0.51578255689E+02  0.16264451736E+03  0.00000000000E+00 0.  1.
         11    1    5    5    0    0 -0.70332498354E+02 -0.98314911675E+01 -0.38419253133E+02  0.80742538694E+02  0.00000000000E+00 0. -1.
        -11    1    5    5    0    0 -0.41815238320E+03 -0.24826314918E+02 -0.51547098734E+03  0.66421239094E+03  0.00000000000E+00 0.  1.
          2    1    6    6  503    0 -0.17715862397E+02  0.12765849287E+02  0.46409327093E+02  0.51289807270E+02  0.00000000000E+00 0. -1.
         -2    1    6    6    0  503  0.10988772799E+03  0.84426045503E+02  0.19311704258E+03  0.23769152710E+03  0.00000000000E+00 0.  1.
<mgrwt>
<rscale>  0 0.14010243E+04</rscale>
<asrwt>0</asrwt>
<pdfrwt beam="1">  1        2 0.15739294E+00 0.14010243E+04</pdfrwt>
<pdfrwt beam="2">  1       -1 0.73793720E-01 0.14010243E+04</pdfrwt>
<totfact> 0.50005510E+01</totfact>
</mgrwt>
</event>
<event>
12    6  0.8914180E-008  0.1238828E+04  0.7818608E-02  0.9079533E-01
          2   -1    0    0  501    0  0.00000000000E+00  0.00000000000E+00  0.89125140924E+03  0.89125140924E+03  0.00000000000E+00 0. -1.
         -1   -1    0    0    0  501 -0.00000000000E+00 -0.00000000000E+00 -0.43048865250E+03  0.43048865250E+03  0.00000000000E+00 0.  1.
         24    2    1    2    0    0 -0.71149714419E+01 -0.53274920901E+02 -0.15036216213E+03  0.18920192081E+03  0.10148766931E+03 0.  0.
        254    2    1    2    0    0  0.71149714419E+01  0.53274920901E+02  0.61112491887E+03  0.11325381409E+04  0.95198746535E+03 0.  0.
         23    2    4    4    0    0 -0.84696697606E+02  0.83876259401E+02 -0.23348427900E+03  0.27741648089E+03  0.90753720899E+02 0.  0.
         23    2    4    4    0    0  0.91811669048E+02 -0.30601338500E+02  0.84460919787E+03  0.85512166004E+03  0.92209174463E+02 0.  0.
          2    1    3    3  502    0 -0.13368506921E+02 -0.75047442448E+02 -0.62826339837E+02  0.98782511471E+02  0.00000000000E+00 0. -1.
         -1    1    3    3    0  502  0.62535354795E+01  0.21772521546E+02 -0.87535822295E+02  0.90419409340E+02  0.00000000000E+00 0.  1.
         11    1    5    5    0    0 -0.38162127326E+02  0.50800495597E+02 -0.38604665771E+02  0.74346207262E+02  0.00000000000E+00 0. -1.
        -11    1    5    5    0    0 -0.46534570280E+02  0.33075763804E+02 -0.19487961322E+03  0.20307027363E+03  0.00000000000E+00 0.  1.
          4    1    6    6  503    0  0.61153833608E+02 -0.46139350153E+02  0.30695709078E+03  0.31637206985E+03  0.00000000000E+00 0. -1.
         -4    1    6    6    0  503  0.30657835439E+02  0.15538011653E+02  0.53765210709E+03  0.53874959019E+03  0.00000000000E+00 0.  1.
<mgrwt>
<rscale>  0 0.12388279E+04</rscale>
<asrwt>0</asrwt>
<pdfrwt beam="1">  1        2 0.13711560E+00 0.12388279E+04</pdfrwt>
<pdfrwt beam="2">  1       -1 0.66229024E-01 0.12388279E+04</pdfrwt>
<totfact> 0.77154981E+01</totfact>
</mgrwt>
</event>
<event>
12    6  0.8914180E-008  0.1914477E+04  0.7818608E-02  0.8647684E-01
         -1   -1    0    0    0  501 -0.00000000000E+00  0.00000000000E+00  0.83151859663E+03  0.83151859663E+03  0.00000000000E+00 0.  1.
          2   -1    0    0  501    0  0.00000000000E+00 -0.00000000000E+00 -0.11019666467E+04  0.11019666467E+04  0.00000000000E+00 0. -1.
         24    2    1    2    0    0  0.12570777427E+03 -0.67638384732E+03  0.17982450221E+03  0.71551523119E+03  0.79546470912E+02 0.  0.
        254    2    1    2    0    0 -0.12570777427E+03  0.67638384732E+03 -0.45027255229E+03  0.12179700121E+04  0.89855886046E+03 0.  0.
         23    2    4    4    0    0 -0.38276266217E+03  0.62895077054E+03 -0.67619160422E+02  0.74574094046E+03  0.97318405838E+02 0.  0.
         23    2    4    4    0    0  0.25705488790E+03  0.47433076782E+02 -0.38265339186E+03  0.47222907168E+03  0.90827119698E+02 0.  0.
          2    1    3    3  502    0  0.74360820556E+02 -0.33040233394E+03  0.12740184262E+03  0.36183762023E+03  0.00000000000E+00 0. -1.
         -1    1    3    3    0  502  0.51346953718E+02 -0.34598151338E+03  0.52422659594E+02  0.35367761096E+03  0.00000000000E+00 0.  1.
         11    1    5    5    0    0 -0.25826620235E+03  0.39169200698E+03  0.92126949016E+00  0.46917470983E+03  0.00000000000E+00 0.  1.
        -11    1    5    5    0    0 -0.12449645982E+03  0.23725876356E+03 -0.68540429912E+02  0.27656623063E+03  0.00000000000E+00 0. -1.
          3    1    6    6  503    0  0.13008627747E+03  0.29410112891E+02 -0.11772686236E+03  0.17789606080E+03  0.00000000000E+00 0. -1.
         -3    1    6    6    0  503  0.12696861042E+03  0.18022963891E+02 -0.26492652950E+03  0.29433301088E+03  0.00000000000E+00 0.  1.
<mgrwt>
<rscale>  0 0.19144772E+04</rscale>
<asrwt>0</asrwt>
<pdfrwt beam="1">  1        2 0.16953333E+00 0.19144772E+04</pdfrwt>
<pdfrwt beam="2">  1       -1 0.12792594E+00 0.19144772E+04</pdfrwt>
<totfact> 0.12242791E+01</totfact>
</mgrwt>
</event>
<event>
12    6  0.8914180E-008  0.2419274E+04  0.7818608E-02  0.8432323E-01
         -1   -1    0    0    0  501 -0.00000000000E+00  0.00000000000E+00  0.80427862236E+03  0.80427862236E+03  0.00000000000E+00 0.  1.
          2   -1    0    0  501    0  0.00000000000E+00 -0.00000000000E+00 -0.18192975955E+04  0.18192975955E+04  0.00000000000E+00 0. -1.
         24    2    1    2    0    0  0.23470604257E+03  0.87296028087E+03 -0.99506943603E+03  0.13467488937E+04  0.80142509402E+02 0.  0.
        254    2    1    2    0    0 -0.23470604257E+03 -0.87296028087E+03 -0.19949537083E+02  0.12768273241E+04  0.90152285228E+03 0.  0.
         23    2    4    4    0    0 -0.36630966147E+03 -0.36267419412E+03 -0.36730296449E+03  0.63911284866E+03  0.88534888192E+02 0.  0.
         23    2    4    4    0    0  0.13160361890E+03 -0.51028608676E+03  0.34735342741E+03  0.63771447546E+03  0.91180841339E+02 0.  0.
          2    1    3    3  502    0  0.57725904611E+01  0.12694660047E+03 -0.13324850241E+03  0.18413018646E+03  0.00000000000E+00 0. -1.
         -3    1    3    3    0  502  0.22893345211E+03  0.74601368040E+03 -0.86182093361E+03  0.11626187072E+04  0.00000000000E+00 0.  1.
         11    1    5    5    0    0 -0.70797773759E+02 -0.10203551801E+03 -0.12678036240E+03  0.17747346843E+03  0.00000000000E+00 0.  1.
        -11    1    5    5    0    0 -0.29551188772E+03 -0.26063867610E+03 -0.24052260209E+03  0.46163938023E+03  0.00000000000E+00 0. -1.
          2    1    6    6  503    0  0.11450902001E+03 -0.26658508182E+03  0.20045884235E+03  0.35265233445E+03  0.00000000000E+00 0. -1.
         -2    1    6    6    0  503  0.17094598893E+02 -0.24370100494E+03  0.14689458506E+03  0.28506214101E+03  0.00000000000E+00 0.  1.
<mgrwt>
<rscale>  0 0.24192744E+04</rscale>
<asrwt>0</asrwt>
<pdfrwt beam="1">  1        2 0.27989193E+00 0.24192744E+04</pdfrwt>
<pdfrwt beam="2">  1       -1 0.12373518E+00 0.24192744E+04</pdfrwt>
<totfact> 0.49381556E+00</totfact>
</mgrwt>
</event>
<event>
12    6  0.8914180E-008  0.1974417E+04  0.7818608E-02  0.8618676E-01
         -1   -1    0    0    0  501 -0.00000000000E+00  0.00000000000E+00  0.95952695463E+03  0.95952695463E+03  0.00000000000E+00 0.  1.
          2   -1    0    0  501    0  0.00000000000E+00 -0.00000000000E+00 -0.10156890242E+04  0.10156890242E+04  0.00000000000E+00 0. -1.
         24    2    1    2    0    0  0.26919224913E+03  0.62245433163E+03  0.36423855361E+03  0.77395702172E+03  0.80161621633E+02 0.  0.
        254    2    1    2    0    0 -0.26919224913E+03 -0.62245433163E+03 -0.42040062319E+03  0.12012589571E+04  0.89798248097E+03 0.  0.
         23    2    4    4    0    0 -0.87499120996E+02 -0.68254908903E+03 -0.60449329701E+03  0.92069639761E+03  0.93489867574E+02 0.  0.
         23    2    4    4    0    0 -0.18169312814E+03  0.60094757400E+02  0.18409267382E+03  0.28056255951E+03  0.90561937749E+02 0.  0.
          2    1    3    3  502    0  0.27875047324E+01  0.53203763681E+01 -0.42897157226E+01  0.73809381729E+01  0.00000000000E+00 0. -1.
         -1    1    3    3    0  502  0.26640474440E+03  0.61713395526E+03  0.36852826933E+03  0.76657608355E+03  0.00000000000E+00 0.  1.
         11    1    5    5    0    0 -0.77052472245E+02 -0.47145967839E+03 -0.36439139249E+03  0.60082642980E+03  0.00000000000E+00 0.  1.
        -11    1    5    5    0    0 -0.10446648750E+02 -0.21108941064E+03 -0.24010190452E+03  0.31986996781E+03  0.00000000000E+00 0. -1.
          4    1    6    6  503    0 -0.37077032848E+02  0.51179218945E+02  0.33274211342E+02  0.71422629166E+02  0.00000000000E+00 0. -1.
         -4    1    6    6    0  503 -0.14461609529E+03  0.89155384551E+01  0.15081846247E+03  0.20913993035E+03  0.00000000000E+00 0.  1.
<mgrwt>
<rscale>  0 0.19744174E+04</rscale>
<asrwt>0</asrwt>
<pdfrwt beam="1">  1        2 0.15625985E+00 0.19744174E+04</pdfrwt>
<pdfrwt beam="2">  1       -1 0.14761953E+00 0.19744174E+04</pdfrwt>
<totfact> 0.95206349E+00</totfact>
</mgrwt>
</event>
<event>
12    6  0.8914180E-008  0.2413125E+04  0.7818608E-02  0.8434606E-01
          2   -1    0    0  501    0  0.00000000000E+00  0.00000000000E+00  0.84092721946E+03  0.84092721946E+03  0.00000000000E+00 0. -1.
         -1   -1    0    0    0  501 -0.00000000000E+00 -0.00000000000E+00 -0.17311762715E+04  0.17311762715E+04  0.00000000000E+00 0.  1.
         24    2    1    2    0    0  0.59530335984E+03 -0.64118028994E+03  0.21432295750E+03  0.90436756353E+03  0.80300095937E+02 0.  0.
        254    2    1    2    0    0 -0.59530335984E+03  0.64118028994E+03 -0.11045720096E+04  0.16677359275E+04  0.89205691800E+03 0.  0.
         23    2    4    4    0    0 -0.73108923850E+03  0.59005617562E+03 -0.56265510683E+03  0.10989438269E+04  0.91864031974E+02 0.  0.
         23    2    4    4    0    0  0.13578587866E+03  0.51124114317E+02 -0.54191690275E+03  0.56879210057E+03  0.93803221056E+02 0.  0.
          2    1    3    3  502    0  0.25757905215E+03 -0.30034264693E+03  0.59055913336E+02  0.40005034005E+03  0.00000000000E+00 0. -1.
         -1    1    3    3    0  502  0.33772430769E+03 -0.34083764301E+03  0.15526704417E+03  0.50431722348E+03  0.00000000000E+00 0.  1.
         11    1    5    5    0    0 -0.25056062456E+03  0.22335920846E+03 -0.15400075507E+03  0.36930501641E+03  0.00000000000E+00 0. -1.
        -11    1    5    5    0    0 -0.48052861394E+03  0.36669696716E+03 -0.40865435176E+03  0.72963881047E+03  0.00000000000E+00 0.  1.
          4    1    6    6  503    0 -0.11902697704E+02  0.11023450094E+02 -0.25909707316E+02  0.30569651581E+02  0.00000000000E+00 0. -1.
         -4    1    6    6    0  503  0.14768857636E+03  0.40100664223E+02 -0.51600719543E+03  0.53822244899E+03  0.00000000000E+00 0.  1.
<mgrwt>
<rscale>  0 0.24131252E+04</rscale>
<asrwt>0</asrwt>
<pdfrwt beam="1">  1        2 0.12937342E+00 0.24131252E+04</pdfrwt>
<pdfrwt beam="2">  1       -1 0.26633481E+00 0.24131252E+04</pdfrwt>
<totfact> 0.18009169E+00</totfact>
</mgrwt>
</event>
<event>
12    6  0.8914180E-008  0.2329765E+04  0.7818608E-02  0.8466277E-01
         -1   -1    0    0    0  501 -0.00000000000E+00  0.00000000000E+00  0.10507177639E+04  0.10507177639E+04  0.00000000000E+00 0.  1.
          2   -1    0    0  501    0  0.00000000000E+00 -0.00000000000E+00 -0.12914521425E+04  0.12914521425E+04  0.00000000000E+00 0. -1.
         24    2    1    2    0    0  0.98770536306E+03 -0.49743439008E+02 -0.20807440986E+03  0.10137329075E+04  0.79518259998E+02 0.  0.
        254    2    1    2    0    0 -0.98770536306E+03  0.49743439008E+02 -0.32659968685E+02  0.13284369989E+04  0.88636442424E+03 0.  0.
         23    2    4    4    0    0 -0.48879405100E+03  0.37564886450E+03  0.23995049270E+03  0.66686343072E+03  0.84254985579E+02 0.  0.
         23    2    4    4    0    0 -0.49891131206E+03 -0.32590542549E+03 -0.27261046138E+03  0.66157356818E+03  0.90753946461E+02 0.  0.
          2    1    3    3  502    0  0.86563505589E+03 -0.20363476670E+02 -0.16877355529E+03  0.88216961756E+03  0.00000000000E+00 0. -1.
         -1    1    3    3    0  502  0.12207030717E+03 -0.29379962337E+02 -0.39300854569E+02  0.13156328990E+03  0.00000000000E+00 0.  1.
         11    1    5    5    0    0 -0.57592606847E+02  0.33682780128E+02  0.58753234864E+00  0.66721684892E+02  0.00000000000E+00 0. -1.
        -11    1    5    5    0    0 -0.43120144415E+03  0.34196608437E+03  0.23936296035E+03  0.60014174583E+03  0.00000000000E+00 0.  1.
          4    1    6    6  503    0 -0.20635859584E+03 -0.17776049080E+03 -0.93783397544E+02  0.28805900060E+03  0.00000000000E+00 0. -1.
         -4    1    6    6    0  503 -0.29255271621E+03 -0.14814493469E+03 -0.17882706384E+03  0.37351456759E+03  0.00000000000E+00 0.  1.
<mgrwt>
<rscale>  0 0.23297654E+04</rscale>
<asrwt>0</asrwt>
<pdfrwt beam="1">  1        2 0.19868494E+00 0.23297654E+04</pdfrwt>
<pdfrwt beam="2">  1       -1 0.16164889E+00 0.23297654E+04</pdfrwt>
<totfact> 0.48947408E+00</totfact>
</mgrwt>
</event>
<event>
12    6  0.8914180E-008  0.2193491E+04  0.7818608E-02  0.8521142E-01
         -1   -1    0    0    0  501 -0.00000000000E+00  0.00000000000E+00  0.82671138943E+03  0.82671138943E+03  0.00000000000E+00 0.  1.
          2   -1    0    0  501    0  0.00000000000E+00 -0.00000000000E+00 -0.14549828970E+04  0.14549828970E+04  0.00000000000E+00 0. -1.
         24    2    1    2    0    0 -0.49408039585E+03  0.30318627573E+03  0.46772144150E+03  0.74917630029E+03  0.80401658640E+02 0.  0.
        254    2    1    2    0    0  0.49408039585E+03 -0.30318627573E+03 -0.10959929490E+04  0.15325179861E+04  0.90076272017E+03 0.  0.
         23    2    4    4    0    0 -0.22094502163E+01  0.25072556211E+03 -0.53077959743E+03  0.59428022998E+03  0.92594932587E+02 0.  0.
         23    2    4    4    0    0  0.49628984607E+03 -0.55391183784E+03 -0.56521335161E+03  0.93823775613E+03  0.87761146106E+02 0.  0.
          2    1    3    3  502    0 -0.21529465114E+03  0.86345867420E+02  0.19167357429E+03  0.30090888108E+03  0.00000000000E+00 0. -1.
         -1    1    3    3    0  502 -0.27878574471E+03  0.21684040831E+03  0.27604786721E+03  0.44826741921E+03  0.00000000000E+00 0.  1.
         11    1    5    5    0    0  0.72262565910E+01  0.25417182465E+03 -0.48725731833E+03  0.54961370935E+03  0.00000000000E+00 0. -1.
        -11    1    5    5    0    0 -0.94357068072E+01 -0.34462625438E+01 -0.43522279093E+02  0.44666520638E+02  0.00000000000E+00 0.  1.
          3    1    6    6  503    0  0.21242766650E+03 -0.19380956271E+03 -0.17889951401E+03  0.33866310133E+03  0.00000000000E+00 0.  1.
         -3    1    6    6    0  503  0.28386217957E+03 -0.36010227514E+03 -0.38631383760E+03  0.59957465479E+03  0.00000000000E+00 0. -1.
<mgrwt>
<rscale>  0 0.21934912E+04</rscale>
<asrwt>0</asrwt>
<pdfrwt beam="1">  1        2 0.22384352E+00 0.21934912E+04</pdfrwt>
<pdfrwt beam="2">  1       -1 0.12718637E+00 0.21934912E+04</pdfrwt>
<totfact> 0.75170735E+00</totfact>
</mgrwt>
</event>
<event>
12    6  0.8914180E-008  0.1507878E+04  0.7818608E-02  0.8879231E-01
          2   -1    0    0  501    0  0.00000000000E+00  0.00000000000E+00  0.12258974648E+04  0.12258974648E+04  0.00000000000E+00 0. -1.
         -1   -1    0    0    0  501 -0.00000000000E+00 -0.00000000000E+00 -0.46367987587E+03  0.46367987587E+03  0.00000000000E+00 0.  1.
         24    2    1    2    0    0 -0.71881098802E+02  0.26861401418E+03 -0.19163495868E+03  0.34721708346E+03  0.80717808947E+02 0.  0.
        254    2    1    2    0    0  0.71881098802E+02 -0.26861401418E+03  0.95385254758E+03  0.13423602572E+04  0.90264943168E+03 0.  0.
         23    2    4    4    0    0 -0.29920768869E+03  0.13725904910E+02  0.77197199491E+03  0.83311501626E+03  0.91794487533E+02 0.  0.
         23    2    4    4    0    0  0.37108878749E+03 -0.28233991909E+03  0.18188055267E+03  0.50924524092E+03  0.93954573274E+02 0.  0.
          4    1    3    3  502    0 -0.42248104766E+02  0.23576204671E+03 -0.18464197792E+03  0.30242570168E+03  0.00000000000E+00 0. -1.
         -3    1    3    3    0  502 -0.29632994036E+02  0.32851967472E+02 -0.69929807579E+01  0.44791381785E+02  0.00000000000E+00 0.  1.
         11    1    5    5    0    0 -0.96619558909E+02 -0.38492512671E+02  0.26395120610E+03  0.28370275271E+03  0.00000000000E+00 0.  1.
        -11    1    5    5    0    0 -0.20258812978E+03  0.52218417581E+02  0.50802078882E+03  0.54941226354E+03  0.00000000000E+00 0. -1.
          1    1    6    6  503    0  0.26826025485E+03 -0.25259851329E+03  0.14616124731E+03  0.39639965119E+03  0.00000000000E+00 0. -1.
         -1    1    6    6    0  503  0.10282853265E+03 -0.29741405800E+02  0.35719305360E+02  0.11284558973E+03  0.00000000000E+00 0.  1.
<mgrwt>
<rscale>  0 0.15078780E+04</rscale>
<asrwt>0</asrwt>
<pdfrwt beam="1">  1        2 0.18859961E+00 0.15078780E+04</pdfrwt>
<pdfrwt beam="2">  1       -1 0.71335366E-01 0.15078780E+04</pdfrwt>
<totfact> 0.39937844E+01</totfact>
</mgrwt>
</event>
<event>
12    6  0.8914180E-008  0.1654321E+04  0.7818608E-02  0.8787854E-01
          2   -1    0    0  501    0  0.00000000000E+00  0.00000000000E+00  0.18197169016E+04  0.18197169016E+04  0.00000000000E+00 0. -1.
         -1   -1    0    0    0  501 -0.00000000000E+00 -0.00000000000E+00 -0.37598939985E+03  0.37598939985E+03  0.00000000000E+00 0.  1.
         24    2    1    2    0    0 -0.41941159075E+03 -0.11459582489E+03  0.31884779643E+01  0.44244152558E+03  0.81890485606E+02 0.  0.
        254    2    1    2    0    0  0.41941159075E+03  0.11459582489E+03  0.14405390238E+04  0.17532647759E+04  0.89985910548E+03 0.  0.
         23    2    4    4    0    0 -0.52489259439E+02  0.30373040032E+03  0.10706171164E+04  0.11178669538E+04  0.91641901020E+02 0.  0.
         23    2    4    4    0    0  0.47190085018E+03 -0.18913457543E+03  0.36992190738E+03  0.63539782206E+03  0.91792563428E+02 0.  0.
          2    1    3    3  502    0 -0.33905654027E+03 -0.10618472291E+03 -0.26698743479E+02  0.35629672435E+03  0.00000000000E+00 0. -1.
         -1    1    3    3    0  502 -0.80355050473E+02 -0.84111019777E+01  0.29887221443E+02  0.86144801228E+02  0.00000000000E+00 0.  1.
         11    1    5    5    0    0  0.12719581860E+02  0.51046296971E+02  0.10272985147E+03  0.11541635317E+03  0.00000000000E+00 0. -1.
        -11    1    5    5    0    0 -0.65208841299E+02  0.25268410334E+03  0.96788726494E+03  0.10024506006E+04  0.00000000000E+00 0.  1.
          4    1    6    6  503    0  0.18117594014E+03 -0.97394305482E+02  0.10225393078E+03  0.22970902983E+03  0.00000000000E+00 0. -1.
         -4    1    6    6    0  503  0.29072491005E+03 -0.91740269946E+02  0.26766797659E+03  0.40568879223E+03  0.00000000000E+00 0.  1.
<mgrwt>
<rscale>  0 0.16543207E+04</rscale>
<asrwt>0</asrwt>
<pdfrwt beam="1">  1        2 0.27995644E+00 0.16543207E+04</pdfrwt>
<pdfrwt beam="2">  1       -1 0.57844524E-01 0.16543207E+04</pdfrwt>
<totfact> 0.27708882E+01</totfact>
</mgrwt>
</event>
<event>
12    6  0.8914180E-008  0.1571021E+04  0.7818608E-02  0.8838551E-01
         -1   -1    0    0    0  501 -0.00000000000E+00  0.00000000000E+00  0.78625767064E+03  0.78625767064E+03  0.00000000000E+00 0.  1.
          2   -1    0    0  501    0  0.00000000000E+00 -0.00000000000E+00 -0.78476384565E+03  0.78476384565E+03  0.00000000000E+00 0. -1.
         24    2    1    2    0    0 -0.36676631761E+03  0.31815574173E+03 -0.21901951669E+03  0.53848743997E+03  0.79111102828E+02 0.  0.
        254    2    1    2    0    0  0.36676631761E+03 -0.31815574173E+03  0.22051334168E+03  0.10325340763E+04  0.88417185952E+03 0.  0.
         23    2    4    4    0    0  0.49021935533E+03  0.13018947721E+03  0.17953275213E+02  0.51590827620E+03  0.92599746431E+02 0.  0.
         23    2    4    4    0    0 -0.12345303773E+03 -0.44834521894E+03  0.20256006647E+03  0.51662580012E+03  0.98069102935E+02 0.  0.
          4    1    3    3  502    0 -0.26139550790E+03  0.22789417437E+03 -0.11599572628E+03  0.36567523128E+03  0.00000000000E+00 0. -1.
         -3    1    3    3    0  502 -0.10537080971E+03  0.90261567367E+02 -0.10302379041E+03  0.17281220869E+03  0.00000000000E+00 0.  1.
         11    1    5    5    0    0  0.16184895934E+03  0.23969492808E+01 -0.11783443901E+02  0.16229504168E+03  0.00000000000E+00 0.  1.
        -11    1    5    5    0    0  0.32837039600E+03  0.12779252793E+03  0.29736719114E+02  0.35361323452E+03  0.00000000000E+00 0. -1.
          3    1    6    6  503    0 -0.34222556594E+02 -0.22797100883E+03  0.55657745475E+02  0.23714921227E+03  0.00000000000E+00 0. -1.
         -3    1    6    6    0  503 -0.89230481135E+02 -0.22037421011E+03  0.14690232099E+03  0.27947658785E+03  0.00000000000E+00 0.  1.
<mgrwt>
<rscale>  0 0.15710208E+04</rscale>
<asrwt>0</asrwt>
<pdfrwt beam="1">  1        2 0.12073290E+00 0.15710208E+04</pdfrwt>
<pdfrwt beam="2">  1       -1 0.12096272E+00 0.15710208E+04</pdfrwt>
<totfact> 0.23543743E+01</totfact>
</mgrwt>
</event>
<event>
12    6  0.8914180E-008  0.2206942E+04  0.7818608E-02  0.8515544E-01
          2   -1    0    0  501    0  0.00000000000E+00  0.00000000000E+00  0.18148896887E+04  0.18148896887E+04  0.00000000000E+00 0. -1.
         -3   -1    0    0    0  501 -0.00000000000E+00 -0.00000000000E+00 -0.67092109958E+03  0.67092109958E+03  0.00000000000E+00 0.  1.
         24    2    1    2    0    0  0.45083366574E+03 -0.72412640341E+03  0.86311757850E+03  0.12156952273E+04  0.73026633074E+02 0.  0.
        254    2    1    2    0    0 -0.45083366574E+03  0.72412640341E+03  0.28085101062E+03  0.12701155609E+04  0.89816825023E+03 0.  0.
         23    2    4    4    0    0  0.23244747725E+03  0.28493557901E+03 -0.62737435220E+02  0.38371499606E+03  0.89894930668E+02 0.  0.
         23    2    4    4    0    0 -0.68328114298E+03  0.43919082440E+03  0.34358844584E+03  0.88640056489E+03  0.88832655772E+02 0.  0.
          4    1    3    3  502    0  0.42703617287E+03 -0.65124471523E+03  0.77128965488E+03  0.10960690233E+04  0.00000000000E+00 0. -1.
         -3    1    3    3    0  502  0.23797492871E+02 -0.72881688184E+02  0.91827923617E+02  0.11962620405E+03  0.00000000000E+00 0.  1.
         11    1    5    5    0    0  0.71177329421E+02  0.33878378688E+02 -0.14493061471E+00  0.78828787704E+02  0.00000000000E+00 0. -1.
        -11    1    5    5    0    0  0.16127014783E+03  0.25105720032E+03 -0.62592504605E+02  0.30488620836E+03  0.00000000000E+00 0.  1.
          3    1    6    6  503    0 -0.46136658446E+02  0.65366660699E+01  0.13745240747E+02  0.48582413475E+02  0.00000000000E+00 0. -1.
         -3    1    6    6    0  503 -0.63714448454E+03  0.43265415833E+03  0.32984320509E+03  0.83781815141E+03  0.00000000000E+00 0.  1.
<mgrwt>
<rscale>  0 0.22069416E+04</rscale>
<asrwt>0</asrwt>
<pdfrwt beam="1">  1        2 0.27921380E+00 0.22069416E+04</pdfrwt>
<pdfrwt beam="2">  1       -3 0.10321863E+00 0.22069416E+04</pdfrwt>
<totfact> 0.39963659E+00</totfact>
</mgrwt>
</event>
<event>
12    6  0.8914180E-008  0.1510061E+04  0.7818608E-02  0.8877790E-01
          2   -1    0    0  501    0  0.00000000000E+00  0.00000000000E+00  0.46827822734E+03  0.46827822734E+03  0.00000000000E+00 0. -1.
         -1   -1    0    0    0  501 -0.00000000000E+00 -0.00000000000E+00 -0.12173766798E+04  0.12173766798E+04  0.00000000000E+00 0.  1.
         24    2    1    2    0    0 -0.31335951745E+03  0.32512896351E+03 -0.43471871097E+03  0.63182456025E+03  0.79491428332E+02 0.  0.
        254    2    1    2    0    0  0.31335951745E+03 -0.32512896351E+03 -0.31437974151E+03  0.10538303469E+04  0.89878848909E+03 0.  0.
         23    2    4    4    0    0  0.45582320391E+03  0.15960709799E+03 -0.14899406712E+03  0.51413648628E+03  0.94275529844E+02 0.  0.
         23    2    4    4    0    0 -0.14246368647E+03 -0.48473606150E+03 -0.16538567439E+03  0.53969386064E+03  0.93016614832E+02 0.  0.
          4    1    3    3  502    0 -0.37532504780E+02  0.43461039142E+02 -0.96976096633E+02  0.11270276907E+03  0.00000000000E+00 0. -1.
         -3    1    3    3    0  502 -0.27582701267E+03  0.28166792437E+03 -0.33774261433E+03  0.51912179118E+03  0.00000000000E+00 0.  1.
         11    1    5    5    0    0  0.16061471154E+03  0.53558322353E+02 -0.60347125848E+01  0.16941663795E+03  0.00000000000E+00 0.  1.
        -11    1    5    5    0    0  0.29520849237E+03  0.10604877564E+03 -0.14295935454E+03  0.34471984833E+03  0.00000000000E+00 0. -1.
          2    1    6    6  503    0 -0.13189224532E+03 -0.36455008455E+03 -0.91876380438E+02  0.39841385242E+03  0.00000000000E+00 0. -1.
         -2    1    6    6    0  503 -0.10571441148E+02 -0.12018597696E+03 -0.73509293953E+02  0.14128000822E+03  0.00000000000E+00 0.  1.
<mgrwt>
<rscale>  0 0.15100609E+04</rscale>
<asrwt>0</asrwt>
<pdfrwt beam="1">  1        2 0.72042804E-01 0.15100609E+04</pdfrwt>
<pdfrwt beam="2">  1       -1 0.18728872E+00 0.15100609E+04</pdfrwt>
<totfact> 0.13541091E+01</totfact>
</mgrwt>
</event>
<event>
12    6  0.8914180E-008  0.1552929E+04  0.7818608E-02  0.8849999E-01
          2   -1    0    0  501    0  0.00000000000E+00  0.00000000000E+00  0.16666035672E+04  0.16666035672E+04  0.00000000000E+00 0. -1.
         -1   -1    0    0    0  501 -0.00000000000E+00 -0.00000000000E+00 -0.36175183149E+03  0.36175183149E+03  0.00000000000E+00 0.  1.
         24    2    1    2    0    0  0.17977808841E+03 -0.39787787768E+03  0.88252440054E+02  0.45256134096E+03  0.79976918817E+02 0.  0.
        254    2    1    2    0    0 -0.17977808841E+03  0.39787787768E+03  0.12165992957E+04  0.15757940578E+04  0.90132463609E+03 0.  0.
         23    2    4    4    0    0 -0.18257202617E+03 -0.14490247311E+03  0.10467062178E+02  0.25000074690E+03  0.89786093621E+02 0.  0.
         23    2    4    4    0    0  0.27939377619E+01  0.54278035078E+03  0.12061322335E+04  0.13257933109E+04  0.91403627690E+02 0.  0.
          2    1    3    3  502    0 -0.14891535888E+01 -0.23563286398E+01  0.10150465122E+02  0.10526243645E+02  0.00000000000E+00 0. -1.
         -1    1    3    3    0  502  0.18126724199E+03 -0.39552154904E+03  0.78101974931E+02  0.44203509732E+03  0.00000000000E+00 0.  1.
         11    1    5    5    0    0 -0.10116083596E+03 -0.11351257289E+03 -0.28067921710E+02  0.15461703388E+03  0.00000000000E+00 0. -1.
        -11    1    5    5    0    0 -0.81411190205E+02 -0.31389900220E+02  0.38534983888E+02  0.95383713021E+02  0.00000000000E+00 0.  1.
          3    1    6    6  503    0 -0.35064736146E+02  0.21151781134E+03  0.53619713972E+03  0.57747440885E+03  0.00000000000E+00 0. -1.
         -3    1    6    6    0  503  0.37858673908E+02  0.33126253944E+03  0.66993509380E+03  0.74831890203E+03  0.00000000000E+00 0.  1.
<mgrwt>
<rscale>  0 0.15529287E+04</rscale>
<asrwt>0</asrwt>
<pdfrwt beam="1">  1        2 0.25640054E+00 0.15529287E+04</pdfrwt>
<pdfrwt beam="2">  1       -1 0.55654129E-01 0.15529287E+04</pdfrwt>
<totfact> 0.36641637E+01</totfact>
</mgrwt>
</event>
<event>
12    6  0.8914180E-008  0.1904343E+04  0.7818608E-02  0.8652697E-01
          2   -1    0    0  501    0  0.00000000000E+00  0.00000000000E+00  0.27032324591E+04  0.27032324591E+04  0.00000000000E+00 0. -1.
         -1   -1    0    0    0  501 -0.00000000000E+00 -0.00000000000E+00 -0.33538765172E+03  0.33538765172E+03  0.00000000000E+00 0.  1.
         24    2    1    2    0    0  0.70045979245E+03 -0.21475126653E+03  0.88691612401E+03  0.11531480390E+04  0.79800761037E+02 0.  0.
        254    2    1    2    0    0 -0.70045979245E+03  0.21475126653E+03  0.14809286833E+04  0.18854720718E+04  0.90834637726E+03 0.  0.
         23    2    4    4    0    0 -0.51556559899E+03 -0.10673784083E+03  0.23786966663E+03  0.58504504810E+03  0.92167654225E+02 0.  0.
         23    2    4    4    0    0 -0.18489419347E+03  0.32148910736E+03  0.12430590167E+04  0.13004270237E+04  0.91507464265E+02 0.  0.
          4    1    3    3  502    0  0.17172497725E+03 -0.34412694020E+02  0.16792282606E+03  0.24263506926E+03  0.00000000000E+00 0. -1.
         -3    1    3    3    0  502  0.52873481520E+03 -0.18033857251E+03  0.71899329795E+03  0.91051296972E+03  0.00000000000E+00 0.  1.
         11    1    5    5    0    0 -0.22285601238E+03 -0.79303370190E+02  0.14161441787E+03  0.27569633680E+03  0.00000000000E+00 0.  1.
        -11    1    5    5    0    0 -0.29270958661E+03 -0.27434470636E+02  0.96255248767E+02  0.30934871131E+03  0.00000000000E+00 0. -1.
          4    1    6    6  503    0 -0.61556564801E+02  0.36897808395E+02  0.24202166470E+03  0.25243839866E+03  0.00000000000E+00 0. -1.
         -4    1    6    6    0  503 -0.12333762867E+03  0.28459129896E+03  0.10010373520E+04  0.10479886250E+04  0.00000000000E+00 0.  1.
<mgrwt>
<rscale>  0 0.19043432E+04</rscale>
<asrwt>0</asrwt>
<pdfrwt beam="1">  1        2 0.41588190E+00 0.19043432E+04</pdfrwt>
<pdfrwt beam="2">  1       -1 0.51598102E-01 0.19043432E+04</pdfrwt>
<totfact> 0.10666158E+01</totfact>
</mgrwt>
</event>
<event>
12    6  0.8914180E-008  0.2881824E+04  0.7818608E-02  0.8278306E-01
         -1   -1    0    0    0  501 -0.00000000000E+00  0.00000000000E+00  0.75760235501E+03  0.75760235501E+03  0.00000000000E+00 0.  1.
          2   -1    0    0  501    0  0.00000000000E+00 -0.00000000000E+00 -0.27405232151E+04  0.27405232151E+04  0.00000000000E+00 0. -1.
         24    2    1    2    0    0 -0.55714179347E+02  0.11287707486E+04 -0.12146981467E+03  0.11396014653E+04  0.81909163205E+02 0.  0.
        254    2    1    2    0    0  0.55714179347E+02 -0.11287707486E+04 -0.18614510455E+04  0.23585241049E+04  0.90576403435E+03 0.  0.
         23    2    4    4    0    0  0.18649441163E+03 -0.11268186417E+04 -0.18803279564E+04  0.22018398549E+04  0.89247443476E+02 0.  0.
         23    2    4    4    0    0 -0.13078023228E+03 -0.19521069401E+01  0.18876910967E+02  0.15668424996E+03  0.84180380980E+02 0.  0.
          2    1    3    3  502    0  0.21110383939E+02  0.18084993905E+03 -0.18632949705E+02  0.18302878347E+03  0.00000000000E+00 0. -1.
         -1    1    3    3    0  502 -0.76824563286E+02  0.94792080958E+03 -0.10283686496E+03  0.95657268179E+03  0.00000000000E+00 0.  1.
         11    1    5    5    0    0  0.17096907220E+03 -0.10199242126E+04 -0.17482215830E+04  0.20311953442E+04  0.00000000000E+00 0. -1.
        -11    1    5    5    0    0  0.15525339425E+02 -0.10689442910E+03 -0.13210637348E+03  0.17064451076E+03  0.00000000000E+00 0.  1.
          2    1    6    6  503    0 -0.97727545710E+02 -0.15154639016E+02 -0.23192513768E+02  0.10157868364E+03  0.00000000000E+00 0. -1.
         -2    1    6    6    0  503 -0.33052686570E+02  0.13202532076E+02  0.42069424735E+02  0.55105566327E+02  0.00000000000E+00 0.  1.
<mgrwt>
<rscale>  0 0.28818236E+04</rscale>
<asrwt>0</asrwt>
<pdfrwt beam="1">  1        2 0.42161895E+00 0.28818236E+04</pdfrwt>
<pdfrwt beam="2">  1       -1 0.11655421E+00 0.28818236E+04</pdfrwt>
<totfact> 0.16389265E+00</totfact>
</mgrwt>
</event>
<event>
12    6  0.8914180E-008  0.2187190E+04  0.7818608E-02  0.8523779E-01
         -1   -1    0    0    0  501 -0.00000000000E+00  0.00000000000E+00  0.48498485720E+03  0.48498485720E+03  0.00000000000E+00 0.  1.
          2   -1    0    0  501    0  0.00000000000E+00 -0.00000000000E+00 -0.24659531386E+04  0.24659531386E+04  0.00000000000E+00 0. -1.
         24    2    1    2    0    0 -0.50027848265E+03  0.32350889132E+03  0.97851962685E+02  0.60896489755E+03  0.79540410344E+02 0.  0.
        254    2    1    2    0    0  0.50027848265E+03 -0.32350889132E+03 -0.20788202441E+04  0.23419730983E+04  0.89911502196E+03 0.  0.
         23    2    4    4    0    0  0.19006129645E+03 -0.38016526858E+03 -0.28798774298E+03  0.52141444920E+03  0.91033839241E+02 0.  0.
         23    2    4    4    0    0  0.31021718620E+03  0.56656377259E+02 -0.17908325011E+04  0.18205586491E+04  0.88927497955E+02 0.  0.
          4    1    3    3  502    0 -0.35503716673E+02  0.40694325106E+02  0.26791404242E+02  0.60285332666E+02  0.00000000000E+00 0. -1.
         -3    1    3    3    0  502 -0.46477476598E+03  0.28281456621E+03  0.71060558443E+02  0.54867956488E+03  0.00000000000E+00 0.  1.
         11    1    5    5    0    0  0.19828617400E+03 -0.37628790356E+03 -0.28430127564E+03  0.51160258844E+03  0.00000000000E+00 0.  1.
        -11    1    5    5    0    0 -0.82248775494E+01 -0.38773650188E+01 -0.36864673369E+01  0.98118607623E+01  0.00000000000E+00 0. -1.
          4    1    6    6  503    0  0.17798735727E+03  0.69505928972E+02 -0.11872835457E+04  0.12025609304E+04  0.00000000000E+00 0.  1.
         -4    1    6    6    0  503  0.13222982893E+03 -0.12849551713E+02 -0.60354895542E+03  0.61799771863E+03  0.00000000000E+00 0. -1.
<mgrwt>
<rscale>  0 0.21871899E+04</rscale>
<asrwt>0</asrwt>
<pdfrwt beam="1">  1        2 0.37937740E+00 0.21871899E+04</pdfrwt>
<pdfrwt beam="2">  1       -1 0.74613056E-01 0.21871899E+04</pdfrwt>
<totfact> 0.68561317E+00</totfact>
</mgrwt>
</event>
<event>
12    6  0.8914180E-008  0.1324552E+04  0.7818608E-02  0.9010319E-01
          2   -1    0    0  501    0  0.00000000000E+00  0.00000000000E+00  0.16756824709E+04  0.16756824709E+04  0.00000000000E+00 0. -1.
         -1   -1    0    0    0  501 -0.00000000000E+00 -0.00000000000E+00 -0.26174976648E+03  0.26174976648E+03  0.00000000000E+00 0.  1.
         24    2    1    2    0    0 -0.26078998264E+03 -0.67047184834E+02  0.70146811252E+03  0.75598744628E+03  0.83383247781E+02 0.  0.
        254    2    1    2    0    0  0.26078998264E+03  0.67047184834E+02  0.71246459193E+03  0.11814447911E+04  0.90316070535E+03 0.  0.
         23    2    4    4    0    0  0.15921561261E+02  0.96421155977E+01  0.86678039128E+03  0.87187207196E+03  0.92229044494E+02 0.  0.
         23    2    4    4    0    0  0.24486842138E+03  0.57405069236E+02 -0.15431579935E+03  0.30957271917E+03  0.93627008703E+02 0.  0.
          2    1    3    3  502    0 -0.21353206881E+03 -0.32282310290E+02  0.61213023137E+03  0.64910824377E+03  0.00000000000E+00 0. -1.
         -1    1    3    3    0  502 -0.47257913832E+02 -0.34764874544E+02  0.89337881154E+02  0.10687920252E+03  0.00000000000E+00 0.  1.
         11    1    5    5    0    0  0.20325147381E+02  0.40706025197E+02  0.73505674115E+03  0.73646351221E+03  0.00000000000E+00 0.  1.
        -11    1    5    5    0    0 -0.44035861206E+01 -0.31063909599E+02  0.13172365013E+03  0.13540855975E+03  0.00000000000E+00 0. -1.
          4    1    6    6  503    0  0.72542332026E+02  0.58631708092E+02 -0.33486701480E+02  0.99103109465E+02  0.00000000000E+00 0. -1.
         -4    1    6    6    0  503  0.17232608936E+03 -0.12266388559E+01 -0.12082909787E+03  0.21046960970E+03  0.00000000000E+00 0.  1.
<mgrwt>
<rscale>  0 0.13245520E+04</rscale>
<asrwt>0</asrwt>
<pdfrwt beam="1">  1        2 0.25779730E+00 0.13245520E+04</pdfrwt>
<pdfrwt beam="2">  1       -1 0.40269196E-01 0.13245520E+04</pdfrwt>
<totfact> 0.67852886E+01</totfact>
</mgrwt>
</event>
<event>
12    6  0.8914180E-008  0.1756197E+04  0.7818608E-02  0.8729947E-01
         -1   -1    0    0    0  501 -0.00000000000E+00  0.00000000000E+00  0.43737821182E+03  0.43737821182E+03  0.00000000000E+00 0.  1.
          2   -1    0    0  501    0  0.00000000000E+00 -0.00000000000E+00 -0.17629060884E+04  0.17629060884E+04  0.00000000000E+00 0. -1.
         24    2    1    2    0    0  0.18519730429E+03 -0.60424276822E+03 -0.33076662435E+03  0.71771735361E+03  0.79399467418E+02 0.  0.
        254    2    1    2    0    0 -0.18519730429E+03  0.60424276822E+03 -0.99476125220E+03  0.14825669466E+04  0.89947064310E+03 0.  0.
         23    2    4    4    0    0  0.12901568090E+03 -0.17352832038E+03 -0.34605125651E+03  0.41816030800E+03  0.91375309407E+02 0.  0.
         23    2    4    4    0    0 -0.31421298518E+03  0.77777108860E+03 -0.64870999570E+03  0.10644066386E+04  0.92082394872E+02 0.  0.
          2    1    3    3  502    0  0.39605631816E+02 -0.17265766110E+03 -0.56022032645E+02  0.18578951034E+03  0.00000000000E+00 0. -1.
         -1    1    3    3    0  502  0.14559167247E+03 -0.43158510711E+03 -0.27474459171E+03  0.53192784327E+03  0.00000000000E+00 0.  1.
         11    1    5    5    0    0  0.11517495840E+03 -0.17307881460E+03 -0.34674601047E+03  0.40429487120E+03  0.00000000000E+00 0. -1.
        -11    1    5    5    0    0  0.13840722493E+02 -0.44950578223E+00  0.69475396280E+00  0.13865436800E+02  0.00000000000E+00 0.  1.
          3    1    6    6  503    0 -0.24279557269E+03  0.67683052756E+03 -0.57274430619E+03  0.91928520788E+03  0.00000000000E+00 0. -1.
         -3    1    6    6    0  503 -0.71417412489E+02  0.10094056104E+03 -0.75965689510E+02  0.14512143071E+03  0.00000000000E+00 0.  1.
<mgrwt>
<rscale>  0 0.17561967E+04</rscale>
<asrwt>0</asrwt>
<pdfrwt beam="1">  1        2 0.27121632E+00 0.17561967E+04</pdfrwt>
<pdfrwt beam="2">  1       -1 0.67288957E-01 0.17561967E+04</pdfrwt>
<totfact> 0.21840174E+01</totfact>
</mgrwt>
</event>
<event>
12    6  0.8914180E-008  0.1411415E+04  0.7818608E-02  0.8945597E-01
          2   -1    0    0  501    0  0.00000000000E+00  0.00000000000E+00  0.21403540315E+04  0.21403540315E+04  0.00000000000E+00 0. -1.
         -1   -1    0    0    0  501 -0.00000000000E+00 -0.00000000000E+00 -0.23268256777E+03  0.23268256777E+03  0.00000000000E+00 0.  1.
         24    2    1    2    0    0 -0.10888153874E+03  0.40107801788E+03  0.47532392567E+03  0.63650343906E+03  0.80529669794E+02 0.  0.
        254    2    1    2    0    0  0.10888153874E+03 -0.40107801788E+03  0.14323475380E+04  0.17365331602E+04  0.88949939900E+03 0.  0.
         23    2    4    4    0    0  0.38307770755E+03 -0.11119743328E+02  0.27086007756E+03  0.47774886832E+03  0.89479723127E+02 0.  0.
         23    2    4    4    0    0 -0.27419616881E+03 -0.38995827455E+03  0.11614874605E+04  0.12587842919E+04  0.90740166165E+02 0.  0.
          2    1    3    3  502    0 -0.48911661083E+02  0.70295004672E+02  0.75844205807E+02  0.11439441344E+03  0.00000000000E+00 0. -1.
         -1    1    3    3    0  502 -0.59969877653E+02  0.33078301321E+03  0.39947971986E+03  0.52210902562E+03  0.00000000000E+00 0.  1.
         11    1    5    5    0    0  0.53800082220E+02 -0.41766348273E+01  0.81787836389E+02  0.97985423949E+02  0.00000000000E+00 0. -1.
        -11    1    5    5    0    0  0.32927762533E+03 -0.69431085003E+01  0.18907224118E+03  0.37976344437E+03  0.00000000000E+00 0.  1.
          1    1    6    6  503    0 -0.19090522346E+03 -0.20355544930E+03  0.61314181819E+03  0.67366350242E+03  0.00000000000E+00 0. -1.
         -1    1    6    6    0  503 -0.83290945353E+02 -0.18640282525E+03  0.54834564228E+03  0.58512078945E+03  0.00000000000E+00 0.  1.
<mgrwt>
<rscale>  0 0.14114150E+04</rscale>
<asrwt>0</asrwt>
<pdfrwt beam="1">  1        2 0.32928522E+00 0.14114150E+04</pdfrwt>
<pdfrwt beam="2">  1       -1 0.35797320E-01 0.14114150E+04</pdfrwt>
<totfact> 0.46097763E+01</totfact>
</mgrwt>
</event>
<event>
12    6  0.8914180E-008  0.1839023E+04  0.7818608E-02  0.8685818E-01
          2   -1    0    0  501    0  0.00000000000E+00  0.00000000000E+00  0.64612456539E+03  0.64612456539E+03  0.00000000000E+00 0. -1.
         -1   -1    0    0    0  501 -0.00000000000E+00 -0.00000000000E+00 -0.13085734326E+04  0.13085734326E+04  0.00000000000E+00 0.  1.
         24    2    1    2    0    0 -0.48821579789E+03 -0.30072179320E+03  0.16745975720E+03  0.60219034617E+03  0.76172045564E+02 0.  0.
        254    2    1    2    0    0  0.48821579789E+03  0.30072179320E+03 -0.82990862441E+03  0.13525076518E+04  0.90096634851E+03 0.  0.
         23    2    4    4    0    0 -0.18116194241E+03  0.32876593065E+03 -0.24815862533E+03  0.45924795514E+03  0.91756713308E+02 0.  0.
         23    2    4    4    0    0  0.66937774030E+03 -0.28044137451E+02 -0.58174999907E+03  0.89325969668E+03  0.10308632999E+03 0.  0.
          2    1    3    3  502    0 -0.25851805916E+03 -0.15344240218E+03  0.48445020327E+02  0.30450464314E+03  0.00000000000E+00 0. -1.
         -1    1    3    3    0  502 -0.22969773872E+03 -0.14727939102E+03  0.11901473687E+03  0.29768570303E+03  0.00000000000E+00 0.  1.
         11    1    5    5    0    0 -0.12030152534E+03  0.27624865557E+03 -0.16474850625E+03  0.34340624195E+03  0.00000000000E+00 0. -1.
        -11    1    5    5    0    0 -0.60860417075E+02  0.52517275089E+02 -0.83410119083E+02  0.11584171319E+03  0.00000000000E+00 0.  1.
          4    1    6    6  503    0  0.47807420543E+03 -0.22927955727E+02 -0.35130736808E+03  0.59371500227E+03  0.00000000000E+00 0. -1.
         -4    1    6    6    0  503  0.19130353487E+03 -0.51161817232E+01 -0.23044263099E+03  0.29954469441E+03  0.00000000000E+00 0.  1.
<mgrwt>
<rscale>  0 0.18390230E+04</rscale>
<asrwt>0</asrwt>
<pdfrwt beam="1">  1        2 0.99403779E-01 0.18390230E+04</pdfrwt>
<pdfrwt beam="2">  1       -1 0.20131899E+00 0.18390230E+04</pdfrwt>
<totfact> 0.71740336E+00</totfact>
</mgrwt>
</event>
<event>
12    6  0.8914180E-008  0.1686817E+04  0.7818608E-02  0.8768919E-01
          2   -1    0    0  501    0  0.00000000000E+00  0.00000000000E+00  0.18201349390E+04  0.18201349390E+04  0.00000000000E+00 0. -1.
         -1   -1    0    0    0  501 -0.00000000000E+00 -0.00000000000E+00 -0.39081597948E+03  0.39081597948E+03  0.00000000000E+00 0.  1.
         24    2    1    2    0    0 -0.75776443349E+01  0.13025594459E+03  0.12648266023E+04  0.12741502626E+04  0.81538493999E+02 0.  0.
        254    2    1    2    0    0  0.75776443349E+01 -0.13025594459E+03  0.16449235723E+03  0.93680065589E+03  0.91296971554E+03 0.  0.
         23    2    4    4    0    0  0.18150040116E+03  0.24803658108E+03  0.34779417623E+03  0.47275311979E+03  0.89834192139E+02 0.  0.
         23    2    4    4    0    0 -0.17392275683E+03 -0.37829252567E+03 -0.18330181900E+03  0.46404753609E+03  0.91576190050E+02 0.  0.
          4    1    3    3  502    0  0.12558934454E+02  0.11185698559E+03  0.11721766690E+04  0.11775686203E+04  0.00000000000E+00 0. -1.
         -3    1    3    3    0  502 -0.20136578788E+02  0.18398959005E+02  0.92649933295E+02  0.96581642341E+02  0.00000000000E+00 0.  1.
         11    1    5    5    0    0  0.10818121038E+03  0.12502170715E+03  0.12237937750E+03  0.20569470964E+03  0.00000000000E+00 0. -1.
        -11    1    5    5    0    0  0.73319190785E+02  0.12301487393E+03  0.22541479873E+03  0.26705841015E+03  0.00000000000E+00 0.  1.
          4    1    6    6  503    0 -0.80676116854E+02 -0.16864328240E+03 -0.33230127783E+02  0.18987741815E+03  0.00000000000E+00 0. -1.
         -4    1    6    6    0  503 -0.93246639972E+02 -0.20964924327E+03 -0.15007169121E+03  0.27417011795E+03  0.00000000000E+00 0.  1.
<mgrwt>
<rscale>  0 0.16868169E+04</rscale>
<asrwt>0</asrwt>
<pdfrwt beam="1">  1        2 0.28002076E+00 0.16868169E+04</pdfrwt>
<pdfrwt beam="2">  1       -1 0.60125536E-01 0.16868169E+04</pdfrwt>
<totfact> 0.25592004E+01</totfact>
</mgrwt>
</event>
<event>
12    6  0.8914180E-008  0.1721951E+04  0.7818608E-02  0.8748943E-01
          2   -1    0    0  501    0  0.00000000000E+00  0.00000000000E+00  0.30702832353E+04  0.30702832353E+04  0.00000000000E+00 0. -1.
         -1   -1    0    0    0  501 -0.00000000000E+00 -0.00000000000E+00 -0.24143673432E+03  0.24143673432E+03  0.00000000000E+00 0.  1.
         24    2    1    2    0    0  0.61393677672E+03  0.78252724259E+02  0.12066390335E+04  0.13584897443E+04  0.80465978102E+02 0.  0.
        254    2    1    2    0    0 -0.61393677672E+03 -0.78252724259E+02  0.16222074675E+04  0.19532302253E+04  0.89471190379E+03 0.  0.
         23    2    4    4    0    0 -0.33767780064E+03  0.36679164908E+03  0.50341374320E+03  0.71464916867E+03  0.93464573834E+02 0.  0.
         23    2    4    4    0    0 -0.27625897608E+03 -0.44504437334E+03  0.11187937243E+04  0.12385810566E+04  0.89443391140E+02 0.  0.
          2    1    3    3  502    0  0.40223224979E+03  0.88724577705E+02  0.77838846786E+03  0.88065398447E+03  0.00000000000E+00 0. -1.
         -1    1    3    3    0  502  0.21170452693E+03 -0.10471853446E+02  0.42825056559E+03  0.47783575983E+03  0.00000000000E+00 0.  1.
         11    1    5    5    0    0 -0.19121837544E+03  0.20106805160E+03  0.21404886963E+03  0.35044221645E+03  0.00000000000E+00 0.  1.
        -11    1    5    5    0    0 -0.14645942519E+03  0.16572359748E+03  0.28936487357E+03  0.36420695222E+03  0.00000000000E+00 0. -1.
          4    1    6    6  503    0 -0.87353188714E+02 -0.12565887603E+03  0.42625389199E+03  0.45289415225E+03  0.00000000000E+00 0.  1.
         -4    1    6    6    0  503 -0.18890578737E+03 -0.31938549730E+03  0.69253983230E+03  0.78568690438E+03  0.00000000000E+00 0. -1.
<mgrwt>
<rscale>  0 0.17219514E+04</rscale>
<asrwt>0</asrwt>
<pdfrwt beam="1">  1        2 0.47235124E+00 0.17219514E+04</pdfrwt>
<pdfrwt beam="2">  1       -1 0.37144115E-01 0.17219514E+04</pdfrwt>
<totfact> 0.11913389E+01</totfact>
</mgrwt>
</event>
<event>
12    6  0.8914180E-008  0.1216066E+04  0.7818608E-02  0.9098909E-01
         -3   -1    0    0    0  501 -0.00000000000E+00  0.00000000000E+00  0.78563174622E+03  0.78563174622E+03  0.00000000000E+00 0.  1.
          2   -1    0    0  501    0  0.00000000000E+00 -0.00000000000E+00 -0.47058198266E+03  0.47058198266E+03  0.00000000000E+00 0. -1.
         24    2    1    2    0    0 -0.13842029455E+03 -0.18248193082E+03  0.21927818743E+03  0.32544190871E+03  0.73278096589E+02 0.  0.
        254    2    1    2    0    0  0.13842029455E+03  0.18248193082E+03  0.95771576130E+02  0.93077182017E+03  0.89705303823E+03 0.  0.
         23    2    4    4    0    0 -0.34242784649E+03  0.24782300528E+03  0.51050343608E+02  0.43485806452E+03  0.88443918416E+02 0.  0.
         23    2    4    4    0    0  0.48084814103E+03 -0.65341074451E+02  0.44721232522E+02  0.49591375565E+03  0.91902522566E+02 0.  0.
          2    1    3    3  502    0 -0.16057364132E+02 -0.25516028694E+01  0.41114675913E+02  0.44212737933E+02  0.00000000000E+00 0. -1.
         -3    1    3    3    0  502 -0.12236293041E+03 -0.17993032795E+03  0.17816351152E+03  0.28122917077E+03  0.00000000000E+00 0.  1.
         11    1    5    5    0    0 -0.11673162152E+03  0.48018768153E+02  0.42912317235E+02  0.13331744270E+03  0.00000000000E+00 0. -1.
        -11    1    5    5    0    0 -0.22569622497E+03  0.19980423712E+03  0.81380263727E+01  0.30154062183E+03  0.00000000000E+00 0.  1.
          2    1    6    6  503    0  0.16231355870E+03 -0.34508993152E+02 -0.26545387961E+02  0.16805124090E+03  0.00000000000E+00 0. -1.
         -2    1    6    6    0  503  0.31853458233E+03 -0.30832081300E+02  0.71266620483E+02  0.32786251474E+03  0.00000000000E+00 0.  1.
<mgrwt>
<rscale>  0 0.12160660E+04</rscale>
<asrwt>0</asrwt>
<pdfrwt beam="1">  1        2 0.72397228E-01 0.12160660E+04</pdfrwt>
<pdfrwt beam="2">  1       -3 0.12086642E+00 0.12160660E+04</pdfrwt>
<totfact> 0.22726477E+01</totfact>
</mgrwt>
</event>
<event>
12    6  0.8914180E-008  0.1190677E+04  0.7818608E-02  0.9121057E-01
         -1   -1    0    0    0  501 -0.00000000000E+00  0.00000000000E+00  0.15315729331E+03  0.15315729331E+03  0.00000000000E+00 0.  1.
          2   -1    0    0  501    0  0.00000000000E+00 -0.00000000000E+00 -0.23141415434E+04  0.23141415434E+04  0.00000000000E+00 0. -1.
         24    2    1    2    0    0 -0.73247910971E+01 -0.22739597779E+03 -0.68262369482E+03  0.72381882327E+03  0.78587511180E+02 0.  0.
        254    2    1    2    0    0  0.73247910971E+01  0.22739597779E+03 -0.14783605553E+04  0.17434800135E+04  0.89577343264E+03 0.  0.
         23    2    4    4    0    0 -0.11047904068E+03 -0.27313205548E+03 -0.95582823605E+03  0.10043287680E+04  0.90895100351E+02 0.  0.
         23    2    4    4    0    0  0.11780383178E+03  0.50052803327E+03 -0.52253231927E+03  0.73915124547E+03  0.94331776900E+02 0.  0.
          2    1    3    3  502    0 -0.80130559106E+00 -0.16911556455E+03 -0.59355294505E+03  0.61717567583E+03  0.00000000000E+00 0. -1.
         -1    1    3    3    0  502 -0.65234855060E+01 -0.58280413245E+02 -0.89070749768E+02  0.10664314744E+03  0.00000000000E+00 0.  1.
         11    1    5    5    0    0 -0.75552140404E+02 -0.12525996948E+03 -0.34191356910E+03  0.37189121340E+03  0.00000000000E+00 0. -1.
        -11    1    5    5    0    0 -0.34926900275E+02 -0.14787208600E+03 -0.61391466695E+03  0.63243755461E+03  0.00000000000E+00 0.  1.
          2    1    6    6  503    0  0.24355910187E+02  0.14367048440E+03 -0.21035185190E+03  0.25589513486E+03  0.00000000000E+00 0. -1.
         -2    1    6    6    0  503  0.93447921589E+02  0.35685754887E+03 -0.31218046737E+03  0.48325611061E+03  0.00000000000E+00 0.  1.
<mgrwt>
<rscale>  0 0.11906765E+04</rscale>
<asrwt>0</asrwt>
<pdfrwt beam="1">  1        2 0.35602176E+00 0.11906765E+04</pdfrwt>
<pdfrwt beam="2">  1       -1 0.23562661E-01 0.11906765E+04</pdfrwt>
<totfact> 0.77923054E+01</totfact>
</mgrwt>
</event>
<event>
12    6  0.8914180E-008  0.2187159E+04  0.7818608E-02  0.8523792E-01
          2   -1    0    0  501    0  0.00000000000E+00  0.00000000000E+00  0.22521267886E+04  0.22521267886E+04  0.00000000000E+00 0. -1.
         -1   -1    0    0    0  501 -0.00000000000E+00 -0.00000000000E+00 -0.53101649201E+03  0.53101649201E+03  0.00000000000E+00 0.  1.
         24    2    1    2    0    0  0.32122761090E+02 -0.90324210652E+03  0.89188115857E+03  0.12722849108E+04  0.79866879357E+02 0.  0.
        254    2    1    2    0    0 -0.32122761090E+02  0.90324210652E+03  0.82922913804E+03  0.15108583698E+04  0.88215297742E+03 0.  0.
         23    2    4    4    0    0  0.29392908114E+03  0.55835304504E+03  0.80516824383E+03  0.10269131598E+04  0.90012828226E+02 0.  0.
         23    2    4    4    0    0 -0.32605184223E+03  0.34488906148E+03  0.24060894212E+02  0.48394521004E+03  0.91464589577E+02 0.  0.
          2    1    3    3  502    0 -0.89265048183E+01 -0.69207431733E+03  0.68766226758E+03  0.97566691931E+03  0.00000000000E+00 0. -1.
         -1    1    3    3    0  502  0.41049265909E+02 -0.21116778919E+03  0.20421889099E+03  0.29661799146E+03  0.00000000000E+00 0.  1.
         11    1    5    5    0    0  0.65579310904E+02  0.13642697377E+03  0.13570168840E+03  0.20329267922E+03  0.00000000000E+00 0.  1.
        -11    1    5    5    0    0  0.22834977023E+03  0.42192607128E+03  0.66946655543E+03  0.82362048058E+03  0.00000000000E+00 0. -1.
          1    1    6    6  503    0 -0.70522012742E+02  0.13554814446E+03  0.14384134146E+02  0.15347168164E+03  0.00000000000E+00 0. -1.
         -1    1    6    6    0  503 -0.25552982949E+03  0.20934091701E+03  0.96767600661E+01  0.33047352841E+03  0.00000000000E+00 0.  1.
<mgrwt>
<rscale>  0 0.21871593E+04</rscale>
<asrwt>0</asrwt>
<pdfrwt beam="1">  1        2 0.34648104E+00 0.21871593E+04</pdfrwt>
<pdfrwt beam="2">  1       -1 0.81694846E-01 0.21871593E+04</pdfrwt>
<totfact> 0.74945670E+00</totfact>
</mgrwt>
</event>
<event>
12    6  0.8914180E-008  0.2687243E+04  0.7818608E-02  0.8339156E-01
         -1   -1    0    0    0  501 -0.00000000000E+00  0.00000000000E+00  0.14273119909E+04  0.14273119909E+04  0.00000000000E+00 0.  1.
          2   -1    0    0  501    0  0.00000000000E+00 -0.00000000000E+00 -0.12648383028E+04  0.12648383028E+04  0.00000000000E+00 0. -1.
         24    2    1    2    0    0  0.10327798980E+04 -0.57925755593E+03  0.21510960723E+03  0.12062187147E+04  0.80732959231E+02 0.  0.
        254    2    1    2    0    0 -0.10327798980E+04  0.57925755593E+03 -0.52635919168E+02  0.14859315790E+04  0.89612972478E+03 0.  0.
         23    2    4    4    0    0 -0.54990642202E+03  0.76009981263E+03 -0.14664253686E+03  0.95385408877E+03  0.90469834295E+02 0.  0.
         23    2    4    4    0    0 -0.48287347599E+03 -0.18084225670E+03  0.94006617697E+02  0.53207749022E+03  0.91643307464E+02 0.  0.
          2    1    3    3  502    0  0.40706254588E+03 -0.24029992337E+03  0.12470287405E+03  0.48887091979E+03  0.00000000000E+00 0. -1.
         -1    1    3    3    0  502  0.62571735213E+03 -0.33895763256E+03  0.90406733186E+02  0.71734779489E+03  0.00000000000E+00 0.  1.
         11    1    5    5    0    0 -0.38221537699E+03  0.58997910592E+03 -0.93733560378E+02  0.70918962216E+03  0.00000000000E+00 0. -1.
        -11    1    5    5    0    0 -0.16769104502E+03  0.17012070671E+03 -0.52908976487E+02  0.24466446661E+03  0.00000000000E+00 0.  1.
          1    1    6    6  503    0 -0.41128885886E+03 -0.17110285905E+03  0.10829288293E+03  0.45843435985E+03  0.00000000000E+00 0. -1.
         -1    1    6    6    0  503 -0.71584617138E+02 -0.97393976473E+01 -0.14286265229E+02  0.73643130375E+02  0.00000000000E+00 0.  1.
<mgrwt>
<rscale>  0 0.26872431E+04</rscale>
<asrwt>0</asrwt>
<pdfrwt beam="1">  1        2 0.19459051E+00 0.26872431E+04</pdfrwt>
<pdfrwt beam="2">  1       -1 0.21958646E+00 0.26872431E+04</pdfrwt>
<totfact> 0.19211050E+00</totfact>
</mgrwt>
</event>
<event>
12    6  0.8914180E-008  0.1518369E+04  0.7818608E-02  0.8872329E-01
          2   -1    0    0  501    0  0.00000000000E+00  0.00000000000E+00  0.18717147801E+04  0.18717147801E+04  0.00000000000E+00 0. -1.
         -1   -1    0    0    0  501 -0.00000000000E+00 -0.00000000000E+00 -0.30793197631E+03  0.30793197631E+03  0.00000000000E+00 0.  1.
         24    2    1    2    0    0  0.11320247284E+03 -0.13668939894E+03  0.11611868410E+04  0.11768953320E+04  0.72311487898E+02 0.  0.
        254    2    1    2    0    0 -0.11320247284E+03  0.13668939894E+03  0.40259596285E+03  0.10027514244E+04  0.90107054007E+03 0.  0.
         23    2    4    4    0    0 -0.35547230778E+03  0.41599560826E+02  0.57066526893E+03  0.68041457372E+03  0.95989884420E+02 0.  0.
         23    2    4    4    0    0  0.24226983493E+03  0.95089838112E+02 -0.16806930609E+03  0.32233685067E+03  0.88977544476E+02 0.  0.
          2    1    3    3  502    0  0.89371485847E+02 -0.13033206967E+03  0.10933928040E+04  0.11047540607E+04  0.00000000000E+00 0. -1.
         -1    1    3    3    0  502  0.23830986996E+02 -0.63573292724E+01  0.67794037018E+02  0.72141271349E+02  0.00000000000E+00 0.  1.
         11    1    5    5    0    0 -0.62619718836E+02  0.28091606922E+02  0.17498897564E+03  0.18796677676E+03  0.00000000000E+00 0. -1.
        -11    1    5    5    0    0 -0.29285258894E+03  0.13507953904E+02  0.39567629329E+03  0.49244779697E+03  0.00000000000E+00 0.  1.
          1    1    6    6  503    0 -0.30637553243E+01 -0.26802829672E+01 -0.18259795488E+02  0.18708036902E+02  0.00000000000E+00 0. -1.
         -1    1    6    6    0  503  0.24533359026E+03  0.97770121079E+02 -0.14980951060E+03  0.30362881377E+03  0.00000000000E+00 0.  1.
<mgrwt>
<rscale>  0 0.15183686E+04</rscale>
<asrwt>0</asrwt>
<pdfrwt beam="1">  1        2 0.28795611E+00 0.15183686E+04</pdfrwt>
<pdfrwt beam="2">  1       -1 0.47374151E-01 0.15183686E+04</pdfrwt>
<totfact> 0.38480325E+01</totfact>
</mgrwt>
</event>
<event>
12    6  0.8914180E-008  0.1269021E+04  0.7818608E-02  0.9054499E-01
          2   -1    0    0  501    0  0.00000000000E+00  0.00000000000E+00  0.64235254331E+03  0.64235254331E+03  0.00000000000E+00 0. -1.
         -1   -1    0    0    0  501 -0.00000000000E+00 -0.00000000000E+00 -0.62676392188E+03  0.62676392188E+03  0.00000000000E+00 0.  1.
         24    2    1    2    0    0 -0.89781498730E+02  0.34490533380E+02 -0.32547059948E+03  0.35247801290E+03  0.95180481423E+02 0.  0.
        254    2    1    2    0    0  0.89781498730E+02 -0.34490533380E+02  0.34105922091E+03  0.91663845230E+03  0.84537231186E+03 0.  0.
         23    2    4    4    0    0  0.18446133324E+02  0.36348676145E+03  0.33442868234E+03  0.50284744923E+03  0.92466902388E+02 0.  0.
         23    2    4    4    0    0  0.71335365405E+02 -0.39797729483E+03  0.66305385648E+01  0.41379100307E+03  0.87774532872E+02 0.  0.
          2    1    3    3  502    0 -0.18994332049E+02  0.54585311071E+02 -0.10240338830E+03  0.11758739206E+03  0.00000000000E+00 0. -1.
         -1    1    3    3    0  502 -0.70787166681E+02 -0.20094777691E+02 -0.22306721118E+03  0.23489062084E+03  0.00000000000E+00 0.  1.
         11    1    5    5    0    0  0.15541188186E+02  0.13608316627E+03  0.18709193590E+03  0.23186968140E+03  0.00000000000E+00 0.  1.
        -11    1    5    5    0    0  0.29049451378E+01  0.22740359518E+03  0.14733674644E+03  0.27097776783E+03  0.00000000000E+00 0. -1.
          1    1    6    6  503    0  0.76812335787E+02 -0.22141918450E+03  0.27273630163E+02  0.23594584357E+03  0.00000000000E+00 0. -1.
         -1    1    6    6    0  503 -0.54769703815E+01 -0.17655811033E+03 -0.20643091598E+02  0.17784515950E+03  0.00000000000E+00 0.  1.
<mgrwt>
<rscale>  0 0.12690207E+04</rscale>
<asrwt>0</asrwt>
<pdfrwt beam="1">  1        2 0.98823468E-01 0.12690207E+04</pdfrwt>
<pdfrwt beam="2">  1       -1 0.96425219E-01 0.12690207E+04</pdfrwt>
<totfact> 0.53045244E+01</totfact>
</mgrwt>
</event>
<event>
12    6  0.8914180E-008  0.2673424E+04  0.7818608E-02  0.8343680E-01
         -1   -1    0    0    0  501 -0.00000000000E+00  0.00000000000E+00  0.11512546807E+04  0.11512546807E+04  0.00000000000E+00 0.  1.
          2   -1    0    0  501    0  0.00000000000E+00 -0.00000000000E+00 -0.15520451967E+04  0.15520451967E+04  0.00000000000E+00 0. -1.
         24    2    1    2    0    0 -0.10491254003E+04  0.16865119705E+03 -0.70677825473E+03  0.12787862974E+04  0.81557104961E+02 0.  0.
        254    2    1    2    0    0  0.10491254003E+04 -0.16865119705E+03  0.30598773867E+03  0.14245135800E+04  0.89805518295E+03 0.  0.
         23    2    4    4    0    0  0.22149503198E+03 -0.23137738834E+03  0.46743173061E+03  0.57403206423E+03  0.91786943270E+02 0.  0.
         23    2    4    4    0    0  0.82763036830E+03  0.62726191287E+02 -0.16144399193E+03  0.85048151578E+03  0.91367634033E+02 0.  0.
          2    1    3    3  502    0 -0.30086177444E+03  0.60994270833E+02 -0.16311865605E+03  0.34762883130E+03  0.00000000000E+00 0. -1.
         -1    1    3    3    0  502 -0.74826362583E+03  0.10765692622E+03 -0.54365959868E+03  0.93115746613E+03  0.00000000000E+00 0.  1.
         11    1    5    5    0    0  0.10912192885E+02  0.26130415675E+01  0.49794317651E+02  0.51042903621E+02  0.00000000000E+00 0.  1.
        -11    1    5    5    0    0  0.21058283909E+03 -0.23399042991E+03  0.41763741296E+03  0.52298916060E+03  0.00000000000E+00 0. -1.
          3    1    6    6  503    0  0.71041184861E+03  0.77365843101E+02 -0.16018640984E+03  0.73234565215E+03  0.00000000000E+00 0. -1.
         -3    1    6    6    0  503  0.11721851969E+03 -0.14639651814E+02 -0.12575820953E+01  0.11813586363E+03  0.00000000000E+00 0.  1.
<mgrwt>
<rscale>  0 0.26734242E+04</rscale>
<asrwt>0</asrwt>
<pdfrwt beam="1">  1        2 0.23877619E+00 0.26734242E+04</pdfrwt>
<pdfrwt beam="2">  1       -1 0.17711610E+00 0.26734242E+04</pdfrwt>
<totfact> 0.25935531E+00</totfact>
</mgrwt>
</event>
<event>
12    6  0.8914180E-008  0.2053954E+04  0.7818608E-02  0.8581803E-01
          2   -1    0    0  501    0  0.00000000000E+00  0.00000000000E+00  0.27035019545E+04  0.27035019545E+04  0.00000000000E+00 0. -1.
         -1   -1    0    0    0  501 -0.00000000000E+00 -0.00000000000E+00 -0.39011690602E+03  0.39011690602E+03  0.00000000000E+00 0.  1.
         24    2    1    2    0    0  0.36971929214E+03 -0.43151507364E+03  0.21310370444E+02  0.57400993844E+03  0.78330477965E+02 0.  0.
        254    2    1    2    0    0 -0.36971929214E+03  0.43151507364E+03  0.22920746780E+04  0.25196089221E+04  0.87859272520E+03 0.  0.
         23    2    4    4    0    0  0.56411221021E+02 -0.20818314046E+03  0.28335113809E+03  0.36676902390E+03  0.87802070624E+02 0.  0.
         23    2    4    4    0    0 -0.42613051316E+03  0.63969821410E+03  0.20087235399E+04  0.21528398982E+04  0.94595707658E+02 0.  0.
          2    1    3    3  502    0  0.18403684287E+02 -0.40438023134E+02  0.18949776336E+02  0.48301380244E+02  0.00000000000E+00 0. -1.
         -1    1    3    3    0  502  0.35131560786E+03 -0.39107705051E+03  0.23605941082E+01  0.52570855820E+03  0.00000000000E+00 0.  1.
         11    1    5    5    0    0 -0.15563898510E+02 -0.45812498640E+02  0.28562043175E+02  0.56185498830E+02  0.00000000000E+00 0.  1.
        -11    1    5    5    0    0  0.71975119531E+02 -0.16237064182E+03  0.25478909491E+03  0.31058352507E+03  0.00000000000E+00 0. -1.
          2    1    6    6  503    0 -0.16160872541E+03  0.22037565255E+03  0.83898108738E+03  0.88236731204E+03  0.00000000000E+00 0. -1.
         -2    1    6    6    0  503 -0.26452178775E+03  0.41932256155E+03  0.11697424525E+04  0.12704725861E+04  0.00000000000E+00 0.  1.
<mgrwt>
<rscale>  0 0.20539541E+04</rscale>
<asrwt>0</asrwt>
<pdfrwt beam="1">  1        2 0.41592337E+00 0.20539541E+04</pdfrwt>
<pdfrwt beam="2">  1       -1 0.60017987E-01 0.20539541E+04</pdfrwt>
<totfact> 0.78393605E+00</totfact>
</mgrwt>
</event>
<event>
12    6  0.8914180E-008  0.1689322E+04  0.7818608E-02  0.8767478E-01
         -1   -1    0    0    0  501 -0.00000000000E+00  0.00000000000E+00  0.96391167592E+03  0.96391167592E+03  0.00000000000E+00 0.  1.
          2   -1    0    0  501    0  0.00000000000E+00 -0.00000000000E+00 -0.74016379184E+03  0.74016379184E+03  0.00000000000E+00 0. -1.
         24    2    1    2    0    0  0.52209180704E+03  0.27956673021E+03  0.19716278247E+03  0.62918625600E+03  0.79150302230E+02 0.  0.
        254    2    1    2    0    0 -0.52209180704E+03 -0.27956673021E+03  0.26585101614E+02  0.10748892117E+04  0.89662848398E+03 0.  0.
         23    2    4    4    0    0  0.13130371577E+03  0.42100859237E+02 -0.24220155964E+03  0.29319685974E+03  0.91047542223E+02 0.  0.
         23    2    4    4    0    0 -0.65339552281E+03 -0.32166758944E+03  0.26878666126E+03  0.78169235201E+03  0.91656514172E+02 0.  0.
          4    1    3    3  502    0  0.53619111143E+02  0.18510837652E+02 -0.28689557679E+01  0.56796928592E+02  0.00000000000E+00 0. -1.
         -3    1    3    3    0  502  0.46847269589E+03  0.26105589256E+03  0.20003173823E+03  0.57238932741E+03  0.00000000000E+00 0.  1.
         11    1    5    5    0    0  0.49935783156E+02  0.48071639714E+01 -0.17280200856E+03  0.17993672618E+03  0.00000000000E+00 0.  1.
        -11    1    5    5    0    0  0.81367932616E+02  0.37293695266E+02 -0.69399551084E+02  0.11326013357E+03  0.00000000000E+00 0. -1.
          4    1    6    6  503    0 -0.59859452516E+03 -0.27263283859E+03  0.22055328896E+03  0.69374910702E+03  0.00000000000E+00 0. -1.
         -4    1    6    6    0  503 -0.54800997652E+02 -0.49034750853E+02  0.48233372296E+02  0.87943244982E+02  0.00000000000E+00 0.  1.
<mgrwt>
<rscale>  0 0.16893224E+04</rscale>
<asrwt>0</asrwt>
<pdfrwt beam="1">  1        2 0.11387135E+00 0.16893224E+04</pdfrwt>
<pdfrwt beam="2">  1       -1 0.14829410E+00 0.16893224E+04</pdfrwt>
<totfact> 0.14927002E+01</totfact>
</mgrwt>
</event>
<event>
12    6  0.8914180E-008  0.1944856E+04  0.7818608E-02  0.8632845E-01
          2   -1    0    0  501    0  0.00000000000E+00  0.00000000000E+00  0.18316535816E+04  0.18316535816E+04  0.00000000000E+00 0. -1.
         -1   -1    0    0    0  501 -0.00000000000E+00 -0.00000000000E+00 -0.51626345133E+03  0.51626345133E+03  0.00000000000E+00 0.  1.
         24    2    1    2    0    0  0.56333767138E+03  0.41632371113E+03  0.15661863313E+03  0.72231104735E+03  0.80802774969E+02 0.  0.
        254    2    1    2    0    0 -0.56333767138E+03 -0.41632371113E+03  0.11587714972E+04  0.16256059856E+04  0.89953803330E+03 0.  0.
         23    2    4    4    0    0  0.89021332556E+02  0.16040280338E+03  0.50082752750E+02  0.21295210652E+03  0.95846025297E+02 0.  0.
         23    2    4    4    0    0 -0.65235900393E+03 -0.57672651451E+03  0.11086887444E+04  0.14126538791E+04  0.90633920573E+02 0.  0.
          4    1    3    3  502    0  0.80768802233E+01  0.84538786056E+01  0.14869211690E+02  0.18915536310E+02  0.00000000000E+00 0. -1.
         -3    1    3    3    0  502  0.55526079115E+03  0.40786983252E+03  0.14174942144E+03  0.70339551104E+03  0.00000000000E+00 0.  1.
         11    1    5    5    0    0  0.81264743807E+02  0.16645585217E+03  0.63938626161E+02  0.19595830481E+03  0.00000000000E+00 0. -1.
        -11    1    5    5    0    0  0.77565887493E+01 -0.60530487888E+01 -0.13855873410E+02  0.16993801712E+02  0.00000000000E+00 0.  1.
          3    1    6    6  503    0 -0.56694524487E+03 -0.53114345282E+03  0.95601387565E+03  0.12318696394E+04  0.00000000000E+00 0. -1.
         -3    1    6    6    0  503 -0.85413759067E+02 -0.45583061690E+02  0.15267486877E+03  0.18078423965E+03  0.00000000000E+00 0.  1.
<mgrwt>
<rscale>  0 0.19448556E+04</rscale>
<asrwt>0</asrwt>
<pdfrwt beam="1">  1        2 0.28179286E+00 0.19448556E+04</pdfrwt>
<pdfrwt beam="2">  1       -1 0.79425147E-01 0.19448556E+04</pdfrwt>
<totfact> 0.13949132E+01</totfact>
</mgrwt>
</event>
<event>
12    6  0.8914180E-008  0.3064075E+04  0.7818608E-02  0.8225667E-01
          2   -1    0    0  501    0  0.00000000000E+00  0.00000000000E+00  0.18990578498E+04  0.18990578498E+04  0.00000000000E+00 0. -1.
         -1   -1    0    0    0  501 -0.00000000000E+00 -0.00000000000E+00 -0.12359488725E+04  0.12359488725E+04  0.00000000000E+00 0.  1.
         24    2    1    2    0    0 -0.12579270659E+04 -0.24586209528E+03 -0.26794388005E+03  0.13119436711E+04  0.81077743191E+02 0.  0.
        254    2    1    2    0    0  0.12579270659E+04  0.24586209528E+03  0.93105285733E+03  0.18230630511E+04  0.90214787719E+03 0.  0.
         23    2    4    4    0    0  0.86415177245E+02  0.72919268260E+02  0.55827648994E+03  0.57816695319E+03  0.99093814140E+02 0.  0.
         23    2    4    4    0    0  0.11715118886E+04  0.17294282703E+03  0.37277636739E+03  0.12448960979E+04  0.91949703522E+02 0.  0.
          2    1    3    3  502    0 -0.77605121234E+03 -0.12873413200E+03 -0.19739310394E+03  0.81104377095E+03  0.00000000000E+00 0. -1.
         -1    1    3    3    0  502 -0.48187585353E+03 -0.11712796328E+03 -0.70550776106E+02  0.50089990019E+03  0.00000000000E+00 0.  1.
         11    1    5    5    0    0  0.34643117829E+02 -0.18688218132E+02  0.90298253887E+02  0.98504668747E+02  0.00000000000E+00 0. -1.
        -11    1    5    5    0    0  0.51772059415E+02  0.91607486391E+02  0.46797823605E+03  0.47966228444E+03  0.00000000000E+00 0.  1.
          2    1    6    6  503    0  0.10902405705E+04  0.13687560331E+03  0.34811081037E+03  0.11526233421E+04  0.00000000000E+00 0. -1.
         -2    1    6    6    0  503  0.81271318101E+02  0.36067223715E+02  0.24665557028E+02  0.92272755870E+02  0.00000000000E+00 0.  1.
<mgrwt>
<rscale>  0 0.30640747E+04</rscale>
<asrwt>0</asrwt>
<pdfrwt beam="1">  1        2 0.29216275E+00 0.30640747E+04</pdfrwt>
<pdfrwt beam="2">  1       -1 0.19014598E+00 0.30640747E+04</pdfrwt>
<totfact> 0.12984346E+00</totfact>
</mgrwt>
</event>
<event>
12    6  0.8914180E-008  0.1778859E+04  0.7818608E-02  0.8717623E-01
         -1   -1    0    0    0  501 -0.00000000000E+00  0.00000000000E+00  0.37332916515E+03  0.37332916515E+03  0.00000000000E+00 0.  1.
          2   -1    0    0  501    0  0.00000000000E+00 -0.00000000000E+00 -0.21190009097E+04  0.21190009097E+04  0.00000000000E+00 0. -1.
         24    2    1    2    0    0  0.50660636087E+03 -0.29493360051E+02 -0.12474233372E+04  0.13490280424E+04  0.79320953743E+02 0.  0.
        254    2    1    2    0    0 -0.50660636087E+03  0.29493360051E+02 -0.49824840738E+03  0.11433020325E+04  0.89519171074E+03 0.  0.
         23    2    4    4    0    0 -0.13215516439E+03 -0.16911770309E+03 -0.64488279188E+03  0.68563340699E+03  0.90297112584E+02 0.  0.
         23    2    4    4    0    0 -0.37445119648E+03  0.19861106314E+03  0.14663438450E+03  0.45766862554E+03  0.91098162133E+02 0.  0.
          2    1    3    3  502    0  0.42688395212E+03 -0.16781809890E+02 -0.96593861904E+03  0.10561955091E+04  0.00000000000E+00 0. -1.
         -1    1    3    3    0  502  0.79722408741E+02 -0.12711550161E+02 -0.28148471817E+03  0.29283253325E+03  0.00000000000E+00 0.  1.
         11    1    5    5    0    0 -0.92646412365E+02 -0.14111599809E+03 -0.58361384091E+03  0.60753781606E+03  0.00000000000E+00 0.  1.
        -11    1    5    5    0    0 -0.39508752022E+02 -0.28001704996E+02 -0.61268950966E+02  0.78095590922E+02  0.00000000000E+00 0. -1.
          3    1    6    6  503    0 -0.36695967968E+03  0.17349410719E+03  0.12836586924E+03  0.42571987049E+03  0.00000000000E+00 0.  1.
         -3    1    6    6    0  503 -0.74915167997E+01  0.25116955947E+02  0.18268515259E+02  0.31948755058E+02  0.00000000000E+00 0. -1.
<mgrwt>
<rscale>  0 0.17788590E+04</rscale>
<asrwt>0</asrwt>
<pdfrwt beam="1">  1        2 0.32600015E+00 0.17788590E+04</pdfrwt>
<pdfrwt beam="2">  1       -1 0.57435254E-01 0.17788590E+04</pdfrwt>
<totfact> 0.18960357E+01</totfact>
</mgrwt>
</event>
<event>
12    6  0.8914180E-008  0.1280510E+04  0.7818608E-02  0.9045165E-01
          2   -1    0    0  501    0  0.00000000000E+00  0.00000000000E+00  0.24093448374E+04  0.24093448374E+04  0.00000000000E+00 0. -1.
         -1   -1    0    0    0  501 -0.00000000000E+00 -0.00000000000E+00 -0.17014021633E+03  0.17014021633E+03  0.00000000000E+00 0.  1.
         24    2    1    2    0    0  0.25870957724E+03 -0.11962112310E+03  0.65259469091E+03  0.71790203856E+03  0.90904608852E+02 0.  0.
        254    2    1    2    0    0 -0.25870957724E+03  0.11962112310E+03  0.15866099302E+04  0.18615830152E+04  0.93108559945E+03 0.  0.
         23    2    4    4    0    0 -0.13356166152E+03  0.13310201064E+03 -0.51239516038E+02  0.21631914293E+03  0.92809595038E+02 0.  0.
         23    2    4    4    0    0 -0.12514791572E+03 -0.13480887537E+02  0.16378494462E+04  0.16452638723E+04  0.92188208494E+02 0.  0.
          2    1    3    3  502    0  0.26322754721E+03 -0.12158160022E+03  0.65112018726E+03  0.71276105770E+03  0.00000000000E+00 0. -1.
         -1    1    3    3    0  502 -0.45179699655E+01  0.19604771158E+01  0.14745036515E+01  0.51409808548E+01  0.00000000000E+00 0.  1.
         11    1    5    5    0    0  0.10535878169E+02  0.11442256001E+02 -0.19720016843E+02  0.25115911599E+02  0.00000000000E+00 0. -1.
        -11    1    5    5    0    0 -0.14409753969E+03  0.12165975464E+03 -0.31519499195E+02  0.19120323133E+03  0.00000000000E+00 0.  1.
          4    1    6    6  503    0 -0.56229263059E+02  0.12462931991E+02  0.30553759789E+03  0.31091844337E+03  0.00000000000E+00 0. -1.
         -4    1    6    6    0  503 -0.68918652665E+02 -0.25943819528E+02  0.13323118483E+04  0.13343454289E+04  0.00000000000E+00 0.  1.
<mgrwt>
<rscale>  0 0.12805100E+04</rscale>
<asrwt>0</asrwt>
<pdfrwt beam="1">  1        2 0.37066841E+00 0.12805100E+04</pdfrwt>
<pdfrwt beam="2">  1       -1 0.26175420E-01 0.12805100E+04</pdfrwt>
<totfact> 0.57040358E+01</totfact>
</mgrwt>
</event>
<event>
12    6  0.8914180E-008  0.2251522E+04  0.7818608E-02  0.8497284E-01
          2   -1    0    0  501    0  0.00000000000E+00  0.00000000000E+00  0.24393589117E+04  0.24393589117E+04  0.00000000000E+00 0. -1.
         -1   -1    0    0    0  501 -0.00000000000E+00 -0.00000000000E+00 -0.51953717414E+03  0.51953717414E+03  0.00000000000E+00 0.  1.
         24    2    1    2    0    0 -0.47651482473E+03  0.27185149486E+03 -0.20239780409E+03  0.59018665990E+03  0.79911256922E+02 0.  0.
        254    2    1    2    0    0  0.47651482473E+03 -0.27185149486E+03  0.21222195416E+04  0.23687094259E+04  0.89777444168E+03 0.  0.
         23    2    4    4    0    0  0.61796704269E+03  0.54940219585E+02  0.93237888857E+03  0.11234824003E+04  0.89334306659E+02 0.  0.
         23    2    4    4    0    0 -0.14145221797E+03 -0.32679171445E+03  0.11898406531E+04  0.12452270256E+04  0.89822107894E+02 0.  0.
          4    1    3    3  502    0 -0.15614748353E+03  0.61237804869E+02 -0.32566842004E+02  0.17085872689E+03  0.00000000000E+00 0. -1.
         -3    1    3    3    0  502 -0.32036734120E+03  0.21061368999E+03 -0.16983096208E+03  0.41932793301E+03  0.00000000000E+00 0.  1.
         11    1    5    5    0    0  0.51452639869E+03  0.12197933329E+02  0.77674476653E+03  0.93178250513E+03  0.00000000000E+00 0. -1.
        -11    1    5    5    0    0  0.10344064400E+03  0.42742286255E+02  0.15563412204E+03  0.19169989517E+03  0.00000000000E+00 0.  1.
          1    1    6    6  503    0 -0.88749409855E+02 -0.14635807599E+03  0.69826856416E+03  0.71894097939E+03  0.00000000000E+00 0. -1.
         -1    1    6    6    0  503 -0.52702808114E+02 -0.18043363846E+03  0.49157208891E+03  0.52628604624E+03  0.00000000000E+00 0.  1.
<mgrwt>
<rscale>  0 0.22515218E+04</rscale>
<asrwt>0</asrwt>
<pdfrwt beam="1">  1        2 0.37528598E+00 0.22515218E+04</pdfrwt>
<pdfrwt beam="2">  1       -1 0.79928797E-01 0.22515218E+04</pdfrwt>
<totfact> 0.61082470E+00</totfact>
</mgrwt>
</event>
<event>
12    6  0.8914180E-008  0.2166608E+04  0.7818608E-02  0.8532457E-01
         -1   -1    0    0    0  501 -0.00000000000E+00  0.00000000000E+00  0.84582005836E+03  0.84582005836E+03  0.00000000000E+00 0.  1.
          2   -1    0    0  501    0  0.00000000000E+00 -0.00000000000E+00 -0.13874670828E+04  0.13874670828E+04  0.00000000000E+00 0. -1.
         24    2    1    2    0    0  0.13712875427E+03  0.31088736698E+03 -0.10782278464E+04  0.11333021488E+04  0.79644344854E+02 0.  0.
        254    2    1    2    0    0 -0.13712875427E+03 -0.31088736698E+03  0.53658082195E+03  0.10999849923E+04  0.89810509106E+03 0.  0.
         23    2    4    4    0    0 -0.72845771542E+02  0.30091441819E+03  0.92728518692E+02  0.33615880620E+03  0.92456321013E+02 0.  0.
         23    2    4    4    0    0 -0.64282982732E+02 -0.61180178518E+03  0.44385230326E+03  0.76382618610E+03  0.89397143381E+02 0.  0.
          2    1    3    3  502    0  0.56197885841E+02  0.15034433712E+03 -0.63563688064E+03  0.65558818332E+03  0.00000000000E+00 0. -1.
         -1    1    3    3    0  502  0.80930868434E+02  0.16054302986E+03 -0.44259096571E+03  0.47771396550E+03  0.00000000000E+00 0.  1.
         11    1    5    5    0    0 -0.44263991219E+02  0.13961132948E+03 -0.28708504306E+01  0.14648845013E+03  0.00000000000E+00 0.  1.
        -11    1    5    5    0    0 -0.28581780323E+02  0.16130308871E+03  0.95599369123E+02  0.18967035607E+03  0.00000000000E+00 0. -1.
          3    1    6    6  503    0 -0.80011011686E+01 -0.35698176774E+03  0.21549879233E+03  0.41706082244E+03  0.00000000000E+00 0. -1.
         -3    1    6    6    0  503 -0.56281881564E+02 -0.25482001744E+03  0.22835351093E+03  0.34676536366E+03  0.00000000000E+00 0.  1.
<mgrwt>
<rscale>  0 0.21666079E+04</rscale>
<asrwt>0</asrwt>
<pdfrwt beam="1">  1        2 0.21345647E+00 0.21666079E+04</pdfrwt>
<pdfrwt beam="2">  1       -1 0.13012617E+00 0.21666079E+04</pdfrwt>
<totfact> 0.77740745E+00</totfact>
</mgrwt>
</event>
<event>
12    6  0.8914180E-008  0.1265688E+04  0.7818608E-02  0.9057226E-01
         -1   -1    0    0    0  501 -0.00000000000E+00  0.00000000000E+00  0.17592363499E+03  0.17592363499E+03  0.00000000000E+00 0.  1.
          2   -1    0    0  501    0  0.00000000000E+00 -0.00000000000E+00 -0.22765081784E+04  0.22765081784E+04  0.00000000000E+00 0. -1.
         24    2    1    2    0    0 -0.71371787071E+02 -0.10056968435E+03 -0.72273066445E+03  0.73741587563E+03  0.78958007160E+02 0.  0.
        254    2    1    2    0    0  0.71371787071E+02  0.10056968435E+03 -0.13778538789E+04  0.17150159377E+04  0.10137012191E+04 0.  0.
         23    2    4    4    0    0 -0.34206496509E+03 -0.18339607866E+03 -0.23202780264E+03  0.46095406775E+03  0.89438187402E+02 0.  0.
         23    2    4    4    0    0  0.41343675216E+03  0.28396576302E+03 -0.11458260763E+04  0.12540618700E+04  0.90483556658E+02 0.  0.
          4    1    3    3  502    0 -0.71573873257E+02 -0.10182116813E+03 -0.72457019431E+03  0.73518183880E+03  0.00000000000E+00 0. -1.
         -1    1    3    3    0  502  0.20208618566E+00  0.12514837718E+01  0.18395298624E+01  0.22340368332E+01  0.00000000000E+00 0.  1.
         11    1    5    5    0    0 -0.30004087779E+03 -0.12880091364E+03 -0.21162441284E+03  0.38910036727E+03  0.00000000000E+00 0. -1.
        -11    1    5    5    0    0 -0.42024087297E+02 -0.54595165023E+02 -0.20403389803E+02  0.71853700479E+02  0.00000000000E+00 0.  1.
          3    1    6    6  503    0  0.37746390727E+03  0.27344724893E+03 -0.99675111529E+03  0.11003477564E+04  0.00000000000E+00 0. -1.
         -3    1    6    6    0  503  0.35972844891E+02  0.10518514087E+02 -0.14907496101E+03  0.15371411356E+03  0.00000000000E+00 0.  1.
<mgrwt>
<rscale>  0 0.12656881E+04</rscale>
<asrwt>0</asrwt>
<pdfrwt beam="1">  1        2 0.35023198E+00 0.12656881E+04</pdfrwt>
<pdfrwt beam="2">  1       -1 0.27065178E-01 0.12656881E+04</pdfrwt>
<totfact> 0.64086282E+01</totfact>
</mgrwt>
</event>
<event>
12    6  0.8914180E-008  0.1421344E+04  0.7818608E-02  0.8938512E-01
          2   -1    0    0  501    0  0.00000000000E+00  0.00000000000E+00  0.13470777658E+04  0.13470777658E+04  0.00000000000E+00 0. -1.
         -1   -1    0    0    0  501 -0.00000000000E+00 -0.00000000000E+00 -0.37492616049E+03  0.37492616049E+03  0.00000000000E+00 0.  1.
         24    2    1    2    0    0 -0.15221531795E+03 -0.28708977755E+03 -0.33972732632E+02  0.33689696318E+03  0.82191081301E+02 0.  0.
        254    2    1    2    0    0  0.15221531795E+03  0.28708977755E+03  0.10061243380E+04  0.13851069631E+04  0.89478772481E+03 0.  0.
         23    2    4    4    0    0 -0.34352471376E+03  0.13831712841E+03  0.63612594472E+03  0.74154331114E+03  0.89941135050E+02 0.  0.
         23    2    4    4    0    0  0.49574003171E+03  0.14877264914E+03  0.36999839325E+03  0.64356365199E+03  0.96870444310E+02 0.  0.
          4    1    3    3  502    0 -0.43323049868E+02 -0.21990882955E+02 -0.44318620095E+01  0.48786545111E+02  0.00000000000E+00 0. -1.
         -3    1    3    3    0  502 -0.10889226809E+03 -0.26509889459E+03 -0.29540870623E+02  0.28811041807E+03  0.00000000000E+00 0.  1.
         11    1    5    5    0    0 -0.31123071372E+03  0.13355310107E+03  0.61664633008E+03  0.70352944812E+03  0.00000000000E+00 0. -1.
        -11    1    5    5    0    0 -0.32294000043E+02  0.47640273388E+01  0.19479614636E+02  0.38013863019E+02  0.00000000000E+00 0.  1.
          4    1    6    6  503    0  0.10584877332E+03  0.67806820255E+02  0.62127350676E+02  0.14021959702E+03  0.00000000000E+00 0. -1.
         -4    1    6    6    0  503  0.38989125839E+03  0.80965828883E+02  0.30787104257E+03  0.50334405497E+03  0.00000000000E+00 0.  1.
<mgrwt>
<rscale>  0 0.14213440E+04</rscale>
<asrwt>0</asrwt>
<pdfrwt beam="1">  1        2 0.20724273E+00 0.14213440E+04</pdfrwt>
<pdfrwt beam="2">  1       -1 0.57680949E-01 0.14213440E+04</pdfrwt>
<totfact> 0.52340797E+01</totfact>
</mgrwt>
</event>
<event>
12    6  0.8914180E-008  0.3031234E+04  0.7818608E-02  0.8234868E-01
         -1   -1    0    0    0  501 -0.00000000000E+00  0.00000000000E+00  0.13806640533E+04  0.13806640533E+04  0.00000000000E+00 0.  1.
          2   -1    0    0  501    0  0.00000000000E+00 -0.00000000000E+00 -0.16637606229E+04  0.16637606229E+04  0.00000000000E+00 0. -1.
         24    2    1    2    0    0 -0.32727219926E+03  0.80578964880E+03  0.94749564351E+03  0.12886159745E+04  0.79869172066E+02 0.  0.
        254    2    1    2    0    0  0.32727219926E+03 -0.80578964880E+03 -0.12305922132E+04  0.17558087018E+04  0.90116754907E+03 0.  0.
         23    2    4    4    0    0 -0.61254341067E+02 -0.11212944151E+03  0.11247829286E+03  0.19232912127E+03  0.89521050989E+02 0.  0.
         23    2    4    4    0    0  0.38852654032E+03 -0.69366020729E+03 -0.13430705060E+04  0.15634795805E+04  0.92264070444E+02 0.  0.
          2    1    3    3  502    0 -0.21906061234E+03  0.45045309962E+03  0.57484123650E+03  0.76245524067E+03  0.00000000000E+00 0. -1.
         -1    1    3    3    0  502 -0.10821158692E+03  0.35533654918E+03  0.37265440702E+03  0.52616073380E+03  0.00000000000E+00 0.  1.
         11    1    5    5    0    0 -0.42943649075E+02 -0.59213152040E+02  0.77297587691E+01  0.73553406046E+02  0.00000000000E+00 0. -1.
        -11    1    5    5    0    0 -0.18310691992E+02 -0.52916289470E+02  0.10474853409E+03  0.11877571522E+03  0.00000000000E+00 0.  1.
          1    1    6    6  503    0  0.36766599962E+03 -0.59462060975E+03 -0.11801475618E+04  0.13716778866E+04  0.00000000000E+00 0. -1.
         -1    1    6    6    0  503  0.20860540707E+02 -0.99039597540E+02 -0.16292294420E+03  0.19180169391E+03  0.00000000000E+00 0.  1.
<mgrwt>
<rscale>  0 0.30312337E+04</rscale>
<asrwt>0</asrwt>
<pdfrwt beam="1">  1        2 0.25596317E+00 0.30312337E+04</pdfrwt>
<pdfrwt beam="2">  1       -1 0.21240985E+00 0.30312337E+04</pdfrwt>
<totfact> 0.12362397E+00</totfact>
</mgrwt>
</event>
<event>
12    6  0.8914180E-008  0.1278681E+04  0.7818608E-02  0.9046644E-01
         -1   -1    0    0    0  501 -0.00000000000E+00  0.00000000000E+00  0.32189841438E+03  0.32189841438E+03  0.00000000000E+00 0.  1.
          2   -1    0    0  501    0  0.00000000000E+00 -0.00000000000E+00 -0.12698302892E+04  0.12698302892E+04  0.00000000000E+00 0. -1.
         24    2    1    2    0    0  0.12482561346E+03 -0.15601626761E+03 -0.55925875113E+03  0.59919165831E+03  0.79610194996E+02 0.  0.
        254    2    1    2    0    0 -0.12482561346E+03  0.15601626761E+03 -0.38867312374E+03  0.99253704531E+03  0.89114559959E+03 0.  0.
         23    2    4    4    0    0  0.12611979348E+03  0.36467544238E+03  0.89520961938E+02  0.40649017907E+03  0.91246273736E+02 0.  0.
         23    2    4    4    0    0 -0.25094540694E+03 -0.20865917477E+03 -0.47819408567E+03  0.58604686624E+03  0.90934577479E+02 0.  0.
          4    1    3    3  502    0  0.90931894730E+02 -0.15646663075E+03 -0.48041304995E+03  0.51336840045E+03  0.00000000000E+00 0. -1.
         -3    1    3    3    0  502  0.33893718728E+02  0.45036314737E+00 -0.78845701182E+02  0.85823257868E+02  0.00000000000E+00 0.  1.
         11    1    5    5    0    0  0.13420742127E+03  0.35838671074E+03  0.95766127777E+02  0.39449184730E+03  0.00000000000E+00 0. -1.
        -11    1    5    5    0    0 -0.80876277863E+01  0.62887316403E+01 -0.62451658388E+01  0.11998331768E+02  0.00000000000E+00 0.  1.
          4    1    6    6  503    0 -0.24223129269E+03 -0.20240014199E+03 -0.48065426607E+03  0.57503942485E+03  0.00000000000E+00 0. -1.
         -4    1    6    6    0  503 -0.87141142488E+01 -0.62590327796E+01  0.24601803990E+01  0.11007441395E+02  0.00000000000E+00 0.  1.
<mgrwt>
<rscale>  0 0.12786811E+04</rscale>
<asrwt>0</asrwt>
<pdfrwt beam="1">  1        2 0.19535850E+00 0.12786811E+04</pdfrwt>
<pdfrwt beam="2">  1       -1 0.49522834E-01 0.12786811E+04</pdfrwt>
<totfact> 0.78735719E+01</totfact>
</mgrwt>
</event>
<event>
12    6  0.8914180E-008  0.1415613E+04  0.7818608E-02  0.8942594E-01
          2   -1    0    0  501    0  0.00000000000E+00  0.00000000000E+00  0.25415567178E+04  0.25415567178E+04  0.00000000000E+00 0. -1.
         -1   -1    0    0    0  501 -0.00000000000E+00 -0.00000000000E+00 -0.19711931128E+03  0.19711931128E+03  0.00000000000E+00 0.  1.
         24    2    1    2    0    0  0.32223026293E+03 -0.25211788592E+03  0.51543359307E+03  0.66273642507E+03  0.78434746769E+02 0.  0.
        254    2    1    2    0    0 -0.32223026293E+03  0.25211788592E+03  0.18290038135E+04  0.20759396040E+04  0.89267828426E+03 0.  0.
         23    2    4    4    0    0 -0.31098153974E+03  0.15437439661E+03  0.14563518919E+03  0.38774072265E+03  0.92694591444E+02 0.  0.
         23    2    4    4    0    0 -0.11248723187E+02  0.97743489312E+02  0.16833686243E+04  0.16881988814E+04  0.81272470287E+02 0.  0.
          2    1    3    3  502    0  0.10293355433E+03 -0.40214299309E+02  0.15933677906E+03  0.19390903960E+03  0.00000000000E+00 0. -1.
         -1    1    3    3    0  502  0.21929670859E+03 -0.21190358661E+03  0.35609681400E+03  0.46882738547E+03  0.00000000000E+00 0.  1.
         11    1    5    5    0    0 -0.81177397171E+02  0.79674907912E+02  0.74031413485E+02  0.13571481476E+03  0.00000000000E+00 0.  1.
        -11    1    5    5    0    0 -0.22980414257E+03  0.74699488700E+02  0.71603775702E+02  0.25202590789E+03  0.00000000000E+00 0. -1.
          4    1    6    6  503    0 -0.22464733353E+02  0.10529242141E+03  0.12526559702E+04  0.12572740902E+04  0.00000000000E+00 0. -1.
         -4    1    6    6    0  503  0.11216010166E+02 -0.75489321014E+01  0.43071265411E+03  0.43092479120E+03  0.00000000000E+00 0.  1.
<mgrwt>
<rscale>  0 0.14156128E+04</rscale>
<asrwt>0</asrwt>
<pdfrwt beam="1">  1        2 0.39100870E+00 0.14156128E+04</pdfrwt>
<pdfrwt beam="2">  1       -1 0.30326050E-01 0.14156128E+04</pdfrwt>
<totfact> 0.36642221E+01</totfact>
</mgrwt>
</event>
<event>
12    6  0.8914180E-008  0.1570212E+04  0.7818608E-02  0.8839060E-01
          2   -1    0    0  501    0  0.00000000000E+00  0.00000000000E+00  0.37577474133E+04  0.37577474133E+04  0.00000000000E+00 0. -1.
         -1   -1    0    0    0  501 -0.00000000000E+00 -0.00000000000E+00 -0.16403218661E+03  0.16403218661E+03  0.00000000000E+00 0.  1.
         24    2    1    2    0    0 -0.40857430545E+03 -0.24340204179E+03  0.17523043240E+04  0.18173121536E+04  0.76651826133E+02 0.  0.
        254    2    1    2    0    0  0.40857430545E+03  0.24340204179E+03  0.18414109026E+04  0.21044674463E+04  0.90100588414E+03 0.  0.
         23    2    4    4    0    0 -0.25957136157E+02 -0.30100508305E+03  0.53894304188E+03  0.62465250434E+03  0.91941915615E+02 0.  0.
         23    2    4    4    0    0  0.43453144160E+03  0.54440712484E+03  0.13024678608E+04  0.14798149420E+04  0.90736116766E+02 0.  0.
          2    1    3    3  502    0 -0.17016413532E+03 -0.10299746408E+03  0.59390358967E+03  0.62632721830E+03  0.00000000000E+00 0. -1.
         -1    1    3    3    0  502 -0.23841017013E+03 -0.14040457770E+03  0.11584007344E+04  0.11909849353E+04  0.00000000000E+00 0.  1.
         11    1    5    5    0    0  0.11422319066E+02 -0.23795193585E+03  0.45197906922E+03  0.51091748077E+03  0.00000000000E+00 0. -1.
        -11    1    5    5    0    0 -0.37379455223E+02 -0.63053147199E+02  0.86963972661E+02  0.11373502357E+03  0.00000000000E+00 0.  1.
          1    1    6    6  503    0  0.41252839133E+03  0.53595998197E+03  0.12310094527E+04  0.14045700583E+04  0.00000000000E+00 0. -1.
         -1    1    6    6    0  503  0.22003050271E+02  0.84471428645E+01  0.71458408032E+02  0.75244883695E+02  0.00000000000E+00 0.  1.
<mgrwt>
<rscale>  0 0.15702121E+04</rscale>
<asrwt>0</asrwt>
<pdfrwt beam="1">  1        2 0.57811492E+00 0.15702121E+04</pdfrwt>
<pdfrwt beam="2">  1       -1 0.25235724E-01 0.15702121E+04</pdfrwt>
<totfact> 0.81075538E+00</totfact>
</mgrwt>
</event>
<event>
12    6  0.8914180E-008  0.2238243E+04  0.7818608E-02  0.8502677E-01
         -1   -1    0    0    0  501 -0.00000000000E+00  0.00000000000E+00  0.67237848360E+03  0.67237848360E+03  0.00000000000E+00 0.  1.
          2   -1    0    0  501    0  0.00000000000E+00 -0.00000000000E+00 -0.18626908580E+04  0.18626908580E+04  0.00000000000E+00 0. -1.
         24    2    1    2    0    0 -0.32817720314E+03 -0.76942049916E+03 -0.19620168815E+02  0.84026347205E+03  0.77133457456E+02 0.  0.
        254    2    1    2    0    0  0.32817720314E+03  0.76942049916E+03 -0.11706922055E+04  0.16948058695E+04  0.89562185883E+03 0.  0.
         23    2    4    4    0    0  0.12983674221E+03  0.50829017064E+03 -0.12383965718E+04  0.13479035421E+04  0.89450616071E+02 0.  0.
         23    2    4    4    0    0  0.19834046093E+03  0.26113032852E+03  0.67704366231E+02  0.34690232738E+03  0.90715801364E+02 0.  0.
          2    1    3    3  502    0 -0.31679730772E+03 -0.71822079151E+03 -0.34504989019E+02  0.78574310929E+03  0.00000000000E+00 0. -1.
         -1    1    3    3    0  502 -0.11379895421E+02 -0.51199707648E+02  0.14884820204E+02  0.54520362760E+02  0.00000000000E+00 0.  1.
         11    1    5    5    0    0  0.70610214898E+02  0.20472951419E+03 -0.41051805243E+03  0.46413903930E+03  0.00000000000E+00 0. -1.
        -11    1    5    5    0    0  0.59226527315E+02  0.30356065645E+03 -0.82787851934E+03  0.88376450283E+03  0.00000000000E+00 0.  1.
          4    1    6    6  503    0  0.12939301733E+03  0.16968625569E+03  0.87582821426E+02  0.23066583820E+03  0.00000000000E+00 0. -1.
         -4    1    6    6    0  503  0.68947443606E+02  0.91444072833E+02 -0.19878455195E+02  0.11623648918E+03  0.00000000000E+00 0.  1.
<mgrwt>
<rscale>  0 0.22382433E+04</rscale>
<asrwt>0</asrwt>
<pdfrwt beam="1">  1        2 0.28656782E+00 0.22382433E+04</pdfrwt>
<pdfrwt beam="2">  1       -1 0.10344285E+00 0.22382433E+04</pdfrwt>
<totfact> 0.72819254E+00</totfact>
</mgrwt>
</event>
<event>
12    6  0.8914180E-008  0.1824059E+04  0.7818608E-02  0.8693609E-01
          2   -1    0    0  501    0  0.00000000000E+00  0.00000000000E+00  0.31310537272E+04  0.31310537272E+04  0.00000000000E+00 0. -1.
         -1   -1    0    0    0  501 -0.00000000000E+00 -0.00000000000E+00 -0.26566053185E+03  0.26566053185E+03  0.00000000000E+00 0.  1.
         24    2    1    2    0    0  0.56557750424E+03  0.11820183549E+03  0.17816281192E+04  0.18747181310E+04  0.80744834311E+02 0.  0.
        254    2    1    2    0    0 -0.56557750424E+03 -0.11820183549E+03  0.10837650762E+04  0.15219961281E+04  0.89893041242E+03 0.  0.
         23    2    4    4    0    0 -0.21134638700E+03 -0.46700034647E+03  0.33659478039E+03  0.61998096805E+03  0.91234509188E+02 0.  0.
         23    2    4    4    0    0 -0.35423111725E+03  0.34879851097E+03  0.74717029578E+03  0.90201516004E+03  0.90707289465E+02 0.  0.
          2    1    3    3  502    0  0.42804841105E+03  0.12434026120E+03  0.13640715220E+04  0.14350529816E+04  0.00000000000E+00 0. -1.
         -1    1    3    3    0  502  0.13752909319E+03 -0.61384257063E+01  0.41755659718E+03  0.43966514939E+03  0.00000000000E+00 0.  1.
         11    1    5    5    0    0 -0.20758724037E+03 -0.46975726558E+03  0.33833160192E+03  0.61500619817E+03  0.00000000000E+00 0. -1.
        -11    1    5    5    0    0 -0.37591466264E+01  0.27569191152E+01 -0.17368215290E+01  0.49747698831E+01  0.00000000000E+00 0.  1.
          3    1    6    6  503    0 -0.15356957437E+03  0.13490773508E+03  0.23193486615E+03  0.30915609859E+03  0.00000000000E+00 0. -1.
         -3    1    6    6    0  503 -0.20066154287E+03  0.21389077589E+03  0.51523542963E+03  0.59285906145E+03  0.00000000000E+00 0.  1.
<mgrwt>
<rscale>  0 0.18240585E+04</rscale>
<asrwt>0</asrwt>
<pdfrwt beam="1">  1        2 0.48170055E+00 0.18240585E+04</pdfrwt>
<pdfrwt beam="2">  1       -1 0.40870853E-01 0.18240585E+04</pdfrwt>
<totfact> 0.90685450E+00</totfact>
</mgrwt>
</event>
<event>
12    6  0.8914180E-008  0.1974989E+04  0.7818608E-02  0.8618404E-01
          2   -1    0    0  501    0  0.00000000000E+00  0.00000000000E+00  0.34622702509E+04  0.34622702509E+04  0.00000000000E+00 0. -1.
         -3   -1    0    0    0  501 -0.00000000000E+00 -0.00000000000E+00 -0.28164899696E+03  0.28164899696E+03  0.00000000000E+00 0.  1.
         24    2    1    2    0    0  0.14080666034E+02  0.67106558599E+03  0.20224817036E+04  0.21324218193E+04  0.79140940000E+02 0.  0.
        254    2    1    2    0    0 -0.14080666034E+02 -0.67106558599E+03  0.11581395503E+04  0.16114974285E+04  0.89727891884E+03 0.  0.
         23    2    4    4    0    0  0.25125102624E+03 -0.77301338213E+03  0.82948703945E+03  0.11649995715E+04  0.92187233080E+02 0.  0.
         23    2    4    4    0    0 -0.26533169227E+03  0.10194779615E+03  0.32865251089E+03  0.44649785697E+03  0.10273073202E+03 0.  0.
          4    1    3    3  502    0  0.16518842359E+02  0.44873444376E+03  0.12327180069E+04  0.13119562331E+04  0.00000000000E+00 0. -1.
         -3    1    3    3    0  502 -0.24381763250E+01  0.22233114223E+03  0.78976369670E+03  0.82046558619E+03  0.00000000000E+00 0.  1.
         11    1    5    5    0    0  0.14397264520E+03 -0.37347760975E+03  0.46604681582E+03  0.61433971229E+03  0.00000000000E+00 0. -1.
        -11    1    5    5    0    0  0.10727838103E+03 -0.39953577238E+03  0.36344022362E+03  0.55065985925E+03  0.00000000000E+00 0.  1.
          1    1    6    6  503    0 -0.16966795627E+03  0.10002841964E+03  0.16505971469E+03  0.25697783860E+03  0.00000000000E+00 0. -1.
         -1    1    6    6    0  503 -0.95663736002E+02  0.19193765063E+01  0.16359279620E+03  0.18952001837E+03  0.00000000000E+00 0.  1.
<mgrwt>
<rscale>  0 0.19749886E+04</rscale>
<asrwt>0</asrwt>
<pdfrwt beam="1">  1        2 0.53265693E+00 0.19749886E+04</pdfrwt>
<pdfrwt beam="2">  1       -3 0.43330617E-01 0.19749886E+04</pdfrwt>
<totfact> 0.27757254E+00</totfact>
</mgrwt>
</event>
<event>
12    6  0.8914180E-008  0.2090822E+04  0.7818608E-02  0.8565297E-01
         -1   -1    0    0    0  501 -0.00000000000E+00  0.00000000000E+00  0.39340925945E+03  0.39340925945E+03  0.00000000000E+00 0.  1.
          2   -1    0    0  501    0  0.00000000000E+00 -0.00000000000E+00 -0.27779818098E+04  0.27779818098E+04  0.00000000000E+00 0. -1.
         24    2    1    2    0    0  0.36879148286E+03  0.40583902152E+03  0.11659937754E+02  0.55374521403E+03  0.76061414005E+02 0.  0.
        254    2    1    2    0    0 -0.36879148286E+03 -0.40583902152E+03 -0.23962324881E+04  0.26176458552E+04  0.89968173098E+03 0.  0.
         23    2    4    4    0    0 -0.53939134748E+03 -0.33009555351E+03 -0.88381373787E+03  0.10909568955E+04  0.95677188467E+02 0.  0.
         23    2    4    4    0    0  0.17059986462E+03 -0.75743468004E+02 -0.15124187502E+04  0.15266889597E+04  0.92343472584E+02 0.  0.
          4    1    3    3  502    0  0.80486464153E+02  0.49449296018E+02  0.12903089409E+02  0.95340408562E+02  0.00000000000E+00 0. -1.
         -3    1    3    3    0  502  0.28830501871E+03  0.35638972550E+03 -0.12431516548E+01  0.45840480547E+03  0.00000000000E+00 0.  1.
         11    1    5    5    0    0 -0.45293870015E+03 -0.31467569064E+03 -0.77249076728E+03  0.94916607709E+03  0.00000000000E+00 0. -1.
        -11    1    5    5    0    0 -0.86452647330E+02 -0.15419862871E+02 -0.11132297059E+03  0.14179081840E+03  0.00000000000E+00 0.  1.
          1    1    6    6  503    0  0.16479395814E+03 -0.93458423449E+02 -0.13589285625E+04  0.13720708303E+04  0.00000000000E+00 0. -1.
         -1    1    6    6    0  503  0.58059064770E+01  0.17714955445E+02 -0.15349018772E+03  0.15461812934E+03  0.00000000000E+00 0.  1.
<mgrwt>
<rscale>  0 0.20908216E+04</rscale>
<asrwt>0</asrwt>
<pdfrwt beam="1">  1        2 0.42738181E+00 0.20908216E+04</pdfrwt>
<pdfrwt beam="2">  1       -1 0.60524502E-01 0.20908216E+04</pdfrwt>
<totfact> 0.69351855E+00</totfact>
</mgrwt>
</event>
<event>
12    6  0.8914180E-008  0.1189595E+04  0.7818608E-02  0.9122013E-01
          2   -1    0    0  501    0  0.00000000000E+00  0.00000000000E+00  0.44284046214E+03  0.44284046214E+03  0.00000000000E+00 0. -1.
         -1   -1    0    0    0  501 -0.00000000000E+00 -0.00000000000E+00 -0.79889764382E+03  0.79889764382E+03  0.00000000000E+00 0.  1.
         24    2    1    2    0    0  0.19259256514E+03  0.10992305223E+03 -0.18493117726E+03  0.29983597178E+03  0.80790445557E+02 0.  0.
        254    2    1    2    0    0 -0.19259256514E+03 -0.10992305223E+03 -0.17112600442E+03  0.94190213418E+03  0.89928891210E+03 0.  0.
         23    2    4    4    0    0  0.29104469149E+03  0.18000151773E+03 -0.62431670819E+02  0.36030674621E+03  0.93891847419E+02 0.  0.
         23    2    4    4    0    0 -0.48363725663E+03 -0.28992456997E+03 -0.10869433360E+03  0.58159538797E+03  0.92073258199E+02 0.  0.
          4    1    3    3  502    0  0.82141239063E+02  0.85282932441E+02 -0.65548411884E+02  0.13534014933E+03  0.00000000000E+00 0. -1.
         -1    1    3    3    0  502  0.11045132608E+03  0.24640119793E+02 -0.11938276537E+03  0.16449582245E+03  0.00000000000E+00 0.  1.
         11    1    5    5    0    0  0.19909039556E+03  0.17050650279E+03 -0.52509554990E+02  0.26733257651E+03  0.00000000000E+00 0.  1.
        -11    1    5    5    0    0  0.91954295934E+02  0.94950149448E+01 -0.99221158295E+01  0.92974169704E+02  0.00000000000E+00 0. -1.
          4    1    6    6  503    0 -0.34011349266E+03 -0.24862904135E+03 -0.67512424125E+02  0.42667495298E+03  0.00000000000E+00 0.  1.
         -4    1    6    6    0  503 -0.14352376397E+03 -0.41295528622E+02 -0.41181909476E+02  0.15492043498E+03  0.00000000000E+00 0. -1.
<mgrwt>
<rscale>  0 0.11895952E+04</rscale>
<asrwt>0</asrwt>
<pdfrwt beam="1">  1        2 0.68129302E-01 0.11895952E+04</pdfrwt>
<pdfrwt beam="2">  1       -1 0.12290733E+00 0.11895952E+04</pdfrwt>
<totfact> 0.46719573E+01</totfact>
</mgrwt>
</event>
<event>
12    6  0.9941156E-008  0.2945049E+04  0.7818608E-02  0.8259599E-01
         -1   -1    0    0    0  501 -0.00000000000E+00  0.00000000000E+00  0.10103817009E+04  0.10103817009E+04  0.00000000000E+00 0.  1.
          2   -1    0    0  501    0  0.00000000000E+00 -0.00000000000E+00 -0.21460489636E+04  0.21460489636E+04  0.00000000000E+00 0. -1.
         24    2    1    2    0    0  0.87206926512E+03 -0.53038863411E+03  0.40349419564E+03  0.11004401061E+04  0.79648947363E+02 0.  0.
        254    2    1    2    0    0 -0.87206926512E+03  0.53038863411E+03 -0.15391614584E+04  0.20559905584E+04  0.90347234318E+03 0.  0.
         23    2    4    4    0    0 -0.12852413654E+03  0.46246651266E+03 -0.21757085748E+03  0.53513826142E+03  0.92963174475E+02 0.  0.
         23    2    4    4    0    0 -0.74354512858E+03  0.67922121454E+02 -0.13215906009E+04  0.15208522970E+04  0.94431033149E+02 0.  0.
          4    1    3    3  502    0  0.26868240906E+02 -0.13940680878E+02  0.27763733982E+02  0.41073956193E+02  0.00000000000E+00 0. -1.
         -3    1    3    3    0  502  0.84520102421E+03 -0.51644795323E+03  0.37573046166E+03  0.10593661499E+04  0.00000000000E+00 0.  1.
         11    1    5    5    0    0  0.57081582339E+00  0.42681467505E+02  0.46394333081E+01  0.42936672444E+02  0.00000000000E+00 0.  1.
        -11    1    5    5    0    0 -0.12909495237E+03  0.41978504515E+03 -0.22221029079E+03  0.49220158898E+03  0.00000000000E+00 0. -1.
          2    1    6    6  503    0 -0.43227253028E+03 -0.60642574174E+01 -0.73718321275E+03  0.85459663281E+03  0.00000000000E+00 0. -1.
         -2    1    6    6    0  503 -0.31127259830E+03  0.73986378871E+02 -0.58440738813E+03  0.66625566415E+03  0.00000000000E+00 0.  1.
<mgrwt>
<rscale>  0 0.29450491E+04</rscale>
<asrwt>0</asrwt>
<pdfrwt beam="1">  1        2 0.33016138E+00 0.29450491E+04</pdfrwt>
<pdfrwt beam="2">  1       -1 0.15544334E+00 0.29450491E+04</pdfrwt>
<totfact> 0.17143868E+00</totfact>
</mgrwt>
</event>
<event>
12    6  0.8914180E-008  0.1477340E+04  0.7818608E-02  0.8899663E-01
          2   -1    0    0  501    0  0.00000000000E+00  0.00000000000E+00  0.25880758404E+04  0.25880758404E+04  0.00000000000E+00 0. -1.
         -1   -1    0    0    0  501 -0.00000000000E+00 -0.00000000000E+00 -0.21082601103E+03  0.21082601103E+03  0.00000000000E+00 0.  1.
         24    2    1    2    0    0 -0.38440644061E+03  0.13753269225E+03  0.33634225146E+03  0.53526131071E+03  0.81823026091E+02 0.  0.
        254    2    1    2    0    0  0.38440644061E+03 -0.13753269225E+03  0.20409075779E+04  0.22636405407E+04  0.88998943983E+03 0.  0.
         23    2    4    4    0    0  0.10161522080E+03 -0.16314449138E+03  0.19349404163E+04  0.19466318111E+04  0.91865201739E+02 0.  0.
         23    2    4    4    0    0  0.28279121981E+03  0.25611799128E+02  0.10596716160E+03  0.31700872959E+03  0.92944376052E+02 0.  0.
          4    1    3    3  502    0 -0.34951893856E+03  0.13943509880E+03  0.28032789220E+03  0.46924339349E+03  0.00000000000E+00 0. -1.
         -3    1    3    3    0  502 -0.34887502048E+02 -0.19024065449E+01  0.56014359258E+02  0.66017917211E+02  0.00000000000E+00 0.  1.
         11    1    5    5    0    0  0.11293146842E+03 -0.15382543264E+03  0.18835286047E+04  0.18931708282E+04  0.00000000000E+00 0. -1.
        -11    1    5    5    0    0 -0.11316247625E+02 -0.93190587462E+01  0.51411811648E+02  0.53460982904E+02  0.00000000000E+00 0.  1.
          1    1    6    6  503    0  0.19656240229E+03  0.49162806994E+02  0.41562811967E+02  0.20683623214E+03  0.00000000000E+00 0. -1.
         -1    1    6    6    0  503  0.86228817521E+02 -0.23551007866E+02  0.64404349637E+02  0.11017249745E+03  0.00000000000E+00 0.  1.
<mgrwt>
<rscale>  0 0.14773405E+04</rscale>
<asrwt>0</asrwt>
<pdfrwt beam="1">  1        2 0.39816549E+00 0.14773405E+04</pdfrwt>
<pdfrwt beam="2">  1       -1 0.32434773E-01 0.14773405E+04</pdfrwt>
<totfact> 0.30413527E+01</totfact>
</mgrwt>
</event>
<event>
12    6  0.8914180E-008  0.1754047E+04  0.7818608E-02  0.8731126E-01
          2   -1    0    0  501    0  0.00000000000E+00  0.00000000000E+00  0.92539605759E+03  0.92539605759E+03  0.00000000000E+00 0. -1.
         -1   -1    0    0    0  501 -0.00000000000E+00 -0.00000000000E+00 -0.83117978198E+03  0.83117978198E+03  0.00000000000E+00 0.  1.
         24    2    1    2    0    0 -0.48823857566E+03  0.43594871871E+02 -0.36352852196E+03  0.61576134202E+03  0.82046477283E+02 0.  0.
        254    2    1    2    0    0  0.48823857566E+03 -0.43594871871E+02  0.45774479757E+03  0.11408144976E+04  0.92284884922E+03 0.  0.
         23    2    4    4    0    0 -0.17608331202E+03 -0.20970981776E+03 -0.36703943494E+02  0.29119504594E+03  0.91999102605E+02 0.  0.
         23    2    4    4    0    0  0.66432188767E+03  0.16611494589E+03  0.49444874106E+03  0.84961945161E+03  0.91956018440E+02 0.  0.
          2    1    3    3  502    0 -0.30366424531E+02  0.23993627999E+02 -0.27441697328E+02  0.47443236352E+02  0.00000000000E+00 0. -1.
         -1    1    3    3    0  502 -0.45787215113E+03  0.19601243872E+02 -0.33608682464E+03  0.56831810567E+03  0.00000000000E+00 0.  1.
         11    1    5    5    0    0 -0.12113411856E+03 -0.10007717457E+03 -0.56496947679E+02  0.16697550912E+03  0.00000000000E+00 0. -1.
        -11    1    5    5    0    0 -0.54949193455E+02 -0.10963264319E+03  0.19793004185E+02  0.12421953682E+03  0.00000000000E+00 0.  1.
          4    1    6    6  503    0  0.53155954482E+03  0.10065095030E+03  0.41329860907E+03  0.68080974122E+03  0.00000000000E+00 0. -1.
         -4    1    6    6    0  503  0.13276234285E+03  0.65463995589E+02  0.81150131989E+02  0.16880971038E+03  0.00000000000E+00 0.  1.
<mgrwt>
<rscale>  0 0.17540473E+04</rscale>
<asrwt>0</asrwt>
<pdfrwt beam="1">  1        2 0.14236863E+00 0.17540473E+04</pdfrwt>
<pdfrwt beam="2">  1       -1 0.12787381E+00 0.17540473E+04</pdfrwt>
<totfact> 0.16116619E+01</totfact>
</mgrwt>
</event>
<event>
12    6  0.8914180E-008  0.2669128E+04  0.7818608E-02  0.8345092E-01
          2   -1    0    0  501    0  0.00000000000E+00  0.00000000000E+00  0.15831653982E+04  0.15831653982E+04  0.00000000000E+00 0. -1.
         -1   -1    0    0    0  501 -0.00000000000E+00 -0.00000000000E+00 -0.11250001713E+04  0.11250001713E+04  0.00000000000E+00 0.  1.
         24    2    1    2    0    0  0.60612627198E+02  0.10623346533E+04  0.72733254915E+03  0.12913127413E+04  0.79038931709E+02 0.  0.
        254    2    1    2    0    0 -0.60612627198E+02 -0.10623346533E+04 -0.26916732226E+03  0.14168528281E+04  0.89598665339E+03 0.  0.
         23    2    4    4    0    0  0.69460524472E+02 -0.63680569518E+03 -0.57761088120E+03  0.86754338200E+03  0.93010384899E+02 0.  0.
         23    2    4    4    0    0 -0.13007315167E+03 -0.42552895813E+03  0.30844355894E+03  0.54930944614E+03  0.92787496882E+02 0.  0.
          2    1    3    3  502    0  0.69413844900E+02  0.87668916386E+03  0.57194008796E+03  0.10490555925E+04  0.00000000000E+00 0. -1.
         -1    1    3    3    0  502 -0.88012177017E+01  0.18564548945E+03  0.15539246118E+03  0.24225714887E+03  0.00000000000E+00 0.  1.
         11    1    5    5    0    0  0.50052103880E+02 -0.13917084460E+03 -0.10904131989E+03  0.18374914022E+03  0.00000000000E+00 0. -1.
        -11    1    5    5    0    0  0.19408420591E+02 -0.49763485058E+03 -0.46856956131E+03  0.68379424178E+03  0.00000000000E+00 0.  1.
          4    1    6    6  503    0 -0.86609972405E+02 -0.13504198769E+03  0.98208977674E+02  0.18810270879E+03  0.00000000000E+00 0. -1.
         -4    1    6    6    0  503 -0.43463179265E+02 -0.29048697044E+03  0.21023458127E+03  0.36120673735E+03  0.00000000000E+00 0.  1.
<mgrwt>
<rscale>  0 0.26691282E+04</rscale>
<asrwt>0</asrwt>
<pdfrwt beam="1">  1        2 0.24356391E+00 0.26691282E+04</pdfrwt>
<pdfrwt beam="2">  1       -1 0.17307695E+00 0.26691282E+04</pdfrwt>
<totfact> 0.26665162E+00</totfact>
</mgrwt>
</event>
<event>
12    6  0.8914180E-008  0.1760356E+04  0.7818608E-02  0.8727670E-01
          2   -1    0    0  501    0  0.00000000000E+00  0.00000000000E+00  0.20983831952E+04  0.20983831952E+04  0.00000000000E+00 0. -1.
         -1   -1    0    0    0  501 -0.00000000000E+00 -0.00000000000E+00 -0.36919547288E+03  0.36919547288E+03  0.00000000000E+00 0.  1.
         24    2    1    2    0    0  0.28873824327E+03  0.47182476182E+03  0.16845681014E+03  0.58401666660E+03  0.81910872229E+02 0.  0.
        254    2    1    2    0    0 -0.28873824327E+03 -0.47182476182E+03  0.15607309121E+04  0.18835620015E+04  0.89773963608E+03 0.  0.
         23    2    4    4    0    0  0.12739926963E+03 -0.21880016095E+03  0.12913814862E+04  0.13191477090E+04  0.91544802067E+02 0.  0.
         23    2    4    4    0    0 -0.41613751290E+03 -0.25302460088E+03  0.26934942591E+03  0.56441429247E+03  0.93928174754E+02 0.  0.
          2    1    3    3  502    0  0.28345157170E+03  0.41762100961E+03  0.15146646353E+03  0.52696697311E+03  0.00000000000E+00 0. -1.
         -1    1    3    3    0  502  0.52866715674E+01  0.54203752210E+02  0.16990346607E+02  0.57049693494E+02  0.00000000000E+00 0.  1.
         11    1    5    5    0    0  0.12406813056E+03 -0.21460505743E+03  0.10956098105E+04  0.11233027590E+04  0.00000000000E+00 0. -1.
        -11    1    5    5    0    0  0.33311390750E+01 -0.41951035198E+01  0.19577167578E+03  0.19584494994E+03  0.00000000000E+00 0.  1.
          3    1    6    6  503    0 -0.27210524885E+03 -0.15682282977E+03  0.12169853237E+03  0.33681626915E+03  0.00000000000E+00 0. -1.
         -3    1    6    6    0  503 -0.14403226405E+03 -0.96201771112E+02  0.14765089354E+03  0.22759802331E+03  0.00000000000E+00 0.  1.
<mgrwt>
<rscale>  0 0.17603563E+04</rscale>
<asrwt>0</asrwt>
<pdfrwt beam="1">  1        2 0.32282818E+00 0.17603563E+04</pdfrwt>
<pdfrwt beam="2">  1       -1 0.56799305E-01 0.17603563E+04</pdfrwt>
<totfact> 0.19929949E+01</totfact>
</mgrwt>
</event>
<event>
12    6  0.8914180E-008  0.1363304E+04  0.7818608E-02  0.8980818E-01
          2   -1    0    0  501    0  0.00000000000E+00  0.00000000000E+00  0.35432333037E+04  0.35432333037E+04  0.00000000000E+00 0. -1.
         -1   -1    0    0    0  501 -0.00000000000E+00 -0.00000000000E+00 -0.13113711556E+03  0.13113711556E+03  0.00000000000E+00 0.  1.
         24    2    1    2    0    0 -0.67556650412E+02  0.35358134885E+03  0.68286845197E+03  0.77606875793E+03  0.79935743376E+02 0.  0.
        254    2    1    2    0    0  0.67556650412E+02 -0.35358134885E+03  0.27292277362E+04  0.28983016613E+04  0.90657863030E+03 0.  0.
         23    2    4    4    0    0 -0.90376219117E+02 -0.11414289414E+03  0.25321592411E+04  0.25380708155E+04  0.93683409359E+02 0.  0.
         23    2    4    4    0    0  0.15793286953E+03 -0.23943845470E+03  0.19706849513E+03  0.36023084584E+03  0.93041419024E+02 0.  0.
          2    1    3    3  502    0 -0.23260895448E+02  0.19221629888E+02  0.76014967505E+02  0.81785179571E+02  0.00000000000E+00 0. -1.
         -1    1    3    3    0  502 -0.44295754964E+02  0.33435971896E+03  0.60685348447E+03  0.69428357836E+03  0.00000000000E+00 0.  1.
         11    1    5    5    0    0 -0.57197563974E+02 -0.13681129308E+02  0.13177504477E+04  0.13190621581E+04  0.00000000000E+00 0.  1.
        -11    1    5    5    0    0 -0.33178655143E+02 -0.10046176484E+03  0.12144087934E+04  0.12190086574E+04  0.00000000000E+00 0. -1.
          4    1    6    6  503    0  0.62710358887E+02 -0.87199308001E+02  0.22386027768E+02  0.10971528001E+03  0.00000000000E+00 0. -1.
         -4    1    6    6    0  503  0.95222510641E+02 -0.15223914670E+03  0.17468246736E+03  0.25051556583E+03  0.00000000000E+00 0.  1.
<mgrwt>
<rscale>  0 0.13633039E+04</rscale>
<asrwt>0</asrwt>
<pdfrwt beam="1">  1        2 0.54511274E+00 0.13633039E+04</pdfrwt>
<pdfrwt beam="2">  1       -1 0.20174944E-01 0.13633039E+04</pdfrwt>
<totfact> 0.17311248E+01</totfact>
</mgrwt>
</event>
<event>
12    6  0.8914180E-008  0.2380490E+04  0.7818608E-02  0.8446844E-01
          2   -1    0    0  501    0  0.00000000000E+00  0.00000000000E+00  0.30166903411E+04  0.30166903411E+04  0.00000000000E+00 0. -1.
         -1   -1    0    0    0  501 -0.00000000000E+00 -0.00000000000E+00 -0.46961490542E+03  0.46961490542E+03  0.00000000000E+00 0.  1.
         24    2    1    2    0    0  0.95488037047E+03 -0.31239485736E+03  0.13015998186E+04  0.16462098522E+04  0.80359944847E+02 0.  0.
        254    2    1    2    0    0 -0.95488037047E+03  0.31239485736E+03  0.12454756170E+04  0.18400953943E+04  0.90849021941E+03 0.  0.
         23    2    4    4    0    0 -0.24453934528E+03  0.51060938173E+03  0.33414757355E+03  0.66418845447E+03  0.94711509488E+02 0.  0.
         23    2    4    4    0    0 -0.71034102519E+03 -0.19821452438E+03  0.91132804344E+03  0.11759069398E+04  0.91460147766E+02 0.  0.
          4    1    3    3  502    0  0.83323227821E+03 -0.29283094509E+03  0.11114175327E+04  0.14196037912E+04  0.00000000000E+00 0. -1.
         -3    1    3    3    0  502  0.12164809226E+03 -0.19563912272E+02  0.19018228591E+03  0.22660606101E+03  0.00000000000E+00 0.  1.
         11    1    5    5    0    0 -0.38074253350E+02  0.43034179695E+02  0.83717922700E+01  0.58066137257E+02  0.00000000000E+00 0.  1.
        -11    1    5    5    0    0 -0.20646509193E+03  0.46757520204E+03  0.32577578128E+03  0.60612231721E+03  0.00000000000E+00 0. -1.
          1    1    6    6  503    0 -0.65478080861E+03 -0.20502413305E+03  0.85786670185E+03  0.10985026539E+04  0.00000000000E+00 0. -1.
         -1    1    6    6    0  503 -0.55560216580E+02  0.68096086782E+01  0.53461341587E+02  0.77404285934E+02  0.00000000000E+00 0.  1.
<mgrwt>
<rscale>  0 0.23804897E+04</rscale>
<asrwt>0</asrwt>
<pdfrwt beam="1">  1        2 0.46410619E+00 0.23804897E+04</pdfrwt>
<pdfrwt beam="2">  1       -1 0.72248449E-01 0.23804897E+04</pdfrwt>
<totfact> 0.33673971E+00</totfact>
</mgrwt>
</event>
<event>
12    6  0.8914180E-008  0.1246683E+04  0.7818608E-02  0.9072948E-01
         -1   -1    0    0    0  501 -0.00000000000E+00  0.00000000000E+00  0.24510748185E+03  0.24510748185E+03  0.00000000000E+00 0.  1.
          2   -1    0    0  501    0  0.00000000000E+00 -0.00000000000E+00 -0.15852419169E+04  0.15852419169E+04  0.00000000000E+00 0. -1.
         24    2    1    2    0    0  0.22931006961E+03 -0.13698070510E+03 -0.51315015293E+03  0.58397034718E+03  0.79696081081E+02 0.  0.
        254    2    1    2    0    0 -0.22931006961E+03  0.13698070510E+03 -0.82698428216E+03  0.12463790516E+04  0.89342650271E+03 0.  0.
         23    2    4    4    0    0 -0.34001361162E+03  0.61476048418E+02  0.44578847133E+02  0.35994945515E+03  0.90486330625E+02 0.  0.
         23    2    4    4    0    0  0.11070354202E+03  0.75504656686E+02 -0.87156312929E+03  0.88642959646E+03  0.90437347059E+02 0.  0.
          2    1    3    3  502    0  0.17314450223E+03 -0.10286817452E+03 -0.30333867863E+03  0.36410882156E+03  0.00000000000E+00 0. -1.
         -1    1    3    3    0  502  0.56165567372E+02 -0.34112530582E+02 -0.20981147430E+03  0.21986152562E+03  0.00000000000E+00 0.  1.
         11    1    5    5    0    0 -0.27599905909E+03  0.85290856268E+02  0.36231244036E+02  0.29114036791E+03  0.00000000000E+00 0.  1.
        -11    1    5    5    0    0 -0.64014552531E+02 -0.23814807850E+02  0.83476030970E+01  0.68809087236E+02  0.00000000000E+00 0. -1.
          1    1    6    6  503    0 -0.11236700873E+02  0.18484484163E+02 -0.60049656421E+02  0.63827116789E+02  0.00000000000E+00 0. -1.
         -1    1    6    6    0  503  0.12194024289E+03  0.57020172523E+02 -0.81151347287E+03  0.82260247967E+03  0.00000000000E+00 0.  1.
<mgrwt>
<rscale>  0 0.12466830E+04</rscale>
<asrwt>0</asrwt>
<pdfrwt beam="1">  1        2 0.24388338E+00 0.12466830E+04</pdfrwt>
<pdfrwt beam="2">  1       -1 0.37708842E-01 0.12466830E+04</pdfrwt>
<totfact> 0.86380509E+01</totfact>
</mgrwt>
</event>
<event>
12    6  0.8914180E-008  0.1719940E+04  0.7818608E-02  0.8750073E-01
          2   -1    0    0  501    0  0.00000000000E+00  0.00000000000E+00  0.13936958415E+04  0.13936958415E+04  0.00000000000E+00 0. -1.
         -1   -1    0    0    0  501 -0.00000000000E+00 -0.00000000000E+00 -0.53063810558E+03  0.53063810558E+03  0.00000000000E+00 0.  1.
         24    2    1    2    0    0  0.45201612793E+02 -0.59357153497E+03  0.12048289229E+03  0.61211987118E+03  0.76185670783E+02 0.  0.
        254    2    1    2    0    0 -0.45201612793E+02  0.59357153497E+03  0.74257484365E+03  0.13122140759E+04  0.90339251143E+03 0.  0.
         23    2    4    4    0    0 -0.56594984073E+01  0.81559228426E+03  0.66623967162E+03  0.10570287364E+04  0.90618129384E+02 0.  0.
         23    2    4    4    0    0 -0.39542114385E+02 -0.22202074929E+03  0.76335172025E+02  0.25518533956E+03  0.91846105601E+02 0.  0.
          2    1    3    3  502    0 -0.16145334118E+02 -0.76175097326E+02  0.29205786719E+02  0.83164266631E+02  0.00000000000E+00 0. -1.
         -1    1    3    3    0  502  0.61346946910E+02 -0.51739643765E+03  0.91277105573E+02  0.52895560455E+03  0.00000000000E+00 0.  1.
         11    1    5    5    0    0 -0.80279807685E+01  0.59502157884E+03  0.53590286158E+03  0.80081646138E+03  0.00000000000E+00 0. -1.
        -11    1    5    5    0    0  0.23684823612E+01  0.22057070543E+03  0.13033681004E+03  0.25621227498E+03  0.00000000000E+00 0.  1.
          4    1    6    6  503    0 -0.33575590004E+02 -0.10386026993E+03 -0.86799008189E+01  0.10949710769E+03  0.00000000000E+00 0. -1.
         -4    1    6    6    0  503 -0.59665243814E+01 -0.11816047936E+03  0.85015072844E+02  0.14568823188E+03  0.00000000000E+00 0.  1.
<mgrwt>
<rscale>  0 0.17199397E+04</rscale>
<asrwt>0</asrwt>
<pdfrwt beam="1">  1        2 0.21441474E+00 0.17199397E+04</pdfrwt>
<pdfrwt beam="2">  1       -1 0.81636632E-01 0.17199397E+04</pdfrwt>
<totfact> 0.23602443E+01</totfact>
</mgrwt>
</event>
<event>
12    6  0.8914180E-008  0.1534957E+04  0.7818608E-02  0.8861534E-01
          2   -1    0    0  501    0  0.00000000000E+00  0.00000000000E+00  0.45886966706E+03  0.45886966706E+03  0.00000000000E+00 0. -1.
         -1   -1    0    0    0  501 -0.00000000000E+00 -0.00000000000E+00 -0.12836402384E+04  0.12836402384E+04  0.00000000000E+00 0.  1.
         24    2    1    2    0    0  0.44683970115E+03 -0.25228308947E+02 -0.27113656124E+02  0.45620709660E+03  0.84187757717E+02 0.  0.
        254    2    1    2    0    0 -0.44683970115E+03  0.25228308947E+02 -0.79765691519E+03  0.12863028088E+04  0.90444246670E+03 0.  0.
         23    2    4    4    0    0 -0.66876076922E+03  0.20911334565E+03 -0.54542145354E+03  0.89288982282E+03  0.93799338636E+02 0.  0.
         23    2    4    4    0    0  0.22192106807E+03 -0.18388503671E+03 -0.25223546165E+03  0.39341298602E+03  0.89935433924E+02 0.  0.
          4    1    3    3  502    0  0.30012097892E+03 -0.16706363426E+02 -0.57747196159E+02  0.30608241249E+03  0.00000000000E+00 0. -1.
         -3    1    3    3    0  502  0.14671872222E+03 -0.85219455208E+01  0.30633540034E+02  0.15012468412E+03  0.00000000000E+00 0.  1.
         11    1    5    5    0    0 -0.51708145249E+03  0.20089822792E+03 -0.41728971923E+03  0.69416427182E+03  0.00000000000E+00 0. -1.
        -11    1    5    5    0    0 -0.15167931673E+03  0.82151177335E+01 -0.12813173431E+03  0.19872555100E+03  0.00000000000E+00 0.  1.
          1    1    6    6  503    0  0.82484288813E+01 -0.34073485853E+02 -0.59259523955E+02  0.68852960696E+02  0.00000000000E+00 0. -1.
         -1    1    6    6    0  503  0.21367263919E+03 -0.14981155085E+03 -0.19297593770E+03  0.32456002533E+03  0.00000000000E+00 0.  1.
<mgrwt>
<rscale>  0 0.15349574E+04</rscale>
<asrwt>0</asrwt>
<pdfrwt beam="1">  1        2 0.70595333E-01 0.15349574E+04</pdfrwt>
<pdfrwt beam="2">  1       -1 0.19748311E+00 0.15349574E+04</pdfrwt>
<totfact> 0.11738624E+01</totfact>
</mgrwt>
</event>
<event>
12    6  0.8914180E-008  0.1283970E+04  0.7818608E-02  0.9042374E-01
         -1   -1    0    0    0  501 -0.00000000000E+00  0.00000000000E+00  0.20684728940E+03  0.20684728940E+03  0.00000000000E+00 0.  1.
          2   -1    0    0  501    0  0.00000000000E+00 -0.00000000000E+00 -0.19925075915E+04  0.19925075915E+04  0.00000000000E+00 0. -1.
         24    2    1    2    0    0 -0.35291160786E+03  0.17078114607E+03 -0.44268781024E+03  0.59688653198E+03  0.81167924101E+02 0.  0.
        254    2    1    2    0    0  0.35291160786E+03 -0.17078114607E+03 -0.13429724919E+04  0.16024683489E+04  0.78141979283E+03 0.  0.
         23    2    4    4    0    0  0.24046564817E+03 -0.41912126983E+03 -0.11640533626E+04  0.12641463646E+04  0.97772355929E+02 0.  0.
         23    2    4    4    0    0  0.11244595969E+03  0.24834012376E+03 -0.17891912932E+03  0.33832198430E+03  0.90182034264E+02 0.  0.
          4    1    3    3  502    0 -0.25865303897E+03  0.12933309332E+03 -0.26891332245E+03  0.39489595919E+03  0.00000000000E+00 0. -1.
         -3    1    3    3    0  502 -0.94258568895E+02  0.41448052748E+02 -0.17377448780E+03  0.20199057279E+03  0.00000000000E+00 0.  1.
         11    1    5    5    0    0  0.10218035027E+03 -0.24070215014E+03 -0.71991038611E+03  0.76593035786E+03  0.00000000000E+00 0. -1.
        -11    1    5    5    0    0  0.13828529790E+03 -0.17841911969E+03 -0.44414297645E+03  0.49821600678E+03  0.00000000000E+00 0.  1.
          2    1    6    6  503    0  0.11111137489E+03  0.24017896409E+03 -0.14167814728E+03  0.30017389933E+03  0.00000000000E+00 0. -1.
         -2    1    6    6    0  503  0.13345847986E+01  0.81611596744E+01 -0.37240982041E+02  0.38148084974E+02  0.00000000000E+00 0.  1.
<mgrwt>
<rscale>  0 0.12839701E+04</rscale>
<asrwt>0</asrwt>
<pdfrwt beam="1">  1        2 0.30653964E+00 0.12839701E+04</pdfrwt>
<pdfrwt beam="2">  1       -1 0.31822659E-01 0.12839701E+04</pdfrwt>
<totfact> 0.69395870E+01</totfact>
</mgrwt>
</event>
<event>
12    6  0.8914180E-008  0.2109712E+04  0.7818608E-02  0.8556977E-01
         -1   -1    0    0    0  501 -0.00000000000E+00  0.00000000000E+00  0.12929468218E+04  0.12929468218E+04  0.00000000000E+00 0.  1.
          2   -1    0    0  501    0  0.00000000000E+00 -0.00000000000E+00 -0.86060896686E+03  0.86060896686E+03  0.00000000000E+00 0. -1.
         24    2    1    2    0    0  0.42156983975E+03  0.19244564458E+03  0.91562722554E+03  0.10295191724E+04  0.82341085199E+02 0.  0.
        254    2    1    2    0    0 -0.42156983975E+03 -0.19244564458E+03 -0.48328937056E+03  0.11240366163E+04  0.90284729780E+03 0.  0.
         23    2    4    4    0    0 -0.60758354835E+02  0.31658007461E+03 -0.34065891940E+03  0.47725554072E+03  0.88373245171E+02 0.  0.
         23    2    4    4    0    0 -0.36081148492E+03 -0.50902571919E+03 -0.14263045117E+03  0.64678107556E+03  0.93221261866E+02 0.  0.
          4    1    3    3  502    0  0.18057702722E+03  0.38304494896E+02  0.35583953064E+03  0.40087038884E+03  0.00000000000E+00 0. -1.
         -3    1    3    3    0  502  0.24099281253E+03  0.15414114968E+03  0.55978769490E+03  0.62864878357E+03  0.00000000000E+00 0.  1.
         11    1    5    5    0    0 -0.28156927919E+02  0.76198939511E+02 -0.38864487152E+02  0.90052980706E+02  0.00000000000E+00 0. -1.
        -11    1    5    5    0    0 -0.32601426917E+02  0.24038113510E+03 -0.30179443225E+03  0.38720256002E+03  0.00000000000E+00 0.  1.
          2    1    6    6  503    0 -0.16611631471E+03 -0.30212758892E+03 -0.10360065746E+03  0.36001223066E+03  0.00000000000E+00 0. -1.
         -2    1    6    6    0  503 -0.19469517021E+03 -0.20689813027E+03 -0.39029793708E+02  0.28676884491E+03  0.00000000000E+00 0.  1.
<mgrwt>
<rscale>  0 0.21097124E+04</rscale>
<asrwt>0</asrwt>
<pdfrwt beam="1">  1        2 0.13240138E+00 0.21097124E+04</pdfrwt>
<pdfrwt beam="2">  1       -1 0.19891489E+00 0.21097124E+04</pdfrwt>
<totfact> 0.50193944E+00</totfact>
</mgrwt>
</event>
<event>
12    6  0.8914180E-008  0.1402444E+04  0.7818608E-02  0.8952051E-01
          2   -1    0    0  501    0  0.00000000000E+00  0.00000000000E+00  0.31165207596E+04  0.31165207596E+04  0.00000000000E+00 0. -1.
         -1   -1    0    0    0  501 -0.00000000000E+00 -0.00000000000E+00 -0.15777611430E+03  0.15777611430E+03  0.00000000000E+00 0.  1.
         24    2    1    2    0    0  0.27681072636E+02 -0.15303219393E+03 -0.13520000659E+02  0.17421095134E+03  0.77340616685E+02 0.  0.
        254    2    1    2    0    0 -0.27681072636E+02  0.15303219393E+03  0.29722646460E+04  0.31000859225E+04  0.86717386227E+03 0.  0.
         23    2    4    4    0    0 -0.14371259814E+03 -0.12579063209E+03  0.26196526545E+04  0.26281570057E+04  0.90291875133E+02 0.  0.
         23    2    4    4    0    0  0.11603152551E+03  0.27882282602E+03  0.35261199149E+03  0.47192891682E+03  0.84712471149E+02 0.  0.
          4    1    3    3  502    0  0.22049551177E+02 -0.28642447829E+01 -0.86513590844E+01  0.23858596339E+02  0.00000000000E+00 0. -1.
         -3    1    3    3    0  502  0.56315214592E+01 -0.15016794914E+03 -0.48686415750E+01  0.15035235500E+03  0.00000000000E+00 0.  1.
         11    1    5    5    0    0 -0.24898206191E+02 -0.46381806746E+02  0.34223162842E+03  0.34625666804E+03  0.00000000000E+00 0.  1.
        -11    1    5    5    0    0 -0.11881439195E+03 -0.79408825343E+02  0.22774210260E+04  0.22819003377E+04  0.00000000000E+00 0. -1.
          1    1    6    6  503    0 -0.97464717760E+01  0.13921580358E+02  0.62635860877E+01  0.18111781315E+02  0.00000000000E+00 0. -1.
         -1    1    6    6    0  503  0.12577799728E+03  0.26490124566E+03  0.34634840541E+03  0.45381713551E+03  0.00000000000E+00 0.  1.
<mgrwt>
<rscale>  0 0.14024443E+04</rscale>
<asrwt>0</asrwt>
<pdfrwt beam="1">  1        2 0.47946469E+00 0.14024443E+04</pdfrwt>
<pdfrwt beam="2">  1       -1 0.24273251E-01 0.14024443E+04</pdfrwt>
<totfact> 0.24239720E+01</totfact>
</mgrwt>
</event>
<event>
12    6  0.8914180E-008  0.2274962E+04  0.7818608E-02  0.8487859E-01
          2   -1    0    0  501    0  0.00000000000E+00  0.00000000000E+00  0.18424957053E+04  0.18424957053E+04  0.00000000000E+00 0. -1.
         -1   -1    0    0    0  501 -0.00000000000E+00 -0.00000000000E+00 -0.70223406125E+03  0.70223406125E+03  0.00000000000E+00 0.  1.
         24    2    1    2    0    0  0.38180962066E+03  0.82008610377E+03  0.12978184854E+03  0.91750580803E+03  0.81570678178E+02 0.  0.
        254    2    1    2    0    0 -0.38180962066E+03 -0.82008610377E+03  0.10104797955E+04  0.16272239585E+04  0.89914881418E+03 0.  0.
         23    2    4    4    0    0 -0.21724777841E+03  0.68513980946E+02 -0.29217812711E+02  0.24649973584E+03  0.89541478543E+02 0.  0.
         23    2    4    4    0    0 -0.16456184225E+03 -0.88860008471E+03  0.10396976082E+04  0.13807242227E+04  0.93474874188E+02 0.  0.
          2    1    3    3  502    0  0.27383132674E+03  0.63376007780E+03  0.69511660343E+02  0.69387844947E+03  0.00000000000E+00 0. -1.
         -1    1    3    3    0  502  0.10797829392E+03  0.18632602597E+03  0.60270188197E+02  0.22362735856E+03  0.00000000000E+00 0.  1.
         11    1    5    5    0    0 -0.34176223054E+02  0.45183109434E+02 -0.24936246763E+02  0.61897851360E+02  0.00000000000E+00 0.  1.
        -11    1    5    5    0    0 -0.18307155535E+03  0.23330871512E+02 -0.42815659477E+01  0.18460188448E+03  0.00000000000E+00 0. -1.
          2    1    6    6  503    0 -0.13101801168E+03 -0.80184273412E+03  0.89568777204E+03  0.12092865974E+04  0.00000000000E+00 0. -1.
         -2    1    6    6    0  503 -0.33543830571E+02 -0.86757350589E+02  0.14400983618E+03  0.17143762529E+03  0.00000000000E+00 0.  1.
<mgrwt>
<rscale>  0 0.22749622E+04</rscale>
<asrwt>0</asrwt>
<pdfrwt beam="1">  1        2 0.28346088E+00 0.22749622E+04</pdfrwt>
<pdfrwt beam="2">  1       -1 0.10803601E+00 0.22749622E+04</pdfrwt>
<totfact> 0.67304913E+00</totfact>
</mgrwt>
</event>
<event>
12    6  0.8914180E-008  0.1074776E+04  0.7818608E-02  0.9230132E-01
          2   -1    0    0  501    0  0.00000000000E+00  0.00000000000E+00  0.44153626964E+04  0.44153626964E+04  0.00000000000E+00 0. -1.
         -1   -1    0    0    0  501 -0.00000000000E+00 -0.00000000000E+00 -0.65404766618E+02  0.65404766618E+02  0.00000000000E+00 0.  1.
         24    2    1    2    0    0 -0.54012499733E+02  0.10961418756E+03  0.86499497792E+03  0.87718142248E+03  0.79361929643E+02 0.  0.
        254    2    1    2    0    0  0.54012499733E+02 -0.10961418756E+03  0.34849629519E+04  0.36035860406E+04  0.90880853620E+03 0.  0.
         23    2    4    4    0    0  0.11268017057E+03  0.22332449473E+03  0.30611985935E+03  0.40554098804E+03  0.90462555293E+02 0.  0.
         23    2    4    4    0    0 -0.58667670836E+02 -0.33293868229E+03  0.31788430926E+04  0.31980450525E+04  0.90325462608E+02 0.  0.
          4    1    3    3  502    0 -0.64804717221E+02  0.74137560969E+02  0.74792140211E+03  0.75437553848E+03  0.00000000000E+00 0. -1.
         -3    1    3    3    0  502  0.10792217487E+02  0.35476626592E+02  0.11707357580E+03  0.12280588400E+03  0.00000000000E+00 0.  1.
         11    1    5    5    0    0  0.71399918601E+02  0.75045083099E+02  0.17493541243E+03  0.20330300391E+03  0.00000000000E+00 0.  1.
        -11    1    5    5    0    0  0.41280251968E+02  0.14827941163E+03  0.13118444691E+03  0.20223798413E+03  0.00000000000E+00 0. -1.
          3    1    6    6  503    0 -0.38738969767E+02 -0.28541671856E+03  0.29165114510E+04  0.29306999940E+04  0.00000000000E+00 0. -1.
         -3    1    6    6    0  503 -0.19928701069E+02 -0.47521963730E+02  0.26233164159E+03  0.26734505857E+03  0.00000000000E+00 0.  1.
<mgrwt>
<rscale>  0 0.10747758E+04</rscale>
<asrwt>0</asrwt>
<pdfrwt beam="1">  1        2 0.67928634E+00 0.10747758E+04</pdfrwt>
<pdfrwt beam="2">  1       -1 0.10062275E-01 0.10747758E+04</pdfrwt>
<totfact> 0.11223486E+01</totfact>
</mgrwt>
</event>
<event>
12    6  0.8914180E-008  0.1636434E+04  0.7818608E-02  0.8798473E-01
          2   -1    0    0  501    0  0.00000000000E+00  0.00000000000E+00  0.12324104123E+04  0.12324104123E+04  0.00000000000E+00 0. -1.
         -1   -1    0    0    0  501 -0.00000000000E+00 -0.00000000000E+00 -0.54322748008E+03  0.54322748008E+03  0.00000000000E+00 0.  1.
         24    2    1    2    0    0  0.31095581409E+03 -0.98543879298E+02 -0.26665612852E+03  0.42870360088E+03  0.79226713078E+02 0.  0.
        254    2    1    2    0    0 -0.31095581409E+03  0.98543879298E+02  0.95583906077E+03  0.13469342915E+04  0.89117857983E+03 0.  0.
         23    2    4    4    0    0 -0.24800025200E+03 -0.33611841976E+03  0.20921210615E+03  0.47583816540E+03  0.90402086218E+02 0.  0.
         23    2    4    4    0    0 -0.62955562084E+02  0.43466229905E+03  0.74662695462E+03  0.87109612614E+03  0.91988774296E+02 0.  0.
          2    1    3    3  502    0  0.11906251254E+03 -0.45097854352E+02 -0.15415243336E+03  0.19993166600E+03  0.00000000000E+00 0. -1.
         -1    1    3    3    0  502  0.19189330155E+03 -0.53446024946E+02 -0.11250369516E+03  0.22877193488E+03  0.00000000000E+00 0.  1.
         11    1    5    5    0    0 -0.18372558718E+03 -0.23257973581E+03  0.10178721182E+03  0.31338325001E+03  0.00000000000E+00 0. -1.
        -11    1    5    5    0    0 -0.64274664823E+02 -0.10353868394E+03  0.10742489433E+03  0.16245491539E+03  0.00000000000E+00 0.  1.
          3    1    6    6  503    0 -0.18292968238E+02  0.36572380611E+03  0.62372697265E+03  0.72327302690E+03  0.00000000000E+00 0. -1.
         -3    1    6    6    0  503 -0.44662593846E+02  0.68938492944E+02  0.12289998197E+03  0.14782309923E+03  0.00000000000E+00 0.  1.
<mgrwt>
<rscale>  0 0.16364342E+04</rscale>
<asrwt>0</asrwt>
<pdfrwt beam="1">  1        2 0.18960160E+00 0.16364342E+04</pdfrwt>
<pdfrwt beam="2">  1       -1 0.83573459E-01 0.16364342E+04</pdfrwt>
<totfact> 0.28056498E+01</totfact>
</mgrwt>
</event>
<event>
12    6  0.8914180E-008  0.3874775E+04  0.7818608E-02  0.8030296E-01
         -1   -1    0    0    0  501 -0.00000000000E+00  0.00000000000E+00  0.22367838570E+04  0.22367838570E+04  0.00000000000E+00 0.  1.
          2   -1    0    0  501    0  0.00000000000E+00 -0.00000000000E+00 -0.16780658755E+04  0.16780658755E+04  0.00000000000E+00 0. -1.
         24    2    1    2    0    0  0.83309640021E+03 -0.27536077650E+03 -0.13625405749E+04  0.16226771211E+04  0.81798849598E+02 0.  0.
        254    2    1    2    0    0 -0.83309640021E+03  0.27536077650E+03  0.19212585563E+04  0.22921726114E+04  0.89047609233E+03 0.  0.
         23    2    4    4    0    0 -0.68981246080E+03  0.38894563806E+03  0.72232471448E+03  0.10757152408E+04  0.91051335188E+02 0.  0.
         23    2    4    4    0    0 -0.14328393941E+03 -0.11358486156E+03  0.11989338419E+04  0.12164573707E+04  0.94309964510E+02 0.  0.
          4    1    3    3  502    0  0.32506824961E+03 -0.65824606906E+02 -0.50760567160E+03  0.60635448676E+03  0.00000000000E+00 0. -1.
         -3    1    3    3    0  502  0.50802815060E+03 -0.20953616959E+03 -0.85493490327E+03  0.10163226343E+04  0.00000000000E+00 0.  1.
         11    1    5    5    0    0 -0.38339455249E+02  0.42102481752E+01  0.20268651291E+02  0.43571300688E+02  0.00000000000E+00 0. -1.
        -11    1    5    5    0    0 -0.65147300555E+03  0.38473538989E+03  0.70205606319E+03  0.10321439401E+04  0.00000000000E+00 0.  1.
          2    1    6    6  503    0 -0.13955808846E+03 -0.11754378391E+03  0.11967804805E+04  0.12106099784E+04  0.00000000000E+00 0.  1.
         -2    1    6    6    0  503 -0.37258509453E+01  0.39589223451E+01  0.21533613332E+01  0.58473922763E+01  0.00000000000E+00 0. -1.
<mgrwt>
<rscale>  0 0.38747752E+04</rscale>
<asrwt>0</asrwt>
<pdfrwt beam="1">  1        2 0.25816398E+00 0.38747752E+04</pdfrwt>
<pdfrwt beam="2">  1       -1 0.34412059E+00 0.38747752E+04</pdfrwt>
<totfact> 0.15546301E-01</totfact>
</mgrwt>
</event>
<event>
12    6  0.8914180E-008  0.2390272E+04  0.7818608E-02  0.8443155E-01
          2   -1    0    0  501    0  0.00000000000E+00  0.00000000000E+00  0.12839419530E+04  0.12839419530E+04  0.00000000000E+00 0. -1.
         -1   -1    0    0    0  501 -0.00000000000E+00 -0.00000000000E+00 -0.11124725611E+04  0.11124725611E+04  0.00000000000E+00 0.  1.
         24    2    1    2    0    0 -0.33502977125E+03 -0.22849652962E+03 -0.87010029680E+03  0.96320120869E+03  0.78907732608E+02 0.  0.
        254    2    1    2    0    0  0.33502977125E+03  0.22849652962E+03  0.10415696888E+04  0.14332133054E+04  0.89709383602E+03 0.  0.
         23    2    4    4    0    0 -0.15246118142E+03  0.41687166146E+03  0.44679265445E+03  0.63639455238E+03  0.91367150911E+02 0.  0.
         23    2    4    4    0    0  0.48749095267E+03 -0.18837513184E+03  0.59477703431E+03  0.79681875304E+03  0.89597909701E+02 0.  0.
          4    1    3    3  502    0 -0.77768319544E+02 -0.33048486584E+02 -0.12293774078E+03  0.14917708302E+03  0.00000000000E+00 0. -1.
         -3    1    3    3    0  502 -0.25726145171E+03 -0.19544804303E+03 -0.74716255602E+03  0.81402412568E+03  0.00000000000E+00 0.  1.
         11    1    5    5    0    0 -0.30536449620E+02  0.21895690077E+02  0.56730731335E+02  0.68046101116E+02  0.00000000000E+00 0.  1.
        -11    1    5    5    0    0 -0.12192473180E+03  0.39497597138E+03  0.39006192312E+03  0.56834845127E+03  0.00000000000E+00 0. -1.
          4    1    6    6  503    0  0.10593206721E+02  0.32222127522E+01  0.35828178025E+02  0.37500093656E+02  0.00000000000E+00 0.  1.
         -4    1    6    6    0  503  0.47689774595E+03 -0.19159734459E+03  0.55894885629E+03  0.75931865939E+03  0.00000000000E+00 0. -1.
<mgrwt>
<rscale>  0 0.23902721E+04</rscale>
<asrwt>0</asrwt>
<pdfrwt beam="1">  1        2 0.19752953E+00 0.23902721E+04</pdfrwt>
<pdfrwt beam="2">  1       -1 0.17114963E+00 0.23902721E+04</pdfrwt>
<totfact> 0.41811269E+00</totfact>
</mgrwt>
</event>
<event>
12    6  0.8914180E-008  0.1539795E+04  0.7818608E-02  0.8858412E-01
         -1   -1    0    0    0  501 -0.00000000000E+00  0.00000000000E+00  0.16787765688E+03  0.16787765688E+03  0.00000000000E+00 0.  1.
          2   -1    0    0  501    0  0.00000000000E+00 -0.00000000000E+00 -0.35308005550E+04  0.35308005550E+04  0.00000000000E+00 0. -1.
         24    2    1    2    0    0 -0.45219700790E+03  0.17001546967E+03 -0.77098865604E+03  0.91326669624E+03  0.79026304690E+02 0.  0.
        254    2    1    2    0    0  0.45219700790E+03 -0.17001546967E+03 -0.25919342421E+04  0.27854115156E+04  0.89833557333E+03 0.  0.
         23    2    4    4    0    0  0.39904620031E+03  0.22604252691E+03 -0.20680196453E+04  0.21202766965E+04  0.92384643484E+02 0.  0.
         23    2    4    4    0    0  0.53150807597E+02 -0.39605799658E+03 -0.52391459676E+03  0.66513481913E+03  0.90724186010E+02 0.  0.
          4    1    3    3  502    0 -0.82677511240E+02  0.95142014781E+01 -0.17639620287E+03  0.19504284473E+03  0.00000000000E+00 0. -1.
         -1    1    3    3    0  502 -0.36951949666E+03  0.16050126819E+03 -0.59459245317E+03  0.71822385151E+03  0.00000000000E+00 0.  1.
         11    1    5    5    0    0  0.14155756959E+03  0.45093914971E+02 -0.53239864252E+03  0.55273892683E+03  0.00000000000E+00 0.  1.
        -11    1    5    5    0    0  0.25748863072E+03  0.18094861194E+03 -0.15356210028E+04  0.15675377697E+04  0.00000000000E+00 0. -1.
          3    1    6    6  503    0  0.69507338180E+02 -0.35569430911E+03 -0.49230277877E+03  0.61131966890E+03  0.00000000000E+00 0. -1.
         -3    1    6    6    0  503 -0.16356530583E+02 -0.40363687465E+02 -0.31611817987E+02  0.53815150236E+02  0.00000000000E+00 0.  1.
<mgrwt>
<rscale>  0 0.15397955E+04</rscale>
<asrwt>0</asrwt>
<pdfrwt beam="1">  1        2 0.54320008E+00 0.15397955E+04</pdfrwt>
<pdfrwt beam="2">  1       -1 0.25827332E-01 0.15397955E+04</pdfrwt>
<totfact> 0.11390315E+01</totfact>
</mgrwt>
</event>
<event>
12    6  0.8914180E-008  0.3132866E+04  0.7818608E-02  0.8206776E-01
         -1   -1    0    0    0  501 -0.00000000000E+00  0.00000000000E+00  0.72786774779E+03  0.72786774779E+03  0.00000000000E+00 0.  1.
          2   -1    0    0  501    0  0.00000000000E+00 -0.00000000000E+00 -0.33710960422E+04  0.33710960422E+04  0.00000000000E+00 0. -1.
         24    2    1    2    0    0  0.77044703715E+03  0.11117281938E+04 -0.18463370414E+04  0.22902035266E+04  0.80891959866E+02 0.  0.
        254    2    1    2    0    0 -0.77044703715E+03 -0.11117281938E+04 -0.79689125309E+03  0.18087602634E+04  0.89835950891E+03 0.  0.
         23    2    4    4    0    0 -0.44352589681E+03 -0.14636697315E+03 -0.60199333756E+03  0.76714627180E+03  0.89324755193E+02 0.  0.
         23    2    4    4    0    0 -0.32692114034E+03 -0.96536122064E+03 -0.19489791552E+03  0.10416139916E+04  0.90414554679E+02 0.  0.
          4    1    3    3  502    0  0.68000211398E+03  0.98381189856E+03 -0.16737637620E+04  0.20571275745E+04  0.00000000000E+00 0. -1.
         -3    1    3    3    0  502  0.90444923174E+02  0.12791629523E+03 -0.17257327931E+03  0.23307595210E+03  0.00000000000E+00 0.  1.
         11    1    5    5    0    0 -0.37928353114E+03 -0.13873035605E+03 -0.55838326893E+03  0.68912552101E+03  0.00000000000E+00 0.  1.
        -11    1    5    5    0    0 -0.64242365666E+02 -0.76366171055E+01 -0.43610068634E+02  0.78020750787E+02  0.00000000000E+00 0. -1.
          1    1    6    6  503    0 -0.20238145770E+03 -0.54165057318E+03 -0.15220226466E+03  0.59792066967E+03  0.00000000000E+00 0. -1.
         -1    1    6    6    0  503 -0.12453968264E+03 -0.42371064746E+03 -0.42695650866E+02  0.44369332193E+03  0.00000000000E+00 0.  1.
<mgrwt>
<rscale>  0 0.31328658E+04</rscale>
<asrwt>0</asrwt>
<pdfrwt beam="1">  1        2 0.51863015E+00 0.31328658E+04</pdfrwt>
<pdfrwt beam="2">  1       -1 0.11197965E+00 0.31328658E+04</pdfrwt>
<totfact> 0.70110262E-01</totfact>
</mgrwt>
</event>
<event>
12    6  0.8914180E-008  0.1420827E+04  0.7818608E-02  0.8938880E-01
         -1   -1    0    0    0  501 -0.00000000000E+00  0.00000000000E+00  0.34730795602E+03  0.34730795602E+03  0.00000000000E+00 0.  1.
          2   -1    0    0  501    0  0.00000000000E+00 -0.00000000000E+00 -0.14531401400E+04  0.14531401400E+04  0.00000000000E+00 0. -1.
         24    2    1    2    0    0 -0.17422484119E+03  0.59564322057E+02 -0.81286075491E+03  0.83734145560E+03  0.80597162712E+02 0.  0.
        254    2    1    2    0    0  0.17422484119E+03 -0.59564322057E+02 -0.29297142910E+03  0.96310664046E+03  0.89879916493E+03 0.  0.
         23    2    4    4    0    0 -0.16369711489E+02  0.38011914726E+03 -0.26854165651E+03  0.47472759640E+03  0.92158211412E+02 0.  0.
         23    2    4    4    0    0  0.19059455268E+03 -0.43968346932E+03 -0.24429772596E+02  0.48837904406E+03  0.90936462341E+02 0.  0.
          2    1    3    3  502    0 -0.17064950410E+03  0.72883991423E+02 -0.77864840857E+03  0.80045404217E+03  0.00000000000E+00 0. -1.
         -1    1    3    3    0  502 -0.35753370950E+01 -0.13319669366E+02 -0.34212346342E+02  0.36887413430E+02  0.00000000000E+00 0.  1.
         11    1    5    5    0    0  0.10144973153E+02  0.25418674710E+01 -0.17983556798E+02  0.20803602707E+02  0.00000000000E+00 0.  1.
        -11    1    5    5    0    0 -0.26514684641E+02  0.37757727979E+03 -0.25055809971E+03  0.45392399369E+03  0.00000000000E+00 0. -1.
          2    1    6    6  503    0  0.12236901377E+03 -0.36315662325E+03 -0.37393144749E+02  0.38503916141E+03  0.00000000000E+00 0. -1.
         -2    1    6    6    0  503  0.68225538917E+02 -0.76526846068E+02  0.12963372152E+02  0.10333988266E+03  0.00000000000E+00 0.  1.
<mgrwt>
<rscale>  0 0.14208267E+04</rscale>
<asrwt>0</asrwt>
<pdfrwt beam="1">  1        2 0.22356002E+00 0.14208267E+04</pdfrwt>
<pdfrwt beam="2">  1       -1 0.53431994E-01 0.14208267E+04</pdfrwt>
<totfact> 0.52805495E+01</totfact>
</mgrwt>
</event>
<event>
12    6  0.8914180E-008  0.3358550E+04  0.7818608E-02  0.8148155E-01
          2   -1    0    0  501    0  0.00000000000E+00  0.00000000000E+00  0.34541343761E+04  0.34541343761E+04  0.00000000000E+00 0. -1.
         -1   -1    0    0    0  501 -0.00000000000E+00 -0.00000000000E+00 -0.81640283045E+03  0.81640283045E+03  0.00000000000E+00 0.  1.
         24    2    1    2    0    0 -0.52712462376E+03  0.10021891406E+04 -0.13452541112E+03  0.11431276848E+04  0.80002344757E+02 0.  0.
        254    2    1    2    0    0  0.52712462376E+03 -0.10021891406E+04  0.27722569567E+04  0.31274095217E+04  0.90168633100E+03 0.  0.
         23    2    4    4    0    0  0.26782184683E+03 -0.18706527207E+03  0.15962134494E+03  0.37678764667E+03  0.98833189104E+02 0.  0.
         23    2    4    4    0    0  0.25930277693E+03 -0.81512386850E+03  0.26126356118E+04  0.27506218750E+04  0.91602445431E+02 0.  0.
          2    1    3    3  502    0 -0.75190836098E+02  0.21057320767E+03 -0.30867599224E+02  0.22571563150E+03  0.00000000000E+00 0. -1.
         -3    1    3    3    0  502 -0.45193378766E+03  0.79161593290E+03 -0.10365781190E+03  0.91741205335E+03  0.00000000000E+00 0.  1.
         11    1    5    5    0    0  0.12057626914E+03 -0.87984265460E+02  0.12775499045E+03  0.19647189425E+03  0.00000000000E+00 0.  1.
        -11    1    5    5    0    0  0.14724557769E+03 -0.99081006613E+02  0.31866354494E+02  0.18031575242E+03  0.00000000000E+00 0. -1.
          3    1    6    6  503    0  0.32048656252E+02 -0.11264863559E+03  0.26767167394E+03  0.29217281957E+03  0.00000000000E+00 0. -1.
         -3    1    6    6    0  503  0.22725412068E+03 -0.70247523291E+03  0.23449639379E+04  0.24584490554E+04  0.00000000000E+00 0.  1.
<mgrwt>
<rscale>  0 0.33585503E+04</rscale>
<asrwt>0</asrwt>
<pdfrwt beam="1">  1        2 0.53140528E+00 0.33585503E+04</pdfrwt>
<pdfrwt beam="2">  1       -1 0.12560044E+00 0.33585503E+04</pdfrwt>
<totfact> 0.45602194E-01</totfact>
</mgrwt>
</event>
<event>
12    6  0.8914180E-008  0.1869618E+04  0.7818608E-02  0.8670129E-01
         -1   -1    0    0    0  501 -0.00000000000E+00  0.00000000000E+00  0.13184720000E+04  0.13184720000E+04  0.00000000000E+00 0.  1.
          2   -1    0    0  501    0  0.00000000000E+00 -0.00000000000E+00 -0.66278866676E+03  0.66278866676E+03  0.00000000000E+00 0. -1.
         24    2    1    2    0    0 -0.56596193480E+03  0.40426653789E+03  0.67689035384E+02  0.70244706332E+03  0.71454362798E+02 0.  0.
        254    2    1    2    0    0  0.56596193480E+03 -0.40426653789E+03  0.58799429783E+03  0.12788136034E+04  0.89770963718E+03 0.  0.
         23    2    4    4    0    0 -0.41287387892E+02  0.16418230010E+03  0.36490420838E+03  0.41273900005E+03  0.92400891802E+02 0.  0.
         23    2    4    4    0    0  0.60724932269E+03 -0.56844883799E+03  0.22309008945E+03  0.86607460336E+03  0.91816170960E+02 0.  0.
          2    1    3    3  502    0 -0.89862746579E+02  0.40119094155E+02  0.24981962948E+02  0.10153301636E+03  0.00000000000E+00 0. -1.
         -1    1    3    3    0  502 -0.47609918822E+03  0.36414744373E+03  0.42707072436E+02  0.60091404696E+03  0.00000000000E+00 0.  1.
         11    1    5    5    0    0  0.19595334954E+02  0.11013862476E+02  0.18469780571E+02  0.29093214207E+02  0.00000000000E+00 0.  1.
        -11    1    5    5    0    0 -0.60882722845E+02  0.15316843763E+03  0.34643442780E+03  0.38364578584E+03  0.00000000000E+00 0. -1.
          3    1    6    6  503    0  0.51994184010E+03 -0.47758485220E+03  0.15486488224E+03  0.72277931617E+03  0.00000000000E+00 0. -1.
         -3    1    6    6    0  503  0.87307482590E+02 -0.90863985795E+02  0.68225207215E+02  0.14329528719E+03  0.00000000000E+00 0.  1.
<mgrwt>
<rscale>  0 0.18696185E+04</rscale>
<asrwt>0</asrwt>
<pdfrwt beam="1">  1        2 0.10196749E+00 0.18696185E+04</pdfrwt>
<pdfrwt beam="2">  1       -1 0.20284184E+00 0.18696185E+04</pdfrwt>
<totfact> 0.67679409E+00</totfact>
</mgrwt>
</event>
<event>
12    6  0.8914180E-008  0.2134631E+04  0.7818608E-02  0.8546140E-01
         -1   -1    0    0    0  501 -0.00000000000E+00  0.00000000000E+00  0.83194720418E+03  0.83194720418E+03  0.00000000000E+00 0.  1.
          2   -1    0    0  501    0  0.00000000000E+00 -0.00000000000E+00 -0.13692724370E+04  0.13692724370E+04  0.00000000000E+00 0. -1.
         24    2    1    2    0    0 -0.44081374127E+03  0.18384762329E+02 -0.10021640240E+04  0.10979634616E+04  0.80847250012E+02 0.  0.
        254    2    1    2    0    0  0.44081374127E+03 -0.18384762329E+02  0.46483879123E+03  0.11032561796E+04  0.89802246191E+03 0.  0.
         23    2    4    4    0    0  0.38767721377E+03  0.21545099512E+03 -0.11619384947E+03  0.46799383946E+03  0.93832135968E+02 0.  0.
         23    2    4    4    0    0  0.53136527494E+02 -0.23383575745E+03  0.58103264070E+03  0.63526234018E+03  0.91960096073E+02 0.  0.
          4    1    3    3  502    0 -0.22246214286E+03  0.11627911887E+02 -0.40703885552E+03  0.46400996029E+03  0.00000000000E+00 0. -1.
         -3    1    3    3    0  502 -0.21835159840E+03  0.67568504413E+01 -0.59512516852E+03  0.63395350126E+03  0.00000000000E+00 0.  1.
         11    1    5    5    0    0  0.18407493735E+03  0.15555988446E+03 -0.66899320290E+02  0.25011593166E+03  0.00000000000E+00 0.  1.
        -11    1    5    5    0    0  0.20360227642E+03  0.59891110660E+02 -0.49294529181E+02  0.21787790780E+03  0.00000000000E+00 0. -1.
          2    1    6    6  503    0  0.29988893674E+02 -0.48344839229E+02  0.23692397005E+03  0.24365862350E+03  0.00000000000E+00 0. -1.
         -2    1    6    6    0  503  0.23147633820E+02 -0.18549091822E+03  0.34410867065E+03  0.39160371667E+03  0.00000000000E+00 0.  1.
<mgrwt>
<rscale>  0 0.21346310E+04</rscale>
<asrwt>0</asrwt>
<pdfrwt beam="1">  1        2 0.21065730E+00 0.21346310E+04</pdfrwt>
<pdfrwt beam="2">  1       -1 0.12799188E+00 0.21346310E+04</pdfrwt>
<totfact> 0.83252265E+00</totfact>
</mgrwt>
</event>
<event>
12    6  0.8914180E-008  0.1356576E+04  0.7818608E-02  0.8985865E-01
          2   -1    0    0  501    0  0.00000000000E+00  0.00000000000E+00  0.13432545322E+04  0.13432545322E+04  0.00000000000E+00 0. -1.
         -1   -1    0    0    0  501 -0.00000000000E+00 -0.00000000000E+00 -0.34250747789E+03  0.34250747789E+03  0.00000000000E+00 0.  1.
         24    2    1    2    0    0  0.52924620579E+02 -0.28508820386E+03  0.55508099384E+03  0.63228664046E+03  0.87150367446E+02 0.  0.
        254    2    1    2    0    0 -0.52924620579E+02  0.28508820386E+03  0.44566606049E+03  0.10534753696E+04  0.90945907964E+03 0.  0.
         23    2    4    4    0    0 -0.40397389581E+03  0.16303797338E+03 -0.26784887118E+02  0.44583328811E+03  0.90959339014E+02 0.  0.
         23    2    4    4    0    0  0.35104927523E+03  0.12205023048E+03  0.47245094761E+03  0.60764208154E+03  0.88809622003E+02 0.  0.
          2    1    3    3  502    0  0.31460007187E+02 -0.21726243880E+03  0.33098681470E+03  0.39717121103E+03  0.00000000000E+00 0. -1.
         -1    1    3    3    0  502  0.21464613392E+02 -0.67825765053E+02  0.22409417914E+03  0.23511542943E+03  0.00000000000E+00 0.  1.
         11    1    5    5    0    0 -0.20941091745E+03  0.13321652601E+03 -0.15153990038E+02  0.24865481810E+03  0.00000000000E+00 0. -1.
        -11    1    5    5    0    0 -0.19456297835E+03  0.29821447368E+02 -0.11630897080E+02  0.19717847001E+03  0.00000000000E+00 0.  1.
          4    1    6    6  503    0  0.54506486125E+02 -0.32034102056E+01  0.11048297407E+03  0.12323841295E+03  0.00000000000E+00 0. -1.
         -4    1    6    6    0  503  0.29654278910E+03  0.12525364069E+03  0.36196797353E+03  0.48440366858E+03  0.00000000000E+00 0.  1.
<mgrwt>
<rscale>  0 0.13565762E+04</rscale>
<asrwt>0</asrwt>
<pdfrwt beam="1">  1        2 0.20665454E+00 0.13565762E+04</pdfrwt>
<pdfrwt beam="2">  1       -1 0.52693459E-01 0.13565762E+04</pdfrwt>
<totfact> 0.63009466E+01</totfact>
</mgrwt>
</event>
<event>
12    6  0.8914180E-008  0.1195495E+04  0.7818608E-02  0.9116809E-01
         -1   -1    0    0    0  501 -0.00000000000E+00  0.00000000000E+00  0.14712676351E+03  0.14712676351E+03  0.00000000000E+00 0.  1.
          2   -1    0    0  501    0  0.00000000000E+00 -0.00000000000E+00 -0.24285323375E+04  0.24285323375E+04  0.00000000000E+00 0. -1.
         24    2    1    2    0    0  0.14801736840E+03  0.19933150734E+03 -0.41082107960E+03  0.48636009313E+03  0.78294249938E+02 0.  0.
        254    2    1    2    0    0 -0.14801736840E+03 -0.19933150734E+03 -0.18705844944E+04  0.20892990079E+04  0.89690679701E+03 0.  0.
         23    2    4    4    0    0  0.15597980473E+03 -0.10395900197E+03 -0.18602841426E+02  0.20789371879E+03  0.87957711609E+02 0.  0.
         23    2    4    4    0    0 -0.30399717312E+03 -0.95372505375E+02 -0.18519816530E+04  0.18814052891E+04  0.91321535425E+02 0.  0.
          2    1    3    3  502    0  0.47816943124E+01  0.13167225783E+02 -0.10594964874E+01  0.14048593101E+02  0.00000000000E+00 0. -1.
         -1    1    3    3    0  502  0.14323567409E+03  0.18616428156E+03 -0.40976158311E+03  0.47231150002E+03  0.00000000000E+00 0.  1.
         11    1    5    5    0    0  0.16255571306E+01 -0.19795878349E+02  0.19684594971E+02  0.27964307872E+02  0.00000000000E+00 0. -1.
        -11    1    5    5    0    0  0.15435424760E+03 -0.84163123621E+02 -0.38287436397E+02  0.17992941092E+03  0.00000000000E+00 0.  1.
          4    1    6    6  503    0 -0.10240264212E+03 -0.36990721260E+02 -0.90005161665E+03  0.90661321809E+03  0.00000000000E+00 0. -1.
         -4    1    6    6    0  503 -0.20159453101E+03 -0.58381784115E+02 -0.95193003636E+03  0.97479207105E+03  0.00000000000E+00 0.  1.
<mgrwt>
<rscale>  0 0.11954950E+04</rscale>
<asrwt>0</asrwt>
<pdfrwt beam="1">  1        2 0.37362035E+00 0.11954950E+04</pdfrwt>
<pdfrwt beam="2">  1       -1 0.22634887E-01 0.11954950E+04</pdfrwt>
<totfact> 0.71841699E+01</totfact>
</mgrwt>
</event>
<event>
12    6  0.8914180E-008  0.1759920E+04  0.7818608E-02  0.8727909E-01
          2   -1    0    0  501    0  0.00000000000E+00  0.00000000000E+00  0.19849747102E+04  0.19849747102E+04  0.00000000000E+00 0. -1.
         -1   -1    0    0    0  501 -0.00000000000E+00 -0.00000000000E+00 -0.39009556133E+03  0.39009556133E+03  0.00000000000E+00 0.  1.
         24    2    1    2    0    0  0.28339579754E+03  0.58316431800E+03  0.49539366858E+03  0.81973673577E+03  0.78483305530E+02 0.  0.
        254    2    1    2    0    0 -0.28339579754E+03 -0.58316431800E+03  0.10994854803E+04  0.15553335358E+04  0.88870708689E+03 0.  0.
         23    2    4    4    0    0  0.24832427515E+03 -0.44735596362E+03  0.69124774613E+03  0.86489470820E+03  0.91799269698E+02 0.  0.
         23    2    4    4    0    0 -0.53172007269E+03 -0.13580835438E+03  0.40823773416E+03  0.69043882758E+03  0.94220922371E+02 0.  0.
          4    1    3    3  502    0  0.59290860039E+02  0.14551952551E+03  0.81373546646E+02  0.17695477525E+03  0.00000000000E+00 0. -1.
         -3    1    3    3    0  502  0.22410493750E+03  0.43764479249E+03  0.41402012193E+03  0.64278196052E+03  0.00000000000E+00 0.  1.
         11    1    5    5    0    0  0.11222067431E+03 -0.18110338386E+03  0.21594700025E+03  0.30335626301E+03  0.00000000000E+00 0. -1.
        -11    1    5    5    0    0  0.13610360084E+03 -0.26625257977E+03  0.47530074588E+03  0.56153844519E+03  0.00000000000E+00 0.  1.
          1    1    6    6  503    0 -0.22394034033E+03 -0.53174113891E+02  0.22960607645E+03  0.32510877066E+03  0.00000000000E+00 0. -1.
         -1    1    6    6    0  503 -0.30777973236E+03 -0.82634240486E+02  0.17863165771E+03  0.36533005692E+03  0.00000000000E+00 0.  1.
<mgrwt>
<rscale>  0 0.17599203E+04</rscale>
<asrwt>0</asrwt>
<pdfrwt beam="1">  1        2 0.30538072E+00 0.17599203E+04</pdfrwt>
<pdfrwt beam="2">  1       -1 0.60014703E-01 0.17599203E+04</pdfrwt>
<totfact> 0.20682591E+01</totfact>
</mgrwt>
</event>
<event>
12    6  0.8914180E-008  0.1538903E+04  0.7818608E-02  0.8858987E-01
          2   -1    0    0  501    0  0.00000000000E+00  0.00000000000E+00  0.25855678679E+04  0.25855678679E+04  0.00000000000E+00 0. -1.
         -1   -1    0    0    0  501 -0.00000000000E+00 -0.00000000000E+00 -0.22898474669E+03  0.22898474669E+03  0.00000000000E+00 0.  1.
         24    2    1    2    0    0  0.22609655457E+03  0.21716577089E+03  0.56037053873E+02  0.32975775243E+03  0.85553491153E+02 0.  0.
        254    2    1    2    0    0 -0.22609655457E+03 -0.21716577089E+03  0.23005460674E+04  0.24847948622E+04  0.88510602477E+03 0.  0.
         23    2    4    4    0    0  0.46016343248E+02 -0.19471493983E+03  0.21470685095E+04  0.21580014767E+04  0.83879541227E+02 0.  0.
         23    2    4    4    0    0 -0.27211289782E+03 -0.22450831058E+02  0.15347755787E+03  0.32679338546E+03  0.93215272569E+02 0.  0.
          4    1    3    3  502    0  0.11202122133E+02 -0.34374868505E+01  0.15048094904E+02  0.19072205336E+02  0.00000000000E+00 0. -1.
         -3    1    3    3    0  502  0.21489443244E+03  0.22060325774E+03  0.40988958969E+02  0.31068554710E+03  0.00000000000E+00 0.  1.
         11    1    5    5    0    0 -0.99151922941E+01 -0.23567167779E+02  0.59057008966E+03  0.59112329783E+03  0.00000000000E+00 0.  1.
        -11    1    5    5    0    0  0.55931535542E+02 -0.17114777205E+03  0.15564984198E+04  0.15668781789E+04  0.00000000000E+00 0. -1.
          4    1    6    6  503    0 -0.42176418083E+02 -0.22303624607E+02  0.64530272444E+02  0.80252463979E+02  0.00000000000E+00 0.  1.
         -4    1    6    6    0  503 -0.22993647974E+03 -0.14720645083E+00  0.88947285421E+02  0.24654092149E+03  0.00000000000E+00 0. -1.
<mgrwt>
<rscale>  0 0.15389030E+04</rscale>
<asrwt>0</asrwt>
<pdfrwt beam="1">  1        2 0.39777965E+00 0.15389030E+04</pdfrwt>
<pdfrwt beam="2">  1       -1 0.35228424E-01 0.15389030E+04</pdfrwt>
<totfact> 0.26192323E+01</totfact>
</mgrwt>
</event>
<event>
12    6  0.8914180E-008  0.1360208E+04  0.7818608E-02  0.8983136E-01
          2   -1    0    0  501    0  0.00000000000E+00  0.00000000000E+00  0.95658661395E+03  0.95658661395E+03  0.00000000000E+00 0. -1.
         -1   -1    0    0    0  501 -0.00000000000E+00 -0.00000000000E+00 -0.48353353969E+03  0.48353353969E+03  0.00000000000E+00 0.  1.
         24    2    1    2    0    0 -0.12699011918E+03 -0.12451174975E+03  0.48771681696E+03  0.52562889069E+03  0.82391571092E+02 0.  0.
        254    2    1    2    0    0  0.12699011918E+03  0.12451174975E+03 -0.14663742698E+02  0.91449126295E+03  0.89691113187E+03 0.  0.
         23    2    4    4    0    0 -0.90008949971E+02  0.39876438310E+03 -0.24568303225E+03  0.48552392008E+03  0.90877281670E+02 0.  0.
         23    2    4    4    0    0  0.21699906915E+03 -0.27425263335E+03  0.23101928955E+03  0.42896734287E+03  0.91323415383E+02 0.  0.
          4    1    3    3  502    0 -0.13307744748E+03 -0.11654689245E+03  0.48333250696E+03  0.51468737837E+03  0.00000000000E+00 0. -1.
         -3    1    3    3    0  502  0.60873283032E+01 -0.79648573004E+01  0.43843099998E+01  0.10941512321E+02  0.00000000000E+00 0.  1.
         11    1    5    5    0    0 -0.10881029175E+03  0.34745979721E+03 -0.21146384046E+03  0.42105218927E+03  0.00000000000E+00 0. -1.
        -11    1    5    5    0    0  0.18801341776E+02  0.51304585889E+02 -0.34219191795E+02  0.64471730804E+02  0.00000000000E+00 0.  1.
          1    1    6    6  503    0  0.13354607960E+03 -0.20098180595E+03  0.20066757365E+03  0.31384027278E+03  0.00000000000E+00 0. -1.
         -1    1    6    6    0  503  0.83452989543E+02 -0.73270827396E+02  0.30351715903E+02  0.11512707010E+03  0.00000000000E+00 0.  1.
<mgrwt>
<rscale>  0 0.13602084E+04</rscale>
<asrwt>0</asrwt>
<pdfrwt beam="1">  1        2 0.14716717E+00 0.13602084E+04</pdfrwt>
<pdfrwt beam="2">  1       -1 0.74389776E-01 0.13602084E+04</pdfrwt>
<totfact> 0.54461523E+01</totfact>
</mgrwt>
</event>
<event>
12    6  0.8914180E-008  0.1980312E+04  0.7818608E-02  0.8615881E-01
          2   -1    0    0  501    0  0.00000000000E+00  0.00000000000E+00  0.15301269404E+04  0.15301269404E+04  0.00000000000E+00 0. -1.
         -1   -1    0    0    0  501 -0.00000000000E+00 -0.00000000000E+00 -0.64073684272E+03  0.64073684272E+03  0.00000000000E+00 0.  1.
         24    2    1    2    0    0 -0.63147575475E+03 -0.56172276363E+02  0.85979912590E+03  0.10712417190E+04  0.79920774248E+02 0.  0.
        254    2    1    2    0    0  0.63147575475E+03  0.56172276363E+02  0.29590971788E+02  0.10996220641E+04  0.89798446802E+03 0.  0.
         23    2    4    4    0    0  0.53137207147E+03 -0.21215333650E+03  0.33648806345E+03  0.67001642540E+03  0.91282402086E+02 0.  0.
         23    2    4    4    0    0  0.10010368328E+03  0.26832561286E+03 -0.30689709166E+03  0.42960563872E+03  0.91410054304E+02 0.  0.
          4    1    3    3  502    0 -0.27747828564E+03 -0.23959240799E+01  0.32092864438E+03  0.42425833432E+03  0.00000000000E+00 0. -1.
         -3    1    3    3    0  502 -0.35399746912E+03 -0.53776352283E+02  0.53887048152E+03  0.64698338468E+03  0.00000000000E+00 0.  1.
         11    1    5    5    0    0  0.45733462494E+03 -0.21251091631E+03  0.27939707719E+03  0.57652283169E+03  0.00000000000E+00 0.  1.
        -11    1    5    5    0    0  0.74037446527E+02  0.35757980639E+00  0.57090986256E+02  0.93493593702E+02  0.00000000000E+00 0. -1.
          4    1    6    6  503    0  0.17106770519E+02  0.84211631703E+02 -0.39666460684E+02  0.94644960853E+02  0.00000000000E+00 0. -1.
         -4    1    6    6    0  503  0.82996912766E+02  0.18411398116E+03 -0.26723063098E+03  0.33496067787E+03  0.00000000000E+00 0.  1.
<mgrwt>
<rscale>  0 0.19803118E+04</rscale>
<asrwt>0</asrwt>
<pdfrwt beam="1">  1        2 0.23540414E+00 0.19803118E+04</pdfrwt>
<pdfrwt beam="2">  1       -1 0.98574900E-01 0.19803118E+04</pdfrwt>
<totfact> 0.12745483E+01</totfact>
</mgrwt>
</event>
<event>
12    6  0.8914180E-008  0.1627825E+04  0.7818608E-02  0.8803634E-01
          2   -1    0    0  501    0  0.00000000000E+00  0.00000000000E+00  0.13504636722E+04  0.13504636722E+04  0.00000000000E+00 0. -1.
         -1   -1    0    0    0  501 -0.00000000000E+00 -0.00000000000E+00 -0.49053764480E+03  0.49053764480E+03  0.00000000000E+00 0.  1.
         24    2    1    2    0    0 -0.15793261288E+03  0.45827382730E+03  0.62410817866E+03  0.79320731535E+03  0.68623723782E+02 0.  0.
        254    2    1    2    0    0  0.15793261288E+03 -0.45827382730E+03  0.23581784878E+03  0.10477940017E+04  0.89850130838E+03 0.  0.
         23    2    4    4    0    0  0.52236481671E+03 -0.26569642914E+03  0.80563967691E+02  0.59792730694E+03  0.86988029601E+02 0.  0.
         23    2    4    4    0    0 -0.36443220383E+03 -0.19257739815E+03  0.15525388108E+03  0.44986669475E+03  0.91539007970E+02 0.  0.
          2    1    3    3  502    0 -0.27125597800E+02  0.12654231233E+03  0.21053764262E+03  0.24713327138E+03  0.00000000000E+00 0. -1.
         -1    1    3    3    0  502 -0.13080701508E+03  0.33173151497E+03  0.41357053604E+03  0.54607404397E+03  0.00000000000E+00 0.  1.
         11    1    5    5    0    0  0.42234263995E+02 -0.86119726380E+01 -0.13648068410E+02  0.45212486099E+02  0.00000000000E+00 0.  1.
        -11    1    5    5    0    0  0.48013055272E+03 -0.25708445650E+03  0.94212036101E+02  0.55271482084E+03  0.00000000000E+00 0. -1.
          4    1    6    6  503    0 -0.18510002381E+03 -0.48824762669E+02  0.85679157636E+02  0.20973028946E+03  0.00000000000E+00 0. -1.
         -4    1    6    6    0  503 -0.17933218002E+03 -0.14375263548E+03  0.69574723448E+02  0.24013640529E+03  0.00000000000E+00 0.  1.
<mgrwt>
<rscale>  0 0.16278246E+04</rscale>
<asrwt>0</asrwt>
<pdfrwt beam="1">  1        2 0.20776364E+00 0.16278246E+04</pdfrwt>
<pdfrwt beam="2">  1       -1 0.75467330E-01 0.16278246E+04</pdfrwt>
<totfact> 0.29744772E+01</totfact>
</mgrwt>
</event>
<event>
12    6  0.8914180E-008  0.2577340E+04  0.7818608E-02  0.8375939E-01
          2   -1    0    0  501    0  0.00000000000E+00  0.00000000000E+00  0.93615092045E+03  0.93615092045E+03  0.00000000000E+00 0. -1.
         -1   -1    0    0    0  501 -0.00000000000E+00 -0.00000000000E+00 -0.17739348357E+04  0.17739348357E+04  0.00000000000E+00 0.  1.
         24    2    1    2    0    0  0.10453594642E+04 -0.43257385989E+03 -0.31639905433E+03  0.11775745624E+04  0.81712513070E+02 0.  0.
        254    2    1    2    0    0 -0.10453594642E+04  0.43257385989E+03 -0.52138486093E+03  0.15325111937E+04  0.89266557673E+03 0.  0.
         23    2    4    4    0    0 -0.90760897053E+03 -0.66897477961E+02 -0.34345685326E+03  0.97707260637E+03  0.92081225703E+02 0.  0.
         23    2    4    4    0    0 -0.13775049372E+03  0.49947133785E+03 -0.17792800767E+03  0.55543858734E+03  0.91688780860E+02 0.  0.
          4    1    3    3  502    0  0.70880973560E+03 -0.27005346135E+03 -0.24484641921E+03  0.79705074008E+03  0.00000000000E+00 0. -1.
         -3    1    3    3    0  502  0.33654972865E+03 -0.16252039854E+03 -0.71552635118E+02  0.38052382236E+03  0.00000000000E+00 0.  1.
         11    1    5    5    0    0 -0.82344927484E+03 -0.84578261361E+02 -0.32379807038E+03  0.88885734565E+03  0.00000000000E+00 0. -1.
        -11    1    5    5    0    0 -0.84159695686E+02  0.17680783400E+02 -0.19658782875E+02  0.88215260719E+02  0.00000000000E+00 0.  1.
          4    1    6    6  503    0 -0.11727663731E+03  0.28937618950E+03 -0.13425561103E+03  0.33987785718E+03  0.00000000000E+00 0. -1.
         -4    1    6    6    0  503 -0.20473856405E+02  0.21009514835E+03 -0.43672396636E+02  0.21556073016E+03  0.00000000000E+00 0.  1.
<mgrwt>
<rscale>  0 0.25773403E+04</rscale>
<asrwt>0</asrwt>
<pdfrwt beam="1">  1        2 0.14402322E+00 0.25773403E+04</pdfrwt>
<pdfrwt beam="2">  1       -1 0.27291305E+00 0.25773403E+04</pdfrwt>
<totfact> 0.13860058E+00</totfact>
</mgrwt>
</event>
<event>
12    6  0.8914180E-008  0.2225694E+04  0.7818608E-02  0.8507809E-01
          2   -1    0    0  501    0  0.00000000000E+00  0.00000000000E+00  0.72148272672E+03  0.72148272672E+03  0.00000000000E+00 0. -1.
         -1   -1    0    0    0  501 -0.00000000000E+00 -0.00000000000E+00 -0.17165044208E+04  0.17165044208E+04  0.00000000000E+00 0.  1.
         24    2    1    2    0    0 -0.52174023289E+03  0.41817375817E+03 -0.11209531197E+04  0.13076652590E+04  0.79814599580E+02 0.  0.
        254    2    1    2    0    0  0.52174023289E+03 -0.41817375817E+03  0.12593142571E+03  0.11303218885E+04  0.90259995841E+03 0.  0.
         23    2    4    4    0    0  0.29754894628E+02  0.13825147945E+03  0.31662621666E+03  0.35801623652E+03  0.89020442652E+02 0.  0.
         23    2    4    4    0    0  0.49198533826E+03 -0.55642523762E+03 -0.19069479095E+03  0.77230565195E+03  0.91830815138E+02 0.  0.
          2    1    3    3  502    0 -0.10386039795E+03  0.50335638200E+02 -0.16364767698E+03  0.20025289241E+03  0.00000000000E+00 0. -1.
         -1    1    3    3    0  502 -0.41787983493E+03  0.36783811997E+03 -0.95730544277E+03  0.11074123666E+04  0.00000000000E+00 0.  1.
         11    1    5    5    0    0 -0.28412069935E+01  0.11358844661E+03  0.28343709111E+03  0.30536370491E+03  0.00000000000E+00 0.  1.
        -11    1    5    5    0    0  0.32596101622E+02  0.24663032841E+02  0.33189125549E+02  0.52652531607E+02  0.00000000000E+00 0. -1.
          1    1    6    6  503    0  0.24606274858E+03 -0.34626044742E+03 -0.11494170515E+03  0.44006223341E+03  0.00000000000E+00 0. -1.
         -1    1    6    6    0  503  0.24592258969E+03 -0.21016479020E+03 -0.75753085799E+02  0.33224341854E+03  0.00000000000E+00 0.  1.
<mgrwt>
<rscale>  0 0.22256939E+04</rscale>
<asrwt>0</asrwt>
<pdfrwt beam="1">  1        2 0.11099734E+00 0.22256939E+04</pdfrwt>
<pdfrwt beam="2">  1       -1 0.26407760E+00 0.22256939E+04</pdfrwt>
<totfact> 0.23164995E+00</totfact>
</mgrwt>
</event>
<event>
12    6  0.8914180E-008  0.1616012E+04  0.7818608E-02  0.8810771E-01
         -1   -1    0    0    0  501 -0.00000000000E+00  0.00000000000E+00  0.86749995867E+03  0.86749995867E+03  0.00000000000E+00 0.  1.
          2   -1    0    0  501    0  0.00000000000E+00 -0.00000000000E+00 -0.75259245547E+03  0.75259245547E+03  0.00000000000E+00 0. -1.
         24    2    1    2    0    0  0.32272134132E+03  0.34890090370E+03  0.32139587990E+03  0.57947690252E+03  0.81346568386E+02 0.  0.
        254    2    1    2    0    0 -0.32272134132E+03 -0.34890090370E+03 -0.20648837670E+03  0.10406155116E+04  0.90242023946E+03 0.  0.
         23    2    4    4    0    0 -0.62711157276E+03 -0.24376106453E+03 -0.19281596384E+03  0.70589769793E+03  0.91788794305E+02 0.  0.
         23    2    4    4    0    0  0.30439023144E+03 -0.10513983916E+03 -0.13672412864E+02  0.33471781370E+03  0.90229048318E+02 0.  0.
          2    1    3    3  502    0  0.78376556374E+02  0.76413627060E+02  0.11721449706E+03  0.16037819462E+03  0.00000000000E+00 0. -1.
         -1    1    3    3    0  502  0.24434478495E+03  0.27248727664E+03  0.20418138284E+03  0.41909870790E+03  0.00000000000E+00 0.  1.
         11    1    5    5    0    0 -0.49293869412E+03 -0.16660453833E+03 -0.11598839413E+03  0.53310311941E+03  0.00000000000E+00 0.  1.
        -11    1    5    5    0    0 -0.13417287864E+03 -0.77156526207E+02 -0.76827569708E+02  0.17279457852E+03  0.00000000000E+00 0. -1.
          1    1    6    6  503    0  0.33845320175E+02  0.14582565044E+02  0.91984539255E+01  0.37983792012E+02  0.00000000000E+00 0. -1.
         -1    1    6    6    0  503  0.27054491126E+03 -0.11972240421E+03 -0.22870866789E+02  0.29673402169E+03  0.00000000000E+00 0.  1.
<mgrwt>
<rscale>  0 0.16160123E+04</rscale>
<asrwt>0</asrwt>
<pdfrwt beam="1">  1        2 0.11578345E+00 0.16160123E+04</pdfrwt>
<pdfrwt beam="2">  1       -1 0.13346153E+00 0.16160123E+04</pdfrwt>
<totfact> 0.19370345E+01</totfact>
</mgrwt>
</event>
<event>
12    6  0.8914180E-008  0.1567179E+04  0.7818608E-02  0.8840969E-01
         -1   -1    0    0    0  501 -0.00000000000E+00  0.00000000000E+00  0.71338054038E+03  0.71338054038E+03  0.00000000000E+00 0.  1.
          2   -1    0    0  501    0  0.00000000000E+00 -0.00000000000E+00 -0.86070869937E+03  0.86070869937E+03  0.00000000000E+00 0. -1.
         24    2    1    2    0    0  0.13138465721E+03 -0.36915045421E+03 -0.40055285713E+03  0.56619509944E+03  0.81242312106E+02 0.  0.
        254    2    1    2    0    0 -0.13138465721E+03  0.36915045421E+03  0.25322469814E+03  0.10078941403E+04  0.89341695995E+03 0.  0.
         23    2    4    4    0    0 -0.49038431325E+03  0.32768362673E+03  0.97069852280E+02  0.60457346750E+03  0.90736913491E+02 0.  0.
         23    2    4    4    0    0  0.35899965604E+03  0.41466827473E+02  0.15615484586E+03  0.40332067281E+03  0.87652600702E+02 0.  0.
          2    1    3    3  502    0  0.13804336197E+03 -0.36698254216E+03 -0.39813257447E+03  0.55878591866E+03  0.00000000000E+00 0. -1.
         -1    1    3    3    0  502 -0.66587047546E+01 -0.21679120478E+01 -0.24202826579E+01  0.74091807780E+01  0.00000000000E+00 0.  1.
         11    1    5    5    0    0 -0.97801101227E+02  0.11203882251E+03  0.28955695971E+02  0.15151298783E+03  0.00000000000E+00 0.  1.
        -11    1    5    5    0    0 -0.39258321203E+03  0.21564480422E+03  0.68114156310E+02  0.45306047968E+03  0.00000000000E+00 0. -1.
          2    1    6    6  503    0  0.32902751544E+03  0.21277508426E+02  0.16088785681E+03  0.36687428467E+03  0.00000000000E+00 0. -1.
         -2    1    6    6    0  503  0.29972140603E+02  0.20189319047E+02 -0.47330109491E+01  0.36446388141E+02  0.00000000000E+00 0.  1.
<mgrwt>
<rscale>  0 0.15671794E+04</rscale>
<asrwt>0</asrwt>
<pdfrwt beam="1">  1        2 0.13241672E+00 0.15671794E+04</pdfrwt>
<pdfrwt beam="2">  1       -1 0.10975085E+00 0.15671794E+04</pdfrwt>
<totfact> 0.26274710E+01</totfact>
</mgrwt>
</event>
<event>
12    6  0.8914180E-008  0.2088463E+04  0.7818608E-02  0.8566343E-01
          2   -1    0    0  501    0  0.00000000000E+00  0.00000000000E+00  0.15217300888E+04  0.15217300888E+04  0.00000000000E+00 0. -1.
         -1   -1    0    0    0  501 -0.00000000000E+00 -0.00000000000E+00 -0.71656556330E+03  0.71656556330E+03  0.00000000000E+00 0.  1.
         24    2    1    2    0    0 -0.48619294245E+03  0.23345102203E+03  0.10450239052E+04  0.11789059444E+04  0.82833001531E+02 0.  0.
        254    2    1    2    0    0  0.48619294245E+03 -0.23345102203E+03 -0.23985937976E+03  0.10593897077E+04  0.87971078987E+03 0.  0.
         23    2    4    4    0    0  0.58982111137E+02  0.25537492317E+03  0.13033190923E+03  0.30646046714E+03  0.90754451900E+02 0.  0.
         23    2    4    4    0    0  0.42721083131E+03 -0.48882594520E+03 -0.37019128899E+03  0.75292924058E+03  0.91656706202E+02 0.  0.
          4    1    3    3  502    0 -0.48321410252E+03  0.22635714398E+03  0.10022579409E+04  0.11354533921E+04  0.00000000000E+00 0. -1.
         -3    1    3    3    0  502 -0.29788399313E+01  0.70938780465E+01  0.42765964314E+02  0.43452552247E+02  0.00000000000E+00 0.  1.
         11    1    5    5    0    0 -0.45951390180E+01  0.13973055910E+03  0.97568770844E+02  0.17048580438E+03  0.00000000000E+00 0.  1.
        -11    1    5    5    0    0  0.63577250155E+02  0.11564436407E+03  0.32763138389E+02  0.13597466277E+03  0.00000000000E+00 0. -1.
          4    1    6    6  503    0  0.11823916767E+03 -0.16982851972E+03 -0.77088589577E+02  0.22082771005E+03  0.00000000000E+00 0. -1.
         -4    1    6    6    0  503  0.30897166365E+03 -0.31899742548E+03 -0.29310269941E+03  0.53210153054E+03  0.00000000000E+00 0.  1.
<mgrwt>
<rscale>  0 0.20884630E+04</rscale>
<asrwt>0</asrwt>
<pdfrwt beam="1">  1        2 0.23411232E+00 0.20884630E+04</pdfrwt>
<pdfrwt beam="2">  1       -1 0.11024086E+00 0.20884630E+04</pdfrwt>
<totfact> 0.98459573E+00</totfact>
</mgrwt>
</event>
<event>
12    6  0.8914180E-008  0.2953146E+04  0.7818608E-02  0.8257238E-01
          2   -1    0    0  501    0  0.00000000000E+00  0.00000000000E+00  0.26457317247E+04  0.26457317247E+04  0.00000000000E+00 0. -1.
         -1   -1    0    0    0  501 -0.00000000000E+00 -0.00000000000E+00 -0.82406967029E+03  0.82406967029E+03  0.00000000000E+00 0.  1.
         24    2    1    2    0    0  0.10649199294E+04  0.15263788295E+03  0.17618648089E+04  0.20660831190E+04  0.84729395658E+02 0.  0.
        254    2    1    2    0    0 -0.10649199294E+04 -0.15263788295E+03  0.59797245538E+02  0.14037182760E+04  0.89972023893E+03 0.  0.
         23    2    4    4    0    0 -0.77502268093E+03  0.10870470809E+03 -0.32135742424E+03  0.85091306703E+03  0.91134976857E+02 0.  0.
         23    2    4    4    0    0 -0.28989724850E+03 -0.26134259103E+03  0.38115466978E+03  0.55280520896E+03  0.89299228308E+02 0.  0.
          2    1    3    3  502    0  0.69536008396E+03  0.13744930656E+03  0.11857794010E+04  0.13814813593E+04  0.00000000000E+00 0. -1.
         -3    1    3    3    0  502  0.36955984547E+03  0.15188576384E+02  0.57608540783E+03  0.68460175968E+03  0.00000000000E+00 0.  1.
         11    1    5    5    0    0 -0.52500599370E+03  0.98873215370E+02 -0.18123702903E+03  0.56414011277E+03  0.00000000000E+00 0. -1.
        -11    1    5    5    0    0 -0.25001668723E+03  0.98314927149E+01 -0.14012039521E+03  0.28677295426E+03  0.00000000000E+00 0.  1.
          2    1    6    6  503    0 -0.19717405408E+03 -0.22434088834E+03  0.26152125999E+03  0.39698842705E+03  0.00000000000E+00 0. -1.
         -2    1    6    6    0  503 -0.92723194419E+02 -0.37001702694E+02  0.11963340979E+03  0.15581678191E+03  0.00000000000E+00 0.  1.
<mgrwt>
<rscale>  0 0.29531456E+04</rscale>
<asrwt>0</asrwt>
<pdfrwt beam="1">  1        2 0.40703565E+00 0.29531456E+04</pdfrwt>
<pdfrwt beam="2">  1       -1 0.12677995E+00 0.29531456E+04</pdfrwt>
<totfact> 0.15083684E+00</totfact>
</mgrwt>
</event>
<event>
12    6  0.8914180E-008  0.2038053E+04  0.7818608E-02  0.8589034E-01
         -1   -1    0    0    0  501 -0.00000000000E+00  0.00000000000E+00  0.67292803074E+03  0.67292803074E+03  0.00000000000E+00 0.  1.
          2   -1    0    0  501    0  0.00000000000E+00 -0.00000000000E+00 -0.15431289607E+04  0.15431289607E+04  0.00000000000E+00 0. -1.
         24    2    1    2    0    0 -0.26097757897E+03  0.35748557441E+03 -0.11064715987E+04  0.11951072331E+04  0.89981482663E+02 0.  0.
        254    2    1    2    0    0  0.26097757897E+03 -0.35748557441E+03  0.23627066877E+03  0.10209497583E+04  0.88916216038E+03 0.  0.
         23    2    4    4    0    0 -0.44139606585E+02 -0.27890976864E+03  0.51234176157E+03  0.59214931150E+03  0.91693852274E+02 0.  0.
         23    2    4    4    0    0  0.30511718555E+03 -0.78575805770E+02 -0.27607109280E+03  0.42880044682E+03  0.91563752315E+02 0.  0.
          4    1    3    3  502    0 -0.19495736257E+03  0.25745651906E+03 -0.90237398039E+03  0.95842111460E+03  0.00000000000E+00 0. -1.
         -3    1    3    3    0  502 -0.66020216394E+02  0.10002905535E+03 -0.20409761834E+03  0.23668611852E+03  0.00000000000E+00 0.  1.
         11    1    5    5    0    0  0.27059060570E+02 -0.49023921443E+02  0.10629167713E+03  0.12013932853E+03  0.00000000000E+00 0. -1.
        -11    1    5    5    0    0 -0.71198667155E+02 -0.22988584720E+03  0.40605008444E+03  0.47200998297E+03  0.00000000000E+00 0.  1.
          2    1    6    6  503    0  0.12419694382E+03  0.47312973169E+01 -0.71986818029E+02  0.14362927278E+03  0.00000000000E+00 0.  1.
         -2    1    6    6    0  503  0.18092024173E+03 -0.83307103087E+02 -0.20408427478E+03  0.28517117404E+03  0.00000000000E+00 0. -1.
<mgrwt>
<rscale>  0 0.20380527E+04</rscale>
<asrwt>0</asrwt>
<pdfrwt beam="1">  1        2 0.23740445E+00 0.20380527E+04</pdfrwt>
<pdfrwt beam="2">  1       -1 0.10352739E+00 0.20380527E+04</pdfrwt>
<totfact> 0.11142634E+01</totfact>
</mgrwt>
</event>
<event>
12    6  0.8914180E-008  0.2005061E+04  0.7818608E-02  0.8604258E-01
         -1   -1    0    0    0  501 -0.00000000000E+00  0.00000000000E+00  0.10569191881E+04  0.10569191881E+04  0.00000000000E+00 0.  1.
          2   -1    0    0  501    0  0.00000000000E+00 -0.00000000000E+00 -0.95094025042E+03  0.95094025042E+03  0.00000000000E+00 0. -1.
         24    2    1    2    0    0 -0.71605824210E+02 -0.79840299169E+03  0.11667901807E+03  0.81389418695E+03  0.78962162476E+02 0.  0.
        254    2    1    2    0    0  0.71605824210E+02  0.79840299169E+03 -0.10700080418E+02  0.11939652515E+04  0.88479590808E+03 0.  0.
         23    2    4    4    0    0  0.30026859795E+03  0.71480475299E+03 -0.26969912799E+03  0.82683313441E+03  0.99037097676E+02 0.  0.
         23    2    4    4    0    0 -0.22866277374E+03  0.83598238699E+02  0.25899904757E+03  0.36713211712E+03  0.91815876444E+02 0.  0.
          2    1    3    3  502    0  0.14534541410E+02 -0.11629492173E+03  0.29567451052E+02  0.12087181589E+03  0.00000000000E+00 0. -1.
         -1    1    3    3    0  502 -0.86140365620E+02 -0.68210806996E+03  0.87111567020E+02  0.69302237106E+03  0.00000000000E+00 0.  1.
         11    1    5    5    0    0  0.89288906674E+02  0.16534146592E+03 -0.25598382748E+02  0.18964595015E+03  0.00000000000E+00 0. -1.
        -11    1    5    5    0    0  0.21097969128E+03  0.54946328707E+03 -0.24410074524E+03  0.63718718427E+03  0.00000000000E+00 0.  1.
          4    1    6    6  503    0 -0.64110160763E+02  0.31257192418E+02  0.23471289608E+02  0.75086791294E+02  0.00000000000E+00 0. -1.
         -4    1    6    6    0  503 -0.16455261298E+03  0.52341046281E+02  0.23552775796E+03  0.29204532582E+03  0.00000000000E+00 0.  1.
<mgrwt>
<rscale>  0 0.20050606E+04</rscale>
<asrwt>0</asrwt>
<pdfrwt beam="1">  1        2 0.14629850E+00 0.20050606E+04</pdfrwt>
<pdfrwt beam="2">  1       -1 0.16260295E+00 0.20050606E+04</pdfrwt>
<totfact> 0.80227594E+00</totfact>
</mgrwt>
</event>
<event>
12    6  0.8914180E-008  0.1326829E+04  0.7818608E-02  0.9008556E-01
          2   -1    0    0  501    0  0.00000000000E+00  0.00000000000E+00  0.18223385556E+04  0.18223385556E+04  0.00000000000E+00 0. -1.
         -1   -1    0    0    0  501 -0.00000000000E+00 -0.00000000000E+00 -0.24151312315E+03  0.24151312315E+03  0.00000000000E+00 0.  1.
         24    2    1    2    0    0  0.91957891939E+02 -0.63110485631E+02 -0.52430651840E+02  0.14772808733E+03  0.81458131871E+02 0.  0.
        254    2    1    2    0    0 -0.91957891939E+02  0.63110485631E+02  0.16332560843E+04  0.19161235914E+04  0.99577356533E+03 0.  0.
         23    2    4    4    0    0  0.22794495448E+02 -0.44324777395E+03  0.56131643587E+03  0.72142718217E+03  0.91612553000E+02 0.  0.
         23    2    4    4    0    0 -0.11475238739E+03  0.50635825958E+03  0.10719396484E+04  0.11946964092E+04  0.93156336020E+02 0.  0.
          2    1    3    3  502    0  0.25630965445E+02  0.52399298535E+01  0.15805439235E+02  0.30564933567E+02  0.00000000000E+00 0. -1.
         -1    1    3    3    0  502  0.66326926494E+02 -0.68350415485E+02 -0.68236091075E+02  0.11716315377E+03  0.00000000000E+00 0.  1.
         11    1    5    5    0    0 -0.22171356286E+02 -0.13931783478E+03  0.22797900210E+03  0.26809597819E+03  0.00000000000E+00 0. -1.
        -11    1    5    5    0    0  0.44965851735E+02 -0.30392993917E+03  0.33333743377E+03  0.45333120398E+03  0.00000000000E+00 0.  1.
          2    1    6    6  503    0 -0.33728813534E+02  0.31307245917E+03  0.57976630795E+03  0.65975826587E+03  0.00000000000E+00 0. -1.
         -2    1    6    6    0  503 -0.81023573854E+02  0.19328580041E+03  0.49217334046E+03  0.53493814335E+03  0.00000000000E+00 0.  1.
<mgrwt>
<rscale>  0 0.13268288E+04</rscale>
<asrwt>0</asrwt>
<pdfrwt beam="1">  1        2 0.28035977E+00 0.13268288E+04</pdfrwt>
<pdfrwt beam="2">  1       -1 0.37155866E-01 0.13268288E+04</pdfrwt>
<totfact> 0.65127772E+01</totfact>
</mgrwt>
</event>
<event>
12    6  0.8914180E-008  0.2578469E+04  0.7818608E-02  0.8375552E-01
          2   -1    0    0  501    0  0.00000000000E+00  0.00000000000E+00  0.31848759001E+04  0.31848759001E+04  0.00000000000E+00 0. -1.
         -1   -1    0    0    0  501 -0.00000000000E+00 -0.00000000000E+00 -0.52188063859E+03  0.52188063859E+03  0.00000000000E+00 0.  1.
         24    2    1    2    0    0  0.12584717882E+03  0.15689620028E+03  0.27073446081E+04  0.27160151985E+04  0.81054310828E+02 0.  0.
        254    2    1    2    0    0 -0.12584717882E+03 -0.15689620028E+03 -0.44349346623E+02  0.99074134017E+03  0.96909628443E+03 0.  0.
         23    2    4    4    0    0 -0.27086891239E+03  0.20781386566E+03 -0.34049355609E+03  0.49092111710E+03  0.92255682851E+02 0.  0.
         23    2    4    4    0    0  0.14502173357E+03 -0.36471006594E+03  0.29614420947E+03  0.49982022306E+03  0.89856147122E+02 0.  0.
          2    1    3    3  502    0  0.91959511413E+02  0.67177370838E+02  0.18047837406E+04  0.18083732196E+04  0.00000000000E+00 0. -1.
         -1    1    3    3    0  502  0.33887667405E+02  0.89718829445E+02  0.90256086753E+03  0.90764197896E+03  0.00000000000E+00 0.  1.
         11    1    5    5    0    0 -0.26281657420E+03  0.19924742370E+03 -0.34594272383E+03  0.47796281832E+03  0.00000000000E+00 0. -1.
        -11    1    5    5    0    0 -0.80523381954E+01  0.85664419617E+01  0.54491677427E+01  0.12958298784E+02  0.00000000000E+00 0.  1.
          2    1    6    6  503    0  0.11783992067E+03 -0.18184085234E+03  0.14153134821E+03  0.25881164002E+03  0.00000000000E+00 0.  1.
         -2    1    6    6    0  503  0.27181812906E+02 -0.18286921360E+03  0.15461286125E+03  0.24100858305E+03  0.00000000000E+00 0. -1.
<mgrwt>
<rscale>  0 0.25784686E+04</rscale>
<asrwt>0</asrwt>
<pdfrwt beam="1">  1        2 0.48998089E+00 0.25784686E+04</pdfrwt>
<pdfrwt beam="2">  1       -1 0.80289331E-01 0.25784686E+04</pdfrwt>
<totfact> 0.20693429E+00</totfact>
</mgrwt>
</event>
<event>
12    6  0.8914180E-008  0.3323139E+04  0.7818608E-02  0.8157032E-01
          2   -1    0    0  501    0  0.00000000000E+00  0.00000000000E+00  0.40341672212E+04  0.40341672212E+04  0.00000000000E+00 0. -1.
         -1   -1    0    0    0  501 -0.00000000000E+00 -0.00000000000E+00 -0.68435768159E+03  0.68435768159E+03  0.00000000000E+00 0.  1.
         24    2    1    2    0    0 -0.96297370051E+03  0.63825677027E+03  0.29906502571E+04  0.32069574745E+04  0.76793425605E+02 0.  0.
        254    2    1    2    0    0  0.96297370051E+03 -0.63825677027E+03  0.35915928247E+03  0.15115674283E+04  0.90617362981E+03 0.  0.
         23    2    4    4    0    0  0.26989403413E+03 -0.62383455930E+03  0.42852433584E+03  0.80884895614E+03  0.92688620698E+02 0.  0.
         23    2    4    4    0    0  0.69307966638E+03 -0.14422210965E+02 -0.69365053371E+02  0.70271847213E+03  0.91838533982E+02 0.  0.
          2    1    3    3  502    0 -0.48538591737E+03  0.33561692612E+03  0.14258138489E+04  0.15431083376E+04  0.00000000000E+00 0. -1.
         -1    1    3    3    0  502 -0.47758778313E+03  0.30263984415E+03  0.15648364082E+04  0.16638491369E+04  0.00000000000E+00 0.  1.
         11    1    5    5    0    0  0.15799458724E+03 -0.25247483681E+03  0.19836188170E+03  0.35784531425E+03  0.00000000000E+00 0. -1.
        -11    1    5    5    0    0  0.11189944689E+03 -0.37135972249E+03  0.23016245414E+03  0.45100364189E+03  0.00000000000E+00 0.  1.
          3    1    6    6  503    0  0.67346764866E+03 -0.25584526709E+02 -0.55503543339E+02  0.67623508125E+03  0.00000000000E+00 0. -1.
         -3    1    6    6    0  503  0.19612017725E+02  0.11162315744E+02 -0.13861510032E+02  0.26483390878E+02  0.00000000000E+00 0.  1.
<mgrwt>
<rscale>  0 0.33231391E+04</rscale>
<asrwt>0</asrwt>
<pdfrwt beam="1">  1        2 0.62064110E+00 0.33231391E+04</pdfrwt>
<pdfrwt beam="2">  1       -1 0.10528580E+00 0.33231391E+04</pdfrwt>
<totfact> 0.25633560E-01</totfact>
</mgrwt>
</event>
<event>
12    6  0.8914180E-008  0.2025248E+04  0.7818608E-02  0.8594906E-01
          2   -1    0    0  501    0  0.00000000000E+00  0.00000000000E+00  0.16790044156E+04  0.16790044156E+04  0.00000000000E+00 0. -1.
         -1   -1    0    0    0  501 -0.00000000000E+00 -0.00000000000E+00 -0.61072374794E+03  0.61072374794E+03  0.00000000000E+00 0.  1.
         24    2    1    2    0    0  0.10338674128E+02 -0.22526872511E+03  0.13037048202E+04  0.13250098154E+04  0.71776499297E+02 0.  0.
        254    2    1    2    0    0 -0.10338674128E+02  0.22526872511E+03 -0.23542415252E+03  0.96471834822E+03  0.90796700002E+03 0.  0.
         23    2    4    4    0    0  0.28266627269E+03 -0.83973014818E+02 -0.39460605108E+03  0.50122059561E+03  0.92501140461E+02 0.  0.
         23    2    4    4    0    0 -0.29300494682E+03  0.30924173992E+03  0.15918189856E+03  0.46349775261E+03  0.89492666063E+02 0.  0.
          2    1    3    3  502    0  0.81874024932E+01 -0.12980727589E+03  0.94101936254E+03  0.94996547469E+03  0.00000000000E+00 0. -1.
         -1    1    3    3    0  502  0.21512716351E+01 -0.95461449221E+02  0.36268545769E+03  0.37504434068E+03  0.00000000000E+00 0.  1.
         11    1    5    5    0    0  0.57332905351E+02 -0.13897199408E+02 -0.28166526586E+02  0.65372374955E+02  0.00000000000E+00 0.  1.
        -11    1    5    5    0    0  0.22533336734E+03 -0.70075815410E+02 -0.36643952449E+03  0.43584822066E+03  0.00000000000E+00 0. -1.
          4    1    6    6  503    0 -0.23129543114E+03  0.27320676056E+03  0.10268758882E+03  0.37240334502E+03  0.00000000000E+00 0.  1.
         -4    1    6    6    0  503 -0.61709515678E+02  0.36034979362E+02  0.56494309733E+02  0.91094407595E+02  0.00000000000E+00 0. -1.
<mgrwt>
<rscale>  0 0.20252485E+04</rscale>
<asrwt>0</asrwt>
<pdfrwt beam="1">  1        2 0.25830837E+00 0.20252485E+04</pdfrwt>
<pdfrwt beam="2">  1       -1 0.93957500E-01 0.20252485E+04</pdfrwt>
<totfact> 0.11677092E+01</totfact>
</mgrwt>
</event>
<event>
12    6  0.9326630E-008  0.1885600E+04  0.7818608E-02  0.8662058E-01
         -1   -1    0    0    0  501 -0.00000000000E+00  0.00000000000E+00  0.65826512241E+03  0.65826512241E+03  0.00000000000E+00 0.  1.
          2   -1    0    0  501    0  0.00000000000E+00 -0.00000000000E+00 -0.13503243132E+04  0.13503243132E+04  0.00000000000E+00 0. -1.
         24    2    1    2    0    0  0.30845081642E+03  0.16567198889E+03 -0.94480809016E+03  0.10107149182E+04  0.79329720738E+02 0.  0.
        254    2    1    2    0    0 -0.30845081642E+03 -0.16567198889E+03  0.25274889936E+03  0.99787451743E+03  0.89960126298E+03 0.  0.
         23    2    4    4    0    0  0.14885438209E+03  0.26984733763E+03  0.39582503693E+02  0.32517702390E+03  0.95906775469E+02 0.  0.
         23    2    4    4    0    0 -0.45730519851E+03 -0.43551932652E+03  0.21316639566E+03  0.67269749353E+03  0.90977344446E+02 0.  0.
          4    1    3    3  502    0  0.27947119996E+03  0.17353205013E+03 -0.86793770125E+03  0.92818822298E+03  0.00000000000E+00 0. -1.
         -3    1    3    3    0  502  0.28979616456E+02 -0.78600612441E+01 -0.76870388910E+02  0.82526695220E+02  0.00000000000E+00 0.  1.
         11    1    5    5    0    0 -0.61299390468E+01  0.65837161579E+02  0.14958526020E+02  0.67792813027E+02  0.00000000000E+00 0. -1.
        -11    1    5    5    0    0  0.15498432113E+03  0.20401017605E+03  0.24623977673E+02  0.25738421087E+03  0.00000000000E+00 0.  1.
          3    1    6    6  503    0 -0.69420760367E+01 -0.33594176769E+02  0.88776214378E+01  0.35434069691E+02  0.00000000000E+00 0. -1.
         -3    1    6    6    0  503 -0.45036312247E+03 -0.40192514975E+03  0.20428877423E+03  0.63726342383E+03  0.00000000000E+00 0.  1.
<mgrwt>
<rscale>  0 0.18855995E+04</rscale>
<asrwt>0</asrwt>
<pdfrwt beam="1">  1        2 0.20774220E+00 0.18855995E+04</pdfrwt>
<pdfrwt beam="2">  1       -1 0.10127156E+00 0.18855995E+04</pdfrwt>
<totfact> 0.15293134E+01</totfact>
</mgrwt>
</event>
<event>
12    6  0.8914180E-008  0.2902258E+04  0.7818608E-02  0.8272206E-01
          2   -1    0    0  501    0  0.00000000000E+00  0.00000000000E+00  0.13817630242E+04  0.13817630242E+04  0.00000000000E+00 0. -1.
         -1   -1    0    0    0  501 -0.00000000000E+00 -0.00000000000E+00 -0.15239774501E+04  0.15239774501E+04  0.00000000000E+00 0.  1.
         24    2    1    2    0    0  0.41434529179E+03 -0.52194353480E+03  0.10679205160E+04  0.12603091941E+04  0.61789658180E+02 0.  0.
        254    2    1    2    0    0 -0.41434529179E+03  0.52194353480E+03 -0.12101349419E+04  0.16454312802E+04  0.89381790424E+03 0.  0.
         23    2    4    4    0    0 -0.47697901545E+03  0.72511793353E+03 -0.85547062641E+03  0.12220756311E+04  0.91289959700E+02 0.  0.
         23    2    4    4    0    0  0.62633723660E+02 -0.20317439873E+03 -0.35466431549E+03  0.42335564912E+03  0.90776700341E+02 0.  0.
          2    1    3    3  502    0  0.35563364826E+03 -0.43596498147E+03  0.85842260413E+03  0.10263674411E+04  0.00000000000E+00 0. -1.
         -1    1    3    3    0  502  0.58711643528E+02 -0.85978553330E+02  0.20949791186E+03  0.23394175299E+03  0.00000000000E+00 0.  1.
         11    1    5    5    0    0 -0.14357877452E+03  0.15250957710E+03 -0.18550753809E+03  0.27979828857E+03  0.00000000000E+00 0.  1.
        -11    1    5    5    0    0 -0.33340024093E+03  0.57260835643E+03 -0.66996308832E+03  0.94227734252E+03  0.00000000000E+00 0. -1.
          3    1    6    6  503    0  0.46076599591E+02 -0.19287373097E+03 -0.35153135218E+03  0.40360577386E+03  0.00000000000E+00 0. -1.
         -3    1    6    6    0  503  0.16557124069E+02 -0.10300667755E+02 -0.31329633062E+01  0.19749875258E+02  0.00000000000E+00 0.  1.
<mgrwt>
<rscale>  0 0.29022582E+04</rscale>
<asrwt>0</asrwt>
<pdfrwt beam="1">  1        2 0.21257893E+00 0.29022582E+04</pdfrwt>
<pdfrwt beam="2">  1       -1 0.23445807E+00 0.29022582E+04</pdfrwt>
<totfact> 0.12847974E+00</totfact>
</mgrwt>
</event>
<event>
12    6  0.8914180E-008  0.2724256E+04  0.7818608E-02  0.8327177E-01
         -1   -1    0    0    0  501 -0.00000000000E+00  0.00000000000E+00  0.34990456020E+04  0.34990456020E+04  0.00000000000E+00 0.  1.
          2   -1    0    0  501    0  0.00000000000E+00 -0.00000000000E+00 -0.53025678948E+03  0.53025678948E+03  0.00000000000E+00 0. -1.
         24    2    1    2    0    0 -0.78879227331E+03  0.20232743836E+03 -0.87222492777E+01  0.81839773487E+03  0.81050182390E+02 0.  0.
        254    2    1    2    0    0  0.78879227331E+03 -0.20232743836E+03  0.29775110618E+04  0.32109046566E+04  0.88385912221E+03 0.  0.
         23    2    4    4    0    0  0.40310990794E+03 -0.41872045932E+02  0.26268915511E+04  0.26596318276E+04  0.93975373667E+02 0.  0.
         23    2    4    4    0    0  0.38568236536E+03 -0.16045539243E+03  0.35061951070E+03  0.55127282903E+03  0.80441723232E+02 0.  0.
          2    1    3    3  502    0 -0.50839647834E+03  0.15126114612E+03  0.27293094434E+02  0.53112317453E+03  0.00000000000E+00 0. -1.
         -1    1    3    3    0  502 -0.28039579496E+03  0.51066292238E+02 -0.36015343712E+02  0.28727456034E+03  0.00000000000E+00 0.  1.
         11    1    5    5    0    0  0.32716309271E+03 -0.67748980940E+02  0.22066221955E+04  0.22317721943E+04  0.00000000000E+00 0. -1.
        -11    1    5    5    0    0  0.75946815232E+02  0.25876935007E+02  0.42026935562E+03  0.42785963327E+03  0.00000000000E+00 0.  1.
          4    1    6    6  503    0  0.31038220239E+03 -0.94089976053E+02  0.25400258749E+03  0.41195551897E+03  0.00000000000E+00 0. -1.
         -4    1    6    6    0  503  0.75300162972E+02 -0.66365416375E+02  0.96616923202E+02  0.13931731006E+03  0.00000000000E+00 0.  1.
<mgrwt>
<rscale>  0 0.27242560E+04</rscale>
<asrwt>0</asrwt>
<pdfrwt beam="1">  1        2 0.81577970E-01 0.27242560E+04</pdfrwt>
<pdfrwt beam="2">  1       -1 0.53831469E+00 0.27242560E+04</pdfrwt>
<totfact> 0.49615806E-02</totfact>
</mgrwt>
</event>
<event>
12    6  0.8914180E-008  0.2251790E+04  0.7818608E-02  0.8497176E-01
          2   -1    0    0  501    0  0.00000000000E+00  0.00000000000E+00  0.17026667278E+04  0.17026667278E+04  0.00000000000E+00 0. -1.
         -1   -1    0    0    0  501 -0.00000000000E+00 -0.00000000000E+00 -0.74450232314E+03  0.74450232314E+03  0.00000000000E+00 0.  1.
         24    2    1    2    0    0  0.18512615520E+03  0.56504578025E+03  0.12015644446E+04  0.13430810169E+04  0.81000469599E+02 0.  0.
        254    2    1    2    0    0 -0.18512615520E+03 -0.56504578025E+03 -0.24340004004E+03  0.11040880340E+04  0.89789664233E+03 0.  0.
         23    2    4    4    0    0 -0.20778694325E+03 -0.36287390383E+03  0.29703525496E+03  0.52096304291E+03  0.91212200511E+02 0.  0.
         23    2    4    4    0    0  0.22660788050E+02 -0.20217187642E+03 -0.54043529500E+03  0.58312499113E+03  0.81101592269E+02 0.  0.
          4    1    3    3  502    0  0.18024803546E+03  0.53788952085E+03  0.10977877183E+04  0.12356991403E+04  0.00000000000E+00 0. -1.
         -3    1    3    3    0  502  0.48781197392E+01  0.27156259405E+02  0.10377672639E+03  0.10738187658E+03  0.00000000000E+00 0.  1.
         11    1    5    5    0    0 -0.19251194807E+02 -0.10972344532E+03  0.92989686592E+02  0.14511004364E+03  0.00000000000E+00 0. -1.
        -11    1    5    5    0    0 -0.18853574845E+03 -0.25315045851E+03  0.20404556837E+03  0.37585299927E+03  0.00000000000E+00 0.  1.
          3    1    6    6  503    0 -0.13298750156E+02 -0.10014303266E+02 -0.14662210461E+02  0.22183855418E+02  0.00000000000E+00 0. -1.
         -3    1    6    6    0  503  0.35959538206E+02 -0.19215757316E+03 -0.52577308454E+03  0.56094113571E+03  0.00000000000E+00 0.  1.
<mgrwt>
<rscale>  0 0.22517898E+04</rscale>
<asrwt>0</asrwt>
<pdfrwt beam="1">  1        2 0.26194873E+00 0.22517898E+04</pdfrwt>
<pdfrwt beam="2">  1       -1 0.11453882E+00 0.22517898E+04</pdfrwt>
<totfact> 0.70202558E+00</totfact>
</mgrwt>
</event>
<event>
12    6  0.8914180E-008  0.3259672E+04  0.7818608E-02  0.8173233E-01
         -1   -1    0    0    0  501 -0.00000000000E+00  0.00000000000E+00  0.13163639722E+04  0.13163639722E+04  0.00000000000E+00 0.  1.
          2   -1    0    0  501    0  0.00000000000E+00 -0.00000000000E+00 -0.20179569358E+04  0.20179569358E+04  0.00000000000E+00 0. -1.
         24    2    1    2    0    0 -0.91215299300E+03 -0.10497453500E+04 -0.90878280756E+03  0.16632660335E+04  0.81113035425E+02 0.  0.
        254    2    1    2    0    0  0.91215299300E+03  0.10497453500E+04  0.20718984396E+03  0.16710548745E+04  0.90305502587E+03 0.  0.
         23    2    4    4    0    0  0.10012154951E+04  0.56245283630E+03  0.18474835419E+03  0.11667313387E+04  0.91347696715E+02 0.  0.
         23    2    4    4    0    0 -0.89062502060E+02  0.48729251365E+03  0.22441489769E+02  0.50432353581E+03  0.91937398090E+02 0.  0.
          4    1    3    3  502    0 -0.36966328224E+03 -0.44148487865E+03 -0.33046836632E+03  0.66390449724E+03  0.00000000000E+00 0. -1.
         -3    1    3    3    0  502 -0.54248971076E+03 -0.60826047131E+03 -0.57831444124E+03  0.99936153627E+03  0.00000000000E+00 0.  1.
         11    1    5    5    0    0  0.61991450583E+03  0.33973695579E+03  0.15796589192E+03  0.72433998694E+03  0.00000000000E+00 0. -1.
        -11    1    5    5    0    0  0.38130098923E+03  0.22271588051E+03  0.26782462269E+02  0.44239135175E+03  0.00000000000E+00 0.  1.
          1    1    6    6  503    0  0.33436313116E+01  0.31980727447E+02 -0.19882469692E+02  0.37805547205E+02  0.00000000000E+00 0. -1.
         -1    1    6    6    0  503 -0.92406133372E+02  0.45531178621E+03  0.42323959460E+02  0.46651798860E+03  0.00000000000E+00 0.  1.
<mgrwt>
<rscale>  0 0.32596723E+04</rscale>
<asrwt>0</asrwt>
<pdfrwt beam="1">  1        2 0.31045491E+00 0.32596723E+04</pdfrwt>
<pdfrwt beam="2">  1       -1 0.20251753E+00 0.32596723E+04</pdfrwt>
<totfact> 0.89992539E-01</totfact>
</mgrwt>
</event>
<event>
12    6  0.8914180E-008  0.1491162E+04  0.7818608E-02  0.8890351E-01
         -1   -1    0    0    0  501 -0.00000000000E+00  0.00000000000E+00  0.47264633886E+03  0.47264633886E+03  0.00000000000E+00 0.  1.
          2   -1    0    0  501    0  0.00000000000E+00 -0.00000000000E+00 -0.11761248556E+04  0.11761248556E+04  0.00000000000E+00 0. -1.
         24    2    1    2    0    0 -0.13886453991E+03  0.44074738802E+03 -0.14429991903E+03  0.49062946147E+03  0.79706846257E+02 0.  0.
        254    2    1    2    0    0  0.13886453991E+03 -0.44074738802E+03 -0.55917859775E+03  0.11581417330E+04  0.90281224468E+03 0.  0.
         23    2    4    4    0    0  0.20841451249E+03 -0.25021376218E+03 -0.77665792336E+03  0.84715181102E+03  0.91788480768E+02 0.  0.
         23    2    4    4    0    0 -0.69549972583E+02 -0.19053362584E+03  0.21747932560E+03  0.31098992202E+03  0.90979191431E+02 0.  0.
          2    1    3    3  502    0 -0.80589906951E+02  0.22247903676E+03 -0.11412553222E+03  0.26270952020E+03  0.00000000000E+00 0. -1.
         -1    1    3    3    0  502 -0.58274632956E+02  0.21826835126E+03 -0.30174386805E+02  0.22791994126E+03  0.00000000000E+00 0.  1.
         11    1    5    5    0    0  0.18454826264E+03 -0.20499583106E+03 -0.71898084960E+03  0.77007455099E+03  0.00000000000E+00 0. -1.
        -11    1    5    5    0    0  0.23866249850E+02 -0.45217931113E+02 -0.57677073762E+02  0.77077260030E+02  0.00000000000E+00 0.  1.
          3    1    6    6  503    0 -0.12302953078E+02 -0.12707624716E+03  0.17192104882E+03  0.21414150059E+03  0.00000000000E+00 0. -1.
         -3    1    6    6    0  503 -0.57247019505E+02 -0.63457378682E+02  0.45558276784E+02  0.96848421437E+02  0.00000000000E+00 0.  1.
<mgrwt>
<rscale>  0 0.14911621E+04</rscale>
<asrwt>0</asrwt>
<pdfrwt beam="1">  1        2 0.18094228E+00 0.14911621E+04</pdfrwt>
<pdfrwt beam="2">  1       -1 0.72714822E-01 0.14911621E+04</pdfrwt>
<totfact> 0.41166317E+01</totfact>
</mgrwt>
</event>
<event>
12    6  0.8914180E-008  0.2436316E+04  0.7818608E-02  0.8426031E-01
         -1   -1    0    0    0  501 -0.00000000000E+00  0.00000000000E+00  0.13862481276E+04  0.13862481276E+04  0.00000000000E+00 0.  1.
          2   -1    0    0  501    0  0.00000000000E+00 -0.00000000000E+00 -0.10704497776E+04  0.10704497776E+04  0.00000000000E+00 0. -1.
         24    2    1    2    0    0 -0.69593208280E+02 -0.39891021116E+03  0.11121900060E+04  0.11862746816E+04  0.79425687076E+02 0.  0.
        254    2    1    2    0    0  0.69593208280E+02  0.39891021116E+03 -0.79639165600E+03  0.12704232236E+04  0.90319595106E+03 0.  0.
         23    2    4    4    0    0  0.37239883924E+03  0.16212359780E+03 -0.40135486548E+02  0.41794641926E+03  0.90018862803E+02 0.  0.
         23    2    4    4    0    0 -0.30280563096E+03  0.23678661336E+03 -0.75625616945E+03  0.85247680430E+03  0.83869885073E+02 0.  0.
          2    1    3    3  502    0  0.16891495814E+01 -0.13692003684E+02  0.99467627532E+02  0.10041978450E+03  0.00000000000E+00 0. -1.
         -1    1    3    3    0  502 -0.71282357861E+02 -0.38521820747E+03  0.10127223784E+04  0.10858548972E+04  0.00000000000E+00 0.  1.
         11    1    5    5    0    0  0.11446916714E+03  0.18677863924E+02 -0.40381686813E+02  0.12281178061E+03  0.00000000000E+00 0.  1.
        -11    1    5    5    0    0  0.25792967211E+03  0.14344573387E+03  0.24620026499E+00  0.29513463865E+03  0.00000000000E+00 0. -1.
          2    1    6    6  503    0 -0.16456623751E+03  0.17905685766E+03 -0.48722834542E+03  0.54455014956E+03  0.00000000000E+00 0. -1.
         -2    1    6    6    0  503 -0.13823939345E+03  0.57729755696E+02 -0.26902782403E+03  0.30792665473E+03  0.00000000000E+00 0.  1.
<mgrwt>
<rscale>  0 0.24363161E+04</rscale>
<asrwt>0</asrwt>
<pdfrwt beam="1">  1        2 0.16468458E+00 0.24363161E+04</pdfrwt>
<pdfrwt beam="2">  1       -1 0.21326894E+00 0.24363161E+04</pdfrwt>
<totfact> 0.28376343E+00</totfact>
</mgrwt>
</event>
<event>
12    6  0.8914180E-008  0.1553821E+04  0.7818608E-02  0.8849431E-01
          2   -1    0    0  501    0  0.00000000000E+00  0.00000000000E+00  0.64730853667E+03  0.64730853667E+03  0.00000000000E+00 0. -1.
         -1   -1    0    0    0  501 -0.00000000000E+00 -0.00000000000E+00 -0.93246088336E+03  0.93246088336E+03  0.00000000000E+00 0.  1.
         24    2    1    2    0    0  0.31196764203E+03  0.76744589441E+02 -0.50693876870E+03  0.60498122183E+03  0.76169691290E+02 0.  0.
        254    2    1    2    0    0 -0.31196764203E+03 -0.76744589441E+02  0.22178642202E+03  0.97478819820E+03  0.89320169764E+03 0.  0.
         23    2    4    4    0    0  0.22110224968E+03  0.12289902434E+03  0.28806588291E+03  0.39465620253E+03  0.93708005551E+02 0.  0.
         23    2    4    4    0    0 -0.53306989172E+03 -0.19964361378E+03 -0.66279460883E+02  0.58013199567E+03  0.90216869180E+02 0.  0.
          4    1    3    3  502    0  0.19971691417E+02 -0.12032735624E+02 -0.53966745227E+02  0.58788304747E+02  0.00000000000E+00 0. -1.
         -3    1    3    3    0  502  0.29199595062E+03  0.88777325065E+02 -0.45297202348E+03  0.54619291709E+03  0.00000000000E+00 0.  1.
         11    1    5    5    0    0  0.14828052403E+02  0.43862904588E+02  0.31011122048E+02  0.55727149825E+02  0.00000000000E+00 0.  1.
        -11    1    5    5    0    0  0.20627419728E+03  0.79036119747E+02  0.25705476086E+03  0.33892905271E+03  0.00000000000E+00 0. -1.
          4    1    6    6  503    0 -0.46589009228E+03 -0.16173474480E+03 -0.85775436661E+02  0.50056880775E+03  0.00000000000E+00 0. -1.
         -4    1    6    6    0  503 -0.67179799437E+02 -0.37908868980E+02  0.19495975779E+02  0.79563187915E+02  0.00000000000E+00 0.  1.
<mgrwt>
<rscale>  0 0.15538210E+04</rscale>
<asrwt>0</asrwt>
<pdfrwt beam="1">  1        2 0.99585929E-01 0.15538210E+04</pdfrwt>
<pdfrwt beam="2">  1       -1 0.14345552E+00 0.15538210E+04</pdfrwt>
<totfact> 0.19532059E+01</totfact>
</mgrwt>
</event>
<event>
12    6  0.8914180E-008  0.1935274E+04  0.7818608E-02  0.8637495E-01
         -1   -1    0    0    0  501 -0.00000000000E+00  0.00000000000E+00  0.55927506017E+03  0.55927506017E+03  0.00000000000E+00 0.  1.
          2   -1    0    0  501    0  0.00000000000E+00 -0.00000000000E+00 -0.16741689122E+04  0.16741689122E+04  0.00000000000E+00 0. -1.
         24    2    1    2    0    0 -0.37838255821E+03 -0.15804474388E+03  0.29553593041E+03  0.51176142723E+03  0.80042306425E+02 0.  0.
        254    2    1    2    0    0  0.37838255821E+03  0.15804474388E+03 -0.14104297825E+04  0.17216825452E+04  0.89817988937E+03 0.  0.
         23    2    4    4    0    0  0.35947551092E+03  0.72380660591E+02 -0.81399268763E+02  0.38681701586E+03  0.92411903063E+02 0.  0.
         23    2    4    4    0    0  0.18907047290E+02  0.85664083287E+02 -0.13290305137E+04  0.13348655293E+04  0.88589296151E+02 0.  0.
          2    1    3    3  502    0 -0.17500696230E+03 -0.37423007428E+02  0.15457912904E+03  0.23647965129E+03  0.00000000000E+00 0. -1.
         -1    1    3    3    0  502 -0.20337559591E+03 -0.12062173645E+03  0.14095680136E+03  0.27528177594E+03  0.00000000000E+00 0.  1.
         11    1    5    5    0    0  0.34021864612E+03  0.89922160802E+02 -0.72517873051E+02  0.35929592829E+03  0.00000000000E+00 0.  1.
        -11    1    5    5    0    0  0.19256864793E+02 -0.17541500211E+02 -0.88813957114E+01  0.27521087571E+02  0.00000000000E+00 0. -1.
          1    1    6    6  503    0  0.30052574493E+02  0.69486879792E+02 -0.50897186024E+03  0.51457160650E+03  0.00000000000E+00 0. -1.
         -1    1    6    6    0  503 -0.11145527203E+02  0.16177203494E+02 -0.82005865345E+03  0.82029392281E+03  0.00000000000E+00 0.  1.
<mgrwt>
<rscale>  0 0.19352735E+04</rscale>
<asrwt>0</asrwt>
<pdfrwt beam="1">  1        2 0.25756444E+00 0.19352735E+04</pdfrwt>
<pdfrwt beam="2">  1       -1 0.86042319E-01 0.19352735E+04</pdfrwt>
<totfact> 0.14377161E+01</totfact>
</mgrwt>
</event>
<event>
12    6  0.8914180E-008  0.1314591E+04  0.7818608E-02  0.9018074E-01
          2   -1    0    0  501    0  0.00000000000E+00  0.00000000000E+00  0.84231836317E+03  0.84231836317E+03  0.00000000000E+00 0. -1.
         -1   -1    0    0    0  501 -0.00000000000E+00 -0.00000000000E+00 -0.51291437546E+03  0.51291437546E+03  0.00000000000E+00 0.  1.
         24    2    1    2    0    0 -0.16835955076E+03  0.26624477689E+03  0.19585004932E+03  0.37971141493E+03  0.81192963078E+02 0.  0.
        254    2    1    2    0    0  0.16835955076E+03 -0.26624477689E+03  0.13355393839E+03  0.97552132371E+03  0.91355020606E+03 0.  0.
         23    2    4    4    0    0  0.99693249255E+02 -0.67287859081E+02  0.51122137873E+03  0.53330838362E+03  0.92758471496E+02 0.  0.
         23    2    4    4    0    0  0.68666301501E+02 -0.19895691781E+03 -0.37766744035E+03  0.44221294009E+03  0.92847578207E+02 0.  0.
          4    1    3    3  502    0 -0.11881905247E+03  0.18613562386E+03  0.17847427058E+03  0.28393221543E+03  0.00000000000E+00 0. -1.
         -3    1    3    3    0  502 -0.49540498288E+02  0.80109153031E+02  0.17375778748E+02  0.95779199501E+02  0.00000000000E+00 0.  1.
         11    1    5    5    0    0  0.77348227977E+02 -0.17994128820E+02  0.41832406102E+03  0.42579520555E+03  0.00000000000E+00 0. -1.
        -11    1    5    5    0    0  0.22345021278E+02 -0.49293730261E+02  0.92897317712E+02  0.10751317806E+03  0.00000000000E+00 0.  1.
          4    1    6    6  503    0  0.58279436609E+02 -0.20770577782E+03 -0.36266807174E+03  0.42197904347E+03  0.00000000000E+00 0. -1.
         -4    1    6    6    0  503  0.10386864892E+02  0.87488600082E+01 -0.14999368606E+02  0.20233896616E+02  0.00000000000E+00 0.  1.
<mgrwt>
<rscale>  0 0.13145907E+04</rscale>
<asrwt>0</asrwt>
<pdfrwt beam="1">  1        2 0.12958744E+00 0.13145907E+04</pdfrwt>
<pdfrwt beam="2">  1       -1 0.78909904E-01 0.13145907E+04</pdfrwt>
<totfact> 0.57710794E+01</totfact>
</mgrwt>
</event>
<event>
12    6  0.8914180E-008  0.3447889E+04  0.7818608E-02  0.8126252E-01
         -1   -1    0    0    0  501 -0.00000000000E+00  0.00000000000E+00  0.11185495346E+04  0.11185495346E+04  0.00000000000E+00 0.  1.
          2   -1    0    0  501    0  0.00000000000E+00 -0.00000000000E+00 -0.26569990773E+04  0.26569990773E+04  0.00000000000E+00 0. -1.
         24    2    1    2    0    0  0.34840081412E+03 -0.73122593443E+03  0.79895585642E+03  0.11403652499E+04  0.77639861637E+02 0.  0.
        254    2    1    2    0    0 -0.34840081412E+03  0.73122593443E+03 -0.23374053991E+04  0.26351833621E+04  0.90810399057E+03 0.  0.
         23    2    4    4    0    0 -0.13706005799E+03 -0.90320969833E+02 -0.11920220055E+04  0.12069967231E+04  0.94769673187E+02 0.  0.
         23    2    4    4    0    0 -0.21134075613E+03  0.82154690427E+03 -0.11453833937E+04  0.14281866390E+04  0.90607540171E+02 0.  0.
          4    1    3    3  502    0  0.96795729887E+02 -0.21242638470E+03  0.28078111649E+03  0.36514711778E+03  0.00000000000E+00 0. -1.
         -3    1    3    3    0  502  0.25160508423E+03 -0.51879954973E+03  0.51817473993E+03  0.77521813208E+03  0.00000000000E+00 0.  1.
         11    1    5    5    0    0 -0.96459463960E+02 -0.64541629660E+02 -0.10627462199E+04  0.10690648147E+04  0.00000000000E+00 0. -1.
        -11    1    5    5    0    0 -0.40600594031E+02 -0.25779340172E+02 -0.12927578554E+03  0.13793190836E+03  0.00000000000E+00 0.  1.
          4    1    6    6  503    0 -0.11530597641E+03  0.29612874425E+03 -0.39086705830E+03  0.50375069094E+03  0.00000000000E+00 0. -1.
         -4    1    6    6    0  503 -0.96034779723E+02  0.52541816002E+03 -0.75451633538E+03  0.92443594810E+03  0.00000000000E+00 0.  1.
<mgrwt>
<rscale>  0 0.34478893E+04</rscale>
<asrwt>0</asrwt>
<pdfrwt beam="1">  1        2 0.40876909E+00 0.34478893E+04</pdfrwt>
<pdfrwt beam="2">  1       -1 0.17208454E+00 0.34478893E+04</pdfrwt>
<totfact> 0.62708751E-01</totfact>
</mgrwt>
</event>
<event>
12    6  0.1560916E-007  0.1812117E+04  0.7818608E-02  0.8699882E-01
          2   -1    0    0  501    0  0.00000000000E+00  0.00000000000E+00  0.10123077127E+04  0.10123077127E+04  0.00000000000E+00 0. -1.
         -1   -1    0    0    0  501 -0.00000000000E+00 -0.00000000000E+00 -0.81096075308E+03  0.81096075308E+03  0.00000000000E+00 0.  1.
         24    2    1    2    0    0 -0.10511012854E+03  0.54442919176E+03  0.47035760638E+03  0.73140645402E+03  0.79169685755E+02 0.  0.
        254    2    1    2    0    0  0.10511012854E+03 -0.54442919176E+03 -0.26901064676E+03  0.10918620118E+04  0.90130163691E+03 0.  0.
         23    2    4    4    0    0  0.36486294455E+03  0.37389967635E+02  0.36309151219E+02  0.37953702833E+03  0.90592623475E+02 0.  0.
         23    2    4    4    0    0 -0.25975281601E+03 -0.58181915939E+03 -0.30531979798E+03  0.71232498343E+03  0.90562924663E+02 0.  0.
          2    1    3    3  502    0 -0.91533856228E+02  0.49210049919E+03  0.38992550098E+03  0.63449447945E+03  0.00000000000E+00 0. -1.
         -3    1    3    3    0  502 -0.13576272312E+02  0.52328692568E+02  0.80432105401E+02  0.96911974569E+02  0.00000000000E+00 0.  1.
         11    1    5    5    0    0  0.31750529524E+03  0.63194891895E+02  0.34615499403E+02  0.32557862286E+03  0.00000000000E+00 0. -1.
        -11    1    5    5    0    0  0.47357649307E+02 -0.25804924260E+02  0.16936518154E+01  0.53958405466E+02  0.00000000000E+00 0.  1.
          2    1    6    6  503    0 -0.25336684625E+03 -0.58409019969E+03 -0.30063917318E+03  0.70408808582E+03  0.00000000000E+00 0. -1.
         -2    1    6    6    0  503 -0.63859697552E+01  0.22710402919E+01 -0.46806247964E+01  0.82368976081E+01  0.00000000000E+00 0.  1.
<mgrwt>
<rscale>  0 0.18121168E+04</rscale>
<asrwt>0</asrwt>
<pdfrwt beam="1">  1        2 0.15573965E+00 0.18121168E+04</pdfrwt>
<pdfrwt beam="2">  1       -1 0.12476319E+00 0.18121168E+04</pdfrwt>
<totfact> 0.14966097E+01</totfact>
</mgrwt>
</event>
<event>
12    6  0.8914180E-008  0.1043887E+04  0.7818608E-02  0.9261678E-01
         -1   -1    0    0    0  501 -0.00000000000E+00  0.00000000000E+00  0.43586231958E+03  0.43586231958E+03  0.00000000000E+00 0.  1.
          2   -1    0    0  501    0  0.00000000000E+00 -0.00000000000E+00 -0.62502557955E+03  0.62502557955E+03  0.00000000000E+00 0. -1.
         24    2    1    2    0    0  0.10341417274E+03 -0.19635688912E+02 -0.54647739232E+02  0.14817018721E+03  0.88814286979E+02 0.  0.
        254    2    1    2    0    0 -0.10341417274E+03  0.19635688912E+02 -0.13451552073E+03  0.91271771193E+03  0.89659307657E+03 0.  0.
         23    2    4    4    0    0 -0.20395465790E+03  0.25325007472E+02  0.34634928696E+03  0.41305575275E+03  0.91751663873E+02 0.  0.
         23    2    4    4    0    0  0.10054048516E+03 -0.56893185605E+01 -0.48086480769E+03  0.49966195918E+03  0.91051373800E+02 0.  0.
          4    1    3    3  502    0  0.63225993477E+02  0.17678051577E+01 -0.75158242023E+02  0.98231424352E+02  0.00000000000E+00 0. -1.
         -3    1    3    3    0  502  0.40188179263E+02 -0.21403494069E+02  0.20510502791E+02  0.49938762856E+02  0.00000000000E+00 0.  1.
         11    1    5    5    0    0 -0.82340854717E+02  0.10751825548E+02  0.22834513633E+03  0.24297555308E+03  0.00000000000E+00 0.  1.
        -11    1    5    5    0    0 -0.12161380318E+03  0.14573181924E+02  0.11800415063E+03  0.17008019967E+03  0.00000000000E+00 0. -1.
          3    1    6    6  503    0  0.43090780597E+02 -0.30507338077E+02 -0.94385559684E+02  0.10814872596E+03  0.00000000000E+00 0. -1.
         -3    1    6    6    0  503  0.57449704561E+02  0.24818019517E+02 -0.38647924801E+03  0.39151323322E+03  0.00000000000E+00 0.  1.
<mgrwt>
<rscale>  0 0.10438872E+04</rscale>
<asrwt>0</asrwt>
<pdfrwt beam="1">  1        2 0.96157782E-01 0.10438872E+04</pdfrwt>
<pdfrwt beam="2">  1       -1 0.67055741E-01 0.10438872E+04</pdfrwt>
<totfact> 0.12102038E+02</totfact>
</mgrwt>
</event>
<event>
12    6  0.8914180E-008  0.1413121E+04  0.7818608E-02  0.8944375E-01
          2   -1    0    0  501    0  0.00000000000E+00  0.00000000000E+00  0.12599437716E+04  0.12599437716E+04  0.00000000000E+00 0. -1.
         -1   -1    0    0    0  501 -0.00000000000E+00 -0.00000000000E+00 -0.39623001914E+03  0.39623001914E+03  0.00000000000E+00 0.  1.
         24    2    1    2    0    0 -0.27592210052E+03 -0.26697295359E+03  0.43687702563E+03  0.58737591761E+03  0.82105843645E+02 0.  0.
        254    2    1    2    0    0  0.27592210052E+03  0.26697295359E+03  0.42683672687E+03  0.10687978732E+04  0.90151635525E+03 0.  0.
         23    2    4    4    0    0  0.23858664222E+03  0.56454520906E+03  0.12093986281E+03  0.63097570814E+03  0.88707468338E+02 0.  0.
         23    2    4    4    0    0  0.37335458303E+02 -0.29757225546E+03  0.30589686406E+03  0.43782216502E+03  0.90400072321E+02 0.  0.
          2    1    3    3  502    0 -0.15999525775E+03 -0.19815145420E+03  0.24940634961E+03  0.35646319379E+03  0.00000000000E+00 0. -1.
         -1    1    3    3    0  502 -0.11592684277E+03 -0.68821499395E+02  0.18747067602E+03  0.23091272382E+03  0.00000000000E+00 0.  1.
         11    1    5    5    0    0  0.59445568696E+02  0.14647022266E+03  0.71387063742E+02  0.17344571091E+03  0.00000000000E+00 0.  1.
        -11    1    5    5    0    0  0.17914107352E+03  0.41807498640E+03  0.49552799065E+02  0.45752999724E+03  0.00000000000E+00 0. -1.
          4    1    6    6  503    0  0.42991264317E+02 -0.98380346602E+02  0.15174296214E+03  0.18588401751E+03  0.00000000000E+00 0. -1.
         -4    1    6    6    0  503 -0.56558060138E+01 -0.19919190886E+03  0.15415390192E+03  0.25193814752E+03  0.00000000000E+00 0.  1.
<mgrwt>
<rscale>  0 0.14131207E+04</rscale>
<asrwt>0</asrwt>
<pdfrwt beam="1">  1        2 0.19383750E+00 0.14131207E+04</pdfrwt>
<pdfrwt beam="2">  1       -1 0.60958465E-01 0.14131207E+04</pdfrwt>
<totfact> 0.52795359E+01</totfact>
</mgrwt>
</event>
<event>
12    6  0.8914180E-008  0.1299919E+04  0.7818608E-02  0.9029629E-01
          2   -1    0    0  501    0  0.00000000000E+00  0.00000000000E+00  0.21495465385E+04  0.21495465385E+04  0.00000000000E+00 0. -1.
         -1   -1    0    0    0  501 -0.00000000000E+00 -0.00000000000E+00 -0.19652870361E+03  0.19652870361E+03  0.00000000000E+00 0.  1.
         24    2    1    2    0    0 -0.19459421946E+03  0.77378655450E+01  0.30307198458E+02  0.21268769251E+03  0.79942125666E+02 0.  0.
        254    2    1    2    0    0  0.19459421946E+03 -0.77378655450E+01  0.19227106364E+04  0.21333875496E+04  0.90365892933E+03 0.  0.
         23    2    4    4    0    0  0.51276769539E+03 -0.17716743268E+03  0.12158310306E+04  0.13346783308E+04  0.93819737226E+02 0.  0.
         23    2    4    4    0    0 -0.31817347593E+03  0.16942956713E+03  0.70687960587E+03  0.79870921884E+03  0.91197039778E+02 0.  0.
          4    1    3    3  502    0 -0.23716849642E+02 -0.23393557340E+02  0.19637685886E+02  0.38670223543E+02  0.00000000000E+00 0. -1.
         -3    1    3    3    0  502 -0.17087736982E+03  0.31131422885E+02  0.10669512572E+02  0.17401746897E+03  0.00000000000E+00 0.  1.
         11    1    5    5    0    0  0.35867082174E+03 -0.16661658134E+03  0.84516479764E+03  0.93311809473E+03  0.00000000000E+00 0.  1.
        -11    1    5    5    0    0  0.15409687365E+03 -0.10550851335E+02  0.37066623294E+03  0.40156023605E+03  0.00000000000E+00 0. -1.
          2    1    6    6  503    0 -0.10872279158E+03  0.10761684149E+03  0.31114254858E+03  0.34671561187E+03  0.00000000000E+00 0.  1.
         -2    1    6    6    0  503 -0.20945068435E+03  0.61812725642E+02  0.39573705729E+03  0.45199360697E+03  0.00000000000E+00 0. -1.
<mgrwt>
<rscale>  0 0.12999194E+04</rscale>
<asrwt>0</asrwt>
<pdfrwt beam="1">  1        2 0.33069945E+00 0.12999194E+04</pdfrwt>
<pdfrwt beam="2">  1       -1 0.30235187E-01 0.12999194E+04</pdfrwt>
<totfact> 0.62050098E+01</totfact>
</mgrwt>
</event>
<event>
12    6  0.8914180E-008  0.1856340E+04  0.7818608E-02  0.8676899E-01
          2   -1    0    0  501    0  0.00000000000E+00  0.00000000000E+00  0.18021056217E+04  0.18021056217E+04  0.00000000000E+00 0. -1.
         -1   -1    0    0    0  501 -0.00000000000E+00 -0.00000000000E+00 -0.47805155361E+03  0.47805155361E+03  0.00000000000E+00 0.  1.
         24    2    1    2    0    0  0.51006147596E+03 -0.11542369577E+03 -0.10177866452E+03  0.53868592929E+03  0.79613410045E+02 0.  0.
        254    2    1    2    0    0 -0.51006147596E+03  0.11542369577E+03  0.14258327327E+04  0.17414712461E+04  0.85219585809E+03 0.  0.
         23    2    4    4    0    0 -0.55292656932E+03 -0.14031816101E+03  0.13292633771E+04  0.14496170182E+04  0.95033659945E+02 0.  0.
         23    2    4    4    0    0  0.42865093363E+02  0.25574185678E+03  0.96569355557E+02  0.29185422782E+03  0.92800518989E+02 0.  0.
          2    1    3    3  502    0  0.24771120856E+03 -0.26382137811E+02 -0.20467733971E+02  0.24995157166E+03  0.00000000000E+00 0. -1.
         -1    1    3    3    0  502  0.26235026740E+03 -0.89041557959E+02 -0.81310930547E+02  0.28873435763E+03  0.00000000000E+00 0.  1.
         11    1    5    5    0    0 -0.16748377796E+03 -0.41647983791E+02  0.51891516558E+03  0.54686224912E+03  0.00000000000E+00 0. -1.
        -11    1    5    5    0    0 -0.38544279136E+03 -0.98670177215E+02  0.81034821151E+03  0.90275476913E+03  0.00000000000E+00 0.  1.
          2    1    6    6  503    0 -0.56150468176E+01 -0.19938801283E+01  0.16661587815E+02  0.17694994130E+02  0.00000000000E+00 0.  1.
         -2    1    6    6    0  503  0.48480140181E+02  0.25773573691E+03  0.79907767742E+02  0.27415923369E+03  0.00000000000E+00 0. -1.
<mgrwt>
<rscale>  0 0.18563398E+04</rscale>
<asrwt>0</asrwt>
<pdfrwt beam="1">  1        2 0.27724702E+00 0.18563398E+04</pdfrwt>
<pdfrwt beam="2">  1       -1 0.73546394E-01 0.18563398E+04</pdfrwt>
<totfact> 0.17155581E+01</totfact>
</mgrwt>
</event>
<event>
12    6  0.8914180E-008  0.1577197E+04  0.7818608E-02  0.8834680E-01
         -1   -1    0    0    0  501 -0.00000000000E+00  0.00000000000E+00  0.40613131082E+03  0.40613131082E+03  0.00000000000E+00 0.  1.
          2   -1    0    0  501    0  0.00000000000E+00 -0.00000000000E+00 -0.15312483948E+04  0.15312483948E+04  0.00000000000E+00 0. -1.
         24    2    1    2    0    0 -0.33228168440E+03 -0.40838884144E+03 -0.44581262202E+03  0.69449211510E+03  0.79861382227E+02 0.  0.
        254    2    1    2    0    0  0.33228168440E+03  0.40838884144E+03 -0.67930446200E+03  0.12428875906E+04  0.89784321966E+03 0.  0.
         23    2    4    4    0    0 -0.14289903636E+03  0.49531450928E+03 -0.21373782380E+03  0.56578515638E+03  0.93125657936E+02 0.  0.
         23    2    4    4    0    0  0.47518072076E+03 -0.86925667834E+02 -0.46556663820E+03  0.67710243419E+03  0.91447376508E+02 0.  0.
          2    1    3    3  502    0 -0.11168594354E+03 -0.17978595483E+03 -0.14166011391E+03  0.25468476085E+03  0.00000000000E+00 0. -1.
         -1    1    3    3    0  502 -0.22059574086E+03 -0.22860288662E+03 -0.30415250811E+03  0.43980735424E+03  0.00000000000E+00 0.  1.
         11    1    5    5    0    0 -0.49280159599E+02  0.75776056368E+02 -0.63351156369E+02  0.11038076763E+03  0.00000000000E+00 0. -1.
        -11    1    5    5    0    0 -0.93618876759E+02  0.41953845291E+03 -0.15038666743E+03  0.45540438876E+03  0.00000000000E+00 0.  1.
          3    1    6    6  503    0  0.21130766020E+03  0.62472158406E+01 -0.18678239997E+03  0.28209505473E+03  0.00000000000E+00 0. -1.
         -3    1    6    6    0  503  0.26387306056E+03 -0.93172883675E+02 -0.27878423823E+03  0.39500737946E+03  0.00000000000E+00 0.  1.
<mgrwt>
<rscale>  0 0.15771974E+04</rscale>
<asrwt>0</asrwt>
<pdfrwt beam="1">  1        2 0.23557667E+00 0.15771974E+04</pdfrwt>
<pdfrwt beam="2">  1       -1 0.62481742E-01 0.15771974E+04</pdfrwt>
<totfact> 0.34660441E+01</totfact>
</mgrwt>
</event>
<event>
12    6  0.8914180E-008  0.3425341E+04  0.7818608E-02  0.8131715E-01
         -1   -1    0    0    0  501 -0.00000000000E+00  0.00000000000E+00  0.19671894808E+04  0.19671894808E+04  0.00000000000E+00 0.  1.
          2   -1    0    0  501    0  0.00000000000E+00 -0.00000000000E+00 -0.14910818304E+04  0.14910818304E+04  0.00000000000E+00 0. -1.
         24    2    1    2    0    0 -0.10372580899E+04 -0.11914397765E+04  0.42297161920E+03  0.16372856463E+04  0.79788536762E+02 0.  0.
        254    2    1    2    0    0  0.10372580899E+04  0.11914397765E+04  0.53136031214E+02  0.18209856650E+04  0.90428550153E+03 0.  0.
         23    2    4    4    0    0  0.58582684742E+03  0.11651832378E+04 -0.14990298348E+03  0.13159191262E+04  0.91253326625E+02 0.  0.
         23    2    4    4    0    0  0.45143124249E+03  0.26256538766E+02  0.20303901470E+03  0.50506653880E+03  0.96890632166E+02 0.  0.
          4    1    3    3  502    0 -0.38702643412E+03 -0.44189850257E+03  0.19730195964E+03  0.61967072753E+03  0.00000000000E+00 0. -1.
         -3    1    3    3    0  502 -0.65023165580E+03 -0.74954127395E+03  0.22566965956E+03  0.10176149187E+04  0.00000000000E+00 0.  1.
         11    1    5    5    0    0  0.22907046301E+03  0.55177414595E+03 -0.54270055834E+02  0.59989434413E+03  0.00000000000E+00 0. -1.
        -11    1    5    5    0    0  0.35675638442E+03  0.61340909180E+03 -0.95632927651E+02  0.71602478210E+03  0.00000000000E+00 0.  1.
          3    1    6    6  503    0  0.37193877225E+03  0.44014370719E+02  0.13238979012E+03  0.39724396995E+03  0.00000000000E+00 0. -1.
         -3    1    6    6    0  503  0.79492470247E+02 -0.17757831952E+02  0.70649224577E+02  0.10782256886E+03  0.00000000000E+00 0.  1.
<mgrwt>
<rscale>  0 0.34253411E+04</rscale>
<asrwt>0</asrwt>
<pdfrwt beam="1">  1        2 0.22939720E+00 0.34253411E+04</pdfrwt>
<pdfrwt beam="2">  1       -1 0.30264454E+00 0.34253411E+04</pdfrwt>
<totfact> 0.38368765E-01</totfact>
</mgrwt>
</event>
<event>
12    6  0.8914180E-008  0.1264312E+04  0.7818608E-02  0.9058355E-01
          2   -1    0    0  501    0  0.00000000000E+00  0.00000000000E+00  0.13141891856E+04  0.13141891856E+04  0.00000000000E+00 0. -1.
         -1   -1    0    0    0  501 -0.00000000000E+00 -0.00000000000E+00 -0.30408172740E+03  0.30408172740E+03  0.00000000000E+00 0.  1.
         24    2    1    2    0    0  0.80188388595E+02  0.26110192311E+03  0.80607389077E+02  0.29563890861E+03  0.79375192555E+02 0.  0.
        254    2    1    2    0    0 -0.80188388595E+02 -0.26110192311E+03  0.92950006917E+03  0.13226320044E+04  0.90043358925E+03 0.  0.
         23    2    4    4    0    0  0.17262484420E+03 -0.51038735307E+03  0.70678359467E+03  0.89335366864E+03  0.90791742811E+02 0.  0.
         23    2    4    4    0    0 -0.25281323280E+03  0.24928542996E+03  0.22271647450E+03  0.42927833579E+03  0.92841290922E+02 0.  0.
          4    1    3    3  502    0  0.11365550129E+02  0.73848307769E+01 -0.10783436738E+02  0.17320333808E+02  0.00000000000E+00 0. -1.
         -3    1    3    3    0  502  0.68822838465E+02  0.25371709233E+03  0.91390825815E+02  0.27831857480E+03  0.00000000000E+00 0.  1.
         11    1    5    5    0    0  0.17966608573E+03 -0.50357395894E+03  0.68126591515E+03  0.86601956192E+03  0.00000000000E+00 0. -1.
        -11    1    5    5    0    0 -0.70412415301E+01 -0.68133941322E+01  0.25517679526E+02  0.27334106722E+02  0.00000000000E+00 0.  1.
          4    1    6    6  503    0 -0.20714106761E+03  0.21649179504E+03  0.14371227222E+03  0.33230909767E+03  0.00000000000E+00 0. -1.
         -4    1    6    6    0  503 -0.45672165191E+02  0.32793634927E+02  0.79004202279E+02  0.96969238125E+02  0.00000000000E+00 0.  1.
<mgrwt>
<rscale>  0 0.12643115E+04</rscale>
<asrwt>0</asrwt>
<pdfrwt beam="1">  1        2 0.20218295E+00 0.12643115E+04</pdfrwt>
<pdfrwt beam="2">  1       -1 0.46781805E-01 0.12643115E+04</pdfrwt>
<totfact> 0.82677128E+01</totfact>
</mgrwt>
</event>
<event>
12    6  0.8914180E-008  0.2680856E+04  0.7818608E-02  0.8341243E-01
          2   -1    0    0  501    0  0.00000000000E+00  0.00000000000E+00  0.33700688876E+04  0.33700688876E+04  0.00000000000E+00 0. -1.
         -1   -1    0    0    0  501 -0.00000000000E+00 -0.00000000000E+00 -0.53314867467E+03  0.53314867467E+03  0.00000000000E+00 0.  1.
         24    2    1    2    0    0 -0.63930815887E+03 -0.70516246386E+03  0.22608609422E+03  0.98161006296E+03  0.80463477830E+02 0.  0.
        254    2    1    2    0    0  0.63930815887E+03  0.70516246386E+03  0.26108341187E+04  0.29216074993E+04  0.90186837294E+03 0.  0.
         23    2    4    4    0    0  0.51570628867E+03  0.14695239967E+03  0.20270777956E+04  0.20988871217E+04  0.93460026910E+02 0.  0.
         23    2    4    4    0    0  0.12360187020E+03  0.55821006419E+03  0.58375632313E+03  0.82272037753E+03  0.96028520465E+02 0.  0.
          4    1    3    3  502    0 -0.74752812149E+02 -0.73069529662E+02  0.25543766057E+00  0.10453326905E+03  0.00000000000E+00 0. -1.
         -3    1    3    3    0  502 -0.56455534672E+03 -0.63209293420E+03  0.22583065656E+03  0.87707679391E+03  0.00000000000E+00 0.  1.
         11    1    5    5    0    0  0.81435979752E+02 -0.73189519059E+01  0.25044831265E+03  0.26345728907E+03  0.00000000000E+00 0. -1.
        -11    1    5    5    0    0  0.43427030892E+03  0.15427135158E+03  0.17766294829E+04  0.18354298327E+04  0.00000000000E+00 0.  1.
          1    1    6    6  503    0 -0.18792729803E+00  0.53259071673E+02  0.96266321095E+02  0.11001712871E+03  0.00000000000E+00 0. -1.
         -1    1    6    6    0  503  0.12378979749E+03  0.50495099252E+03  0.48749000203E+03  0.71270324883E+03  0.00000000000E+00 0.  1.
<mgrwt>
<rscale>  0 0.26808564E+04</rscale>
<asrwt>0</asrwt>
<pdfrwt beam="1">  1        2 0.51847212E+00 0.26808564E+04</pdfrwt>
<pdfrwt beam="2">  1       -1 0.82022875E-01 0.26808564E+04</pdfrwt>
<totfact> 0.14759862E+00</totfact>
</mgrwt>
</event>
<event>
12    6  0.8914180E-008  0.1993673E+04  0.7818608E-02  0.8609585E-01
         -1   -1    0    0    0  501 -0.00000000000E+00  0.00000000000E+00  0.40740933496E+03  0.40740933496E+03  0.00000000000E+00 0.  1.
          2   -1    0    0  501    0  0.00000000000E+00 -0.00000000000E+00 -0.24390275918E+04  0.24390275918E+04  0.00000000000E+00 0. -1.
         24    2    1    2    0    0 -0.41657279443E+03 -0.20653468078E+03 -0.17257255288E+04  0.17890614753E+04  0.80142962089E+02 0.  0.
        254    2    1    2    0    0  0.41657279443E+03  0.20653468078E+03 -0.30589272804E+03  0.10573754514E+04  0.89904561439E+03 0.  0.
         23    2    4    4    0    0  0.32288720045E+03 -0.30471524964E+03 -0.27156898674E+03  0.52771926661E+03  0.87352059001E+02 0.  0.
         23    2    4    4    0    0  0.93685593984E+02  0.51124993042E+03 -0.34323741295E+02  0.52965618481E+03  0.95937860170E+02 0.  0.
          2    1    3    3  502    0 -0.39907954438E+03 -0.18631753101E+03 -0.15517095413E+04  0.16130037835E+04  0.00000000000E+00 0. -1.
         -1    1    3    3    0  502 -0.17493250055E+02 -0.20217149768E+02 -0.17401598751E+03  0.17605769182E+03  0.00000000000E+00 0.  1.
         11    1    5    5    0    0  0.32535793236E+03 -0.29522202252E+03 -0.25367101117E+03  0.50730938158E+03  0.00000000000E+00 0. -1.
        -11    1    5    5    0    0 -0.24707319096E+01 -0.94932271179E+01 -0.17897975572E+02  0.20409885028E+02  0.00000000000E+00 0.  1.
          1    1    6    6  503    0  0.56429080334E+02  0.19392757036E+03  0.28694010392E+02  0.20399874972E+03  0.00000000000E+00 0. -1.
         -1    1    6    6    0  503  0.37256513651E+02  0.31732236006E+03 -0.63017751687E+02  0.32565743509E+03  0.00000000000E+00 0.  1.
<mgrwt>
<rscale>  0 0.19936726E+04</rscale>
<asrwt>0</asrwt>
<pdfrwt beam="1">  1        2 0.37523502E+00 0.19936726E+04</pdfrwt>
<pdfrwt beam="2">  1       -1 0.62678358E-01 0.19936726E+04</pdfrwt>
<totfact> 0.10318428E+01</totfact>
</mgrwt>
</event>
<event>
12    6  0.8914180E-008  0.1965681E+04  0.7818608E-02  0.8622836E-01
         -1   -1    0    0    0  501 -0.00000000000E+00  0.00000000000E+00  0.12226820761E+04  0.12226820761E+04  0.00000000000E+00 0.  1.
          2   -1    0    0  501    0  0.00000000000E+00 -0.00000000000E+00 -0.79004616060E+03  0.79004616060E+03  0.00000000000E+00 0. -1.
         24    2    1    2    0    0  0.74051057912E+03  0.11390291040E+03  0.38071183759E+03  0.84414584442E+03  0.79441252451E+02 0.  0.
        254    2    1    2    0    0 -0.74051057912E+03 -0.11390291040E+03  0.51924077908E+02  0.11685823923E+04  0.89529822231E+03 0.  0.
         23    2    4    4    0    0 -0.72680625036E+03 -0.35832110528E+03  0.23604639283E+03  0.84915883927E+03  0.93335388245E+02 0.  0.
         23    2    4    4    0    0 -0.13704328759E+02  0.24441819488E+03 -0.18412231492E+03  0.31942355299E+03  0.90566642516E+02 0.  0.
          2    1    3    3  502    0  0.44799385338E+02  0.56463533152E+00  0.41763586141E+01  0.44997174478E+02  0.00000000000E+00 0. -1.
         -1    1    3    3    0  502  0.69571119378E+03  0.11333827507E+03  0.37653547897E+03  0.79914866994E+03  0.00000000000E+00 0.  1.
         11    1    5    5    0    0 -0.60096987667E+03 -0.32662068091E+03  0.21944808236E+03  0.71833371264E+03  0.00000000000E+00 0.  1.
        -11    1    5    5    0    0 -0.12583637369E+03 -0.31700424369E+02  0.16598310473E+02  0.13082512664E+03  0.00000000000E+00 0. -1.
          1    1    6    6  503    0  0.17564096370E+02  0.15551980336E+02  0.88374800935E+00  0.23476426138E+02  0.00000000000E+00 0. -1.
         -1    1    6    6    0  503 -0.31268425129E+02  0.22886621455E+03 -0.18500606293E+03  0.29594712685E+03  0.00000000000E+00 0.  1.
<mgrwt>
<rscale>  0 0.19656808E+04</rscale>
<asrwt>0</asrwt>
<pdfrwt beam="1">  1        2 0.12154556E+00 0.19656808E+04</pdfrwt>
<pdfrwt beam="2">  1       -1 0.18810494E+00 0.19656808E+04</pdfrwt>
<totfact> 0.67853295E+00</totfact>
</mgrwt>
</event>
<event>
12    6  0.8914180E-008  0.1403491E+04  0.7818608E-02  0.8951295E-01
         -1   -1    0    0    0  501 -0.00000000000E+00  0.00000000000E+00  0.40959416703E+03  0.40959416703E+03  0.00000000000E+00 0.  1.
          2   -1    0    0  501    0  0.00000000000E+00 -0.00000000000E+00 -0.12022803254E+04  0.12022803254E+04  0.00000000000E+00 0. -1.
         24    2    1    2    0    0 -0.21275002074E+03 -0.15133220972E+03 -0.58823741344E+03  0.64822308179E+03  0.77497743038E+02 0.  0.
        254    2    1    2    0    0  0.21275002074E+03  0.15133220972E+03 -0.20444874495E+03  0.96365141066E+03  0.90479873062E+03 0.  0.
         23    2    4    4    0    0  0.29695372904E+03  0.40110527970E+03  0.13408799319E+03  0.52397085208E+03  0.86596196957E+02 0.  0.
         23    2    4    4    0    0 -0.84203708300E+02 -0.24977306998E+03 -0.33853673814E+03  0.43968055858E+03  0.96099009055E+02 0.  0.
          4    1    3    3  502    0 -0.16520897683E+03 -0.14959053844E+03 -0.51134705822E+03  0.55780565538E+03  0.00000000000E+00 0. -1.
         -3    1    3    3    0  502 -0.47541043903E+02 -0.17416712796E+01 -0.76890355215E+02  0.90417426414E+02  0.00000000000E+00 0.  1.
         11    1    5    5    0    0  0.16345817591E+02  0.69283708695E+02  0.29099377784E+02  0.76903782941E+02  0.00000000000E+00 0. -1.
        -11    1    5    5    0    0  0.28060791144E+03  0.33182157100E+03  0.10498861541E+03  0.44706706914E+03  0.00000000000E+00 0.  1.
          3    1    6    6  503    0 -0.22602088707E+02  0.41092087222E+00 -0.22108516795E+02  0.31619768891E+02  0.00000000000E+00 0. -1.
         -3    1    6    6    0  503 -0.61601619593E+02 -0.25018399085E+03 -0.31642822134E+03  0.40806078968E+03  0.00000000000E+00 0.  1.
<mgrwt>
<rscale>  0 0.14034914E+04</rscale>
<asrwt>0</asrwt>
<pdfrwt beam="1">  1        2 0.18496620E+00 0.14034914E+04</pdfrwt>
<pdfrwt beam="2">  1       -1 0.63014488E-01 0.14034914E+04</pdfrwt>
<totfact> 0.53509434E+01</totfact>
</mgrwt>
</event>
<event>
12    6  0.8914180E-008  0.1763735E+04  0.7818608E-02  0.8725826E-01
          2   -1    0    0  501    0  0.00000000000E+00  0.00000000000E+00  0.11168160283E+04  0.11168160283E+04  0.00000000000E+00 0. -1.
         -1   -1    0    0    0  501 -0.00000000000E+00 -0.00000000000E+00 -0.69634628393E+03  0.69634628393E+03  0.00000000000E+00 0.  1.
         24    2    1    2    0    0 -0.63080356772E+03 -0.30031270788E+02 -0.95757429698E+01  0.63644551117E+03  0.78461299763E+02 0.  0.
        254    2    1    2    0    0  0.63080356772E+03  0.30031270788E+02  0.43004548732E+03  0.11767168010E+04  0.89493479673E+03 0.  0.
         23    2    4    4    0    0  0.25145331624E+03  0.30393732194E+03  0.55227308581E+03  0.68495879896E+03  0.92500427268E+02 0.  0.
         23    2    4    4    0    0  0.37935025148E+03 -0.27390605115E+03 -0.12222759849E+03  0.49175800207E+03  0.89191976165E+02 0.  0.
          2    1    3    3  502    0 -0.38040567544E+03 -0.94171291409E+01  0.31668387590E+02  0.38183772338E+03  0.00000000000E+00 0. -1.
         -1    1    3    3    0  502 -0.25039789228E+03 -0.20614141647E+02 -0.41244130560E+02  0.25460778779E+03  0.00000000000E+00 0.  1.
         11    1    5    5    0    0  0.22108954897E+03  0.22672777291E+03  0.38720518660E+03  0.50021388246E+03  0.00000000000E+00 0. -1.
        -11    1    5    5    0    0  0.30363767275E+02  0.77209549029E+02  0.16506789921E+03  0.18474491650E+03  0.00000000000E+00 0.  1.
          4    1    6    6  503    0  0.12843265131E+03 -0.13853996072E+03 -0.72518298542E+02  0.20235407152E+03  0.00000000000E+00 0. -1.
         -4    1    6    6    0  503  0.25091760017E+03 -0.13536609043E+03 -0.49709299949E+02  0.28940393055E+03  0.00000000000E+00 0.  1.
<mgrwt>
<rscale>  0 0.17637355E+04</rscale>
<asrwt>0</asrwt>
<pdfrwt beam="1">  1        2 0.17181785E+00 0.17637355E+04</pdfrwt>
<pdfrwt beam="2">  1       -1 0.10713020E+00 0.17637355E+04</pdfrwt>
<totfact> 0.18660960E+01</totfact>
</mgrwt>
</event>
<event>
12    6  0.8914180E-008  0.1294249E+04  0.7818608E-02  0.9034139E-01
          2   -1    0    0  501    0  0.00000000000E+00  0.00000000000E+00  0.29413439922E+04  0.29413439922E+04  0.00000000000E+00 0. -1.
         -1   -1    0    0    0  501 -0.00000000000E+00 -0.00000000000E+00 -0.14237363443E+03  0.14237363443E+03  0.00000000000E+00 0.  1.
         24    2    1    2    0    0  0.18963273673E+03 -0.99951524439E+02  0.13564982943E+03  0.26555273492E+03  0.78527044523E+02 0.  0.
        254    2    1    2    0    0 -0.18963273673E+03  0.99951524439E+02  0.26633205283E+04  0.28181648917E+04  0.89600571319E+03 0.  0.
         23    2    4    4    0    0 -0.19709312480E+03  0.37752296686E+03  0.23513686593E+04  0.23913321264E+04  0.90363025867E+02 0.  0.
         23    2    4    4    0    0  0.74603880687E+01 -0.27757144243E+03  0.31195186895E+03  0.42683276522E+03  0.88151448567E+02 0.  0.
          4    1    3    3  502    0  0.76449414091E+00 -0.85539135263E+01 -0.76221754569E+01  0.11482658516E+02  0.00000000000E+00 0. -1.
         -1    1    3    3    0  502  0.18886824259E+03 -0.91397610913E+02  0.14327200489E+03  0.25407007640E+03  0.00000000000E+00 0.  1.
         11    1    5    5    0    0 -0.24389396802E+02  0.67918256909E+02  0.60916409842E+03  0.61342369624E+03  0.00000000000E+00 0.  1.
        -11    1    5    5    0    0 -0.17270372800E+03  0.30960470996E+03  0.17422045609E+04  0.17779084302E+04  0.00000000000E+00 0. -1.
          4    1    6    6  503    0 -0.21776711203E+02 -0.24811111831E+02  0.16465621087E+02  0.36890826758E+02  0.00000000000E+00 0.  1.
         -4    1    6    6    0  503  0.29237099272E+02 -0.25276033059E+03  0.29548624787E+03  0.38994193846E+03  0.00000000000E+00 0. -1.
<mgrwt>
<rscale>  0 0.12942486E+04</rscale>
<asrwt>0</asrwt>
<pdfrwt beam="1">  1        2 0.45251442E+00 0.12942486E+04</pdfrwt>
<pdfrwt beam="2">  1       -1 0.21903638E-01 0.12942486E+04</pdfrwt>
<totfact> 0.37522585E+01</totfact>
</mgrwt>
</event>
<event>
12    6  0.8914180E-008  0.1357514E+04  0.7818608E-02  0.8985159E-01
         -1   -1    0    0    0  501 -0.00000000000E+00  0.00000000000E+00  0.20916477881E+03  0.20916477881E+03  0.00000000000E+00 0.  1.
          2   -1    0    0  501    0  0.00000000000E+00 -0.00000000000E+00 -0.22026230344E+04  0.22026230344E+04  0.00000000000E+00 0. -1.
         24    2    1    2    0    0  0.13203057923E+03 -0.10977156960E+03 -0.11654797665E+04  0.11807209738E+04  0.79227901857E+02 0.  0.
        254    2    1    2    0    0 -0.13203057923E+03  0.10977156960E+03 -0.82797848901E+03  0.12310668394E+04  0.89470403674E+03 0.  0.
         23    2    4    4    0    0 -0.33763985457E+03 -0.16208918527E+03 -0.66549984220E+02  0.39193245425E+03  0.94385236750E+02 0.  0.
         23    2    4    4    0    0  0.20560927534E+03  0.27186075487E+03 -0.76142850479E+03  0.83913438511E+03  0.90496984607E+02 0.  0.
          4    1    3    3  502    0  0.12567449328E+03 -0.10905863449E+03 -0.11611156256E+04  0.11729779879E+04  0.00000000000E+00 0. -1.
         -3    1    3    3    0  502  0.63560859469E+01 -0.71293510395E+00 -0.43641409342E+01  0.77429859305E+01  0.00000000000E+00 0.  1.
         11    1    5    5    0    0 -0.16934014145E+03 -0.40979870081E+02 -0.19581895984E+00  0.17422821702E+03  0.00000000000E+00 0. -1.
        -11    1    5    5    0    0 -0.16829971312E+03 -0.12110931519E+03 -0.66354165260E+02  0.21770423723E+03  0.00000000000E+00 0.  1.
          2    1    6    6  503    0  0.54774713364E+02  0.99935430815E+02 -0.16658080336E+03  0.20183291011E+03  0.00000000000E+00 0.  1.
         -2    1    6    6    0  503  0.15083456198E+03  0.17192532405E+03 -0.59484770143E+03  0.63730147500E+03  0.00000000000E+00 0. -1.
<mgrwt>
<rscale>  0 0.13575141E+04</rscale>
<asrwt>0</asrwt>
<pdfrwt beam="1">  1        2 0.33886507E+00 0.13575141E+04</pdfrwt>
<pdfrwt beam="2">  1       -1 0.32179198E-01 0.13575141E+04</pdfrwt>
<totfact> 0.51682976E+01</totfact>
</mgrwt>
</event>
<event>
12    6  0.8914180E-008  0.1594436E+04  0.7818608E-02  0.8823974E-01
          2   -1    0    0  501    0  0.00000000000E+00  0.00000000000E+00  0.85728941644E+03  0.85728941644E+03  0.00000000000E+00 0. -1.
         -1   -1    0    0    0  501 -0.00000000000E+00 -0.00000000000E+00 -0.74135544427E+03  0.74135544427E+03  0.00000000000E+00 0.  1.
         24    2    1    2    0    0 -0.19384025244E+03 -0.28966800565E+03  0.38252394760E+03  0.52357868462E+03  0.79551690954E+02 0.  0.
        254    2    1    2    0    0  0.19384025244E+03  0.28966800565E+03 -0.26658997543E+03  0.10750661761E+04  0.98143541358E+03 0.  0.
         23    2    4    4    0    0  0.47164296760E+03  0.11656866733E+03 -0.46664976254E+03  0.67984334854E+03  0.91594948484E+02 0.  0.
         23    2    4    4    0    0 -0.27780271515E+03  0.17309933833E+03  0.20005978711E+03  0.39522282756E+03  0.95075946102E+02 0.  0.
          2    1    3    3  502    0 -0.17646857589E+03 -0.27094508828E+03  0.31513170109E+03  0.45150901228E+03  0.00000000000E+00 0. -1.
         -1    1    3    3    0  502 -0.17371676555E+02 -0.18722917373E+02  0.67392246508E+02  0.72069672336E+02  0.00000000000E+00 0.  1.
         11    1    5    5    0    0  0.37386302330E+03  0.11162164189E+03 -0.32580322943E+03  0.50831161254E+03  0.00000000000E+00 0.  1.
        -11    1    5    5    0    0  0.97779944290E+02  0.49470254356E+01 -0.14084653311E+03  0.17153173600E+03  0.00000000000E+00 0. -1.
          1    1    6    6  503    0 -0.12872544447E+03  0.13234800186E+03  0.12831195960E+03  0.22483369994E+03  0.00000000000E+00 0. -1.
         -1    1    6    6    0  503 -0.14907727069E+03  0.40751336464E+02  0.71747827508E+02  0.17038912762E+03  0.00000000000E+00 0.  1.
<mgrwt>
<rscale>  0 0.15944355E+04</rscale>
<asrwt>0</asrwt>
<pdfrwt beam="1">  1        2 0.13189068E+00 0.15944355E+04</pdfrwt>
<pdfrwt beam="2">  1       -1 0.11405468E+00 0.15944355E+04</pdfrwt>
<totfact> 0.24056284E+01</totfact>
</mgrwt>
</event>
<event>
12    6  0.8914180E-008  0.3030334E+04  0.7818608E-02  0.8235122E-01
         -1   -1    0    0    0  501 -0.00000000000E+00  0.00000000000E+00  0.20466873827E+04  0.20466873827E+04  0.00000000000E+00 0.  1.
          2   -1    0    0  501    0  0.00000000000E+00 -0.00000000000E+00 -0.11216811823E+04  0.11216811823E+04  0.00000000000E+00 0. -1.
         24    2    1    2    0    0  0.11459465020E+04 -0.39684768002E+03  0.11006429010E+04  0.16395555620E+04  0.77757178199E+02 0.  0.
        254    2    1    2    0    0 -0.11459465020E+04  0.39684768002E+03 -0.17563670060E+03  0.15288130030E+04  0.91418788051E+03 0.  0.
         23    2    4    4    0    0  0.86970822392E+02  0.22346394657E+03  0.47759965596E+02  0.26065363889E+03  0.90328543575E+02 0.  0.
         23    2    4    4    0    0 -0.12329173244E+04  0.17338373345E+03 -0.22339666619E+03  0.12681593641E+04  0.90416007726E+02 0.  0.
          2    1    3    3  502    0  0.28953354111E+03 -0.65295868368E+02  0.27525792547E+03  0.40479642709E+03  0.00000000000E+00 0. -1.
         -1    1    3    3    0  502  0.85641296087E+03 -0.33155181165E+03  0.82538497554E+03  0.12347591349E+04  0.00000000000E+00 0.  1.
         11    1    5    5    0    0  0.37880797521E+02  0.19439491026E+03  0.47207277985E+02  0.20359976191E+03  0.00000000000E+00 0. -1.
        -11    1    5    5    0    0  0.49090024871E+02  0.29069036313E+02  0.55268761090E+00  0.57053876972E+02  0.00000000000E+00 0.  1.
          1    1    6    6  503    0 -0.87260349264E+03  0.85829011510E+02 -0.13734294143E+03  0.88750580738E+03  0.00000000000E+00 0. -1.
         -1    1    6    6    0  503 -0.36031383174E+03  0.87554721938E+02 -0.86053724759E+02  0.38065355669E+03  0.00000000000E+00 0.  1.
<mgrwt>
<rscale>  0 0.30303338E+04</rscale>
<asrwt>0</asrwt>
<pdfrwt beam="1">  1        2 0.17256634E+00 0.30303338E+04</pdfrwt>
<pdfrwt beam="2">  1       -1 0.31487498E+00 0.30303338E+04</pdfrwt>
<totfact> 0.54323310E-01</totfact>
</mgrwt>
</event>
<event>
12    6  0.8914180E-008  0.1704352E+04  0.7818608E-02  0.8758886E-01
          2   -1    0    0  501    0  0.00000000000E+00  0.00000000000E+00  0.33608150740E+04  0.33608150740E+04  0.00000000000E+00 0. -1.
         -3   -1    0    0    0  501 -0.00000000000E+00 -0.00000000000E+00 -0.21607964317E+03  0.21607964317E+03  0.00000000000E+00 0.  1.
         24    2    1    2    0    0  0.33646468029E+03 -0.22634561148E+03  0.19694108982E+04  0.20123309166E+04  0.80346842750E+02 0.  0.
        254    2    1    2    0    0 -0.33646468029E+03  0.22634561148E+03  0.11753245326E+04  0.15645638005E+04  0.94975329010E+03 0.  0.
         23    2    4    4    0    0  0.30718233152E+03  0.21280136036E+02  0.56471874130E+03  0.64928763096E+03  0.88619083473E+02 0.  0.
         23    2    4    4    0    0 -0.64364701181E+03  0.20506547545E+03  0.61060579131E+03  0.91527616957E+03  0.92507887091E+02 0.  0.
          2    1    3    3  502    0  0.29018175924E+03 -0.15771756692E+03  0.16067527701E+04  0.16403459234E+04  0.00000000000E+00 0. -1.
         -1    1    3    3    0  502  0.46282921047E+02 -0.68628044559E+02  0.36265812812E+03  0.37198499321E+03  0.00000000000E+00 0.  1.
         11    1    5    5    0    0  0.28169936913E+03  0.40950594362E+02  0.53210249107E+03  0.60346047655E+03  0.00000000000E+00 0.  1.
        -11    1    5    5    0    0  0.25482962393E+02 -0.19670458326E+02  0.32616250229E+02  0.45827154418E+02  0.00000000000E+00 0. -1.
          2    1    6    6  503    0 -0.21123016919E+03  0.22849222874E+02  0.18220247501E+03  0.27988928751E+03  0.00000000000E+00 0.  1.
         -2    1    6    6    0  503 -0.43241684262E+03  0.18221625257E+03  0.42840331629E+03  0.63538688206E+03  0.00000000000E+00 0. -1.
<mgrwt>
<rscale>  0 0.17043518E+04</rscale>
<asrwt>0</asrwt>
<pdfrwt beam="1">  1        2 0.51704844E+00 0.17043518E+04</pdfrwt>
<pdfrwt beam="2">  1       -3 0.33243024E-01 0.17043518E+04</pdfrwt>
<totfact> 0.56315416E+00</totfact>
</mgrwt>
</event>
<event>
12    6  0.8914180E-008  0.1962583E+04  0.7818608E-02  0.8624317E-01
         -1   -1    0    0    0  501 -0.00000000000E+00  0.00000000000E+00  0.13366827763E+04  0.13366827763E+04  0.00000000000E+00 0.  1.
          2   -1    0    0  501    0  0.00000000000E+00 -0.00000000000E+00 -0.72039019248E+03  0.72039019248E+03  0.00000000000E+00 0. -1.
         24    2    1    2    0    0 -0.34822838939E+03 -0.35538334675E+03  0.80323917027E+03  0.94744698121E+03  0.70016306825E+02 0.  0.
        254    2    1    2    0    0  0.34822838939E+03  0.35538334675E+03 -0.18694658644E+03  0.11096259876E+04  0.97404336240E+03 0.  0.
         23    2    4    4    0    0  0.30563403370E+03  0.68008446217E+03 -0.17479084628E+03  0.77090102475E+03  0.88371442085E+02 0.  0.
         23    2    4    4    0    0  0.42594355684E+02 -0.32470111542E+03 -0.12155740156E+02  0.33872496284E+03  0.85683983002E+02 0.  0.
          2    1    3    3  502    0 -0.14746489142E+03 -0.10278775111E+03  0.29325593633E+03  0.34396258543E+03  0.00000000000E+00 0. -1.
         -1    1    3    3    0  502 -0.20076349796E+03 -0.25259559564E+03  0.50998323394E+03  0.60348439578E+03  0.00000000000E+00 0.  1.
         11    1    5    5    0    0  0.33163068010E+02  0.38634999694E+02  0.50061025312E+01  0.51161639377E+02  0.00000000000E+00 0. -1.
        -11    1    5    5    0    0  0.27247096569E+03  0.64144946247E+03 -0.17979694881E+03  0.71973938537E+03  0.00000000000E+00 0.  1.
          1    1    6    6  503    0 -0.25630687968E+02 -0.93451356962E+02 -0.11820804289E+02  0.97620795417E+02  0.00000000000E+00 0. -1.
         -1    1    6    6    0  503  0.68225043652E+02 -0.23124975846E+03 -0.33493586753E+00  0.24110416742E+03  0.00000000000E+00 0.  1.
<mgrwt>
<rscale>  0 0.19625832E+04</rscale>
<asrwt>0</asrwt>
<pdfrwt beam="1">  1        2 0.11082926E+00 0.19625832E+04</pdfrwt>
<pdfrwt beam="2">  1       -1 0.20564350E+00 0.19625832E+04</pdfrwt>
<totfact> 0.57833122E+00</totfact>
</mgrwt>
</event>
<event>
12    6  0.8914180E-008  0.1848276E+04  0.7818608E-02  0.8681040E-01
         -1   -1    0    0    0  501 -0.00000000000E+00  0.00000000000E+00  0.38770099274E+03  0.38770099274E+03  0.00000000000E+00 0.  1.
          2   -1    0    0  501    0  0.00000000000E+00 -0.00000000000E+00 -0.22028090811E+04  0.22028090811E+04  0.00000000000E+00 0. -1.
         24    2    1    2    0    0  0.37039300977E+03  0.55845622380E+03 -0.38271096714E+03  0.77576597046E+03  0.79251630744E+02 0.  0.
        254    2    1    2    0    0 -0.37039300977E+03 -0.55845622380E+03 -0.14323971212E+04  0.18147441034E+04  0.89020801631E+03 0.  0.
         23    2    4    4    0    0 -0.35894345091E+03 -0.77502969699E+03 -0.97068179415E+03  0.12962076893E+04  0.91759447685E+02 0.  0.
         23    2    4    4    0    0 -0.11449558856E+02  0.21657347319E+03 -0.46171532706E+03  0.51853641404E+03  0.93079577540E+02 0.  0.
          2    1    3    3  502    0  0.68998714587E+02  0.63275376830E+02 -0.36001040296E+02  0.10030289542E+03  0.00000000000E+00 0. -1.
         -1    1    3    3    0  502  0.30139429518E+03  0.49518084697E+03 -0.34670992685E+03  0.67546307504E+03  0.00000000000E+00 0.  1.
         11    1    5    5    0    0 -0.33596930752E+03 -0.73258427931E+03 -0.94331409338E+03  0.12407242162E+04  0.00000000000E+00 0. -1.
        -11    1    5    5    0    0 -0.22974143395E+02 -0.42445417680E+02 -0.27367700774E+02  0.55483473147E+02  0.00000000000E+00 0.  1.
          4    1    6    6  503    0 -0.26223846879E+02  0.20832736258E+03 -0.37135647394E+03  0.42660709193E+03  0.00000000000E+00 0. -1.
         -4    1    6    6    0  503  0.14774288023E+02  0.82461106048E+01 -0.90358853112E+02  0.91929322103E+02  0.00000000000E+00 0.  1.
<mgrwt>
<rscale>  0 0.18482762E+04</rscale>
<asrwt>0</asrwt>
<pdfrwt beam="1">  1        2 0.33889370E+00 0.18482762E+04</pdfrwt>
<pdfrwt beam="2">  1       -1 0.59646307E-01 0.18482762E+04</pdfrwt>
<totfact> 0.15703824E+01</totfact>
</mgrwt>
</event>
<event>
12    6  0.8914180E-008  0.2072429E+04  0.7818608E-02  0.8573487E-01
          2   -1    0    0  501    0  0.00000000000E+00  0.00000000000E+00  0.20708298970E+04  0.20708298970E+04  0.00000000000E+00 0. -1.
         -1   -1    0    0    0  501 -0.00000000000E+00 -0.00000000000E+00 -0.51850716855E+03  0.51850716855E+03  0.00000000000E+00 0.  1.
         24    2    1    2    0    0 -0.48077213957E+02 -0.83136227684E+03  0.51730438913E+03  0.98329822437E+03  0.76137462444E+02 0.  0.
        254    2    1    2    0    0  0.48077213957E+02  0.83136227684E+03  0.10350183393E+04  0.16060388412E+04  0.90256475822E+03 0.  0.
         23    2    4    4    0    0 -0.26998833635E+03  0.84329633436E+03  0.82819583699E+03  0.12157654545E+04  0.90193606499E+02 0.  0.
         23    2    4    4    0    0  0.31806555031E+03 -0.11934057516E+02  0.20682250234E+03  0.39027338668E+03  0.90717434098E+02 0.  0.
          4    1    3    3  502    0  0.10253009220E+02 -0.12410128476E+03  0.53596382854E+02  0.13556852633E+03  0.00000000000E+00 0. -1.
         -3    1    3    3    0  502 -0.58330223177E+02 -0.70726099208E+03  0.46370800628E+03  0.84772969804E+03  0.00000000000E+00 0.  1.
         11    1    5    5    0    0 -0.92203776828E+02  0.26265472332E+03  0.31810271142E+03  0.42270364933E+03  0.00000000000E+00 0.  1.
        -11    1    5    5    0    0 -0.17778455953E+03  0.58064161104E+03  0.51009312556E+03  0.79306180517E+03  0.00000000000E+00 0. -1.
          3    1    6    6  503    0  0.31675782728E+03 -0.13614628499E+02  0.21417954453E+03  0.38261437054E+03  0.00000000000E+00 0. -1.
         -3    1    6    6    0  503  0.13077230323E+01  0.16805709828E+01 -0.73570421882E+01  0.76590161324E+01  0.00000000000E+00 0.  1.
<mgrwt>
<rscale>  0 0.20724287E+04</rscale>
<asrwt>0</asrwt>
<pdfrwt beam="1">  1        2 0.31858921E+00 0.20724287E+04</pdfrwt>
<pdfrwt beam="2">  1       -1 0.79770335E-01 0.20724287E+04</pdfrwt>
<totfact> 0.10066793E+01</totfact>
</mgrwt>
</event>
<event>
12    6  0.1360438E-007  0.2949375E+04  0.7818608E-02  0.8258337E-01
         -1   -1    0    0    0  501 -0.00000000000E+00  0.00000000000E+00  0.12969888290E+04  0.12969888290E+04  0.00000000000E+00 0.  1.
          2   -1    0    0  501    0  0.00000000000E+00 -0.00000000000E+00 -0.16767323129E+04  0.16767323129E+04  0.00000000000E+00 0. -1.
         24    2    1    2    0    0  0.93093395041E+02 -0.49627551604E+02 -0.15104552143E+04  0.15171924421E+04  0.96273973791E+02 0.  0.
        254    2    1    2    0    0 -0.93093395041E+02  0.49627551604E+02  0.11307117304E+04  0.14565286997E+04  0.91205129339E+03 0.  0.
         23    2    4    4    0    0  0.36423144052E+03  0.17989578233E+03  0.66693043042E+03  0.78613294812E+03  0.90453183110E+02 0.  0.
         23    2    4    4    0    0 -0.45732483556E+03 -0.13026823072E+03  0.46378129995E+03  0.67039575158E+03  0.90672776524E+02 0.  0.
          4    1    3    3  502    0  0.65247100907E+02 -0.50350779357E+02 -0.14235140618E+04  0.14258978467E+04  0.00000000000E+00 0. -1.
         -3    1    3    3    0  502  0.27846294133E+02  0.72322775291E+00 -0.86941152514E+02  0.91294595436E+02  0.00000000000E+00 0.  1.
         11    1    5    5    0    0  0.33760958697E+03  0.17671571099E+03  0.57061963629E+03  0.68615992673E+03  0.00000000000E+00 0. -1.
        -11    1    5    5    0    0  0.26621853550E+02  0.31800713315E+01  0.96310794130E+02  0.99973021391E+02  0.00000000000E+00 0.  1.
          3    1    6    6  503    0 -0.28050996878E+03 -0.10246218030E+03  0.34132090030E+03  0.45352430801E+03  0.00000000000E+00 0. -1.
         -3    1    6    6    0  503 -0.17681486678E+03 -0.27806050420E+02  0.12246039965E+03  0.21687144357E+03  0.00000000000E+00 0.  1.
<mgrwt>
<rscale>  0 0.29493749E+04</rscale>
<asrwt>0</asrwt>
<pdfrwt beam="1">  1        2 0.25795882E+00 0.29493749E+04</pdfrwt>
<pdfrwt beam="2">  1       -1 0.19953674E+00 0.29493749E+04</pdfrwt>
<totfact> 0.14989692E+00</totfact>
</mgrwt>
</event>
<event>
12    6  0.8914180E-008  0.2302949E+04  0.7818608E-02  0.8476759E-01
          2   -1    0    0  501    0  0.00000000000E+00  0.00000000000E+00  0.55857947590E+03  0.55857947590E+03  0.00000000000E+00 0. -1.
         -1   -1    0    0    0  501 -0.00000000000E+00 -0.00000000000E+00 -0.23736881812E+04  0.23736881812E+04  0.00000000000E+00 0.  1.
         24    2    1    2    0    0 -0.87128001672E+03 -0.26463309543E+03 -0.59991005810E+03  0.10934858470E+04  0.81606844316E+02 0.  0.
        254    2    1    2    0    0  0.87128001672E+03  0.26463309543E+03 -0.12151986472E+04  0.18387818101E+04  0.10369432243E+04 0.  0.
         23    2    4    4    0    0  0.10656791957E+04  0.38090629764E+03 -0.98588606074E+03  0.15038707951E+04  0.94309531710E+02 0.  0.
         23    2    4    4    0    0 -0.19439917900E+03 -0.11627320220E+03 -0.22931258650E+03  0.33491101506E+03  0.90942989469E+02 0.  0.
          2    1    3    3  502    0 -0.61686363841E+03 -0.16021559384E+03 -0.45085308231E+03  0.78067809417E+03  0.00000000000E+00 0. -1.
         -1    1    3    3    0  502 -0.25441637831E+03 -0.10441750160E+03 -0.14905697579E+03  0.31280775282E+03  0.00000000000E+00 0.  1.
         11    1    5    5    0    0  0.83212389554E+03  0.33673541710E+03 -0.76627505432E+03  0.11802535226E+04  0.00000000000E+00 0. -1.
        -11    1    5    5    0    0  0.23355530018E+03  0.44170880535E+02 -0.21961100642E+03  0.32361727252E+03  0.00000000000E+00 0.  1.
          2    1    6    6  503    0 -0.10802332021E+03 -0.12428085546E+02 -0.94271407671E+02  0.14391175534E+03  0.00000000000E+00 0.  1.
         -2    1    6    6    0  503 -0.86375858793E+02 -0.10384511666E+03 -0.13504117883E+03  0.19099925973E+03  0.00000000000E+00 0. -1.
<mgrwt>
<rscale>  0 0.23029490E+04</rscale>
<asrwt>0</asrwt>
<pdfrwt beam="1">  1        2 0.85935303E-01 0.23029490E+04</pdfrwt>
<pdfrwt beam="2">  1       -1 0.36518280E+00 0.23029490E+04</pdfrwt>
<totfact> 0.68879486E-01</totfact>
</mgrwt>
</event>
<event>
12    6  0.8914180E-008  0.1592356E+04  0.7818608E-02  0.8825258E-01
          2   -1    0    0  501    0  0.00000000000E+00  0.00000000000E+00  0.17141952342E+04  0.17141952342E+04  0.00000000000E+00 0. -1.
         -1   -1    0    0    0  501 -0.00000000000E+00 -0.00000000000E+00 -0.36979422527E+03  0.36979422527E+03  0.00000000000E+00 0.  1.
         24    2    1    2    0    0 -0.45001016678E+02 -0.49657859481E+03  0.71329643582E+03  0.87460751663E+03  0.86781970941E+02 0.  0.
        254    2    1    2    0    0  0.45001016678E+02  0.49657859481E+03  0.63110457313E+03  0.12093819428E+04  0.90315907189E+03 0.  0.
         23    2    4    4    0    0 -0.27159370438E+03  0.59074663576E+03  0.26702204884E+03  0.70862824358E+03  0.90047127221E+02 0.  0.
         23    2    4    4    0    0  0.31659472106E+03 -0.94168040951E+02  0.36408252429E+03  0.50075369927E+03  0.95385247803E+02 0.  0.
          4    1    3    3  502    0 -0.54135574138E+02 -0.39407903272E+03  0.51032404401E+03  0.64703908252E+03  0.00000000000E+00 0. -1.
         -3    1    3    3    0  502  0.91345574596E+01 -0.10249956209E+03  0.20297239181E+03  0.22756843411E+03  0.00000000000E+00 0.  1.
         11    1    5    5    0    0 -0.24281461807E+03  0.46311387724E+03  0.18743624903E+03  0.55548694809E+03  0.00000000000E+00 0. -1.
        -11    1    5    5    0    0 -0.28779086303E+02  0.12763275851E+03  0.79585799812E+02  0.15314129549E+03  0.00000000000E+00 0.  1.
          3    1    6    6  503    0  0.22573465691E+03 -0.32701554121E+02  0.28739569589E+03  0.36690845314E+03  0.00000000000E+00 0. -1.
         -3    1    6    6    0  503  0.90860064149E+02 -0.61466486830E+02  0.76686828407E+02  0.13384524613E+03  0.00000000000E+00 0.  1.
<mgrwt>
<rscale>  0 0.15923561E+04</rscale>
<asrwt>0</asrwt>
<pdfrwt beam="1">  1        2 0.26372234E+00 0.15923561E+04</pdfrwt>
<pdfrwt beam="2">  1       -1 0.56891420E-01 0.15923561E+04</pdfrwt>
<totfact> 0.32923400E+01</totfact>
</mgrwt>
</event>
<event>
12    6  0.8914180E-008  0.1818830E+04  0.7818608E-02  0.8696350E-01
         -1   -1    0    0    0  501 -0.00000000000E+00  0.00000000000E+00  0.52739398173E+03  0.52739398173E+03  0.00000000000E+00 0.  1.
          2   -1    0    0  501    0  0.00000000000E+00 -0.00000000000E+00 -0.15681550244E+04  0.15681550244E+04  0.00000000000E+00 0. -1.
         24    2    1    2    0    0 -0.57497461485E+03 -0.28161099417E+03 -0.10189761733E+03  0.65305368331E+03  0.78711048173E+02 0.  0.
        254    2    1    2    0    0  0.57497461485E+03  0.28161099417E+03 -0.93886342536E+03  0.14424953228E+04  0.88849741991E+03 0.  0.
         23    2    4    4    0    0  0.44275783973E+03 -0.59742334244E+02 -0.96197950210E+03  0.10645218349E+04  0.90545697200E+02 0.  0.
         23    2    4    4    0    0  0.13221677513E+03  0.34135332841E+03  0.23116076736E+02  0.37797348799E+03  0.91248200967E+02 0.  0.
          4    1    3    3  502    0 -0.18617819882E+03 -0.62951209846E+02 -0.50629551349E+01  0.19659809269E+03  0.00000000000E+00 0. -1.
         -3    1    3    3    0  502 -0.38879641603E+03 -0.21865978432E+03 -0.96834662197E+02  0.45645559061E+03  0.00000000000E+00 0.  1.
         11    1    5    5    0    0  0.42770981280E+03 -0.64396269758E+02 -0.95257959592E+03  0.10461789761E+04  0.00000000000E+00 0.  1.
        -11    1    5    5    0    0  0.15048026928E+02  0.46539355139E+01 -0.93999061814E+01  0.18342858731E+02  0.00000000000E+00 0. -1.
          2    1    6    6  503    0 -0.67795423763E+01  0.35198073675E+02 -0.16419038285E+02  0.39426531720E+02  0.00000000000E+00 0. -1.
         -2    1    6    6    0  503  0.13899631750E+03  0.30615525474E+03  0.39535115021E+02  0.33854695627E+03  0.00000000000E+00 0.  1.
<mgrwt>
<rscale>  0 0.18188299E+04</rscale>
<asrwt>0</asrwt>
<pdfrwt beam="1">  1        2 0.24125462E+00 0.18188299E+04</pdfrwt>
<pdfrwt beam="2">  1       -1 0.81137535E-01 0.18188299E+04</pdfrwt>
<totfact> 0.18887758E+01</totfact>
</mgrwt>
</event>
<event>
12    6  0.8914180E-008  0.1153786E+04  0.7818608E-02  0.9154298E-01
         -1   -1    0    0    0  501 -0.00000000000E+00  0.00000000000E+00  0.84650882165E+03  0.84650882165E+03  0.00000000000E+00 0.  1.
          2   -1    0    0  501    0  0.00000000000E+00 -0.00000000000E+00 -0.39315056869E+03  0.39315056869E+03  0.00000000000E+00 0. -1.
         24    2    1    2    0    0  0.17412855818E+03  0.89139201474E+02  0.20949471099E+03  0.29727828803E+03  0.78865674337E+02 0.  0.
        254    2    1    2    0    0 -0.17412855818E+03 -0.89139201474E+02  0.24386354197E+03  0.94238110231E+03  0.88901415223E+03 0.  0.
         23    2    4    4    0    0  0.13766424326E+03  0.23728223914E+03  0.36748374486E+03  0.46737888794E+03  0.90246425246E+02 0.  0.
         23    2    4    4    0    0 -0.31179280145E+03 -0.32642144062E+03 -0.12362020289E+03  0.47500221437E+03  0.81113754449E+02 0.  0.
          2    1    3    3  502    0 -0.29777981655E+01  0.10217111685E+02 -0.14717136404E+01  0.10743490780E+02  0.00000000000E+00 0. -1.
         -1    1    3    3    0  502  0.17710635635E+03  0.78922089789E+02  0.21096642463E+03  0.28653479725E+03  0.00000000000E+00 0.  1.
         11    1    5    5    0    0  0.12355416358E+03  0.24374289569E+03  0.34771116430E+03  0.44224346724E+03  0.00000000000E+00 0.  1.
        -11    1    5    5    0    0  0.14110079684E+02 -0.64606565491E+01  0.19772580557E+02  0.25135420696E+02  0.00000000000E+00 0. -1.
          4    1    6    6  503    0 -0.24089032211E+03 -0.23214160939E+03 -0.12471467173E+03  0.35703168409E+03  0.00000000000E+00 0. -1.
         -4    1    6    6    0  503 -0.70902479338E+02 -0.94279831224E+02  0.10944688425E+01  0.11797053028E+03  0.00000000000E+00 0.  1.
<mgrwt>
<rscale>  0 0.11537858E+04</rscale>
<asrwt>0</asrwt>
<pdfrwt beam="1">  1        2 0.60484703E-01 0.11537858E+04</pdfrwt>
<pdfrwt beam="2">  1       -1 0.13023213E+00 0.11537858E+04</pdfrwt>
<totfact> 0.46386545E+01</totfact>
</mgrwt>
</event>
<event>
12    6  0.8914180E-008  0.3250220E+04  0.7818608E-02  0.8175679E-01
          2   -1    0    0  501    0  0.00000000000E+00  0.00000000000E+00  0.26539076900E+04  0.26539076900E+04  0.00000000000E+00 0. -1.
         -1   -1    0    0    0  501 -0.00000000000E+00 -0.00000000000E+00 -0.99512966395E+03  0.99512966395E+03  0.00000000000E+00 0.  1.
         24    2    1    2    0    0  0.80924551279E+03  0.11586450770E+04  0.20401457818E+03  0.14301607497E+04  0.80006921244E+02 0.  0.
        254    2    1    2    0    0 -0.80924551279E+03 -0.11586450770E+04  0.14547634479E+04  0.22188766042E+04  0.89985553353E+03 0.  0.
         23    2    4    4    0    0 -0.76278092615E+03 -0.12427400639E+04  0.10665921816E+04  0.18088523368E+04  0.89946021704E+02 0.  0.
         23    2    4    4    0    0 -0.46464586642E+02  0.84094986883E+02  0.38817126631E+03  0.41002426748E+03  0.90620324994E+02 0.  0.
          2    1    3    3  502    0  0.19342505860E+03  0.23004891470E+03  0.24513738734E+02  0.30155709217E+03  0.00000000000E+00 0. -1.
         -1    1    3    3    0  502  0.61582045419E+03  0.92859616230E+03  0.17950083945E+03  0.11286036575E+04  0.00000000000E+00 0.  1.
         11    1    5    5    0    0 -0.16964033482E+03 -0.24208259793E+03  0.25591872309E+03  0.39099388773E+03  0.00000000000E+00 0. -1.
        -11    1    5    5    0    0 -0.59314059134E+03 -0.10006574660E+04  0.81067345847E+03  0.14178584490E+04  0.00000000000E+00 0.  1.
          3    1    6    6  503    0 -0.56447079885E+02  0.13951328459E+02  0.13206713308E+03  0.14430051987E+03  0.00000000000E+00 0. -1.
         -3    1    6    6    0  503  0.99824932436E+01  0.70143658424E+02  0.25610413322E+03  0.26572374761E+03  0.00000000000E+00 0.  1.
<mgrwt>
<rscale>  0 0.32502198E+04</rscale>
<asrwt>0</asrwt>
<pdfrwt beam="1">  1        2 0.40829349E+00 0.32502198E+04</pdfrwt>
<pdfrwt beam="2">  1       -1 0.15309687E+00 0.32502198E+04</pdfrwt>
<totfact> 0.88926121E-01</totfact>
</mgrwt>
</event>
<event>
12    6  0.8914180E-008  0.1621608E+04  0.7818608E-02  0.8807382E-01
          2   -1    0    0  501    0  0.00000000000E+00  0.00000000000E+00  0.18098514676E+04  0.18098514676E+04  0.00000000000E+00 0. -1.
         -1   -1    0    0    0  501 -0.00000000000E+00 -0.00000000000E+00 -0.36323612691E+03  0.36323612691E+03  0.00000000000E+00 0.  1.
         24    2    1    2    0    0 -0.33035296012E+03  0.56692335650E+02  0.10866889126E+04  0.11398501065E+04  0.77578175541E+02 0.  0.
        254    2    1    2    0    0  0.33035296012E+03 -0.56692335650E+02  0.35992642812E+03  0.10332374880E+04  0.90867242385E+03 0.  0.
         23    2    4    4    0    0  0.14619454069E+03  0.20720602497E+03  0.57530507219E+03  0.63546894825E+03  0.92399554051E+02 0.  0.
         23    2    4    4    0    0  0.18415841944E+03 -0.26389836062E+03 -0.21537864407E+03  0.39776853980E+03  0.90968031424E+02 0.  0.
          4    1    3    3  502    0 -0.29947951964E+03  0.49027555663E+02  0.88299493551E+03  0.93368717461E+03  0.00000000000E+00 0. -1.
         -3    1    3    3    0  502 -0.30873440485E+02  0.76647799866E+01  0.20369397707E+03  0.20616293186E+03  0.00000000000E+00 0.  1.
         11    1    5    5    0    0  0.99095257274E+02  0.62505048005E+02  0.23007033782E+03  0.25818425859E+03  0.00000000000E+00 0. -1.
        -11    1    5    5    0    0  0.47099283413E+02  0.14470097697E+03  0.34523473437E+03  0.37728468966E+03  0.00000000000E+00 0.  1.
          3    1    6    6  503    0  0.19049678273E+02 -0.41976142868E+01 -0.37619763531E+02  0.42376370965E+02  0.00000000000E+00 0. -1.
         -3    1    6    6    0  503  0.16510874116E+03 -0.25970074634E+03 -0.17775888054E+03  0.35539216883E+03  0.00000000000E+00 0.  1.
<mgrwt>
<rscale>  0 0.16216084E+04</rscale>
<asrwt>0</asrwt>
<pdfrwt beam="1">  1        2 0.27843868E+00 0.16216084E+04</pdfrwt>
<pdfrwt beam="2">  1       -1 0.55882482E-01 0.16216084E+04</pdfrwt>
<totfact> 0.30098540E+01</totfact>
</mgrwt>
</event>
<event>
12    6  0.8914180E-008  0.1381050E+04  0.7818608E-02  0.8967651E-01
         -1   -1    0    0    0  501 -0.00000000000E+00  0.00000000000E+00  0.13539895648E+03  0.13539895648E+03  0.00000000000E+00 0.  1.
          2   -1    0    0  501    0  0.00000000000E+00 -0.00000000000E+00 -0.35216264603E+04  0.35216264603E+04  0.00000000000E+00 0. -1.
         24    2    1    2    0    0 -0.76516956131E+02  0.39118272448E+03 -0.82331315055E+03  0.91735291178E+03  0.69376165826E+02 0.  0.
        254    2    1    2    0    0  0.76516956131E+02 -0.39118272448E+03 -0.25629143533E+04  0.27396725050E+04  0.88226792072E+03 0.  0.
         23    2    4    4    0    0 -0.34090943668E+02 -0.20169624036E+03 -0.24775399096E+04  0.24875562613E+04  0.88817700018E+02 0.  0.
         23    2    4    4    0    0  0.11060789980E+03 -0.18948648412E+03 -0.85374443730E+02  0.25211624372E+03  0.90191848542E+02 0.  0.
          2    1    3    3  502    0 -0.37848922580E+02  0.82491112313E+02 -0.14440275353E+03  0.17055638299E+03  0.00000000000E+00 0. -1.
         -1    1    3    3    0  502 -0.38668033551E+02  0.30869161217E+03 -0.67891039701E+03  0.74679652879E+03  0.00000000000E+00 0.  1.
         11    1    5    5    0    0 -0.27581213074E+02 -0.16422988837E+03 -0.22983764997E+04  0.23044015957E+04  0.00000000000E+00 0.  1.
        -11    1    5    5    0    0 -0.65097305936E+01 -0.37466351994E+02 -0.17916340982E+03  0.18315466563E+03  0.00000000000E+00 0. -1.
          1    1    6    6  503    0  0.11673277882E+02  0.37802377550E+01  0.91586107328E+01  0.15311295326E+02  0.00000000000E+00 0. -1.
         -1    1    6    6    0  503  0.98934621916E+02 -0.19326672187E+03 -0.94533054462E+02  0.23680494839E+03  0.00000000000E+00 0.  1.
<mgrwt>
<rscale>  0 0.13810497E+04</rscale>
<asrwt>0</asrwt>
<pdfrwt beam="1">  1        2 0.54178863E+00 0.13810497E+04</pdfrwt>
<pdfrwt beam="2">  1       -1 0.20830611E-01 0.13810497E+04</pdfrwt>
<totfact> 0.16952232E+01</totfact>
</mgrwt>
</event>
<event>
12    6  0.8914180E-008  0.2430489E+04  0.7818608E-02  0.8428176E-01
         -1   -1    0    0    0  501 -0.00000000000E+00  0.00000000000E+00  0.21652522721E+04  0.21652522721E+04  0.00000000000E+00 0.  1.
          2   -1    0    0  501    0  0.00000000000E+00 -0.00000000000E+00 -0.68205437794E+03  0.68205437794E+03  0.00000000000E+00 0. -1.
         24    2    1    2    0    0  0.43459219373E+02  0.10002187146E+04  0.28458455615E+03  0.10438980566E+04  0.80053746040E+02 0.  0.
        254    2    1    2    0    0 -0.43459219373E+02 -0.10002187146E+04  0.11986133380E+04  0.18034085934E+04  0.90182173403E+03 0.  0.
         23    2    4    4    0    0 -0.90711083004E+02 -0.80123355873E+03  0.28060406149E+03  0.85854012513E+03  0.90270653679E+02 0.  0.
         23    2    4    4    0    0  0.47251863632E+02 -0.19898515586E+03  0.91800927654E+03  0.94486846830E+03  0.90595583246E+02 0.  0.
          2    1    3    3  502    0  0.26490522607E+02  0.93411456220E+03  0.27981828277E+03  0.97548451267E+03  0.00000000000E+00 0. -1.
         -1    1    3    3    0  502  0.16968696766E+02  0.66104152397E+02  0.47662733838E+01  0.68413543951E+02  0.00000000000E+00 0.  1.
         11    1    5    5    0    0  0.13382981411E+02 -0.29695082220E+02  0.15866371887E+02  0.36230427217E+02  0.00000000000E+00 0. -1.
        -11    1    5    5    0    0 -0.10409406442E+03 -0.77153847651E+03  0.26473768960E+03  0.82230969791E+03  0.00000000000E+00 0.  1.
          1    1    6    6  503    0  0.58038150754E+02 -0.88354737066E+02  0.56390329814E+03  0.57372634257E+03  0.00000000000E+00 0. -1.
         -1    1    6    6    0  503 -0.10786287122E+02 -0.11063041880E+03  0.35410597840E+03  0.37114212573E+03  0.00000000000E+00 0.  1.
<mgrwt>
<rscale>  0 0.24304895E+04</rscale>
<asrwt>0</asrwt>
<pdfrwt beam="1">  1        2 0.10493144E+00 0.24304895E+04</pdfrwt>
<pdfrwt beam="2">  1       -1 0.33311573E+00 0.24304895E+04</pdfrwt>
<totfact> 0.87050836E-01</totfact>
</mgrwt>
</event>
<event>
12    6  0.8914180E-008  0.1664335E+04  0.7818608E-02  0.8781971E-01
         -1   -1    0    0    0  501 -0.00000000000E+00  0.00000000000E+00  0.78581832345E+03  0.78581832345E+03  0.00000000000E+00 0.  1.
          2   -1    0    0  501    0  0.00000000000E+00 -0.00000000000E+00 -0.88125067585E+03  0.88125067585E+03  0.00000000000E+00 0. -1.
         24    2    1    2    0    0 -0.14305921326E+03 -0.19145721310E+03  0.50113293170E+03  0.56080567372E+03  0.79037873842E+02 0.  0.
        254    2    1    2    0    0  0.14305921326E+03  0.19145721310E+03 -0.59656528410E+03  0.11062633256E+04  0.90044800205E+03 0.  0.
         23    2    4    4    0    0  0.13146591457E+03  0.52719498307E+03 -0.21680153439E+03  0.59217423200E+03  0.91921590812E+02 0.  0.
         23    2    4    4    0    0  0.11593298690E+02 -0.33573776998E+03 -0.37976374971E+03  0.51408909358E+03  0.84928415660E+02 0.  0.
          4    1    3    3  502    0 -0.13225148505E+02  0.32759245152E+01  0.58929026995E+02  0.60483604861E+02  0.00000000000E+00 0. -1.
         -3    1    3    3    0  502 -0.12983406476E+03 -0.19473313761E+03  0.44220390470E+03  0.50032206886E+03  0.00000000000E+00 0.  1.
         11    1    5    5    0    0  0.82885483203E+02  0.20291498526E+03 -0.52386385653E+02  0.22536376810E+03  0.00000000000E+00 0.  1.
        -11    1    5    5    0    0  0.48580431371E+02  0.32427999781E+03 -0.16441514874E+03  0.36681046390E+03  0.00000000000E+00 0. -1.
          2    1    6    6  503    0  0.15996938633E+02 -0.24743816705E+03 -0.21994812489E+03  0.33144943235E+03  0.00000000000E+00 0. -1.
         -2    1    6    6    0  503 -0.44036399426E+01 -0.88299602925E+02 -0.15981562482E+03  0.18263966124E+03  0.00000000000E+00 0.  1.
<mgrwt>
<rscale>  0 0.16643352E+04</rscale>
<asrwt>0</asrwt>
<pdfrwt beam="1">  1        2 0.13557703E+00 0.16643352E+04</pdfrwt>
<pdfrwt beam="2">  1       -1 0.12089513E+00 0.16643352E+04</pdfrwt>
<totfact> 0.19994765E+01</totfact>
</mgrwt>
</event>
<event>
12    6  0.8914180E-008  0.1746953E+04  0.7818608E-02  0.8735030E-01
          2   -1    0    0  501    0  0.00000000000E+00  0.00000000000E+00  0.13041709801E+04  0.13041709801E+04  0.00000000000E+00 0. -1.
         -1   -1    0    0    0  501 -0.00000000000E+00 -0.00000000000E+00 -0.58501591522E+03  0.58501591522E+03  0.00000000000E+00 0.  1.
         24    2    1    2    0    0  0.15431424790E+03 -0.28449975180E+03 -0.33034286901E+03  0.46922223610E+03  0.79310149798E+02 0.  0.
        254    2    1    2    0    0 -0.15431424790E+03  0.28449975180E+03  0.10494979339E+04  0.14199646592E+04  0.90005595620E+03 0.  0.
         23    2    4    4    0    0 -0.39148673493E+03  0.45729173878E+03  0.49182985170E+03  0.78251290466E+03  0.89734301952E+02 0.  0.
         23    2    4    4    0    0  0.23717248703E+03 -0.17279198698E+03  0.55766808217E+03  0.63745175453E+03  0.96141510925E+02 0.  0.
          4    1    3    3  502    0  0.25147183207E+01 -0.72051110269E+02 -0.68984649484E+02  0.99782604515E+02  0.00000000000E+00 0. -1.
         -3    1    3    3    0  502  0.15179952958E+03 -0.21244864153E+03 -0.26135821953E+03  0.36943963158E+03  0.00000000000E+00 0.  1.
         11    1    5    5    0    0 -0.29497769347E+03  0.27985929211E+03  0.32453110494E+03  0.52024369395E+03  0.00000000000E+00 0.  1.
        -11    1    5    5    0    0 -0.96509041465E+02  0.17743244667E+03  0.16729874676E+03  0.26226921071E+03  0.00000000000E+00 0. -1.
          3    1    6    6  503    0  0.24606694463E+03 -0.16865007004E+03  0.54623265308E+03  0.62238404435E+03  0.00000000000E+00 0.  1.
         -3    1    6    6    0  503 -0.88944576001E+01 -0.41419169412E+01  0.11435429081E+02  0.15067710185E+02  0.00000000000E+00 0. -1.
<mgrwt>
<rscale>  0 0.17469525E+04</rscale>
<asrwt>0</asrwt>
<pdfrwt beam="1">  1        2 0.20064169E+00 0.17469525E+04</pdfrwt>
<pdfrwt beam="2">  1       -1 0.90002449E-01 0.17469525E+04</pdfrwt>
<totfact> 0.21461073E+01</totfact>
</mgrwt>
</event>
<event>
12    6  0.8914180E-008  0.2832404E+04  0.7818608E-02  0.8293278E-01
         -1   -1    0    0    0  501 -0.00000000000E+00  0.00000000000E+00  0.91227896355E+03  0.91227896355E+03  0.00000000000E+00 0.  1.
          2   -1    0    0  501    0  0.00000000000E+00 -0.00000000000E+00 -0.21984811911E+04  0.21984811911E+04  0.00000000000E+00 0. -1.
         24    2    1    2    0    0 -0.11123674472E+04  0.27130376065E+03 -0.11772118757E+04  0.16442006356E+04  0.81245686270E+02 0.  0.
        254    2    1    2    0    0  0.11123674472E+04 -0.27130376065E+03 -0.10899035182E+03  0.14665595190E+04  0.90991805010E+03 0.  0.
         23    2    4    4    0    0  0.90560878452E+03 -0.43086242119E+02  0.28837450328E+03  0.95564382626E+03  0.90064275114E+02 0.  0.
         23    2    4    4    0    0  0.20675866271E+03 -0.22821751853E+03 -0.39736485510E+03  0.51091569279E+03  0.91124292557E+02 0.  0.
          2    1    3    3  502    0 -0.86924329819E+03  0.19059543243E+03 -0.87480146909E+03  0.12478734474E+04  0.00000000000E+00 0. -1.
         -1    1    3    3    0  502 -0.24312414904E+03  0.80708328223E+02 -0.30241040661E+03  0.39632718821E+03  0.00000000000E+00 0.  1.
         11    1    5    5    0    0  0.81777949170E+03 -0.45399558714E+02  0.23203636466E+03  0.85127274800E+03  0.00000000000E+00 0. -1.
        -11    1    5    5    0    0  0.87829292829E+02  0.23133165957E+01  0.56338138618E+02  0.10437107825E+03  0.00000000000E+00 0.  1.
          2    1    6    6  503    0  0.45511185052E+02 -0.82761616320E+01 -0.80561691429E+02  0.92897518493E+02  0.00000000000E+00 0.  1.
         -2    1    6    6    0  503  0.16124747766E+03 -0.21994135690E+03 -0.31680316368E+03  0.41801817430E+03  0.00000000000E+00 0. -1.
<mgrwt>
<rscale>  0 0.28324040E+04</rscale>
<asrwt>0</asrwt>
<pdfrwt beam="1">  1        2 0.33822787E+00 0.28324040E+04</pdfrwt>
<pdfrwt beam="2">  1       -1 0.14035061E+00 0.28324040E+04</pdfrwt>
<totfact> 0.21262453E+00</totfact>
</mgrwt>
</event>
<event>
12    6  0.8914180E-008  0.1577382E+04  0.7818608E-02  0.8834565E-01
          2   -1    0    0  501    0  0.00000000000E+00  0.00000000000E+00  0.33965026027E+04  0.33965026027E+04  0.00000000000E+00 0. -1.
         -1   -1    0    0    0  501 -0.00000000000E+00 -0.00000000000E+00 -0.18313940094E+03  0.18313940094E+03  0.00000000000E+00 0.  1.
         24    2    1    2    0    0  0.69652303273E+02 -0.19074749609E+03 -0.18393256022E+02  0.21906343509E+03  0.80090112432E+02 0.  0.
        254    2    1    2    0    0 -0.69652303273E+02  0.19074749609E+03  0.32317564578E+04  0.33605785685E+04  0.89888957187E+03 0.  0.
         23    2    4    4    0    0 -0.60380503688E+02 -0.29122826483E+03  0.52941546250E+03  0.61403881189E+03  0.91122023226E+02 0.  0.
         23    2    4    4    0    0 -0.92717995847E+01  0.48197576092E+03  0.27023409953E+04  0.27465397566E+04  0.91908540216E+02 0.  0.
          2    1    3    3  502    0  0.98616881782E+01 -0.79839996790E+02  0.27426011453E+02  0.84993317886E+02  0.00000000000E+00 0. -1.
         -1    1    3    3    0  502  0.59790615095E+02 -0.11090749930E+03 -0.45819267475E+02  0.13407011720E+03  0.00000000000E+00 0.  1.
         11    1    5    5    0    0 -0.13211603806E+02 -0.16480124682E+03  0.36947755456E+03  0.40478100345E+03  0.00000000000E+00 0. -1.
        -11    1    5    5    0    0 -0.47168899882E+02 -0.12642701801E+03  0.15993790793E+03  0.20925780844E+03  0.00000000000E+00 0.  1.
          3    1    6    6  503    0 -0.42688864692E+02  0.39826750953E+03  0.21880910624E+04  0.22244509088E+04  0.00000000000E+00 0. -1.
         -3    1    6    6    0  503  0.33417065108E+02  0.83708251390E+02  0.51424993284E+03  0.52208884782E+03  0.00000000000E+00 0.  1.
<mgrwt>
<rscale>  0 0.15773819E+04</rscale>
<asrwt>0</asrwt>
<pdfrwt beam="1">  1        2 0.52253882E+00 0.15773819E+04</pdfrwt>
<pdfrwt beam="2">  1       -1 0.28175295E-01 0.15773819E+04</pdfrwt>
<totfact> 0.12072975E+01</totfact>
</mgrwt>
</event>
<event>
12    6  0.8914180E-008  0.1543854E+04  0.7818608E-02  0.8855803E-01
          2   -1    0    0  501    0  0.00000000000E+00  0.00000000000E+00  0.18854841754E+04  0.18854841754E+04  0.00000000000E+00 0. -1.
         -1   -1    0    0    0  501 -0.00000000000E+00 -0.00000000000E+00 -0.31603099233E+03  0.31603099233E+03  0.00000000000E+00 0.  1.
         24    2    1    2    0    0  0.31454638721E+03  0.26211994808E+02  0.10845189227E+04  0.11322690036E+04  0.78900598461E+02 0.  0.
        254    2    1    2    0    0 -0.31454638721E+03 -0.26211994808E+02  0.48493426042E+03  0.10692461642E+04  0.89916607158E+03 0.  0.
         23    2    4    4    0    0 -0.19302368625E+03  0.34060080283E+03  0.53398908043E+03  0.66873059921E+03  0.93750871780E+02 0.  0.
         23    2    4    4    0    0 -0.12152270097E+03 -0.36681279763E+03 -0.49054820014E+02  0.40051556496E+03  0.93203793108E+02 0.  0.
          2    1    3    3  502    0  0.15616632525E+03 -0.13124801694E+02  0.63472082433E+03  0.65378184924E+03  0.00000000000E+00 0. -1.
         -1    1    3    3    0  502  0.15838006196E+03  0.39336796502E+02  0.44979809833E+03  0.47848715431E+03  0.00000000000E+00 0.  1.
         11    1    5    5    0    0 -0.11841214413E+03  0.26108223140E+03  0.43788807932E+03  0.52338450248E+03  0.00000000000E+00 0. -1.
        -11    1    5    5    0    0 -0.74611542113E+02  0.79518571428E+02  0.96101001114E+02  0.14534609673E+03  0.00000000000E+00 0.  1.
          1    1    6    6  503    0 -0.10663787015E+03 -0.34657645287E+03 -0.21528933143E+02  0.36324973227E+03  0.00000000000E+00 0. -1.
         -1    1    6    6    0  503 -0.14884830816E+02 -0.20236344767E+02 -0.27525886871E+02  0.37265832689E+02  0.00000000000E+00 0.  1.
<mgrwt>
<rscale>  0 0.15438542E+04</rscale>
<asrwt>0</asrwt>
<pdfrwt beam="1">  1        2 0.29007448E+00 0.15438542E+04</pdfrwt>
<pdfrwt beam="2">  1       -1 0.48620154E-01 0.15438542E+04</pdfrwt>
<totfact> 0.35927149E+01</totfact>
</mgrwt>
</event>
<event>
12    6  0.8914180E-008  0.2209767E+04  0.7818608E-02  0.8514374E-01
         -3   -1    0    0    0  501 -0.00000000000E+00  0.00000000000E+00  0.50616040877E+03  0.50616040877E+03  0.00000000000E+00 0.  1.
          4   -1    0    0  501    0  0.00000000000E+00 -0.00000000000E+00 -0.24118202241E+04  0.24118202241E+04  0.00000000000E+00 0. -1.
         24    2    1    2    0    0  0.10713844619E+03  0.17093910806E+03  0.39386009545E+03  0.44956579014E+03  0.79276727762E+02 0.  0.
        254    2    1    2    0    0 -0.10713844619E+03 -0.17093910806E+03 -0.22995199108E+04  0.24684148427E+04  0.87440333394E+03 0.  0.
         23    2    4    4    0    0  0.25401632721E+03 -0.26485484007E+03 -0.49464428894E+03  0.62323809400E+03  0.95290967230E+02 0.  0.
         23    2    4    4    0    0 -0.36115477340E+03  0.93915732006E+02 -0.18048756218E+04  0.18451767487E+04  0.88590567532E+02 0.  0.
          2    1    3    3  502    0  0.66253428489E+02  0.86712832853E+02  0.28938924291E+03  0.30928104707E+03  0.00000000000E+00 0. -1.
         -1    1    3    3    0  502  0.40885017706E+02  0.84226275208E+02  0.10447085254E+03  0.14028474307E+03  0.00000000000E+00 0.  1.
         11    1    5    5    0    0  0.12030667306E+03 -0.66042275390E+02 -0.21405656168E+03  0.25427443701E+03  0.00000000000E+00 0.  1.
        -11    1    5    5    0    0  0.13370965415E+03 -0.19881256468E+03 -0.28058772726E+03  0.36896365698E+03  0.00000000000E+00 0. -1.
          3    1    6    6  503    0 -0.17442303398E+03  0.89413628435E+02 -0.86658396235E+03  0.88847394758E+03  0.00000000000E+00 0. -1.
         -3    1    6    6    0  503 -0.18673173942E+03  0.45021035714E+01 -0.93829165950E+03  0.95670280115E+03  0.00000000000E+00 0.  1.
<mgrwt>
<rscale>  0 0.22097673E+04</rscale>
<asrwt>0</asrwt>
<pdfrwt beam="1">  1        4 0.37104927E+00 0.22097673E+04</pdfrwt>
<pdfrwt beam="2">  1       -3 0.77870832E-01 0.22097673E+04</pdfrwt>
<totfact> 0.34616681E-02</totfact>
</mgrwt>
</event>
<event>
12    6  0.8914180E-008  0.1566009E+04  0.7818608E-02  0.8841706E-01
         -1   -1    0    0    0  501 -0.00000000000E+00  0.00000000000E+00  0.47218845144E+03  0.47218845144E+03  0.00000000000E+00 0.  1.
          2   -1    0    0  501    0  0.00000000000E+00 -0.00000000000E+00 -0.12984138304E+04  0.12984138304E+04  0.00000000000E+00 0. -1.
         24    2    1    2    0    0  0.32309718014E+03  0.29454435538E+03 -0.59419398283E+03  0.74203355363E+03  0.79994627254E+02 0.  0.
        254    2    1    2    0    0 -0.32309718014E+03 -0.29454435538E+03 -0.23203139612E+03  0.10285687282E+04  0.90164676827E+03 0.  0.
         23    2    4    4    0    0  0.12726938162E+03  0.16054322393E+03  0.15745611250E+03  0.27356386200E+03  0.89850637047E+02 0.  0.
         23    2    4    4    0    0 -0.45036656176E+03 -0.45508757931E+03 -0.38948750862E+03  0.75500486619E+03  0.91635603365E+02 0.  0.
          2    1    3    3  502    0  0.29494927816E+03  0.25063676970E+03 -0.48093610838E+03  0.61734383236E+03  0.00000000000E+00 0. -1.
         -1    1    3    3    0  502  0.28147901981E+02  0.43907585674E+02 -0.11325787445E+03  0.12468972127E+03  0.00000000000E+00 0.  1.
         11    1    5    5    0    0  0.79465895284E+02  0.15555690194E+03  0.13355766291E+03  0.21988730654E+03  0.00000000000E+00 0.  1.
        -11    1    5    5    0    0  0.47803486338E+02  0.49863219916E+01  0.23898449594E+02  0.53676555460E+02  0.00000000000E+00 0. -1.
          1    1    6    6  503    0 -0.83102236981E+02 -0.46045747855E+02 -0.79642083550E+02  0.12397198941E+03  0.00000000000E+00 0. -1.
         -1    1    6    6    0  503 -0.36726432478E+03 -0.40904183146E+03 -0.30984542507E+03  0.63103287678E+03  0.00000000000E+00 0.  1.
<mgrwt>
<rscale>  0 0.15660090E+04</rscale>
<asrwt>0</asrwt>
<pdfrwt beam="1">  1        2 0.19975597E+00 0.15660090E+04</pdfrwt>
<pdfrwt beam="2">  1       -1 0.72644378E-01 0.15660090E+04</pdfrwt>
<totfact> 0.34699394E+01</totfact>
</mgrwt>
</event>
<event>
12    6  0.8914180E-008  0.1278105E+04  0.7818608E-02  0.9047110E-01
         -1   -1    0    0    0  501 -0.00000000000E+00  0.00000000000E+00  0.17869235164E+04  0.17869235164E+04  0.00000000000E+00 0.  1.
          2   -1    0    0  501    0  0.00000000000E+00 -0.00000000000E+00 -0.22854261305E+03  0.22854261305E+03  0.00000000000E+00 0. -1.
         24    2    1    2    0    0 -0.10040866645E+02  0.31682123924E+03  0.40249448640E+03  0.51873657323E+03  0.81297627199E+02 0.  0.
        254    2    1    2    0    0  0.10040866645E+02 -0.31682123924E+03  0.11558864169E+04  0.14967295562E+04  0.89646496805E+03 0.  0.
         23    2    4    4    0    0  0.40908262965E+02 -0.43839193355E+03  0.12392957850E+04  0.13183429519E+04  0.91176328466E+02 0.  0.
         23    2    4    4    0    0 -0.30867396320E+02  0.12157069430E+03 -0.83409368031E+02  0.17838660429E+03  0.95563738127E+02 0.  0.
          4    1    3    3  502    0  0.31995564299E+02  0.73009373105E+02  0.92172090110E+02  0.12185966885E+03  0.00000000000E+00 0. -1.
         -3    1    3    3    0  502 -0.42036430945E+02  0.24381186614E+03  0.31032239629E+03  0.39687690439E+03  0.00000000000E+00 0.  1.
         11    1    5    5    0    0 -0.20757203507E+02 -0.41489328757E+02  0.16562153955E+03  0.17199627979E+03  0.00000000000E+00 0. -1.
        -11    1    5    5    0    0  0.61665466472E+02 -0.39690260479E+03  0.10736742454E+04  0.11463466721E+04  0.00000000000E+00 0.  1.
          1    1    6    6  503    0 -0.10481670261E+02  0.40547711340E+02 -0.85071760027E+02  0.94821868050E+02  0.00000000000E+00 0. -1.
         -1    1    6    6    0  503 -0.20385726059E+02  0.81022982963E+02  0.16623919964E+01  0.83564736237E+02  0.00000000000E+00 0.  1.
<mgrwt>
<rscale>  0 0.12781051E+04</rscale>
<asrwt>0</asrwt>
<pdfrwt beam="1">  1        2 0.35160403E-01 0.12781051E+04</pdfrwt>
<pdfrwt beam="2">  1       -1 0.27491130E+00 0.12781051E+04</pdfrwt>
<totfact> 0.80710649E+00</totfact>
</mgrwt>
</event>
<event>
12    6  0.8914180E-008  0.2885020E+04  0.7818608E-02  0.8277348E-01
         -1   -1    0    0    0  501 -0.00000000000E+00  0.00000000000E+00  0.59823626003E+03  0.59823626003E+03  0.00000000000E+00 0.  1.
          2   -1    0    0  501    0  0.00000000000E+00 -0.00000000000E+00 -0.34782842391E+04  0.34782842391E+04  0.00000000000E+00 0. -1.
         24    2    1    2    0    0 -0.14287068430E+03 -0.36806433440E+03 -0.30496351381E+04  0.30761284485E+04  0.80052290085E+02 0.  0.
        254    2    1    2    0    0  0.14287068430E+03  0.36806433440E+03  0.16958715908E+03  0.10003920506E+04  0.90340525998E+03 0.  0.
         23    2    4    4    0    0 -0.30846839842E+03  0.33264449091E+02  0.27139665549E+03  0.42208344583E+03  0.90769015822E+02 0.  0.
         23    2    4    4    0    0  0.45133908272E+03  0.33479988531E+03 -0.10180949641E+03  0.57830860481E+03  0.90982075376E+02 0.  0.
          2    1    3    3  502    0 -0.14226914323E+03 -0.30723529817E+03 -0.24216895827E+04  0.24452432338E+04  0.00000000000E+00 0. -1.
         -1    1    3    3    0  502 -0.60154106743E+00 -0.60829036229E+02 -0.62794555549E+03  0.63088521472E+03  0.00000000000E+00 0.  1.
         11    1    5    5    0    0 -0.79742455933E+02  0.48588484000E+02  0.90862084405E+02  0.13029051553E+03  0.00000000000E+00 0.  1.
        -11    1    5    5    0    0 -0.22872594249E+03 -0.15324034909E+02  0.18053457108E+03  0.29179293030E+03  0.00000000000E+00 0. -1.
          4    1    6    6  503    0  0.44240348888E+03  0.33465861903E+03 -0.87707854604E+02  0.56161366261E+03  0.00000000000E+00 0. -1.
         -4    1    6    6    0  503  0.89355938433E+01  0.14126627301E+00 -0.14101641805E+02  0.16694942201E+02  0.00000000000E+00 0.  1.
<mgrwt>
<rscale>  0 0.28850205E+04</rscale>
<asrwt>0</asrwt>
<pdfrwt beam="1">  1        2 0.53512067E+00 0.28850205E+04</pdfrwt>
<pdfrwt beam="2">  1       -1 0.92036345E-01 0.28850205E+04</pdfrwt>
<totfact> 0.94975461E-01</totfact>
</mgrwt>
</event>
<event>
12    6  0.8914180E-008  0.2051193E+04  0.7818608E-02  0.8583053E-01
         -1   -1    0    0    0  501 -0.00000000000E+00  0.00000000000E+00  0.45812986728E+03  0.45812986728E+03  0.00000000000E+00 0.  1.
          2   -1    0    0  501    0  0.00000000000E+00 -0.00000000000E+00 -0.22959608701E+04  0.22959608701E+04  0.00000000000E+00 0. -1.
         24    2    1    2    0    0 -0.29729741596E+03 -0.41639346803E+03 -0.16109981809E+04  0.16922881157E+04  0.82186701998E+02 0.  0.
        254    2    1    2    0    0  0.29729741596E+03  0.41639346803E+03 -0.22683282193E+03  0.10618026217E+04  0.90233164884E+03 0.  0.
         23    2    4    4    0    0 -0.17513717435E+03  0.48285040921E+03 -0.24045606137E+03  0.57440769514E+03  0.91145681549E+02 0.  0.
         23    2    4    4    0    0  0.47243459031E+03 -0.66456941180E+02  0.13623239445E+02  0.48739492652E+03  0.98778816529E+02 0.  0.
          4    1    3    3  502    0 -0.14307560990E+03 -0.26427158538E+03 -0.98886407739E+03  0.10335193586E+04  0.00000000000E+00 0. -1.
         -3    1    3    3    0  502 -0.15422180605E+03 -0.15212188265E+03 -0.62213410352E+03  0.65876875716E+03  0.00000000000E+00 0.  1.
         11    1    5    5    0    0 -0.34882883486E+01  0.25604811095E+01  0.64341678326E+01  0.77538851432E+01  0.00000000000E+00 0.  1.
        -11    1    5    5    0    0 -0.17164888600E+03  0.48028992810E+03 -0.24689022920E+03  0.56665380999E+03  0.00000000000E+00 0. -1.
          4    1    6    6  503    0  0.12652699134E+03 -0.56492233205E+02 -0.18769106322E+02  0.13983108132E+03  0.00000000000E+00 0.  1.
         -4    1    6    6    0  503  0.34590759897E+03 -0.99647079753E+01  0.32392345767E+02  0.34756384521E+03  0.00000000000E+00 0. -1.
<mgrwt>
<rscale>  0 0.20511931E+04</rscale>
<asrwt>0</asrwt>
<pdfrwt beam="1">  1        2 0.35322474E+00 0.20511931E+04</pdfrwt>
<pdfrwt beam="2">  1       -1 0.70481519E-01 0.20511931E+04</pdfrwt>
<totfact> 0.97655661E+00</totfact>
</mgrwt>
</event>
<event>
12    6  0.8914180E-008  0.1325866E+04  0.7818608E-02  0.9009301E-01
         -1   -1    0    0    0  501 -0.00000000000E+00  0.00000000000E+00  0.37659761133E+03  0.37659761133E+03  0.00000000000E+00 0.  1.
          2   -1    0    0  501    0  0.00000000000E+00 -0.00000000000E+00 -0.11669750256E+04  0.11669750256E+04  0.00000000000E+00 0. -1.
         24    2    1    2    0    0  0.33633468428E+03  0.69503867118E+02 -0.13269463374E+03  0.37630542146E+03  0.77756652458E+02 0.  0.
        254    2    1    2    0    0 -0.33633468428E+03 -0.69503867118E+02 -0.65768278057E+03  0.11672672155E+04  0.90111836355E+03 0.  0.
         23    2    4    4    0    0 -0.57035653309E+03  0.14221787926E+03 -0.57870251845E+03  0.82980523708E+03  0.90264204482E+02 0.  0.
         23    2    4    4    0    0  0.23402184880E+03 -0.21172174638E+03 -0.78980262121E+02  0.33746197842E+03  0.89723918037E+02 0.  0.
          4    1    3    3  502    0  0.26997479997E+03  0.33026601544E+02 -0.78184436248E+02  0.28300168745E+03  0.00000000000E+00 0. -1.
         -3    1    3    3    0  502  0.66359884314E+02  0.36477265574E+02 -0.54510197491E+02  0.93303734011E+02  0.00000000000E+00 0.  1.
         11    1    5    5    0    0 -0.39663408817E+03  0.12175903708E+03 -0.35659540296E+03  0.54708696239E+03  0.00000000000E+00 0.  1.
        -11    1    5    5    0    0 -0.17372244492E+03  0.20458842178E+02 -0.22210711549E+03  0.28271827469E+03  0.00000000000E+00 0. -1.
          3    1    6    6  503    0  0.29756625385E+02 -0.77818219609E+02 -0.28533009724E+02  0.88063980726E+02  0.00000000000E+00 0. -1.
         -3    1    6    6    0  503  0.20426522342E+03 -0.13390352677E+03 -0.50447252397E+02  0.24939799769E+03  0.00000000000E+00 0.  1.
<mgrwt>
<rscale>  0 0.13258658E+04</rscale>
<asrwt>0</asrwt>
<pdfrwt beam="1">  1        2 0.17953462E+00 0.13258658E+04</pdfrwt>
<pdfrwt beam="2">  1       -1 0.57938094E-01 0.13258658E+04</pdfrwt>
<totfact> 0.66752391E+01</totfact>
</mgrwt>
</event>
<event>
12    6  0.8914180E-008  0.2071611E+04  0.7818608E-02  0.8573853E-01
         -1   -1    0    0    0  501 -0.00000000000E+00  0.00000000000E+00  0.67816833767E+03  0.67816833767E+03  0.00000000000E+00 0.  1.
          2   -1    0    0  501    0  0.00000000000E+00 -0.00000000000E+00 -0.15820448725E+04  0.15820448725E+04  0.00000000000E+00 0. -1.
         24    2    1    2    0    0  0.10059627531E+03  0.56931337976E+03 -0.97619413989E+03  0.11379777304E+04  0.88323163286E+02 0.  0.
        254    2    1    2    0    0 -0.10059627531E+03 -0.56931337976E+03  0.72317605102E+02  0.11222354797E+04  0.95913779040E+03 0.  0.
         23    2    4    4    0    0 -0.56851518245E+02 -0.77623481423E+03  0.25887245880E+03  0.82506366803E+03  0.89120841774E+02 0.  0.
         23    2    4    4    0    0 -0.43744757067E+02  0.20692143447E+03 -0.18655485369E+03  0.29717181169E+03  0.93692520578E+02 0.  0.
          4    1    3    3  502    0  0.60455164028E+02  0.50244858417E+03 -0.86489937264E+03  0.10020780066E+04  0.00000000000E+00 0. -1.
         -3    1    3    3    0  502  0.40141111284E+02  0.66864795586E+02 -0.11129476725E+03  0.13589972377E+03  0.00000000000E+00 0.  1.
         11    1    5    5    0    0 -0.55872418743E+02 -0.21477816893E+03  0.75690347842E+02  0.23447903485E+03  0.00000000000E+00 0. -1.
        -11    1    5    5    0    0 -0.97909950212E+00 -0.56145664530E+03  0.18318211095E+03  0.59058463319E+03  0.00000000000E+00 0.  1.
          2    1    6    6  503    0  0.78090453340E+00  0.17216720238E+03 -0.11990933869E+03  0.20981040225E+03  0.00000000000E+00 0. -1.
         -2    1    6    6    0  503 -0.44525661601E+02  0.34754232090E+02 -0.66645515003E+02  0.87361409439E+02  0.00000000000E+00 0.  1.
<mgrwt>
<rscale>  0 0.20716107E+04</rscale>
<asrwt>0</asrwt>
<pdfrwt beam="1">  1        2 0.24339151E+00 0.20716107E+04</pdfrwt>
<pdfrwt beam="2">  1       -1 0.10433359E+00 0.20716107E+04</pdfrwt>
<totfact> 0.10376836E+01</totfact>
</mgrwt>
</event>
<event>
12    6  0.8914180E-008  0.1340291E+04  0.7818608E-02  0.8998211E-01
          2   -1    0    0  501    0  0.00000000000E+00  0.00000000000E+00  0.16522557900E+04  0.16522557900E+04  0.00000000000E+00 0. -1.
         -1   -1    0    0    0  501 -0.00000000000E+00 -0.00000000000E+00 -0.27180701914E+03  0.27180701914E+03  0.00000000000E+00 0.  1.
         24    2    1    2    0    0 -0.44241730267E+02 -0.29525640367E+03  0.94166131449E+02  0.32387568833E+03  0.83033285914E+02 0.  0.
        254    2    1    2    0    0  0.44241730267E+02  0.29525640367E+03  0.12862826394E+04  0.16001871208E+04  0.90384850422E+03 0.  0.
         23    2    4    4    0    0  0.35444956932E+03  0.11580765052E+03  0.16205309875E+03  0.41707016863E+03  0.92953803778E+02 0.  0.
         23    2    4    4    0    0 -0.31020783905E+03  0.17944875315E+03  0.11242295407E+04  0.11831169522E+04  0.86272267060E+02 0.  0.
          4    1    3    3  502    0  0.17483470096E+02 -0.24896423121E+02 -0.16657583608E+01  0.30467660917E+02  0.00000000000E+00 0. -1.
         -1    1    3    3    0  502 -0.61725200363E+02 -0.27035998055E+03  0.95831889810E+02  0.29340802741E+03  0.00000000000E+00 0.  1.
         11    1    5    5    0    0  0.31421167481E+03  0.91455474307E+02  0.17093711723E+03  0.36920533367E+03  0.00000000000E+00 0.  1.
        -11    1    5    5    0    0  0.40237894509E+02  0.24352176214E+02 -0.88840184790E+01  0.47864834955E+02  0.00000000000E+00 0. -1.
          2    1    6    6  503    0 -0.82824153946E+02  0.28487914499E+02  0.17912756622E+03  0.19939429964E+03  0.00000000000E+00 0. -1.
         -2    1    6    6    0  503 -0.22738368510E+03  0.15096083865E+03  0.94510197445E+03  0.98372265256E+03  0.00000000000E+00 0.  1.
<mgrwt>
<rscale>  0 0.13402906E+04</rscale>
<asrwt>0</asrwt>
<pdfrwt beam="1">  1        2 0.25419319E+00 0.13402906E+04</pdfrwt>
<pdfrwt beam="2">  1       -1 0.41816466E-01 0.13402906E+04</pdfrwt>
<totfact> 0.65163928E+01</totfact>
</mgrwt>
</event>
<event>
12    6  0.8914180E-008  0.2190181E+04  0.7818608E-02  0.8522526E-01
          2   -1    0    0  501    0  0.00000000000E+00  0.00000000000E+00  0.91841985345E+03  0.91841985345E+03  0.00000000000E+00 0. -1.
         -1   -1    0    0    0  501 -0.00000000000E+00 -0.00000000000E+00 -0.13057464339E+04  0.13057464339E+04  0.00000000000E+00 0.  1.
         24    2    1    2    0    0  0.17023746863E+03  0.87460932209E+03  0.22978708336E+02  0.89488606900E+03  0.79817250260E+02 0.  0.
        254    2    1    2    0    0 -0.17023746863E+03 -0.87460932209E+03 -0.41030528877E+03  0.13292802183E+04  0.89705808443E+03 0.  0.
         23    2    4    4    0    0 -0.18389736912E+03 -0.95726540960E+03 -0.56814549324E+03  0.11317163488E+04  0.88415416884E+02 0.  0.
         23    2    4    4    0    0  0.13659900493E+02  0.82656087503E+02  0.15784020446E+03  0.19756386950E+03  0.84257526098E+02 0.  0.
          2    1    3    3  502    0  0.44220564202E+02  0.27133529538E+03 -0.28800210619E+02  0.27641952346E+03  0.00000000000E+00 0. -1.
         -1    1    3    3    0  502  0.12601690442E+03  0.60327402671E+03  0.51778918955E+02  0.61846654554E+03  0.00000000000E+00 0.  1.
         11    1    5    5    0    0 -0.79229370954E+02 -0.23509918764E+03 -0.12251892944E+03  0.27669443312E+03  0.00000000000E+00 0. -1.
        -11    1    5    5    0    0 -0.10466799816E+03 -0.72216622196E+03 -0.44562656379E+03  0.85502191571E+03  0.00000000000E+00 0.  1.
          4    1    6    6  503    0  0.24974103451E+02  0.55087889986E+02  0.32366575355E+02  0.68600121476E+02  0.00000000000E+00 0. -1.
         -4    1    6    6    0  503 -0.11314202958E+02  0.27568197518E+02  0.12547362911E+03  0.12896374803E+03  0.00000000000E+00 0.  1.
<mgrwt>
<rscale>  0 0.21901812E+04</rscale>
<asrwt>0</asrwt>
<pdfrwt beam="1">  1        2 0.14129536E+00 0.21901812E+04</pdfrwt>
<pdfrwt beam="2">  1       -1 0.20088407E+00 0.21901812E+04</pdfrwt>
<totfact> 0.44123438E+00</totfact>
</mgrwt>
</event>
<event>
12    6  0.8914180E-008  0.1852485E+04  0.7818608E-02  0.8678876E-01
          2   -1    0    0  501    0  0.00000000000E+00  0.00000000000E+00  0.10909378381E+04  0.10909378381E+04  0.00000000000E+00 0. -1.
         -1   -1    0    0    0  501 -0.00000000000E+00 -0.00000000000E+00 -0.78641106569E+03  0.78641106569E+03  0.00000000000E+00 0.  1.
         24    2    1    2    0    0 -0.14108276071E+03 -0.45329270336E+03  0.61318433380E+03  0.77975171948E+03  0.81480651208E+02 0.  0.
        254    2    1    2    0    0  0.14108276071E+03  0.45329270336E+03 -0.30865756141E+03  0.10975971843E+04  0.94025074766E+03 0.  0.
         23    2    4    4    0    0  0.74057897231E+02  0.36452299055E+03 -0.63463930635E+03  0.74141072868E+03  0.92526950972E+02 0.  0.
         23    2    4    4    0    0  0.67024863480E+02  0.88769712813E+02  0.32598174494E+03  0.35618645562E+03  0.90732016900E+02 0.  0.
          2    1    3    3  502    0 -0.76860687620E+02 -0.35624179890E+03  0.48424644039E+03  0.60606138271E+03  0.00000000000E+00 0. -1.
         -1    1    3    3    0  502 -0.64222073091E+02 -0.97050904456E+02  0.12893789341E+03  0.17369033677E+03  0.00000000000E+00 0.  1.
         11    1    5    5    0    0  0.22874023927E+02  0.17477990407E+03 -0.38710182370E+03  0.42534580961E+03  0.00000000000E+00 0.  1.
        -11    1    5    5    0    0  0.51183873304E+02  0.18974308647E+03 -0.24753748265E+03  0.31606491907E+03  0.00000000000E+00 0. -1.
          1    1    6    6  503    0  0.11176338602E+02 -0.19059319288E+02  0.48342560954E+02  0.53152341396E+02  0.00000000000E+00 0. -1.
         -1    1    6    6    0  503  0.55848524878E+02  0.10782903210E+03  0.27763918399E+03  0.30303411422E+03  0.00000000000E+00 0.  1.
<mgrwt>
<rscale>  0 0.18524855E+04</rscale>
<asrwt>0</asrwt>
<pdfrwt beam="1">  1        2 0.16783659E+00 0.18524855E+04</pdfrwt>
<pdfrwt beam="2">  1       -1 0.12098632E+00 0.18524855E+04</pdfrwt>
<totfact> 0.14359870E+01</totfact>
</mgrwt>
</event>
<event>
12    6  0.8914180E-008  0.1311320E+04  0.7818608E-02  0.9020636E-01
         -1   -1    0    0    0  501 -0.00000000000E+00  0.00000000000E+00  0.44437327911E+03  0.44437327911E+03  0.00000000000E+00 0.  1.
          2   -1    0    0  501    0  0.00000000000E+00 -0.00000000000E+00 -0.96740768088E+03  0.96740768088E+03  0.00000000000E+00 0. -1.
         24    2    1    2    0    0 -0.27000628052E+03  0.12256966467E+03  0.35582850427E+02  0.30941022713E+03  0.80881612203E+02 0.  0.
        254    2    1    2    0    0  0.27000628052E+03 -0.12256966467E+03 -0.55861725219E+03  0.11023707329E+04  0.90290712922E+03 0.  0.
         23    2    4    4    0    0  0.41902248163E+03 -0.35363588891E+03 -0.10622906948E+03  0.56562268550E+03  0.89477511810E+02 0.  0.
         23    2    4    4    0    0 -0.14901620110E+03  0.23106622424E+03 -0.45238818272E+03  0.53674804735E+03  0.88577481893E+02 0.  0.
          2    1    3    3  502    0 -0.58588021305E+02  0.32196804942E+02  0.42789827425E+02  0.79373546096E+02  0.00000000000E+00 0. -1.
         -1    1    3    3    0  502 -0.21141825922E+03  0.90372859728E+02 -0.72069769974E+01  0.23003668104E+03  0.00000000000E+00 0.  1.
         11    1    5    5    0    0  0.32520771798E+03 -0.31847728486E+03 -0.81318458178E+02  0.46238569663E+03  0.00000000000E+00 0.  1.
        -11    1    5    5    0    0  0.93814763642E+02 -0.35158604050E+02 -0.24910611300E+02  0.10323698887E+03  0.00000000000E+00 0. -1.
          3    1    6    6  503    0 -0.28008674433E+02  0.70143627268E+02 -0.62876756989E+02  0.98275637160E+02  0.00000000000E+00 0. -1.
         -3    1    6    6    0  503 -0.12100752667E+03  0.16092259697E+03 -0.38951142573E+03  0.43847241019E+03  0.00000000000E+00 0.  1.
<mgrwt>
<rscale>  0 0.13113201E+04</rscale>
<asrwt>0</asrwt>
<pdfrwt beam="1">  1        2 0.14883195E+00 0.13113201E+04</pdfrwt>
<pdfrwt beam="2">  1       -1 0.68365121E-01 0.13113201E+04</pdfrwt>
<totfact> 0.64010574E+01</totfact>
</mgrwt>
</event>
<event>
12    6  0.1700178E-007  0.2495885E+04  0.7818608E-02  0.8404453E-01
         -1   -1    0    0    0  501 -0.00000000000E+00  0.00000000000E+00  0.66295284758E+03  0.66295284758E+03  0.00000000000E+00 0.  1.
          2   -1    0    0  501    0  0.00000000000E+00 -0.00000000000E+00 -0.23491278733E+04  0.23491278733E+04  0.00000000000E+00 0. -1.
         24    2    1    2    0    0  0.14108533006E+03 -0.42831633742E+03 -0.19199439858E+04  0.19738162103E+04  0.80034792205E+02 0.  0.
        254    2    1    2    0    0 -0.14108533006E+03  0.42831633742E+03  0.23376896008E+03  0.10382645106E+04  0.90553040374E+03 0.  0.
         23    2    4    4    0    0 -0.21237993493E+03 -0.23192086189E+03  0.15449705629E+03  0.36207270282E+03  0.91295009642E+02 0.  0.
         23    2    4    4    0    0  0.71294604867E+02  0.66023719931E+03  0.79271903791E+02  0.67619180782E+03  0.99775980093E+02 0.  0.
          2    1    3    3  502    0  0.12998367121E+03 -0.34868180250E+03 -0.14468131177E+04  0.14939019218E+04  0.00000000000E+00 0. -1.
         -1    1    3    3    0  502  0.11101658849E+02 -0.79634534922E+02 -0.47313086810E+03  0.47991428852E+03  0.00000000000E+00 0.  1.
         11    1    5    5    0    0 -0.23543560755E+02  0.38573761256E+01  0.21112039036E+02  0.31857444905E+02  0.00000000000E+00 0. -1.
        -11    1    5    5    0    0 -0.18883637417E+03 -0.23577823801E+03  0.13338501725E+03  0.33021525791E+03  0.00000000000E+00 0.  1.
          3    1    6    6  503    0  0.16893112107E+02  0.47003702715E+02  0.30720495644E+02  0.58638504058E+02  0.00000000000E+00 0. -1.
         -3    1    6    6    0  503  0.54401492760E+02  0.61323349659E+03  0.48551408148E+02  0.61755330377E+03  0.00000000000E+00 0.  1.
<mgrwt>
<rscale>  0 0.24958854E+04</rscale>
<asrwt>0</asrwt>
<pdfrwt beam="1">  1        2 0.36140428E+00 0.24958854E+04</pdfrwt>
<pdfrwt beam="2">  1       -1 0.10199275E+00 0.24958854E+04</pdfrwt>
<totfact> 0.39284467E+00</totfact>
</mgrwt>
</event>
<event>
12    6  0.8914180E-008  0.2318675E+04  0.7818608E-02  0.8470594E-01
         -1   -1    0    0    0  501 -0.00000000000E+00  0.00000000000E+00  0.61040258155E+03  0.61040258155E+03  0.00000000000E+00 0.  1.
          2   -1    0    0  501    0  0.00000000000E+00 -0.00000000000E+00 -0.22019287183E+04  0.22019287183E+04  0.00000000000E+00 0. -1.
         24    2    1    2    0    0 -0.39570383603E+03  0.59286793183E+03  0.14288526974E+03  0.73067613179E+03  0.73467671936E+02 0.  0.
        254    2    1    2    0    0  0.39570383603E+03 -0.59286793183E+03 -0.17344114065E+04  0.20816551681E+04  0.90389789321E+03 0.  0.
         23    2    4    4    0    0 -0.25773341028E+03 -0.34252800363E+03 -0.78531631034E+03  0.89898782762E+03  0.87780765936E+02 0.  0.
         23    2    4    4    0    0  0.65343724632E+03 -0.25033992819E+03 -0.94909509619E+03  0.11826673405E+04  0.90940761567E+02 0.  0.
          2    1    3    3  502    0 -0.42112715375E+02  0.11224470040E+03  0.22806451173E+02  0.12203478103E+03  0.00000000000E+00 0. -1.
         -1    1    3    3    0  502 -0.35359112066E+03  0.48062323142E+03  0.12007881857E+03  0.60864135076E+03  0.00000000000E+00 0.  1.
         11    1    5    5    0    0 -0.22115164260E+03 -0.23689521900E+03 -0.61695424314E+03  0.69689305632E+03  0.00000000000E+00 0.  1.
        -11    1    5    5    0    0 -0.36581767686E+02 -0.10563278463E+03 -0.16836206719E+03  0.20209477130E+03  0.00000000000E+00 0. -1.
          3    1    6    6  503    0  0.14350354293E+03 -0.30492269683E+02 -0.15239205880E+03  0.21153341326E+03  0.00000000000E+00 0. -1.
         -3    1    6    6    0  503  0.50993370339E+03 -0.21984765851E+03 -0.79670303739E+03  0.97113392721E+03  0.00000000000E+00 0.  1.
<mgrwt>
<rscale>  0 0.23186746E+04</rscale>
<asrwt>0</asrwt>
<pdfrwt beam="1">  1        2 0.33875827E+00 0.23186746E+04</pdfrwt>
<pdfrwt beam="2">  1       -1 0.93908088E-01 0.23186746E+04</pdfrwt>
<totfact> 0.58297874E+00</totfact>
</mgrwt>
</event>
<event>
12    6  0.8914180E-008  0.1507439E+04  0.7818608E-02  0.8879521E-01
         -1   -1    0    0    0  501 -0.00000000000E+00  0.00000000000E+00  0.25011544899E+03  0.25011544899E+03  0.00000000000E+00 0.  1.
          2   -1    0    0  501    0  0.00000000000E+00 -0.00000000000E+00 -0.22713249344E+04  0.22713249344E+04  0.00000000000E+00 0. -1.
         24    2    1    2    0    0  0.41812183674E+03 -0.10718750124E+03 -0.10247761325E+04  0.11147205137E+04  0.78234718775E+02 0.  0.
        254    2    1    2    0    0 -0.41812183674E+03  0.10718750124E+03 -0.99643335288E+03  0.14067198696E+04  0.89424064662E+03 0.  0.
         23    2    4    4    0    0 -0.35079778917E+03 -0.22448283876E+03 -0.91370736972E+02  0.43604272936E+03  0.91285357343E+02 0.  0.
         23    2    4    4    0    0 -0.67324047572E+02  0.33167034000E+03 -0.90506261591E+03  0.97067714026E+03  0.92401461477E+02 0.  0.
          4    1    3    3  502    0  0.27178594108E+03 -0.87608831011E+02 -0.58811463872E+03  0.65377498676E+03  0.00000000000E+00 0. -1.
         -3    1    3    3    0  502  0.14633589566E+03 -0.19578670228E+02 -0.43666149378E+03  0.46094552697E+03  0.00000000000E+00 0.  1.
         11    1    5    5    0    0 -0.24567685170E+03 -0.19874914246E+03 -0.48816112778E+02  0.31975201322E+03  0.00000000000E+00 0.  1.
        -11    1    5    5    0    0 -0.10512093747E+03 -0.25733696302E+02 -0.42554624193E+02  0.11629071614E+03  0.00000000000E+00 0. -1.
          2    1    6    6  503    0  0.15835372373E+02  0.15182025402E+03 -0.38729842621E+03  0.41629342955E+03  0.00000000000E+00 0. -1.
         -2    1    6    6    0  503 -0.83159419945E+02  0.17985008599E+03 -0.51776418971E+03  0.55438371071E+03  0.00000000000E+00 0.  1.
<mgrwt>
<rscale>  0 0.15074395E+04</rscale>
<asrwt>0</asrwt>
<pdfrwt beam="1">  1        2 0.34943460E+00 0.15074395E+04</pdfrwt>
<pdfrwt beam="2">  1       -1 0.38479300E-01 0.15074395E+04</pdfrwt>
<totfact> 0.33889424E+01</totfact>
</mgrwt>
</event>
<event>
12    6  0.8914180E-008  0.1593679E+04  0.7818608E-02  0.8824441E-01
         -1   -1    0    0    0  501 -0.00000000000E+00  0.00000000000E+00  0.24637997311E+03  0.24637997311E+03  0.00000000000E+00 0.  1.
          2   -1    0    0  501    0  0.00000000000E+00 -0.00000000000E+00 -0.25771289382E+04  0.25771289382E+04  0.00000000000E+00 0. -1.
         24    2    1    2    0    0 -0.17497078261E+03  0.41728225420E+03 -0.13125717511E+04  0.13906527270E+04  0.79568528537E+02 0.  0.
        254    2    1    2    0    0  0.17497078261E+03 -0.41728225420E+03 -0.10181772139E+04  0.14328561843E+04  0.90091772738E+03 0.  0.
         23    2    4    4    0    0 -0.34848038663E+03 -0.28224808716E+03 -0.50858505542E+03  0.68427636830E+03  0.92047960620E+02 0.  0.
         23    2    4    4    0    0  0.52345116924E+03 -0.13503416704E+03 -0.50959215849E+03  0.74857981599E+03  0.91935956323E+02 0.  0.
          4    1    3    3  502    0 -0.16126605668E+03  0.41166131349E+03 -0.12899401539E+04  0.13636045537E+04  0.00000000000E+00 0. -1.
         -3    1    3    3    0  502 -0.13704725929E+02  0.56209407053E+01 -0.22631597197E+02  0.27048173301E+02  0.00000000000E+00 0.  1.
         11    1    5    5    0    0 -0.31243300797E+03 -0.28279017764E+03 -0.46113070111E+03  0.62468087256E+03  0.00000000000E+00 0.  1.
        -11    1    5    5    0    0 -0.36047378654E+02  0.54209047440E+00 -0.47454354309E+02  0.59595495743E+02  0.00000000000E+00 0. -1.
          3    1    6    6  503    0  0.12633331480E+03 -0.73082934397E+02 -0.12212199111E+03  0.19030239736E+03  0.00000000000E+00 0. -1.
         -3    1    6    6    0  503  0.39711785444E+03 -0.61951232639E+02 -0.38747016738E+03  0.55827741863E+03  0.00000000000E+00 0.  1.
<mgrwt>
<rscale>  0 0.15936787E+04</rscale>
<asrwt>0</asrwt>
<pdfrwt beam="1">  1        2 0.39648136E+00 0.15936787E+04</pdfrwt>
<pdfrwt beam="2">  1       -1 0.37904612E-01 0.15936787E+04</pdfrwt>
<totfact> 0.23102972E+01</totfact>
</mgrwt>
</event>
<event>
12    6  0.8914180E-008  0.1907592E+04  0.7818608E-02  0.8651087E-01
          2   -1    0    0  501    0  0.00000000000E+00  0.00000000000E+00  0.11048005402E+04  0.11048005402E+04  0.00000000000E+00 0. -1.
         -1   -1    0    0    0  501 -0.00000000000E+00 -0.00000000000E+00 -0.82343077156E+03  0.82343077156E+03  0.00000000000E+00 0.  1.
         24    2    1    2    0    0  0.31458525188E+03  0.33477035928E+03  0.68720488512E+03  0.83058369582E+03  0.81139678734E+02 0.  0.
        254    2    1    2    0    0 -0.31458525188E+03 -0.33477035928E+03 -0.40583511644E+03  0.10976476160E+04  0.91054548101E+03 0.  0.
         23    2    4    4    0    0 -0.55985553973E+03 -0.83014230381E+02 -0.28446996045E+02  0.57382119763E+03  0.90177311205E+02 0.  0.
         23    2    4    4    0    0  0.24527028785E+03 -0.25175612890E+03 -0.37738812039E+03  0.52382641836E+03  0.91834964014E+02 0.  0.
          2    1    3    3  502    0  0.25847982328E+03  0.26072447253E+03  0.48708557521E+03  0.60995198762E+03  0.00000000000E+00 0. -1.
         -1    1    3    3    0  502  0.56105428600E+02  0.74045886748E+02  0.20011930991E+03  0.22063170820E+03  0.00000000000E+00 0.  1.
         11    1    5    5    0    0 -0.50982099128E+03 -0.69246233623E+02 -0.51428068582E+02  0.51706607920E+03  0.00000000000E+00 0.  1.
        -11    1    5    5    0    0 -0.50034548446E+02 -0.13767996758E+02  0.22981072537E+02  0.56755118429E+02  0.00000000000E+00 0. -1.
          4    1    6    6  503    0  0.10635539446E+03 -0.13738601304E+03 -0.24536278061E+03  0.30064810097E+03  0.00000000000E+00 0. -1.
         -4    1    6    6    0  503  0.13891489338E+03 -0.11437011586E+03 -0.13202533979E+03  0.22317831738E+03  0.00000000000E+00 0.  1.
<mgrwt>
<rscale>  0 0.19075919E+04</rscale>
<asrwt>0</asrwt>
<pdfrwt beam="1">  1        2 0.16996931E+00 0.19075919E+04</pdfrwt>
<pdfrwt beam="2">  1       -1 0.12668166E+00 0.19075919E+04</pdfrwt>
<totfact> 0.12503248E+01</totfact>
</mgrwt>
</event>
<event>
12    6  0.8914180E-008  0.2119658E+04  0.7818608E-02  0.8552633E-01
         -1   -1    0    0    0  501 -0.00000000000E+00  0.00000000000E+00  0.35434639414E+03  0.35434639414E+03  0.00000000000E+00 0.  1.
          2   -1    0    0  501    0  0.00000000000E+00 -0.00000000000E+00 -0.31698845758E+04  0.31698845758E+04  0.00000000000E+00 0. -1.
         24    2    1    2    0    0  0.70813011225E+03 -0.42297926947E+03 -0.71659068367E+03  0.10955882518E+04  0.80322421231E+02 0.  0.
        254    2    1    2    0    0 -0.70813011225E+03  0.42297926947E+03 -0.20989474980E+04  0.24286427181E+04  0.90131300588E+03 0.  0.
         23    2    4    4    0    0  0.19194076568E+03  0.27661125562E+01 -0.51022702477E+03  0.55269993320E+03  0.91086170473E+02 0.  0.
         23    2    4    4    0    0 -0.90007087793E+03  0.42021315692E+03 -0.15887204732E+04  0.18759427849E+04  0.91770951898E+02 0.  0.
          2    1    3    3  502    0  0.11573977109E+03 -0.10384753517E+03 -0.12211794150E+03  0.19771898444E+03  0.00000000000E+00 0. -1.
         -1    1    3    3    0  502  0.59239034117E+03 -0.31913173430E+03 -0.59447274217E+03  0.89786926739E+03  0.00000000000E+00 0.  1.
         11    1    5    5    0    0  0.19740731093E+03 -0.10917599828E+02 -0.47238490144E+03  0.51209016345E+03  0.00000000000E+00 0.  1.
        -11    1    5    5    0    0 -0.54665452460E+01  0.13683712385E+02 -0.37842123329E+02  0.40609769756E+02  0.00000000000E+00 0. -1.
          1    1    6    6  503    0 -0.32140989637E+03  0.15141088755E+03 -0.48743545704E+03  0.60317733971E+03  0.00000000000E+00 0. -1.
         -1    1    6    6    0  503 -0.57866098156E+03  0.26880226936E+03 -0.11012850162E+04  0.12727654452E+04  0.00000000000E+00 0.  1.
<mgrwt>
<rscale>  0 0.21196577E+04</rscale>
<asrwt>0</asrwt>
<pdfrwt beam="1">  1        2 0.48767456E+00 0.21196577E+04</pdfrwt>
<pdfrwt beam="2">  1       -1 0.54514829E-01 0.21196577E+04</pdfrwt>
<totfact> 0.48400043E+00</totfact>
</mgrwt>
</event>
<event>
12    6  0.8914180E-008  0.2000647E+04  0.7818608E-02  0.8606318E-01
         -1   -1    0    0    0  501 -0.00000000000E+00  0.00000000000E+00  0.33398257043E+03  0.33398257043E+03  0.00000000000E+00 0.  1.
          2   -1    0    0  501    0  0.00000000000E+00 -0.00000000000E+00 -0.29961054311E+04  0.29961054311E+04  0.00000000000E+00 0. -1.
         24    2    1    2    0    0  0.52515788291E+03  0.35315505679E+03 -0.25288187218E+03  0.68611047506E+03  0.79303509290E+02 0.  0.
        254    2    1    2    0    0 -0.52515788291E+03 -0.35315505679E+03 -0.24092409885E+04  0.26439775264E+04  0.88637786735E+03 0.  0.
         23    2    4    4    0    0 -0.72340265747E+03 -0.36323944247E+03 -0.21817805617E+04  0.23288956171E+04  0.91291174181E+02 0.  0.
         23    2    4    4    0    0  0.19824477456E+03  0.10084385677E+02 -0.22746042674E+03  0.31508190933E+03  0.90197995437E+02 0.  0.
          4    1    3    3  502    0  0.54679628642E+02  0.28529570349E+02 -0.15580356465E+01  0.61694616035E+02  0.00000000000E+00 0. -1.
         -3    1    3    3    0  502  0.47047825426E+03  0.32462548644E+03 -0.25132383654E+03  0.62441585902E+03  0.00000000000E+00 0.  1.
         11    1    5    5    0    0 -0.26642405900E+03 -0.16840795604E+03 -0.75712159331E+03  0.82010738683E+03  0.00000000000E+00 0. -1.
        -11    1    5    5    0    0 -0.45697859847E+03 -0.19483148643E+03 -0.14246589684E+04  0.15087882303E+04  0.00000000000E+00 0.  1.
          4    1    6    6  503    0  0.20069068347E+03  0.22570879555E+02 -0.22459096070E+03  0.30203856486E+03  0.00000000000E+00 0. -1.
         -4    1    6    6    0  503 -0.24459089044E+01 -0.12486493878E+02 -0.28694660421E+01  0.13043344476E+02  0.00000000000E+00 0.  1.
<mgrwt>
<rscale>  0 0.20006469E+04</rscale>
<asrwt>0</asrwt>
<pdfrwt beam="1">  1        2 0.46093931E+00 0.20006469E+04</pdfrwt>
<pdfrwt beam="2">  1       -1 0.51381932E-01 0.20006469E+04</pdfrwt>
<totfact> 0.70710291E+00</totfact>
</mgrwt>
</event>
<event>
12    6  0.8914180E-008  0.9889452E+03  0.7818608E-02  0.9320753E-01
         -1   -1    0    0    0  501 -0.00000000000E+00  0.00000000000E+00  0.21341590595E+03  0.21341590595E+03  0.00000000000E+00 0.  1.
          2   -1    0    0  501    0  0.00000000000E+00 -0.00000000000E+00 -0.11456651344E+04  0.11456651344E+04  0.00000000000E+00 0. -1.
         24    2    1    2    0    0  0.51640066154E+02  0.22195974508E+01 -0.16232274277E+03  0.18796592207E+03  0.79441122813E+02 0.  0.
        254    2    1    2    0    0 -0.51640066154E+02 -0.22195974508E+01 -0.76992648564E+03  0.11711151182E+04  0.88093825200E+03 0.  0.
         23    2    4    4    0    0 -0.43841172158E+03  0.58441735262E+02 -0.55394124026E+03  0.71462677341E+03  0.90665614061E+02 0.  0.
         23    2    4    4    0    0  0.38677165542E+03 -0.60661332713E+02 -0.21598524537E+03  0.45648834483E+03  0.91977562576E+02 0.  0.
          4    1    3    3  502    0  0.18562477672E+02  0.97856978354E+00 -0.15222985128E+03  0.15336052555E+03  0.00000000000E+00 0. -1.
         -3    1    3    3    0  502  0.33077588482E+02  0.12410276673E+01 -0.10092891485E+02  0.34605396516E+02  0.00000000000E+00 0.  1.
         11    1    5    5    0    0 -0.42377627271E+03  0.45025216652E+02 -0.54738575743E+03  0.69371807450E+03  0.00000000000E+00 0.  1.
        -11    1    5    5    0    0 -0.14635448866E+02  0.13416518610E+02 -0.65554828380E+01  0.20908698916E+02  0.00000000000E+00 0. -1.
          2    1    6    6  503    0  0.70599756956E+02 -0.44667405724E+02 -0.64444021833E+02  0.10551082772E+03  0.00000000000E+00 0. -1.
         -2    1    6    6    0  503  0.31617189847E+03 -0.15993926989E+02 -0.15154122354E+03  0.35097751711E+03  0.00000000000E+00 0.  1.
<mgrwt>
<rscale>  0 0.98894522E+03</rscale>
<asrwt>0</asrwt>
<pdfrwt beam="1">  1        2 0.17625618E+00 0.98894522E+03</pdfrwt>
<pdfrwt beam="2">  1       -1 0.32833216E-01 0.98894522E+03</pdfrwt>
<totfact> 0.20201569E+02</totfact>
</mgrwt>
</event>
<event>
12    6  0.8914180E-008  0.1896867E+04  0.7818608E-02  0.8656417E-01
         -1   -1    0    0    0  501 -0.00000000000E+00  0.00000000000E+00  0.62898851675E+03  0.62898851675E+03  0.00000000000E+00 0.  1.
          2   -1    0    0  501    0  0.00000000000E+00 -0.00000000000E+00 -0.14301153125E+04  0.14301153125E+04  0.00000000000E+00 0. -1.
         24    2    1    2    0    0  0.26088645784E+03 -0.31764659526E+02 -0.10453529305E+04  0.10808960447E+04  0.80639770559E+02 0.  0.
        254    2    1    2    0    0 -0.26088645784E+03  0.31764659526E+02  0.24422613477E+03  0.97820778455E+03  0.91004028888E+03 0.  0.
         23    2    4    4    0    0  0.28466582144E+03 -0.74658905925E+02  0.27944932593E+03  0.41365473200E+03  0.80060785725E+02 0.  0.
         23    2    4    4    0    0 -0.54555227929E+03  0.10642356545E+03 -0.35223191166E+02  0.56455305255E+03  0.92337485525E+02 0.  0.
          4    1    3    3  502    0  0.14865659706E+03 -0.45811190101E+02 -0.71472515894E+03  0.73145710866E+03  0.00000000000E+00 0. -1.
         -3    1    3    3    0  502  0.11222986078E+03  0.14046530574E+02 -0.33062777159E+03  0.34943893604E+03  0.00000000000E+00 0.  1.
         11    1    5    5    0    0  0.14690640282E+02  0.10766780468E+02  0.40683153785E+01  0.18662520290E+02  0.00000000000E+00 0.  1.
        -11    1    5    5    0    0  0.26997518116E+03 -0.85425686394E+02  0.27538101056E+03  0.39499221171E+03  0.00000000000E+00 0. -1.
          1    1    6    6  503    0 -0.50765212341E+03  0.11445644130E+03 -0.14455498257E+02  0.52059573258E+03  0.00000000000E+00 0. -1.
         -1    1    6    6    0  503 -0.37900155878E+02 -0.80328758497E+01 -0.20767692908E+02  0.43957319968E+02  0.00000000000E+00 0.  1.
<mgrwt>
<rscale>  0 0.18968670E+04</rscale>
<asrwt>0</asrwt>
<pdfrwt beam="1">  1        2 0.22001774E+00 0.18968670E+04</pdfrwt>
<pdfrwt beam="2">  1       -1 0.96767465E-01 0.18968670E+04</pdfrwt>
<totfact> 0.15251387E+01</totfact>
</mgrwt>
</event>
<event>
12    6  0.8914180E-008  0.1959648E+04  0.7818608E-02  0.8625723E-01
          2   -1    0    0  501    0  0.00000000000E+00  0.00000000000E+00  0.36749137885E+04  0.36749137885E+04  0.00000000000E+00 0. -1.
         -1   -1    0    0    0  501 -0.00000000000E+00 -0.00000000000E+00 -0.26124548982E+03  0.26124548982E+03  0.00000000000E+00 0.  1.
         24    2    1    2    0    0  0.11206469381E+03 -0.55201293111E+03  0.29004213645E+03  0.63838620044E+03  0.78330889703E+02 0.  0.
        254    2    1    2    0    0 -0.11206469381E+03  0.55201293111E+03  0.31236261622E+04  0.32977730779E+04  0.89498050268E+03 0.  0.
         23    2    4    4    0    0 -0.23215866216E+03 -0.15248220251E+03  0.13902169143E+04  0.14206782983E+04  0.92061349315E+02 0.  0.
         23    2    4    4    0    0  0.12009396835E+03  0.70449513361E+03  0.17334092479E+04  0.18770947796E+04  0.89672939811E+02 0.  0.
          2    1    3    3  502    0 -0.69437814062E+01 -0.42501380877E+01  0.46218119644E+01  0.93616729176E+01  0.00000000000E+00 0. -1.
         -1    1    3    3    0  502  0.11900847521E+03 -0.54776279302E+03  0.28542032449E+03  0.62902452752E+03  0.00000000000E+00 0.  1.
         11    1    5    5    0    0 -0.51750842417E+02 -0.61696028065E+01  0.41086519159E+03  0.41415748134E+03  0.00000000000E+00 0.  1.
        -11    1    5    5    0    0 -0.18040781974E+03 -0.14631259970E+03  0.97935172270E+03  0.10065208170E+04  0.00000000000E+00 0. -1.
          3    1    6    6  503    0  0.63014384876E+02  0.51543079355E+03  0.11693357558E+04  0.12794474688E+04  0.00000000000E+00 0. -1.
         -3    1    6    6    0  503  0.57079583475E+02  0.18906434007E+03  0.56407349210E+03  0.59764731073E+03  0.00000000000E+00 0.  1.
<mgrwt>
<rscale>  0 0.19596476E+04</rscale>
<asrwt>0</asrwt>
<pdfrwt beam="1">  1        2 0.56537132E+00 0.19596476E+04</pdfrwt>
<pdfrwt beam="2">  1       -1 0.40191616E-01 0.19596476E+04</pdfrwt>
<totfact> 0.39317941E+00</totfact>
</mgrwt>
</event>
<event>
12    6  0.8914180E-008  0.1950275E+04  0.7818608E-02  0.8630228E-01
          2   -1    0    0  501    0  0.00000000000E+00  0.00000000000E+00  0.12891590867E+04  0.12891590867E+04  0.00000000000E+00 0. -1.
         -1   -1    0    0    0  501 -0.00000000000E+00 -0.00000000000E+00 -0.73760750497E+03  0.73760750497E+03  0.00000000000E+00 0.  1.
         24    2    1    2    0    0  0.68930107211E+03  0.68088592479E+02 -0.11875432646E+03  0.70704845128E+03  0.77736078963E+02 0.  0.
        254    2    1    2    0    0 -0.68930107211E+03 -0.68088592479E+02  0.67030590820E+03  0.13197181404E+04  0.90142882976E+03 0.  0.
         23    2    4    4    0    0  0.11252465765E+03 -0.37279973676E+02  0.46033185961E+03  0.48498269647E+03  0.96183158018E+02 0.  0.
         23    2    4    4    0    0 -0.80182572976E+03 -0.30808618803E+02  0.20997404859E+03  0.83473544394E+03  0.93917455221E+02 0.  0.
          4    1    3    3  502    0  0.11898260265E+03  0.17172889768E+02 -0.50560208175E+02  0.13041511617E+03  0.00000000000E+00 0. -1.
         -3    1    3    3    0  502  0.57031846946E+03  0.50915702711E+02 -0.68194118281E+02  0.57663333511E+03  0.00000000000E+00 0.  1.
         11    1    5    5    0    0  0.10852239210E+03 -0.40549936623E+02  0.26067888769E+03  0.28526284272E+03  0.00000000000E+00 0.  1.
        -11    1    5    5    0    0  0.40022655525E+01  0.32699629474E+01  0.19965297191E+03  0.19971985375E+03  0.00000000000E+00 0. -1.
          1    1    6    6  503    0 -0.78289920853E+03 -0.31272219419E+02  0.21929450504E+03  0.81363333411E+03  0.00000000000E+00 0. -1.
         -1    1    6    6    0  503 -0.18926521223E+02  0.46360061592E+00 -0.93204564429E+01  0.21102109834E+02  0.00000000000E+00 0.  1.
<mgrwt>
<rscale>  0 0.19502753E+04</rscale>
<asrwt>0</asrwt>
<pdfrwt beam="1">  1        2 0.19833217E+00 0.19502753E+04</pdfrwt>
<pdfrwt beam="2">  1       -1 0.11347808E+00 0.19502753E+04</pdfrwt>
<totfact> 0.12641552E+01</totfact>
</mgrwt>
</event>
<event>
12    6  0.8914180E-008  0.2459455E+04  0.7818608E-02  0.8417574E-01
         -1   -1    0    0    0  501 -0.00000000000E+00  0.00000000000E+00  0.25192557732E+04  0.25192557732E+04  0.00000000000E+00 0.  1.
          2   -1    0    0  501    0  0.00000000000E+00 -0.00000000000E+00 -0.60026827128E+03  0.60026827128E+03  0.00000000000E+00 0. -1.
         24    2    1    2    0    0  0.17132470752E+03 -0.10281311868E+04  0.95611707019E+03  0.14178354588E+04  0.98446146748E+02 0.  0.
        254    2    1    2    0    0 -0.17132470752E+03  0.10281311868E+04  0.96287043177E+03  0.17016885857E+04  0.93926496888E+03 0.  0.
         23    2    4    4    0    0  0.20344894309E+03 -0.55936707514E+02  0.28863534349E+03  0.36756464948E+03  0.85282016547E+02 0.  0.
         23    2    4    4    0    0 -0.37477365061E+03  0.10840678943E+04  0.67423508828E+03  0.13341239362E+04  0.98159229660E+02 0.  0.
          4    1    3    3  502    0  0.38234505072E+02 -0.37408993943E+03  0.40077106151E+03  0.54956583219E+03  0.00000000000E+00 0. -1.
         -3    1    3    3    0  502  0.13309020245E+03 -0.65404124732E+03  0.55534600868E+03  0.86826962664E+03  0.00000000000E+00 0.  1.
         11    1    5    5    0    0  0.13200671466E+03 -0.52535755297E+02  0.12600970984E+03  0.18990583265E+03  0.00000000000E+00 0. -1.
        -11    1    5    5    0    0  0.71442228425E+02 -0.34009522173E+01  0.16262563364E+03  0.17765881683E+03  0.00000000000E+00 0.  1.
          2    1    6    6  503    0 -0.19328036504E+03  0.70372421934E+03  0.42869205234E+03  0.84638168230E+03  0.00000000000E+00 0. -1.
         -2    1    6    6    0  503 -0.18149328557E+03  0.38034367492E+03  0.24554303594E+03  0.48774225392E+03  0.00000000000E+00 0.  1.
<mgrwt>
<rscale>  0 0.24594547E+04</rscale>
<asrwt>0</asrwt>
<pdfrwt beam="1">  1        2 0.92348966E-01 0.24594547E+04</pdfrwt>
<pdfrwt beam="2">  1       -1 0.38757781E+00 0.24594547E+04</pdfrwt>
<totfact> 0.44013662E-01</totfact>
</mgrwt>
</event>
<event>
12    6  0.9567866E-008  0.2411902E+04  0.7818608E-02  0.8435061E-01
          2   -1    0    0  501    0  0.00000000000E+00  0.00000000000E+00  0.99999786833E+03  0.99999786833E+03  0.00000000000E+00 0. -1.
         -1   -1    0    0    0  501 -0.00000000000E+00 -0.00000000000E+00 -0.14543208967E+04  0.14543208967E+04  0.00000000000E+00 0.  1.
         24    2    1    2    0    0 -0.22337773048E+02 -0.43623897947E+03  0.79700683335E+03  0.91256124171E+03  0.82126147748E+02 0.  0.
        254    2    1    2    0    0  0.22337773048E+02  0.43623897947E+03 -0.12513298617E+04  0.15417575233E+04  0.78764612266E+03 0.  0.
         23    2    4    4    0    0  0.13374673520E+03 -0.17877964948E+03 -0.53338938499E+03  0.58558289309E+03  0.92481005709E+02 0.  0.
         23    2    4    4    0    0 -0.11140896216E+03  0.61501862895E+03 -0.71794047671E+03  0.95617463020E+03  0.90396485192E+02 0.  0.
          4    1    3    3  502    0 -0.27099424413E+02 -0.43809223894E+03  0.78275398637E+03  0.89742018687E+03  0.00000000000E+00 0. -1.
         -3    1    3    3    0  502  0.47616513656E+01  0.18532594771E+01  0.14252846984E+02  0.15141054837E+02  0.00000000000E+00 0.  1.
         11    1    5    5    0    0  0.19620018400E+02  0.30442974683E+00 -0.13015901900E+02  0.23546793874E+02  0.00000000000E+00 0.  1.
        -11    1    5    5    0    0  0.11412671680E+03 -0.17908407923E+03 -0.52037348309E+03  0.56203609922E+03  0.00000000000E+00 0. -1.
          1    1    6    6  503    0 -0.10730974428E+03  0.61705490961E+03 -0.71578522474E+03  0.95111546652E+03  0.00000000000E+00 0. -1.
         -1    1    6    6    0  503 -0.40992178798E+01 -0.20362806580E+01 -0.21552519727E+01  0.50591636869E+01  0.00000000000E+00 0.  1.
<mgrwt>
<rscale>  0 0.24119020E+04</rscale>
<asrwt>0</asrwt>
<pdfrwt beam="1">  1        2 0.15384583E+00 0.24119020E+04</pdfrwt>
<pdfrwt beam="2">  1       -1 0.22374168E+00 0.24119020E+04</pdfrwt>
<totfact> 0.26802725E+00</totfact>
</mgrwt>
</event>
<event>
12    6  0.8914180E-008  0.1857963E+04  0.7818608E-02  0.8676069E-01
          2   -1    0    0  501    0  0.00000000000E+00  0.00000000000E+00  0.52010789829E+03  0.52010789829E+03  0.00000000000E+00 0. -1.
         -1   -1    0    0    0  501 -0.00000000000E+00 -0.00000000000E+00 -0.16592834062E+04  0.16592834062E+04  0.00000000000E+00 0.  1.
         24    2    1    2    0    0 -0.56678930936E+03  0.39806285480E+03 -0.27420561116E+03  0.74901550121E+03  0.78302913594E+02 0.  0.
        254    2    1    2    0    0  0.56678930936E+03 -0.39806285480E+03 -0.86496989674E+03  0.14303758033E+04  0.90448762223E+03 0.  0.
         23    2    4    4    0    0  0.62509163087E+03 -0.41237841793E+03 -0.10013887336E+04  0.12538638593E+04  0.92734434454E+02 0.  0.
         23    2    4    4    0    0 -0.58302321504E+02  0.14315563134E+02  0.13641883683E+03  0.17651194400E+03  0.94563583338E+02 0.  0.
          4    1    3    3  502    0 -0.38936907761E+03  0.24681273421E+03 -0.21384752961E+03  0.50818851846E+03  0.00000000000E+00 0. -1.
         -3    1    3    3    0  502 -0.17742023175E+03  0.15125012059E+03 -0.60358081549E+02  0.24082698275E+03  0.00000000000E+00 0.  1.
         11    1    5    5    0    0  0.28786623817E+03 -0.24075803897E+03 -0.52964277910E+03  0.64911699859E+03  0.00000000000E+00 0.  1.
        -11    1    5    5    0    0  0.33722539270E+03 -0.17162037896E+03 -0.47174595447E+03  0.60474686069E+03  0.00000000000E+00 0. -1.
          3    1    6    6  503    0 -0.13542313679E+02  0.11642764995E+01 -0.13707496857E+02  0.19304022110E+02  0.00000000000E+00 0. -1.
         -3    1    6    6    0  503 -0.44760007824E+02  0.13151286635E+02  0.15012633368E+03  0.15720792189E+03  0.00000000000E+00 0.  1.
<mgrwt>
<rscale>  0 0.18579628E+04</rscale>
<asrwt>0</asrwt>
<pdfrwt beam="1">  1        2 0.80016601E-01 0.18579628E+04</pdfrwt>
<pdfrwt beam="2">  1       -1 0.25527437E+00 0.18579628E+04</pdfrwt>
<totfact> 0.40669357E+00</totfact>
</mgrwt>
</event>
<event>
12    6  0.8914180E-008  0.3391687E+04  0.7818608E-02  0.8139950E-01
         -1   -1    0    0    0  501 -0.00000000000E+00  0.00000000000E+00  0.68757021780E+03  0.68757021780E+03  0.00000000000E+00 0.  1.
          2   -1    0    0  501    0  0.00000000000E+00 -0.00000000000E+00 -0.41826786012E+04  0.41826786012E+04  0.00000000000E+00 0. -1.
         24    2    1    2    0    0 -0.24612943692E+03 -0.50173313523E+03 -0.37402246833E+04  0.37830891817E+04  0.10083271376E+03 0.  0.
        254    2    1    2    0    0  0.24612943692E+03  0.50173313523E+03  0.24511629996E+03  0.10871596373E+04  0.89973231449E+03 0.  0.
         23    2    4    4    0    0  0.38795254903E+03  0.15982973065E+03 -0.22306148539E+03  0.48385178205E+03  0.91122980797E+02 0.  0.
         23    2    4    4    0    0 -0.14182311211E+03  0.34190340458E+03  0.46817778535E+03  0.60330785523E+03  0.88194083122E+02 0.  0.
          4    1    3    3  502    0 -0.17197223636E+03 -0.39065971698E+03 -0.25610816909E+04  0.25964069196E+04  0.00000000000E+00 0. -1.
         -3    1    3    3    0  502 -0.74157200565E+02 -0.11107341825E+03 -0.11791429924E+04  0.11866822621E+04  0.00000000000E+00 0.  1.
         11    1    5    5    0    0  0.32033357218E+03  0.15694578981E+03 -0.15859375400E+03  0.39038129721E+03  0.00000000000E+00 0.  1.
        -11    1    5    5    0    0  0.67618976853E+02  0.28839408367E+01 -0.64467731393E+02  0.93470484841E+02  0.00000000000E+00 0. -1.
          3    1    6    6  503    0 -0.50172155210E+02  0.61064276126E+02  0.58968391063E+02  0.98607109894E+02  0.00000000000E+00 0. -1.
         -3    1    6    6    0  503 -0.91650956897E+02  0.28083912846E+03  0.40920939429E+03  0.50470074534E+03  0.00000000000E+00 0.  1.
<mgrwt>
<rscale>  0 0.33916870E+04</rscale>
<asrwt>0</asrwt>
<pdfrwt beam="1">  1        2 0.64348902E+00 0.33916870E+04</pdfrwt>
<pdfrwt beam="2">  1       -1 0.10578003E+00 0.33916870E+04</pdfrwt>
<totfact> 0.18898533E-01</totfact>
</mgrwt>
</event>
<event>
12    6  0.8914180E-008  0.2715017E+04  0.7818608E-02  0.8330149E-01
          2   -1    0    0  501    0  0.00000000000E+00  0.00000000000E+00  0.84512038301E+03  0.84512038301E+03  0.00000000000E+00 0. -1.
         -1   -1    0    0    0  501 -0.00000000000E+00 -0.00000000000E+00 -0.21805519577E+04  0.21805519577E+04  0.00000000000E+00 0.  1.
         24    2    1    2    0    0 -0.93155022456E+03 -0.19754339486E+03 -0.14139444660E+04  0.17064326982E+04  0.76579286014E+02 0.  0.
        254    2    1    2    0    0  0.93155022456E+03  0.19754339486E+03  0.78512891300E+02  0.13192396424E+04  0.90962615748E+03 0.  0.
         23    2    4    4    0    0  0.11031349762E+04  0.17547403466E+03  0.65901931488E+02  0.11226270317E+04  0.90832126773E+02 0.  0.
         23    2    4    4    0    0 -0.17158475166E+03  0.22069360203E+02  0.12610959812E+02  0.19661261069E+03  0.92569426463E+02 0.  0.
          4    1    3    3  502    0 -0.89844552087E+03 -0.19774533894E+03 -0.13836134790E+04  0.16615335784E+04  0.00000000000E+00 0. -1.
         -3    1    3    3    0  502 -0.33104703689E+02  0.20194408317E+00 -0.30330986997E+02  0.44899119813E+02  0.00000000000E+00 0.  1.
         11    1    5    5    0    0  0.34003815894E+03  0.47534289849E+02  0.61838189601E+02  0.34886877181E+03  0.00000000000E+00 0. -1.
        -11    1    5    5    0    0  0.76309681727E+03  0.12793974481E+03  0.40637418870E+01  0.77375825994E+03  0.00000000000E+00 0.  1.
          2    1    6    6  503    0 -0.11298459532E+03  0.57941210922E+02  0.15033510112E+02  0.12786207072E+03  0.00000000000E+00 0. -1.
         -2    1    6    6    0  503 -0.58600156339E+02 -0.35871850719E+02 -0.24225503000E+01  0.68750539975E+02  0.00000000000E+00 0.  1.
<mgrwt>
<rscale>  0 0.27150167E+04</rscale>
<asrwt>0</asrwt>
<pdfrwt beam="1">  1        2 0.13001852E+00 0.27150167E+04</pdfrwt>
<pdfrwt beam="2">  1       -1 0.33546953E+00 0.27150167E+04</pdfrwt>
<totfact> 0.61937222E-01</totfact>
</mgrwt>
</event>
<event>
12    6  0.8914180E-008  0.1833652E+04  0.7818608E-02  0.8688606E-01
          2   -1    0    0  501    0  0.00000000000E+00  0.00000000000E+00  0.49301669461E+03  0.49301669461E+03  0.00000000000E+00 0. -1.
         -1   -1    0    0    0  501 -0.00000000000E+00 -0.00000000000E+00 -0.17049518582E+04  0.17049518582E+04  0.00000000000E+00 0.  1.
         24    2    1    2    0    0  0.46661063620E+03  0.50516148372E+03 -0.59967262816E+03  0.91584029223E+03  0.79009932646E+02 0.  0.
        254    2    1    2    0    0 -0.46661063620E+03 -0.50516148372E+03 -0.61226253539E+03  0.12821282605E+04  0.89222970909E+03 0.  0.
         23    2    4    4    0    0  0.18787933436E+03  0.98354527630E+02 -0.12924449782E+03  0.26524587024E+03  0.93161011581E+02 0.  0.
         23    2    4    4    0    0 -0.65448997056E+03 -0.60351601135E+03 -0.48301803756E+03  0.10168823903E+04  0.90303231160E+02 0.  0.
          4    1    3    3  502    0  0.23472648347E+03  0.27884598262E+03 -0.36449240599E+03  0.51546708730E+03  0.00000000000E+00 0. -1.
         -3    1    3    3    0  502  0.23188415273E+03  0.22631550110E+03 -0.23518022217E+03  0.40037320493E+03  0.00000000000E+00 0.  1.
         11    1    5    5    0    0  0.34513011362E+02  0.49120768580E+01 -0.66368162399E+02  0.74966722168E+02  0.00000000000E+00 0. -1.
        -11    1    5    5    0    0  0.15336632300E+03  0.93442450772E+02 -0.62876335425E+02  0.19027914808E+03  0.00000000000E+00 0.  1.
          1    1    6    6  503    0 -0.13268382763E+03 -0.78041923332E+02 -0.72279270298E+02  0.17005832184E+03  0.00000000000E+00 0. -1.
         -1    1    6    6    0  503 -0.52180614293E+03 -0.52547408802E+03 -0.41073876727E+03  0.84682406845E+03  0.00000000000E+00 0.  1.
<mgrwt>
<rscale>  0 0.18336518E+04</rscale>
<asrwt>0</asrwt>
<pdfrwt beam="1">  1        2 0.75848722E-01 0.18336518E+04</pdfrwt>
<pdfrwt beam="2">  1       -1 0.26230029E+00 0.18336518E+04</pdfrwt>
<totfact> 0.39052922E+00</totfact>
</mgrwt>
</event>
<event>
12    6  0.8914180E-008  0.1564697E+04  0.7818608E-02  0.8842534E-01
          2   -1    0    0  501    0  0.00000000000E+00  0.00000000000E+00  0.19546294748E+04  0.19546294748E+04  0.00000000000E+00 0. -1.
         -1   -1    0    0    0  501 -0.00000000000E+00 -0.00000000000E+00 -0.31313815774E+03  0.31313815774E+03  0.00000000000E+00 0.  1.
         24    2    1    2    0    0  0.31300179953E+03  0.38712600660E+03  0.33922155828E+03  0.60798276585E+03  0.82067694427E+02 0.  0.
        254    2    1    2    0    0 -0.31300179953E+03 -0.38712600660E+03  0.13022697588E+04  0.16597848667E+04  0.90063455830E+03 0.  0.
         23    2    4    4    0    0 -0.62310228697E+03 -0.24846462075E+03  0.85554504207E+03  0.10912842419E+04  0.94619499793E+02 0.  0.
         23    2    4    4    0    0  0.31010048744E+03 -0.13866138586E+03  0.44672471674E+03  0.56850062487E+03  0.90778277600E+02 0.  0.
          2    1    3    3  502    0  0.25451781380E+03  0.29133018525E+03  0.29835537186E+03  0.48853712479E+03  0.00000000000E+00 0. -1.
         -3    1    3    3    0  502  0.58483985730E+02  0.95795821352E+02  0.40866186420E+02  0.11944564106E+03  0.00000000000E+00 0.  1.
         11    1    5    5    0    0 -0.29484133407E+03 -0.74088532966E+02  0.34619812022E+03  0.46073165882E+03  0.00000000000E+00 0. -1.
        -11    1    5    5    0    0 -0.32826095290E+03 -0.17437608778E+03  0.50934692185E+03  0.63055258305E+03  0.00000000000E+00 0.  1.
          3    1    6    6  503    0  0.20120194864E+03 -0.10547865841E+03  0.22763142734E+03  0.32159607931E+03  0.00000000000E+00 0. -1.
         -3    1    6    6    0  503  0.10889853880E+03 -0.33182727453E+02  0.21909328940E+03  0.24690454556E+03  0.00000000000E+00 0.  1.
<mgrwt>
<rscale>  0 0.15646969E+04</rscale>
<asrwt>0</asrwt>
<pdfrwt beam="1">  1        2 0.30071222E+00 0.15646969E+04</pdfrwt>
<pdfrwt beam="2">  1       -1 0.48175102E-01 0.15646969E+04</pdfrwt>
<totfact> 0.33413684E+01</totfact>
</mgrwt>
</event>
<event>
12    6  0.8914180E-008  0.2237365E+04  0.7818608E-02  0.8503035E-01
         -1   -1    0    0    0  501 -0.00000000000E+00  0.00000000000E+00  0.96502534125E+03  0.96502534125E+03  0.00000000000E+00 0.  1.
          2   -1    0    0  501    0  0.00000000000E+00 -0.00000000000E+00 -0.12968059821E+04  0.12968059821E+04  0.00000000000E+00 0. -1.
         24    2    1    2    0    0 -0.39750919619E+03  0.74159738725E+01 -0.99483213862E+03  0.10743425193E+04  0.80326253223E+02 0.  0.
        254    2    1    2    0    0  0.39750919619E+03 -0.74159738725E+01  0.66305149775E+03  0.11874888041E+04  0.90134555721E+03 0.  0.
         23    2    4    4    0    0  0.38092865086E+03 -0.18149102616E+03 -0.61710246026E+02  0.43634630083E+03  0.92435437772E+02 0.  0.
         23    2    4    4    0    0  0.16580545322E+02  0.17407505229E+03  0.72476174378E+03  0.75114250328E+03  0.91424486228E+02 0.  0.
          2    1    3    3  502    0 -0.23695558543E+03 -0.31716287039E+02 -0.54557011502E+03  0.59565142720E+03  0.00000000000E+00 0. -1.
         -1    1    3    3    0  502 -0.16055361076E+03  0.39132260911E+02 -0.44926202360E+03  0.47869109206E+03  0.00000000000E+00 0.  1.
         11    1    5    5    0    0 -0.25551446609E+01  0.19479339232E+01  0.51009429254E+01  0.60285014336E+01  0.00000000000E+00 0. -1.
        -11    1    5    5    0    0  0.38348379553E+03 -0.18343896008E+03 -0.66811188951E+02  0.43031779940E+03  0.00000000000E+00 0.  1.
          4    1    6    6  503    0  0.95772995581E+01  0.38636265256E+02  0.55625123756E+02  0.68400585177E+02  0.00000000000E+00 0. -1.
         -4    1    6    6    0  503  0.70032457634E+01  0.13543878703E+03  0.66913662002E+03  0.68274191810E+03  0.00000000000E+00 0.  1.
<mgrwt>
<rscale>  0 0.22373651E+04</rscale>
<asrwt>0</asrwt>
<pdfrwt beam="1">  1        2 0.19950861E+00 0.22373651E+04</pdfrwt>
<pdfrwt beam="2">  1       -1 0.14846544E+00 0.22373651E+04</pdfrwt>
<totfact> 0.61853540E+00</totfact>
</mgrwt>
</event>
<event>
12    6  0.8914180E-008  0.1389623E+04  0.7818608E-02  0.8961364E-01
          2   -1    0    0  501    0  0.00000000000E+00  0.00000000000E+00  0.13414439658E+04  0.13414439658E+04  0.00000000000E+00 0. -1.
         -1   -1    0    0    0  501 -0.00000000000E+00 -0.00000000000E+00 -0.35988329795E+03  0.35988329795E+03  0.00000000000E+00 0.  1.
         24    2    1    2    0    0  0.33507926070E+03 -0.21465085330E+03  0.30908229034E+03  0.51010922109E+03  0.79539018499E+02 0.  0.
        254    2    1    2    0    0 -0.33507926070E+03  0.21465085330E+03  0.67247837747E+03  0.11912180426E+04  0.89912188113E+03 0.  0.
         23    2    4    4    0    0  0.24484176577E+03 -0.12507679866E+03  0.30212800962E+03  0.41868589571E+03  0.91786977520E+02 0.  0.
         23    2    4    4    0    0 -0.57992102646E+03  0.33972765196E+03  0.37035036785E+03  0.77253214691E+03  0.89012631737E+02 0.  0.
          4    1    3    3  502    0  0.44803707031E+02 -0.58608088293E+01  0.16531821208E+02  0.48114679219E+02  0.00000000000E+00 0. -1.
         -1    1    3    3    0  502  0.29027555366E+03 -0.20879004447E+03  0.29255046914E+03  0.46199454187E+03  0.00000000000E+00 0.  1.
         11    1    5    5    0    0  0.87434657119E+02  0.16668471235E+01  0.82432864211E+02  0.12017809595E+03  0.00000000000E+00 0.  1.
        -11    1    5    5    0    0  0.15740710865E+03 -0.12674364578E+03  0.21969514541E+03  0.29850779976E+03  0.00000000000E+00 0. -1.
          1    1    6    6  503    0 -0.15980676008E+03  0.10966141866E+03  0.64670677389E+02  0.20431868202E+03  0.00000000000E+00 0. -1.
         -1    1    6    6    0  503 -0.42011426639E+03  0.23006623330E+03  0.30567969046E+03  0.56821346489E+03  0.00000000000E+00 0.  1.
<mgrwt>
<rscale>  0 0.13896234E+04</rscale>
<asrwt>0</asrwt>
<pdfrwt beam="1">  1        2 0.20637599E+00 0.13896234E+04</pdfrwt>
<pdfrwt beam="2">  1       -1 0.55366662E-01 0.13896234E+04</pdfrwt>
<totfact> 0.57259642E+01</totfact>
</mgrwt>
</event>
<event>
12    6  0.8914180E-008  0.1827339E+04  0.7818608E-02  0.8691894E-01
         -1   -1    0    0    0  501 -0.00000000000E+00  0.00000000000E+00  0.17777894232E+04  0.17777894232E+04  0.00000000000E+00 0.  1.
          2   -1    0    0  501    0  0.00000000000E+00 -0.00000000000E+00 -0.46956763516E+03  0.46956763516E+03  0.00000000000E+00 0. -1.
         24    2    1    2    0    0  0.20378905544E+03  0.25900145328E+03  0.12311314982E+04  0.12768493221E+04  0.77766917711E+02 0.  0.
        254    2    1    2    0    0 -0.20378905544E+03 -0.25900145328E+03  0.77090289842E+02  0.97050773630E+03  0.90957716633E+03 0.  0.
         23    2    4    4    0    0 -0.30400499574E+03  0.23394938855E+03  0.20329465548E+03  0.44326360310E+03  0.89456978745E+02 0.  0.
         23    2    4    4    0    0  0.10021594030E+03 -0.49295084183E+03 -0.12620436564E+03  0.52724413320E+03  0.94947706310E+02 0.  0.
          4    1    3    3  502    0  0.70827661695E+02  0.58237205371E+02  0.45786717986E+03  0.46695876065E+03  0.00000000000E+00 0. -1.
         -3    1    3    3    0  502  0.13296139375E+03  0.20076424791E+03  0.77326431832E+03  0.80989056141E+03  0.00000000000E+00 0.  1.
         11    1    5    5    0    0 -0.29734252779E+03  0.24084271953E+03  0.19098137633E+03  0.42765836890E+03  0.00000000000E+00 0. -1.
        -11    1    5    5    0    0 -0.66624679511E+01 -0.68933309753E+01  0.12313279148E+02  0.15605234202E+02  0.00000000000E+00 0.  1.
          2    1    6    6  503    0  0.85363794229E+02 -0.29353292825E+03 -0.11616781602E+03  0.32702219926E+03  0.00000000000E+00 0. -1.
         -2    1    6    6    0  503  0.14852146071E+02 -0.19941791359E+03 -0.10036549616E+02  0.20022193394E+03  0.00000000000E+00 0.  1.
<mgrwt>
<rscale>  0 0.18273395E+04</rscale>
<asrwt>0</asrwt>
<pdfrwt beam="1">  1        2 0.72241176E-01 0.18273395E+04</pdfrwt>
<pdfrwt beam="2">  1       -1 0.27350606E+00 0.18273395E+04</pdfrwt>
<totfact> 0.34977959E+00</totfact>
</mgrwt>
</event>
<event>
12    6  0.8914180E-008  0.1600131E+04  0.7818608E-02  0.8820468E-01
         -1   -1    0    0    0  501 -0.00000000000E+00  0.00000000000E+00  0.34316683349E+03  0.34316683349E+03  0.00000000000E+00 0.  1.
          2   -1    0    0  501    0  0.00000000000E+00 -0.00000000000E+00 -0.18652869208E+04  0.18652869208E+04  0.00000000000E+00 0. -1.
         24    2    1    2    0    0 -0.19947058400E+03 -0.45315701331E+03 -0.81828768718E+03  0.96023063389E+03  0.85488821880E+02 0.  0.
        254    2    1    2    0    0  0.19947058400E+03  0.45315701331E+03 -0.70383240010E+03  0.12482231204E+04  0.90417980415E+03 0.  0.
         23    2    4    4    0    0  0.24174417487E+03  0.65830753721E+03 -0.73201715198E+03  0.10178857354E+04  0.91832455461E+02 0.  0.
         23    2    4    4    0    0 -0.42273590878E+02 -0.20515052390E+03  0.28184751879E+02  0.23033738500E+03  0.91581312225E+02 0.  0.
          4    1    3    3  502    0 -0.16861796361E+03 -0.32560440204E+03 -0.54226906795E+03  0.65460368647E+03  0.00000000000E+00 0. -1.
         -3    1    3    3    0  502 -0.30852620391E+02 -0.12755261127E+03 -0.27601861923E+03  0.30562694742E+03  0.00000000000E+00 0.  1.
         11    1    5    5    0    0  0.18435173827E+03  0.46503801963E+03 -0.46235248001E+03  0.68118700727E+03  0.00000000000E+00 0. -1.
        -11    1    5    5    0    0  0.57392436605E+02  0.19326951758E+03 -0.26966467197E+03  0.33669872812E+03  0.00000000000E+00 0.  1.
          3    1    6    6  503    0 -0.37805087352E+02 -0.21408005210E+03  0.31824387365E+02  0.21970954683E+03  0.00000000000E+00 0. -1.
         -3    1    6    6    0  503 -0.44685035262E+01  0.89295282028E+01 -0.36396354866E+01  0.10627838170E+02  0.00000000000E+00 0.  1.
<mgrwt>
<rscale>  0 0.16001308E+04</rscale>
<asrwt>0</asrwt>
<pdfrwt beam="1">  1        2 0.28696722E+00 0.16001308E+04</pdfrwt>
<pdfrwt beam="2">  1       -1 0.52794897E-01 0.16001308E+04</pdfrwt>
<totfact> 0.31358387E+01</totfact>
</mgrwt>
</event>
<event>
12    6  0.8914180E-008  0.2105196E+04  0.7818608E-02  0.8558958E-01
         -1   -1    0    0    0  501 -0.00000000000E+00  0.00000000000E+00  0.63227228163E+03  0.63227228163E+03  0.00000000000E+00 0.  1.
          2   -1    0    0  501    0  0.00000000000E+00 -0.00000000000E+00 -0.17523511529E+04  0.17523511529E+04  0.00000000000E+00 0. -1.
         24    2    1    2    0    0 -0.22090574907E+03 -0.75628308313E+03 -0.84883583044E+03  0.11607761134E+04  0.78201449514E+02 0.  0.
        254    2    1    2    0    0  0.22090574907E+03  0.75628308313E+03 -0.27124304078E+03  0.12238473210E+04  0.89636266446E+03 0.  0.
         23    2    4    4    0    0  0.11819000167E+03  0.94409330213E+03 -0.23778009578E+03  0.98477336134E+03  0.89208517734E+02 0.  0.
         23    2    4    4    0    0  0.10271574740E+03 -0.18781021901E+03 -0.33462945001E+02  0.23907395969E+03  0.10106130016E+03 0.  0.
          4    1    3    3  502    0 -0.64298410598E+01 -0.41958427257E+02 -0.24074261495E+02  0.48799821111E+02  0.00000000000E+00 0. -1.
         -3    1    3    3    0  502 -0.21447590801E+03 -0.71432465587E+03 -0.82476156895E+03  0.11119762923E+04  0.00000000000E+00 0.  1.
         11    1    5    5    0    0  0.12451161758E+03  0.74156463634E+03 -0.20615487784E+03  0.77969294369E+03  0.00000000000E+00 0. -1.
        -11    1    5    5    0    0 -0.63216159058E+01  0.20252866580E+03 -0.31625217938E+02  0.20508041766E+03  0.00000000000E+00 0.  1.
          1    1    6    6  503    0  0.86031072850E+02 -0.81705220627E+02 -0.52925459397E+02  0.12991609918E+03  0.00000000000E+00 0. -1.
         -1    1    6    6    0  503  0.16684674547E+02 -0.10610499838E+03  0.19462514396E+02  0.10915786052E+03  0.00000000000E+00 0.  1.
<mgrwt>
<rscale>  0 0.21051965E+04</rscale>
<asrwt>0</asrwt>
<pdfrwt beam="1">  1        2 0.26959248E+00 0.21051965E+04</pdfrwt>
<pdfrwt beam="2">  1       -1 0.97272659E-01 0.21051965E+04</pdfrwt>
<totfact> 0.97649942E+00</totfact>
</mgrwt>
</event>
<event>
12    6  0.8914180E-008  0.1794392E+04  0.7818608E-02  0.8709288E-01
          2   -1    0    0  501    0  0.00000000000E+00  0.00000000000E+00  0.22863317408E+04  0.22863317408E+04  0.00000000000E+00 0. -1.
         -1   -1    0    0    0  501 -0.00000000000E+00 -0.00000000000E+00 -0.35207500498E+03  0.35207500498E+03  0.00000000000E+00 0.  1.
         24    2    1    2    0    0 -0.56496118300E+03  0.64216431926E+02  0.12359174150E+04  0.13631479725E+04  0.85881602732E+02 0.  0.
        254    2    1    2    0    0  0.56496118300E+03 -0.64216431926E+02  0.69833932086E+03  0.12752587734E+04  0.90294088597E+03 0.  0.
         23    2    4    4    0    0  0.77455117118E+03 -0.16782135700E+02  0.34733912983E+03  0.85421706029E+03  0.93974241826E+02 0.  0.
         23    2    4    4    0    0 -0.20958998818E+03 -0.47434296226E+02  0.35100019103E+03  0.42104171307E+03  0.88865147512E+02 0.  0.
          2    1    3    3  502    0 -0.41367241419E+03  0.12316077386E+02  0.84994118253E+03  0.94534468095E+03  0.00000000000E+00 0. -1.
         -3    1    3    3    0  502 -0.15128876881E+03  0.51900354540E+02  0.38597623246E+03  0.41780329151E+03  0.00000000000E+00 0.  1.
         11    1    5    5    0    0  0.39870362912E+03 -0.16968715511E+02  0.12820638511E+03  0.41915319200E+03  0.00000000000E+00 0.  1.
        -11    1    5    5    0    0  0.37584754205E+03  0.18657981096E+00  0.21913274472E+03  0.43506386829E+03  0.00000000000E+00 0. -1.
          1    1    6    6  503    0 -0.11595499846E+03 -0.49441218574E+02  0.26688635176E+03  0.29515812799E+03  0.00000000000E+00 0.  1.
         -1    1    6    6    0  503 -0.93634989721E+02  0.20069223477E+01  0.84113839267E+02  0.12588358508E+03  0.00000000000E+00 0. -1.
<mgrwt>
<rscale>  0 0.17943916E+04</rscale>
<asrwt>0</asrwt>
<pdfrwt beam="1">  1        2 0.35174334E+00 0.17943916E+04</pdfrwt>
<pdfrwt beam="2">  1       -1 0.54165387E-01 0.17943916E+04</pdfrwt>
<totfact> 0.17092156E+01</totfact>
</mgrwt>
</event>
<event>
12    6  0.8914180E-008  0.2083672E+04  0.7818608E-02  0.8568470E-01
          2   -1    0    0  501    0  0.00000000000E+00  0.00000000000E+00  0.30655934910E+04  0.30655934910E+04  0.00000000000E+00 0. -1.
         -1   -1    0    0    0  501 -0.00000000000E+00 -0.00000000000E+00 -0.35406593559E+03  0.35406593559E+03  0.00000000000E+00 0.  1.
         24    2    1    2    0    0 -0.28124212949E+03  0.19225917732E+03 -0.14598633718E+03  0.37945629675E+03  0.81328616326E+02 0.  0.
        254    2    1    2    0    0  0.28124212949E+03 -0.19225917732E+03  0.28575138926E+04  0.30402031298E+04  0.98050430782E+03 0.  0.
         23    2    4    4    0    0 -0.34222906233E+03 -0.19143846808E+03  0.12619858288E+04  0.13247305370E+04  0.92376109207E+02 0.  0.
         23    2    4    4    0    0  0.62347119182E+03 -0.82070923187E+00  0.15955280638E+04  0.17154725928E+04  0.91757362864E+02 0.  0.
          4    1    3    3  502    0 -0.64100460959E+02  0.88202230518E+02 -0.36874542460E+02  0.11510097500E+03  0.00000000000E+00 0. -1.
         -3    1    3    3    0  502 -0.21714166853E+03  0.10405694680E+03 -0.10911179472E+03  0.26435532175E+03  0.00000000000E+00 0.  1.
         11    1    5    5    0    0 -0.14887854343E+03 -0.92191865123E+02  0.41771289672E+03  0.45293291421E+03  0.00000000000E+00 0. -1.
        -11    1    5    5    0    0 -0.19335051890E+03 -0.99246602960E+02  0.84427293205E+03  0.87179762282E+03  0.00000000000E+00 0.  1.
          2    1    6    6  503    0  0.55608738666E+03  0.27286248517E+02  0.14298119773E+04  0.15343858743E+04  0.00000000000E+00 0. -1.
         -2    1    6    6    0  503  0.67383805165E+02 -0.28106957749E+02  0.16571608658E+03  0.18108671851E+03  0.00000000000E+00 0.  1.
<mgrwt>
<rscale>  0 0.20836720E+04</rscale>
<asrwt>0</asrwt>
<pdfrwt beam="1">  1        2 0.47162975E+00 0.20836720E+04</pdfrwt>
<pdfrwt beam="2">  1       -1 0.54471684E-01 0.20836720E+04</pdfrwt>
<totfact> 0.56710770E+00</totfact>
</mgrwt>
</event>
<event>
12    6  0.8914180E-008  0.1083031E+04  0.7818608E-02  0.9221890E-01
         -1   -1    0    0    0  501 -0.00000000000E+00  0.00000000000E+00  0.41226483366E+03  0.41226483366E+03  0.00000000000E+00 0.  1.
          2   -1    0    0  501    0  0.00000000000E+00 -0.00000000000E+00 -0.71128821182E+03  0.71128821182E+03  0.00000000000E+00 0. -1.
         24    2    1    2    0    0 -0.14693308732E+03  0.20736405832E+02 -0.41903030865E+02  0.17379056424E+03  0.80174594140E+02 0.  0.
        254    2    1    2    0    0  0.14693308732E+03 -0.20736405832E+02 -0.25712034730E+03  0.94976248124E+03  0.90217435516E+03 0.  0.
         23    2    4    4    0    0 -0.14352531981E+02 -0.18671084638E+03 -0.53677475971E+03  0.57534606004E+03  0.88481697606E+02 0.  0.
         23    2    4    4    0    0  0.16128561930E+03  0.16597444055E+03  0.27965441241E+03  0.37441642120E+03  0.91763283365E+02 0.  0.
          2    1    3    3  502    0 -0.12951584264E+02 -0.23839350514E+02 -0.28027060704E+01  0.27274774595E+02  0.00000000000E+00 0. -1.
         -1    1    3    3    0  502 -0.13398150306E+03  0.44575756346E+02 -0.39100324795E+02  0.14651578964E+03  0.00000000000E+00 0.  1.
         11    1    5    5    0    0 -0.44137140355E+00 -0.14500046750E+03 -0.49062592136E+03  0.51160446156E+03  0.00000000000E+00 0.  1.
        -11    1    5    5    0    0 -0.13911160578E+02 -0.41710378883E+02 -0.46148838354E+02  0.63741598479E+02  0.00000000000E+00 0. -1.
          1    1    6    6  503    0  0.17652428295E+02 -0.72562473406E+01  0.57630721173E+01  0.19936758774E+02  0.00000000000E+00 0. -1.
         -1    1    6    6    0  503  0.14363319101E+03  0.17323068789E+03  0.27389134029E+03  0.35447966243E+03  0.00000000000E+00 0.  1.
<mgrwt>
<rscale>  0 0.10830311E+04</rscale>
<asrwt>0</asrwt>
<pdfrwt beam="1">  1        2 0.10942895E+00 0.10830311E+04</pdfrwt>
<pdfrwt beam="2">  1       -1 0.63425360E-01 0.10830311E+04</pdfrwt>
<totfact> 0.11490670E+02</totfact>
</mgrwt>
</event>
<event>
12    6  0.8914180E-008  0.2067039E+04  0.7818608E-02  0.8575904E-01
         -1   -1    0    0    0  501 -0.00000000000E+00  0.00000000000E+00  0.32391833444E+03  0.32391833444E+03  0.00000000000E+00 0.  1.
          2   -1    0    0  501    0  0.00000000000E+00 -0.00000000000E+00 -0.32976285247E+04  0.32976285247E+04  0.00000000000E+00 0. -1.
         24    2    1    2    0    0 -0.46339618544E+03  0.33196817352E+03 -0.14079269490E+03  0.59245059015E+03  0.78969778573E+02 0.  0.
        254    2    1    2    0    0  0.46339618544E+03 -0.33196817352E+03 -0.28329174954E+04  0.30290962690E+04  0.90833021442E+03 0.  0.
         23    2    4    4    0    0 -0.97644287518E+02  0.73030620635E+02 -0.16424318335E+04  0.16491045744E+04  0.84235925151E+02 0.  0.
         23    2    4    4    0    0  0.56104047295E+03 -0.40499879416E+03 -0.11904856619E+04  0.13799916946E+04  0.91271740283E+02 0.  0.
          4    1    3    3  502    0 -0.68800341255E+02  0.68925220210E+02 -0.50486433189E+02  0.10969527280E+03  0.00000000000E+00 0. -1.
         -3    1    3    3    0  502 -0.39459584418E+03  0.26304295331E+03 -0.90306261710E+02  0.48275531736E+03  0.00000000000E+00 0.  1.
         11    1    5    5    0    0 -0.32945551835E+01  0.37958754081E+02 -0.23411767483E+03  0.23719782203E+03  0.00000000000E+00 0.  1.
        -11    1    5    5    0    0 -0.94349732335E+02  0.35071866554E+02 -0.14083141587E+04  0.14119067524E+04  0.00000000000E+00 0. -1.
          1    1    6    6  503    0  0.51096391988E+03 -0.33209552138E+03 -0.10469698674E+04  0.12114113529E+04  0.00000000000E+00 0. -1.
         -1    1    6    6    0  503  0.50076553072E+02 -0.72903272774E+02 -0.14351579443E+03  0.16858034168E+03  0.00000000000E+00 0.  1.
<mgrwt>
<rscale>  0 0.20670388E+04</rscale>
<asrwt>0</asrwt>
<pdfrwt beam="1">  1        2 0.50732747E+00 0.20670388E+04</pdfrwt>
<pdfrwt beam="2">  1       -1 0.49833590E-01 0.20670388E+04</pdfrwt>
<totfact> 0.47657691E+00</totfact>
</mgrwt>
</event>
<event>
12    6  0.8914180E-008  0.1821969E+04  0.7818608E-02  0.8694703E-01
         -1   -1    0    0    0  501 -0.00000000000E+00  0.00000000000E+00  0.63473698853E+03  0.63473698853E+03  0.00000000000E+00 0.  1.
          2   -1    0    0  501    0  0.00000000000E+00 -0.00000000000E+00 -0.13074587476E+04  0.13074587476E+04  0.00000000000E+00 0. -1.
         24    2    1    2    0    0  0.59373232567E+03  0.28678990742E+03 -0.45831141160E+03  0.80688077597E+03  0.78998171415E+02 0.  0.
        254    2    1    2    0    0 -0.59373232567E+03 -0.28678990742E+03 -0.21441034746E+03  0.11353149601E+04  0.89900040939E+03 0.  0.
         23    2    4    4    0    0 -0.48518025023E+03 -0.57153298997E+03 -0.28780112610E+03  0.80796450108E+03  0.89035459208E+02 0.  0.
         23    2    4    4    0    0 -0.10855207544E+03  0.28474308255E+03  0.73390778636E+02  0.32735045906E+03  0.94392481225E+02 0.  0.
          4    1    3    3  502    0  0.35153656079E+03  0.14994772482E+03 -0.22271412004E+03  0.44233907019E+03  0.00000000000E+00 0. -1.
         -3    1    3    3    0  502  0.24219576488E+03  0.13684218260E+03 -0.23559729156E+03  0.36454170578E+03  0.00000000000E+00 0.  1.
         11    1    5    5    0    0 -0.45902547039E+03 -0.55030335093E+03 -0.29238356744E+03  0.77396790051E+03  0.00000000000E+00 0. -1.
        -11    1    5    5    0    0 -0.26154779836E+02 -0.21229639044E+02  0.45824413405E+01  0.33996600577E+02  0.00000000000E+00 0.  1.
          3    1    6    6  503    0 -0.74571078056E+02  0.20238700488E+03  0.62252694138E+01  0.21577789370E+03  0.00000000000E+00 0. -1.
         -3    1    6    6    0  503 -0.33980997389E+02  0.82356077666E+02  0.67165509222E+02  0.11157256536E+03  0.00000000000E+00 0.  1.
<mgrwt>
<rscale>  0 0.18219686E+04</rscale>
<asrwt>0</asrwt>
<pdfrwt beam="1">  1        2 0.20114750E+00 0.18219686E+04</pdfrwt>
<pdfrwt beam="2">  1       -1 0.97651845E-01 0.18219686E+04</pdfrwt>
<totfact> 0.17692423E+01</totfact>
</mgrwt>
</event>
<event>
12    6  0.8914180E-008  0.2096623E+04  0.7818608E-02  0.8562732E-01
         -1   -1    0    0    0  501 -0.00000000000E+00  0.00000000000E+00  0.42499544956E+03  0.42499544956E+03  0.00000000000E+00 0.  1.
          2   -1    0    0  501    0  0.00000000000E+00 -0.00000000000E+00 -0.25858092348E+04  0.25858092348E+04  0.00000000000E+00 0. -1.
         24    2    1    2    0    0 -0.39306774971E+03 -0.38149535886E+03  0.44137929109E+02  0.55333340343E+03  0.64720428548E+02 0.  0.
        254    2    1    2    0    0  0.39306774971E+03  0.38149535886E+03 -0.22049517143E+04  0.24574712809E+04  0.93664938439E+03 0.  0.
         23    2    4    4    0    0  0.36751347192E+03  0.28604579395E+03 -0.33085190273E+03  0.57854207735E+03  0.91430878019E+02 0.  0.
         23    2    4    4    0    0  0.25554277788E+02  0.95449564911E+02 -0.18740998116E+04  0.18789292035E+04  0.91439638945E+02 0.  0.
          2    1    3    3  502    0 -0.24658324705E+02 -0.40319616539E+02 -0.99776621941E+01  0.48303811423E+02  0.00000000000E+00 0. -1.
         -1    1    3    3    0  502 -0.36840942500E+03 -0.34117574232E+03  0.54115591303E+02  0.50502959200E+03  0.00000000000E+00 0.  1.
         11    1    5    5    0    0  0.66497663727E+02  0.97585388666E+02 -0.10206309502E+03  0.15608242286E+03  0.00000000000E+00 0.  1.
        -11    1    5    5    0    0  0.30101580819E+03  0.18846040528E+03 -0.22878880771E+03  0.42245965449E+03  0.00000000000E+00 0. -1.
          4    1    6    6  503    0 -0.26189027358E+02  0.56147266883E+02 -0.12302339957E+04  0.12317930285E+04  0.00000000000E+00 0. -1.
         -4    1    6    6    0  503  0.51743305146E+02  0.39302298028E+02 -0.64386581585E+03  0.64713617506E+03  0.00000000000E+00 0.  1.
<mgrwt>
<rscale>  0 0.20966231E+04</rscale>
<asrwt>0</asrwt>
<pdfrwt beam="1">  1        2 0.39781680E+00 0.20966231E+04</pdfrwt>
<pdfrwt beam="2">  1       -1 0.65383916E-01 0.20966231E+04</pdfrwt>
<totfact> 0.77214161E+00</totfact>
</mgrwt>
</event>
<event>
12    6  0.8914180E-008  0.1905595E+04  0.7818608E-02  0.8652077E-01
         -1   -1    0    0    0  501 -0.00000000000E+00  0.00000000000E+00  0.96297868814E+03  0.96297868814E+03  0.00000000000E+00 0.  1.
          2   -1    0    0  501    0  0.00000000000E+00 -0.00000000000E+00 -0.94272369642E+03  0.94272369642E+03  0.00000000000E+00 0. -1.
         24    2    1    2    0    0 -0.32367780154E+03 -0.42247269813E+03  0.52093865275E+03  0.74914116380E+03  0.81147418255E+02 0.  0.
        254    2    1    2    0    0  0.32367780154E+03  0.42247269813E+03 -0.50068366104E+03  0.11565612208E+04  0.89649273787E+03 0.  0.
         23    2    4    4    0    0 -0.16390504793E+03  0.39482744880E+03 -0.49542549194E+03  0.65990229227E+03  0.85270383024E+02 0.  0.
         23    2    4    4    0    0  0.48758284947E+03  0.27645249333E+02 -0.52581690983E+01  0.49665892849E+03  0.90228310410E+02 0.  0.
          2    1    3    3  502    0 -0.78062672125E+02 -0.14607370862E+03  0.12584164276E+03  0.20800824066E+03  0.00000000000E+00 0. -1.
         -1    1    3    3    0  502 -0.24561512942E+03 -0.27639898951E+03  0.39509700999E+03  0.54113292314E+03  0.00000000000E+00 0.  1.
         11    1    5    5    0    0 -0.50181350355E+02  0.45809320886E+02 -0.62718875343E+02  0.92467935673E+02  0.00000000000E+00 0.  1.
        -11    1    5    5    0    0 -0.11372369757E+03  0.34901812791E+03 -0.43270661660E+03  0.56743435660E+03  0.00000000000E+00 0. -1.
          3    1    6    6  503    0  0.44144010943E+03  0.27873057096E+01 -0.20956261659E+02  0.44194604217E+03  0.00000000000E+00 0. -1.
         -3    1    6    6    0  503  0.46142740040E+02  0.24857943623E+02  0.15698092560E+02  0.54712886321E+02  0.00000000000E+00 0.  1.
<mgrwt>
<rscale>  0 0.19055947E+04</rscale>
<asrwt>0</asrwt>
<pdfrwt beam="1">  1        2 0.14503441E+00 0.19055947E+04</pdfrwt>
<pdfrwt beam="2">  1       -1 0.14815057E+00 0.19055947E+04</pdfrwt>
<totfact> 0.10578452E+01</totfact>
</mgrwt>
</event>
<event>
12    6  0.8914180E-008  0.1761033E+04  0.7818608E-02  0.8727301E-01
          2   -1    0    0  501    0  0.00000000000E+00  0.00000000000E+00  0.84703434044E+03  0.84703434044E+03  0.00000000000E+00 0. -1.
         -1   -1    0    0    0  501 -0.00000000000E+00 -0.00000000000E+00 -0.91532192826E+03  0.91532192826E+03  0.00000000000E+00 0.  1.
         24    2    1    2    0    0  0.16190222684E+02  0.46274149604E+03 -0.46002153149E+03  0.65718164176E+03  0.76655628398E+02 0.  0.
        254    2    1    2    0    0 -0.16190222684E+02 -0.46274149604E+03  0.39173394367E+03  0.11051746269E+04  0.92388508914E+03 0.  0.
         23    2    4    4    0    0 -0.43435988242E+03 -0.38961805712E+03  0.15497173931E+03  0.61068836889E+03  0.91941862224E+02 0.  0.
         23    2    4    4    0    0  0.41816965973E+03 -0.73123438916E+02  0.23676220435E+03  0.49448625804E+03  0.90815286954E+02 0.  0.
          2    1    3    3  502    0  0.68731483553E+01  0.37141711119E+02 -0.71380055741E+02  0.80758028893E+02  0.00000000000E+00 0. -1.
         -1    1    3    3    0  502  0.93170743287E+01  0.42559978492E+03 -0.38864147575E+03  0.57642361287E+03  0.00000000000E+00 0.  1.
         11    1    5    5    0    0 -0.15934090203E+03 -0.20415296272E+03  0.66072021221E+02  0.26727040097E+03  0.00000000000E+00 0. -1.
        -11    1    5    5    0    0 -0.27501898039E+03 -0.18546509440E+03  0.88899718094E+02  0.34341796792E+03  0.00000000000E+00 0.  1.
          2    1    6    6  503    0  0.20552316998E+03 -0.66126287509E+02  0.15831233440E+03  0.26772234595E+03  0.00000000000E+00 0.  1.
         -2    1    6    6    0  503  0.21264648976E+03 -0.69971514074E+01  0.78449869953E+02  0.22676391210E+03  0.00000000000E+00 0. -1.
<mgrwt>
<rscale>  0 0.17610328E+04</rscale>
<asrwt>0</asrwt>
<pdfrwt beam="1">  1        2 0.13031297E+00 0.17610328E+04</pdfrwt>
<pdfrwt beam="2">  1       -1 0.14081876E+00 0.17610328E+04</pdfrwt>
<totfact> 0.14230658E+01</totfact>
</mgrwt>
</event>
<event>
12    6  0.8914180E-008  0.1354537E+04  0.7818608E-02  0.8987400E-01
         -3   -1    0    0    0  501 -0.00000000000E+00  0.00000000000E+00  0.11416005206E+04  0.11416005206E+04  0.00000000000E+00 0.  1.
          2   -1    0    0  501    0  0.00000000000E+00 -0.00000000000E+00 -0.40179811941E+03  0.40179811941E+03  0.00000000000E+00 0. -1.
         24    2    1    2    0    0  0.14782720384E+03 -0.33683432528E+03  0.27765826230E+03  0.46782907317E+03  0.80372173066E+02 0.  0.
        254    2    1    2    0    0 -0.14782720384E+03  0.33683432528E+03  0.46214413885E+03  0.10755695668E+04  0.89886731115E+03 0.  0.
         23    2    4    4    0    0 -0.18088084813E+03 -0.23150044430E+03  0.38480461560E+03  0.49435587937E+03  0.10001403078E+03 0.  0.
         23    2    4    4    0    0  0.33053644290E+02  0.56833476958E+03  0.77339523249E+02  0.58121368742E+03  0.87926076158E+02 0.  0.
          4    1    3    3  502    0  0.63122334777E+02 -0.16453896220E+03  0.18195001921E+03  0.25330477437E+03  0.00000000000E+00 0. -1.
         -3    1    3    3    0  502  0.84704869058E+02 -0.17229536308E+03  0.95708243090E+02  0.21452429880E+03  0.00000000000E+00 0.  1.
         11    1    5    5    0    0 -0.19183250539E+03 -0.21862241678E+03  0.34586448052E+03  0.45190453652E+03  0.00000000000E+00 0. -1.
        -11    1    5    5    0    0  0.10951657269E+02 -0.12878027527E+02  0.38940135082E+02  0.42451342854E+02  0.00000000000E+00 0.  1.
          2    1    6    6  503    0  0.40079460238E+02  0.40872781043E+03  0.91722189840E+02  0.42080606728E+03  0.00000000000E+00 0. -1.
         -2    1    6    6    0  503 -0.70258159475E+01  0.15960695915E+03 -0.14382666591E+02  0.16040762014E+03  0.00000000000E+00 0.  1.
<mgrwt>
<rscale>  0 0.13545375E+04</rscale>
<asrwt>0</asrwt>
<pdfrwt beam="1">  1        2 0.61815096E-01 0.13545375E+04</pdfrwt>
<pdfrwt beam="2">  1       -3 0.17563085E+00 0.13545375E+04</pdfrwt>
<totfact> 0.10220734E+01</totfact>
</mgrwt>
</event>
<event>
12    6  0.8914180E-008  0.1372288E+04  0.7818608E-02  0.8974126E-01
          2   -1    0    0  501    0  0.00000000000E+00  0.00000000000E+00  0.73128357224E+03  0.73128357224E+03  0.00000000000E+00 0. -1.
         -1   -1    0    0    0  501 -0.00000000000E+00 -0.00000000000E+00 -0.64379065146E+03  0.64379065146E+03  0.00000000000E+00 0.  1.
         24    2    1    2    0    0  0.19197977672E+03 -0.27451532484E+03 -0.16807946462E+03  0.38350256579E+03  0.81293377965E+02 0.  0.
        254    2    1    2    0    0 -0.19197977672E+03  0.27451532484E+03  0.25557238540E+03  0.99157165791E+03  0.89759802270E+03 0.  0.
         23    2    4    4    0    0  0.32471618690E+03 -0.49877365294E+02  0.96985504971E+02  0.35438723852E+03  0.90861284634E+02 0.  0.
         23    2    4    4    0    0 -0.51669596362E+03  0.32439269013E+03  0.15858688043E+03  0.63718441939E+03  0.92999190498E+02 0.  0.
          2    1    3    3  502    0 -0.51457265853E+01 -0.95887305156E+01 -0.17417500148E+02  0.20537564763E+02  0.00000000000E+00 0. -1.
         -1    1    3    3    0  502  0.19712550330E+03 -0.26492659432E+03 -0.15066196447E+03  0.36296500103E+03  0.00000000000E+00 0.  1.
         11    1    5    5    0    0  0.31189592306E+03 -0.67436856595E+02  0.91559954343E+02  0.33197894766E+03  0.00000000000E+00 0.  1.
        -11    1    5    5    0    0  0.12820263845E+02  0.17559491301E+02  0.54255506276E+01  0.22408290863E+02  0.00000000000E+00 0. -1.
          3    1    6    6  503    0 -0.27429630423E+03  0.18040859231E+03  0.37850168895E+02  0.33048200856E+03  0.00000000000E+00 0. -1.
         -3    1    6    6    0  503 -0.24239965939E+03  0.14398409782E+03  0.12073671153E+03  0.30670241083E+03  0.00000000000E+00 0.  1.
<mgrwt>
<rscale>  0 0.13722879E+04</rscale>
<asrwt>0</asrwt>
<pdfrwt beam="1">  1        2 0.11250517E+00 0.13722879E+04</pdfrwt>
<pdfrwt beam="2">  1       -1 0.99044716E-01 0.13722879E+04</pdfrwt>
<totfact> 0.42063112E+01</totfact>
</mgrwt>
</event>
<event>
12    6  0.8914180E-008  0.1535694E+04  0.7818608E-02  0.8861058E-01
         -1   -1    0    0    0  501 -0.00000000000E+00  0.00000000000E+00  0.66444034689E+03  0.66444034689E+03  0.00000000000E+00 0.  1.
          2   -1    0    0  501    0  0.00000000000E+00 -0.00000000000E+00 -0.88734699592E+03  0.88734699592E+03  0.00000000000E+00 0. -1.
         24    2    1    2    0    0  0.72968525658E+02 -0.49283835940E+03 -0.15801630876E+03  0.52858295618E+03  0.78846264999E+02 0.  0.
        254    2    1    2    0    0 -0.72968525658E+02  0.49283835940E+03 -0.64890340275E+02  0.10232043866E+04  0.89135986353E+03 0.  0.
         23    2    4    4    0    0 -0.46812742985E+02  0.74241737419E+03 -0.95829181954E+02  0.75433196389E+03  0.80364726307E+02 0.  0.
         23    2    4    4    0    0 -0.26155782673E+02 -0.24957901479E+03  0.30938841679E+02  0.26887242273E+03  0.91440462527E+02 0.  0.
          4    1    3    3  502    0  0.83493889758E+02 -0.47259065468E+03 -0.15948442957E+03  0.50571576977E+03  0.00000000000E+00 0. -1.
         -3    1    3    3    0  502 -0.10525364100E+02 -0.20247704721E+02  0.14681208158E+01  0.22867186417E+02  0.00000000000E+00 0.  1.
         11    1    5    5    0    0 -0.18446365084E+02  0.32202900106E+03 -0.15125980680E+01  0.32256043443E+03  0.00000000000E+00 0.  1.
        -11    1    5    5    0    0 -0.28366377901E+02  0.42038837313E+03 -0.94316583886E+02  0.43177152946E+03  0.00000000000E+00 0. -1.
          2    1    6    6  503    0 -0.47311789852E+02 -0.23634410796E+03  0.20773268007E+02  0.24192658285E+03  0.00000000000E+00 0. -1.
         -2    1    6    6    0  503  0.21156007179E+02 -0.13234906835E+02  0.10165573672E+02  0.26945839879E+02  0.00000000000E+00 0.  1.
<mgrwt>
<rscale>  0 0.15356942E+04</rscale>
<asrwt>0</asrwt>
<pdfrwt beam="1">  1        2 0.13651492E+00 0.15356942E+04</pdfrwt>
<pdfrwt beam="2">  1       -1 0.10222159E+00 0.15356942E+04</pdfrwt>
<totfact> 0.29813129E+01</totfact>
</mgrwt>
</event>
<event>
12    6  0.8914180E-008  0.2629587E+04  0.7818608E-02  0.8358220E-01
          2   -1    0    0  501    0  0.00000000000E+00  0.00000000000E+00  0.77171929582E+03  0.77171929582E+03  0.00000000000E+00 0. -1.
         -1   -1    0    0    0  501 -0.00000000000E+00 -0.00000000000E+00 -0.22400402488E+04  0.22400402488E+04  0.00000000000E+00 0.  1.
         24    2    1    2    0    0 -0.10918518623E+04 -0.34609893259E+03 -0.46313517920E+03  0.12380485283E+04  0.79655532589E+02 0.  0.
        254    2    1    2    0    0  0.10918518623E+04  0.34609893259E+03 -0.10051857737E+04  0.17737110163E+04  0.90759427576E+03 0.  0.
         23    2    4    4    0    0  0.67500455034E+03  0.35793577807E+03 -0.10458961174E+03  0.77707245935E+03  0.95673695405E+02 0.  0.
         23    2    4    4    0    0  0.41684731192E+03 -0.11836845478E+02 -0.90059616200E+03  0.99663855696E+03  0.91176608031E+02 0.  0.
          4    1    3    3  502    0 -0.35811797578E+03 -0.14101816753E+03 -0.18471779860E+03  0.42691366020E+03  0.00000000000E+00 0. -1.
         -3    1    3    3    0  502 -0.73373388648E+03 -0.20508076506E+03 -0.27841738061E+03  0.81113486807E+03  0.00000000000E+00 0.  1.
         11    1    5    5    0    0  0.58407140008E+03  0.28580442649E+03 -0.61056209078E+02  0.65310905006E+03  0.00000000000E+00 0.  1.
        -11    1    5    5    0    0  0.90933150258E+02  0.72131351580E+02 -0.43533402665E+02  0.12396340930E+03  0.00000000000E+00 0. -1.
          4    1    6    6  503    0  0.42209411801E+02  0.18271896332E+01 -0.41098683922E+02  0.58941283381E+02  0.00000000000E+00 0. -1.
         -4    1    6    6    0  503  0.37463790012E+03 -0.13664035111E+02 -0.85949747808E+03  0.93769727358E+03  0.00000000000E+00 0.  1.
<mgrwt>
<rscale>  0 0.26295873E+04</rscale>
<asrwt>0</asrwt>
<pdfrwt beam="1">  1        2 0.11872605E+00 0.26295873E+04</pdfrwt>
<pdfrwt beam="2">  1       -1 0.34462157E+00 0.26295873E+04</pdfrwt>
<totfact> 0.61321218E-01</totfact>
</mgrwt>
</event>
<event>
12    6  0.8914180E-008  0.2171101E+04  0.7818608E-02  0.8530553E-01
          2   -1    0    0  501    0  0.00000000000E+00  0.00000000000E+00  0.12353032441E+04  0.12353032441E+04  0.00000000000E+00 0. -1.
         -1   -1    0    0    0  501 -0.00000000000E+00 -0.00000000000E+00 -0.95395225532E+03  0.95395225532E+03  0.00000000000E+00 0.  1.
         24    2    1    2    0    0  0.42701720134E+03 -0.51193739066E+03  0.72258440683E+03  0.98631698373E+03  0.79179449436E+02 0.  0.
        254    2    1    2    0    0 -0.42701720134E+03  0.51193739066E+03 -0.44123341809E+03  0.12029385157E+04  0.89886070168E+03 0.  0.
         23    2    4    4    0    0 -0.40020209578E+03  0.45367629819E+01  0.13226539697E+03  0.43111787634E+03  0.90477557310E+02 0.  0.
         23    2    4    4    0    0 -0.26815105558E+02  0.50740062767E+03 -0.57349881506E+03  0.77182063932E+03  0.92907273982E+02 0.  0.
          2    1    3    3  502    0  0.27460358439E+03 -0.36682339055E+03  0.53493251247E+03  0.70435738181E+03  0.00000000000E+00 0. -1.
         -1    1    3    3    0  502  0.15241361695E+03 -0.14511400011E+03  0.18765189436E+03  0.28195960193E+03  0.00000000000E+00 0.  1.
         11    1    5    5    0    0 -0.24225895953E+03  0.41930563541E+02  0.57916794663E+02  0.25259044070E+03  0.00000000000E+00 0.  1.
        -11    1    5    5    0    0 -0.15794313625E+03 -0.37393800559E+02  0.74348602302E+02  0.17852743563E+03  0.00000000000E+00 0. -1.
          3    1    6    6  503    0 -0.30099230823E+01  0.30745480266E+03 -0.27978552565E+03  0.41571318920E+03  0.00000000000E+00 0. -1.
         -3    1    6    6    0  503 -0.23805182475E+02  0.19994582502E+03 -0.29371328941E+03  0.35610745012E+03  0.00000000000E+00 0.  1.
<mgrwt>
<rscale>  0 0.21711014E+04</rscale>
<asrwt>0</asrwt>
<pdfrwt beam="1">  1        2 0.19004665E+00 0.21711014E+04</pdfrwt>
<pdfrwt beam="2">  1       -1 0.14676189E+00 0.21711014E+04</pdfrwt>
<totfact> 0.69732488E+00</totfact>
</mgrwt>
</event>
<event>
12    6  0.8914180E-008  0.1683986E+04  0.7818608E-02  0.8770551E-01
         -1   -1    0    0    0  501 -0.00000000000E+00  0.00000000000E+00  0.61179642975E+03  0.61179642975E+03  0.00000000000E+00 0.  1.
          2   -1    0    0  501    0  0.00000000000E+00 -0.00000000000E+00 -0.11588035553E+04  0.11588035553E+04  0.00000000000E+00 0. -1.
         24    2    1    2    0    0  0.51575729410E+03  0.57291531420E+02  0.12475799606E+03  0.53986815086E+03  0.81272115388E+02 0.  0.
        254    2    1    2    0    0 -0.51575729410E+03 -0.57291531420E+02 -0.67176512165E+03  0.12307318342E+04  0.89114789073E+03 0.  0.
         23    2    4    4    0    0 -0.63265777171E+03 -0.12998020477E+03 -0.13013684107E+03  0.66462873320E+03  0.87435952897E+02 0.  0.
         23    2    4    4    0    0  0.11690047761E+03  0.72688673345E+02 -0.54162828059E+03  0.56610310103E+03  0.90344683126E+02 0.  0.
          2    1    3    3  502    0  0.11148441151E+03  0.26221340288E+02  0.59910604852E+02  0.12925019640E+03  0.00000000000E+00 0. -1.
         -1    1    3    3    0  502  0.40427288259E+03  0.31070191132E+02  0.64847391209E+02  0.41061795446E+03  0.00000000000E+00 0.  1.
         11    1    5    5    0    0 -0.50488296879E+03 -0.11843682303E+03 -0.71234569185E+02  0.52345817127E+03  0.00000000000E+00 0. -1.
        -11    1    5    5    0    0 -0.12777480292E+03 -0.11543381738E+02 -0.58902271882E+02  0.14117056193E+03  0.00000000000E+00 0.  1.
          1    1    6    6  503    0  0.36752372719E+02  0.23344232091E+02 -0.34905283319E+03  0.35175782924E+03  0.00000000000E+00 0. -1.
         -1    1    6    6    0  503  0.80148104895E+02  0.49344441254E+02 -0.19257544740E+03  0.21434527180E+03  0.00000000000E+00 0.  1.
<mgrwt>
<rscale>  0 0.16839856E+04</rscale>
<asrwt>0</asrwt>
<pdfrwt beam="1">  1        2 0.17827747E+00 0.16839856E+04</pdfrwt>
<pdfrwt beam="2">  1       -1 0.94122529E-01 0.16839856E+04</pdfrwt>
<totfact> 0.23825475E+01</totfact>
</mgrwt>
</event>
<event>
12    6  0.8914180E-008  0.3524947E+04  0.7818608E-02  0.8107903E-01
          2   -1    0    0  501    0  0.00000000000E+00  0.00000000000E+00  0.36623681666E+04  0.36623681666E+04  0.00000000000E+00 0. -1.
         -1   -1    0    0    0  501 -0.00000000000E+00 -0.00000000000E+00 -0.84817039915E+03  0.84817039915E+03  0.00000000000E+00 0.  1.
         24    2    1    2    0    0  0.14327923759E+04 -0.79269600808E+03  0.11002159319E+04  0.19743971346E+04  0.80672143266E+02 0.  0.
        254    2    1    2    0    0 -0.14327923759E+04  0.79269600808E+03  0.17139818356E+04  0.25361414312E+04  0.90167548074E+03 0.  0.
         23    2    4    4    0    0 -0.12190304883E+04  0.62552514438E+03  0.82449620031E+03  0.16017535530E+04  0.92214003971E+02 0.  0.
         23    2    4    4    0    0 -0.21376188755E+03  0.16717086370E+03  0.88948563526E+03  0.93438787814E+03  0.90861263741E+02 0.  0.
          4    1    3    3  502    0  0.17136680979E+03 -0.11111856076E+03  0.11076285303E+03  0.23234097283E+03  0.00000000000E+00 0. -1.
         -1    1    3    3    0  502  0.12614255661E+04 -0.68157744732E+03  0.98945307886E+03  0.17420561618E+04  0.00000000000E+00 0.  1.
         11    1    5    5    0    0 -0.11221456331E+04  0.60166645568E+03  0.77164009314E+03  0.14888390709E+04  0.00000000000E+00 0. -1.
        -11    1    5    5    0    0 -0.96884855230E+02  0.23858688705E+02  0.52856107162E+02  0.11291448208E+03  0.00000000000E+00 0.  1.
          2    1    6    6  503    0 -0.13665658220E+03  0.54754199687E+02  0.52477575154E+03  0.54503452482E+03  0.00000000000E+00 0. -1.
         -2    1    6    6    0  503 -0.77105305345E+02  0.11241666401E+03  0.36470988372E+03  0.38935335333E+03  0.00000000000E+00 0.  1.
<mgrwt>
<rscale>  0 0.35249467E+04</rscale>
<asrwt>0</asrwt>
<pdfrwt beam="1">  1        2 0.56344125E+00 0.35249467E+04</pdfrwt>
<pdfrwt beam="2">  1       -1 0.13048776E+00 0.35249467E+04</pdfrwt>
<totfact> 0.29031241E-01</totfact>
</mgrwt>
</event>
<event>
12    6  0.8914180E-008  0.1459726E+04  0.7818608E-02  0.8911685E-01
         -1   -1    0    0    0  501 -0.00000000000E+00  0.00000000000E+00  0.39037238794E+03  0.39037238794E+03  0.00000000000E+00 0.  1.
          2   -1    0    0  501    0  0.00000000000E+00 -0.00000000000E+00 -0.13645942186E+04  0.13645942186E+04  0.00000000000E+00 0. -1.
         24    2    1    2    0    0 -0.93706486551E+01  0.38963426761E+03 -0.52413712998E+02  0.40108229088E+03  0.78848812272E+02 0.  0.
        254    2    1    2    0    0  0.93706486551E+01 -0.38963426761E+03 -0.92180811768E+03  0.13538843157E+04  0.91179485788E+03 0.  0.
         23    2    4    4    0    0  0.16147199067E+03  0.47446253548E+02  0.10830587300E+03  0.22079534395E+03  0.93252726712E+02 0.  0.
         23    2    4    4    0    0 -0.15210134202E+03 -0.43708052115E+03 -0.10301139907E+04  0.11330889717E+04  0.92636838389E+02 0.  0.
          2    1    3    3  502    0 -0.18518978924E+02  0.20810290013E+02 -0.10505708113E+02  0.29772313544E+02  0.00000000000E+00 0. -1.
         -1    1    3    3    0  502  0.91483302688E+01  0.36882397759E+03 -0.41908004885E+02  0.37130997733E+03  0.00000000000E+00 0.  1.
         11    1    5    5    0    0  0.13657929843E+03 -0.22895042821E+01  0.81384192989E+02  0.15900482212E+03  0.00000000000E+00 0. -1.
        -11    1    5    5    0    0  0.24892692242E+02  0.49735757830E+02  0.26921680006E+02  0.61790521832E+02  0.00000000000E+00 0.  1.
          1    1    6    6  503    0 -0.42872871832E+02 -0.81720984916E+02 -0.13190231231E+03  0.16098019291E+03  0.00000000000E+00 0. -1.
         -1    1    6    6    0  503 -0.10922847018E+03 -0.35535953624E+03 -0.89821167836E+03  0.97210877881E+03  0.00000000000E+00 0.  1.
<mgrwt>
<rscale>  0 0.14597259E+04</rscale>
<asrwt>0</asrwt>
<pdfrwt beam="1">  1        2 0.20993757E+00 0.14597259E+04</pdfrwt>
<pdfrwt beam="2">  1       -1 0.60057291E-01 0.14597259E+04</pdfrwt>
<totfact> 0.47086253E+01</totfact>
</mgrwt>
</event>
<event>
12    6  0.8914180E-008  0.1743853E+04  0.7818608E-02  0.8736741E-01
         -1   -1    0    0    0  501 -0.00000000000E+00  0.00000000000E+00  0.75619976862E+03  0.75619976862E+03  0.00000000000E+00 0.  1.
          2   -1    0    0  501    0  0.00000000000E+00 -0.00000000000E+00 -0.10053636619E+04  0.10053636619E+04  0.00000000000E+00 0. -1.
         24    2    1    2    0    0  0.22781232552E+03  0.24359522017E+03  0.46563864569E+03  0.57849707771E+03  0.81255360479E+02 0.  0.
        254    2    1    2    0    0 -0.22781232552E+03 -0.24359522017E+03 -0.71480253899E+03  0.11830663528E+04  0.88174045982E+03 0.  0.
         23    2    4    4    0    0 -0.38867020907E+03 -0.36789120453E+03 -0.13111180303E+03  0.55833106662E+03  0.90193155369E+02 0.  0.
         23    2    4    4    0    0  0.16085788355E+03  0.12429598436E+03 -0.58369073596E+03  0.62473528620E+03  0.90964565354E+02 0.  0.
          4    1    3    3  502    0  0.69142011013E+02  0.47319366874E+02  0.69840020150E+02  0.10907505940E+03  0.00000000000E+00 0. -1.
         -3    1    3    3    0  502  0.15867031451E+03  0.19627585329E+03  0.39579862554E+03  0.46942201831E+03  0.00000000000E+00 0.  1.
         11    1    5    5    0    0 -0.22636286753E+03 -0.25607271891E+03 -0.50949395172E+02  0.34555640066E+03  0.00000000000E+00 0. -1.
        -11    1    5    5    0    0 -0.16230734154E+03 -0.11181848562E+03 -0.80162407861E+02  0.21277466596E+03  0.00000000000E+00 0.  1.
          4    1    6    6  503    0  0.38982164539E+02 -0.11090452334E+02 -0.10927303820E+03  0.11654700409E+03  0.00000000000E+00 0.  1.
         -4    1    6    6    0  503  0.12187571901E+03  0.13538643669E+03 -0.47441769776E+03  0.50818828211E+03  0.00000000000E+00 0. -1.
<mgrwt>
<rscale>  0 0.17438529E+04</rscale>
<asrwt>0</asrwt>
<pdfrwt beam="1">  1        2 0.15467133E+00 0.17438529E+04</pdfrwt>
<pdfrwt beam="2">  1       -1 0.11633843E+00 0.17438529E+04</pdfrwt>
<totfact> 0.18049988E+01</totfact>
</mgrwt>
</event>
<event>
12    6  0.8914180E-008  0.1813449E+04  0.7818608E-02  0.8699180E-01
         -1   -1    0    0    0  501 -0.00000000000E+00  0.00000000000E+00  0.65442942138E+03  0.65442942138E+03  0.00000000000E+00 0.  1.
          2   -1    0    0  501    0  0.00000000000E+00 -0.00000000000E+00 -0.12562845345E+04  0.12562845345E+04  0.00000000000E+00 0. -1.
         24    2    1    2    0    0  0.12799604712E+03  0.18335479483E+03 -0.90510918991E+03  0.93572395971E+03  0.79716461572E+02 0.  0.
        254    2    1    2    0    0 -0.12799604712E+03 -0.18335479483E+03  0.30325407679E+03  0.97498999618E+03  0.89924439875E+03 0.  0.
         23    2    4    4    0    0  0.14627286063E+03 -0.36835874662E+03  0.44517575137E+03  0.60286642952E+03  0.90457538497E+02 0.  0.
         23    2    4    4    0    0 -0.27426890775E+03  0.18500395179E+03 -0.14192167459E+03  0.37212356665E+03  0.94256518100E+02 0.  0.
          2    1    3    3  502    0  0.53768440089E+02  0.13662949997E+03 -0.63398855678E+03  0.65076889565E+03  0.00000000000E+00 0. -1.
         -1    1    3    3    0  502  0.74227607035E+02  0.46725294854E+02 -0.27112063313E+03  0.28495506406E+03  0.00000000000E+00 0.  1.
         11    1    5    5    0    0  0.14120262880E+03 -0.24777153757E+03  0.29687834893E+03  0.41166208384E+03  0.00000000000E+00 0. -1.
        -11    1    5    5    0    0  0.50702318305E+01 -0.12058720905E+03  0.14829740244E+03  0.19120434569E+03  0.00000000000E+00 0.  1.
          3    1    6    6  503    0 -0.22383612317E+03  0.12810851566E+03 -0.69459966920E+02  0.26709378283E+03  0.00000000000E+00 0. -1.
         -3    1    6    6    0  503 -0.50432784586E+02  0.56895436125E+02 -0.72461707666E+02  0.10502978383E+03  0.00000000000E+00 0.  1.
<mgrwt>
<rscale>  0 0.18134493E+04</rscale>
<asrwt>0</asrwt>
<pdfrwt beam="1">  1        2 0.19327454E+00 0.18134493E+04</pdfrwt>
<pdfrwt beam="2">  1       -1 0.10068145E+00 0.18134493E+04</pdfrwt>
<totfact> 0.17694987E+01</totfact>
</mgrwt>
</event>
<event>
12    6  0.8914180E-008  0.1303703E+04  0.7818608E-02  0.9026634E-01
          2   -1    0    0  501    0  0.00000000000E+00  0.00000000000E+00  0.17395828175E+04  0.17395828175E+04  0.00000000000E+00 0. -1.
         -1   -1    0    0    0  501 -0.00000000000E+00 -0.00000000000E+00 -0.24425974484E+03  0.24425974484E+03  0.00000000000E+00 0.  1.
         24    2    1    2    0    0  0.24305134921E+03  0.18165346819E+03  0.19830683803E+03  0.37062552207E+03  0.77238168959E+02 0.  0.
        254    2    1    2    0    0 -0.24305134921E+03 -0.18165346819E+03  0.12970162347E+04  0.16132170403E+04  0.91002536519E+03 0.  0.
         23    2    4    4    0    0 -0.37753681206E+03 -0.47618799397E+03  0.93826390812E+03  0.11215742451E+04  0.91107496263E+02 0.  0.
         23    2    4    4    0    0  0.13448546286E+03  0.29453452578E+03  0.35875232655E+03  0.49164279523E+03  0.90401768232E+02 0.  0.
          4    1    3    3  502    0  0.15181624731E+03  0.14671535971E+03  0.16307258087E+03  0.26677000647E+03  0.00000000000E+00 0. -1.
         -3    1    3    3    0  502  0.91235101902E+02  0.34938108483E+02  0.35234257160E+02  0.10385551560E+03  0.00000000000E+00 0.  1.
         11    1    5    5    0    0 -0.78111103266E+02 -0.13406869941E+03  0.30252129479E+03  0.33999249170E+03  0.00000000000E+00 0. -1.
        -11    1    5    5    0    0 -0.29942570880E+03 -0.34211929456E+03  0.63574261333E+03  0.78158175337E+03  0.00000000000E+00 0.  1.
          1    1    6    6  503    0 -0.34463920632E+01  0.13764206343E+01  0.29450192836E+02  0.29683093001E+02  0.00000000000E+00 0. -1.
         -1    1    6    6    0  503  0.13793185492E+03  0.29315810515E+03  0.32930213371E+03  0.46195970223E+03  0.00000000000E+00 0.  1.
<mgrwt>
<rscale>  0 0.13037025E+04</rscale>
<asrwt>0</asrwt>
<pdfrwt beam="1">  1        2 0.26762812E+00 0.13037025E+04</pdfrwt>
<pdfrwt beam="2">  1       -1 0.37578423E-01 0.13037025E+04</pdfrwt>
<totfact> 0.71032174E+01</totfact>
</mgrwt>
</event>
<event>
12    6  0.8914180E-008  0.1776145E+04  0.7818608E-02  0.8719089E-01
         -1   -1    0    0    0  501 -0.00000000000E+00  0.00000000000E+00  0.94819682697E+03  0.94819682697E+03  0.00000000000E+00 0.  1.
          2   -1    0    0  501    0  0.00000000000E+00 -0.00000000000E+00 -0.83176030051E+03  0.83176030051E+03  0.00000000000E+00 0. -1.
         24    2    1    2    0    0  0.49271713958E+03  0.25884946950E+03 -0.30927441307E+03  0.64163962962E+03  0.79230828723E+02 0.  0.
        254    2    1    2    0    0 -0.49271713958E+03 -0.25884946950E+03  0.42571093953E+03  0.11383174979E+04  0.89708622463E+03 0.  0.
         23    2    4    4    0    0 -0.51328260307E+03 -0.53530985889E+03  0.38619500198E+03  0.84130587964E+03  0.92915703343E+02 0.  0.
         23    2    4    4    0    0  0.20565463491E+02  0.27646038938E+03  0.39515937558E+02  0.29701161823E+03  0.99000539673E+02 0.  0.
          4    1    3    3  502    0  0.42667642227E+03  0.23984050832E+03 -0.24421947662E+03  0.54700949856E+03  0.00000000000E+00 0. -1.
         -3    1    3    3    0  502  0.66040717306E+02  0.19008961185E+02 -0.65054936452E+02  0.94630131060E+02  0.00000000000E+00 0.  1.
         11    1    5    5    0    0 -0.16925514527E+03 -0.20892093005E+03  0.96878793525E+02  0.28579846019E+03  0.00000000000E+00 0.  1.
        -11    1    5    5    0    0 -0.34402745780E+03 -0.32638892884E+03  0.28931620845E+03  0.55550741945E+03  0.00000000000E+00 0. -1.
          1    1    6    6  503    0  0.21157155962E+01  0.86454698435E+00 -0.15251337063E+02  0.15421639867E+02  0.00000000000E+00 0. -1.
         -1    1    6    6    0  503  0.18449747895E+02  0.27559584240E+03  0.54767274621E+02  0.28158997836E+03  0.00000000000E+00 0.  1.
<mgrwt>
<rscale>  0 0.17761447E+04</rscale>
<asrwt>0</asrwt>
<pdfrwt beam="1">  1        2 0.12796312E+00 0.17761447E+04</pdfrwt>
<pdfrwt beam="2">  1       -1 0.14587644E+00 0.17761447E+04</pdfrwt>
<totfact> 0.13271114E+01</totfact>
</mgrwt>
</event>
<event>
12    6  0.8914180E-008  0.1824291E+04  0.7818608E-02  0.8693488E-01
          2   -1    0    0  501    0  0.00000000000E+00  0.00000000000E+00  0.72394083301E+03  0.72394083301E+03  0.00000000000E+00 0. -1.
         -1   -1    0    0    0  501 -0.00000000000E+00 -0.00000000000E+00 -0.11492776310E+04  0.11492776310E+04  0.00000000000E+00 0.  1.
         24    2    1    2    0    0  0.30635447549E+03 -0.29366755471E+03 -0.72227254328E+03  0.84146496791E+03  0.79321927057E+02 0.  0.
        254    2    1    2    0    0 -0.30635447549E+03  0.29366755471E+03  0.29693574532E+03  0.10317534961E+04  0.89232883089E+03 0.  0.
         23    2    4    4    0    0 -0.15057175032E+03  0.51315285362E+03 -0.88540930783E+02  0.55059003376E+03  0.96499666679E+02 0.  0.
         23    2    4    4    0    0 -0.15578272517E+03 -0.21948529892E+03  0.38547667610E+03  0.48116346230E+03  0.10239118973E+03 0.  0.
          2    1    3    3  502    0  0.10244922942E+03 -0.10925869180E+03 -0.18582771037E+03  0.23867392879E+03  0.00000000000E+00 0. -1.
         -1    1    3    3    0  502  0.20390524607E+03 -0.18440886290E+03 -0.53644483291E+03  0.60279103912E+03  0.00000000000E+00 0.  1.
         11    1    5    5    0    0  0.29512455844E+01 -0.16880354196E+01 -0.62030930263E+01  0.70737314884E+01  0.00000000000E+00 0. -1.
        -11    1    5    5    0    0 -0.15352299591E+03  0.51484088904E+03 -0.82337837756E+02  0.54351630227E+03  0.00000000000E+00 0.  1.
          4    1    6    6  503    0 -0.18623857639E+02 -0.16859181994E+02  0.64288450678E+00  0.25129532255E+02  0.00000000000E+00 0. -1.
         -4    1    6    6    0  503 -0.13715886753E+03 -0.20262611692E+03  0.38483379159E+03  0.45603393005E+03  0.00000000000E+00 0.  1.
<mgrwt>
<rscale>  0 0.18242906E+04</rscale>
<asrwt>0</asrwt>
<pdfrwt beam="1">  1        2 0.11137551E+00 0.18242906E+04</pdfrwt>
<pdfrwt beam="2">  1       -1 0.17681194E+00 0.18242906E+04</pdfrwt>
<totfact> 0.92653637E+00</totfact>
</mgrwt>
</event>
<event>
12    6  0.8914180E-008  0.1739459E+04  0.7818608E-02  0.8739174E-01
         -1   -1    0    0    0  501 -0.00000000000E+00  0.00000000000E+00  0.93690614942E+03  0.93690614942E+03  0.00000000000E+00 0.  1.
          2   -1    0    0  501    0  0.00000000000E+00 -0.00000000000E+00 -0.80736989335E+03  0.80736989335E+03  0.00000000000E+00 0. -1.
         24    2    1    2    0    0 -0.32827490388E+03  0.27226135025E+03  0.52857422512E+03  0.68388094235E+03  0.80073569223E+02 0.  0.
        254    2    1    2    0    0  0.32827490388E+03 -0.27226135025E+03 -0.39903796906E+03  0.10603951004E+04  0.88505130524E+03 0.  0.
         23    2    4    4    0    0 -0.21243811734E+03 -0.21980169574E+02 -0.39421871075E+03  0.45770219998E+03  0.92031681568E+02 0.  0.
         23    2    4    4    0    0  0.54071302121E+03 -0.25028118067E+03 -0.48192583074E+01  0.60269290044E+03  0.90577404902E+02 0.  0.
          4    1    3    3  502    0 -0.16804275954E+03  0.10603835143E+03  0.29309812696E+03  0.35410311074E+03  0.00000000000E+00 0. -1.
         -3    1    3    3    0  502 -0.16023214434E+03  0.16622299881E+03  0.23547609816E+03  0.32977783161E+03  0.00000000000E+00 0.  1.
         11    1    5    5    0    0 -0.62800177674E+01 -0.21194974548E+02 -0.17238349661E+02  0.28032592964E+02  0.00000000000E+00 0.  1.
        -11    1    5    5    0    0 -0.20615809957E+03 -0.78519502597E+00 -0.37698036109E+03  0.42966960702E+03  0.00000000000E+00 0. -1.
          3    1    6    6  503    0  0.38986707935E+03 -0.20354750911E+03 -0.37594245573E+02  0.44140826377E+03  0.00000000000E+00 0. -1.
         -3    1    6    6    0  503  0.15084594186E+03 -0.46733671566E+02  0.32774987266E+02  0.16128463667E+03  0.00000000000E+00 0.  1.
<mgrwt>
<rscale>  0 0.17394595E+04</rscale>
<asrwt>0</asrwt>
<pdfrwt beam="1">  1        2 0.12421075E+00 0.17394595E+04</pdfrwt>
<pdfrwt beam="2">  1       -1 0.14413941E+00 0.17394595E+04</pdfrwt>
<totfact> 0.14304088E+01</totfact>
</mgrwt>
</event>
<event>
12    6  0.8914180E-008  0.1791011E+04  0.7818608E-02  0.8711094E-01
          2   -1    0    0  501    0  0.00000000000E+00  0.00000000000E+00  0.17879334895E+04  0.17879334895E+04  0.00000000000E+00 0. -1.
         -1   -1    0    0    0  501 -0.00000000000E+00 -0.00000000000E+00 -0.44852369010E+03  0.44852369010E+03  0.00000000000E+00 0.  1.
         24    2    1    2    0    0  0.66799506473E+03  0.16405601654E+02  0.53362630456E+03  0.85888888662E+03  0.80290325486E+02 0.  0.
        254    2    1    2    0    0 -0.66799506473E+03 -0.16405601654E+02  0.80578349487E+03  0.13775682930E+04  0.89550031325E+03 0.  0.
         23    2    4    4    0    0 -0.51327964554E+03  0.39578954995E+03  0.57919630925E+03  0.87414180129E+03  0.92467084625E+02 0.  0.
         23    2    4    4    0    0 -0.15471541919E+03 -0.41219515161E+03  0.22658718562E+03  0.50342649172E+03  0.90855797474E+02 0.  0.
          4    1    3    3  502    0  0.79249689345E+02 -0.12637449681E+02  0.38189227921E+02  0.88874268070E+02  0.00000000000E+00 0. -1.
         -1    1    3    3    0  502  0.58874537538E+03  0.29043051335E+02  0.49543707664E+03  0.77001461855E+03  0.00000000000E+00 0.  1.
         11    1    5    5    0    0 -0.27457535372E+03  0.22534656694E+03  0.25697805052E+03  0.43841808648E+03  0.00000000000E+00 0. -1.
        -11    1    5    5    0    0 -0.23870429182E+03  0.17044298301E+03  0.32221825873E+03  0.43572371481E+03  0.00000000000E+00 0.  1.
          2    1    6    6  503    0 -0.15563552916E+03 -0.35473451006E+03  0.22024805599E+03  0.44560991543E+03  0.00000000000E+00 0. -1.
         -2    1    6    6    0  503  0.92010996960E+00 -0.57460641545E+02  0.63391296336E+01  0.57816576287E+02  0.00000000000E+00 0.  1.
<mgrwt>
<rscale>  0 0.17910115E+04</rscale>
<asrwt>0</asrwt>
<pdfrwt beam="1">  1        2 0.27506669E+00 0.17910115E+04</pdfrwt>
<pdfrwt beam="2">  1       -1 0.69003646E-01 0.17910115E+04</pdfrwt>
<totfact> 0.20035526E+01</totfact>
</mgrwt>
</event>
<event>
12    6  0.8914180E-008  0.1822348E+04  0.7818608E-02  0.8694505E-01
         -1   -1    0    0    0  501 -0.00000000000E+00  0.00000000000E+00  0.15924419726E+04  0.15924419726E+04  0.00000000000E+00 0.  1.
          2   -1    0    0  501    0  0.00000000000E+00 -0.00000000000E+00 -0.52136145643E+03  0.52136145643E+03  0.00000000000E+00 0. -1.
         24    2    1    2    0    0  0.23787947969E+02 -0.15530716855E+03 -0.36727399086E+03  0.40734640182E+03  0.79716520538E+02 0.  0.
        254    2    1    2    0    0 -0.23787947969E+02  0.15530716855E+03  0.14383545070E+04  0.17064570272E+04  0.90467989629E+03 0.  0.
         23    2    4    4    0    0  0.14299060633E+03  0.43900168215E+03  0.11995552673E+04  0.12888166122E+04  0.94586628567E+02 0.  0.
         23    2    4    4    0    0 -0.16677855430E+03 -0.28369451360E+03  0.23879923978E+03  0.41764041499E+03  0.95397987900E+02 0.  0.
          4    1    3    3  502    0 -0.65395942252E+01 -0.11787143758E+03 -0.19040030504E+03  0.22402838715E+03  0.00000000000E+00 0. -1.
         -3    1    3    3    0  502  0.30327542194E+02 -0.37435730965E+02 -0.17687368582E+03  0.18331801467E+03  0.00000000000E+00 0.  1.
         11    1    5    5    0    0  0.13217116478E+03  0.28399634105E+03  0.86399499315E+03  0.91902692383E+03  0.00000000000E+00 0. -1.
        -11    1    5    5    0    0  0.10819441553E+02  0.15500534110E+03  0.33556027412E+03  0.36978968840E+03  0.00000000000E+00 0.  1.
          1    1    6    6  503    0 -0.14946124394E+03 -0.16915024962E+03  0.14197563371E+03  0.26665999129E+03  0.00000000000E+00 0. -1.
         -1    1    6    6    0  503 -0.17317310354E+02 -0.11454426399E+03  0.96823606068E+02  0.15098042371E+03  0.00000000000E+00 0.  1.
<mgrwt>
<rscale>  0 0.18223478E+04</rscale>
<asrwt>0</asrwt>
<pdfrwt beam="1">  1        2 0.80209456E-01 0.18223478E+04</pdfrwt>
<pdfrwt beam="2">  1       -1 0.24499107E+00 0.18223478E+04</pdfrwt>
<totfact> 0.47474333E+00</totfact>
</mgrwt>
</event>
<event>
12    6  0.8914180E-008  0.1879607E+04  0.7818608E-02  0.8665074E-01
          2   -1    0    0  501    0  0.00000000000E+00  0.00000000000E+00  0.36766675406E+03  0.36766675406E+03  0.00000000000E+00 0. -1.
         -1   -1    0    0    0  501 -0.00000000000E+00 -0.00000000000E+00 -0.24022586166E+04  0.24022586166E+04  0.00000000000E+00 0.  1.
         24    2    1    2    0    0  0.70449101706E+03  0.97030718220E+02 -0.62127439421E+03  0.94770955993E+03  0.80305564591E+02 0.  0.
        254    2    1    2    0    0 -0.70449101706E+03 -0.97030718220E+02 -0.14133174684E+04  0.18222158107E+04  0.90403630523E+03 0.  0.
         23    2    4    4    0    0  0.14484338093E+03 -0.21888728814E+03 -0.45169924473E+03  0.53037069516E+03  0.91485609190E+02 0.  0.
         23    2    4    4    0    0 -0.84933439799E+03  0.12185656992E+03 -0.96161822364E+03  0.12918451156E+04  0.89085640820E+02 0.  0.
          2    1    3    3  502    0  0.59773631316E+03  0.58671851648E+02 -0.54493048593E+03  0.81097491992E+03  0.00000000000E+00 0. -1.
         -1    1    3    3    0  502  0.10675470389E+03  0.38358866572E+02 -0.76343908275E+02  0.13673464001E+03  0.00000000000E+00 0.  1.
         11    1    5    5    0    0  0.64308520866E+02 -0.16773250587E+03 -0.25708358814E+03  0.31362676970E+03  0.00000000000E+00 0.  1.
        -11    1    5    5    0    0  0.80534860069E+02 -0.51154782268E+02 -0.19461565659E+03  0.21674392546E+03  0.00000000000E+00 0. -1.
          3    1    6    6  503    0 -0.37737766457E+03  0.28712641962E+02 -0.36938020548E+03  0.52884785499E+03  0.00000000000E+00 0. -1.
         -3    1    6    6    0  503 -0.47195673342E+03  0.93143927957E+02 -0.59223801816E+03  0.76299726060E+03  0.00000000000E+00 0.  1.
<mgrwt>
<rscale>  0 0.18796070E+04</rscale>
<asrwt>0</asrwt>
<pdfrwt beam="1">  1        2 0.56564117E-01 0.18796070E+04</pdfrwt>
<pdfrwt beam="2">  1       -1 0.36957824E+00 0.18796070E+04</pdfrwt>
<totfact> 0.10812518E+00</totfact>
</mgrwt>
</event>
<event>
12    6  0.8914180E-008  0.2074699E+04  0.7818608E-02  0.8572471E-01
         -1   -1    0    0    0  501 -0.00000000000E+00  0.00000000000E+00  0.18213466675E+04  0.18213466675E+04  0.00000000000E+00 0.  1.
          2   -1    0    0  501    0  0.00000000000E+00 -0.00000000000E+00 -0.59082337884E+03  0.59082337884E+03  0.00000000000E+00 0. -1.
         24    2    1    2    0    0  0.64251772757E+03 -0.51774367284E+03  0.67182005902E+03  0.10670083692E+04  0.79228323973E+02 0.  0.
        254    2    1    2    0    0 -0.64251772757E+03  0.51774367284E+03  0.55870322962E+03  0.13451616771E+04  0.90356134141E+03 0.  0.
         23    2    4    4    0    0 -0.32354745952E+03 -0.91274879752E+02 -0.12521296327E+03  0.37059933903E+03  0.93013556429E+02 0.  0.
         23    2    4    4    0    0 -0.31897026805E+03  0.60901855259E+03  0.68391619288E+03  0.97456233805E+03  0.96874984195E+02 0.  0.
          4    1    3    3  502    0  0.43387851876E+03 -0.34601901810E+03  0.49851811839E+03  0.74598930575E+03  0.00000000000E+00 0. -1.
         -3    1    3    3    0  502  0.20863920881E+03 -0.17172465474E+03  0.17330194063E+03  0.32101906349E+03  0.00000000000E+00 0.  1.
         11    1    5    5    0    0 -0.67728368743E+02 -0.60953990558E+02 -0.36174539620E+02  0.98036310693E+02  0.00000000000E+00 0. -1.
        -11    1    5    5    0    0 -0.25581909078E+03 -0.30320889194E+02 -0.89038423646E+02  0.27256302833E+03  0.00000000000E+00 0.  1.
          2    1    6    6  503    0 -0.32609657984E+03  0.59320888677E+03  0.66595152374E+03  0.94959317325E+03  0.00000000000E+00 0. -1.
         -2    1    6    6    0  503  0.71263117906E+01  0.15809665827E+02  0.17964669146E+02  0.24969164801E+02  0.00000000000E+00 0.  1.
<mgrwt>
<rscale>  0 0.20746992E+04</rscale>
<asrwt>0</asrwt>
<pdfrwt beam="1">  1        2 0.90895905E-01 0.20746992E+04</pdfrwt>
<pdfrwt beam="2">  1       -1 0.28020718E+00 0.20746992E+04</pdfrwt>
<totfact> 0.23646959E+00</totfact>
</mgrwt>
</event>
<event>
12    6  0.8914180E-008  0.2934278E+04  0.7818608E-02  0.8262751E-01
          2   -1    0    0  501    0  0.00000000000E+00  0.00000000000E+00  0.26755068534E+04  0.26755068534E+04  0.00000000000E+00 0. -1.
         -1   -1    0    0    0  501 -0.00000000000E+00 -0.00000000000E+00 -0.80451949670E+03  0.80451949670E+03  0.00000000000E+00 0.  1.
         24    2    1    2    0    0  0.11499540366E+04 -0.66566953832E+03  0.78580847715E+03  0.15455746944E+04  0.76131154953E+02 0.  0.
        254    2    1    2    0    0 -0.11499540366E+04  0.66566953832E+03  0.10851788796E+04  0.19344516557E+04  0.89385669265E+03 0.  0.
         23    2    4    4    0    0 -0.49218369916E+02  0.53773036898E+02  0.55234717646E+03  0.56449948877E+03  0.90875090319E+02 0.  0.
         23    2    4    4    0    0 -0.11007356667E+04  0.61189650143E+03  0.53283170311E+03  0.13699521669E+04  0.82601328291E+02 0.  0.
          4    1    3    3  502    0  0.92942317233E+03 -0.55924053180E+03  0.61375890545E+03  0.12463055001E+04  0.00000000000E+00 0. -1.
         -3    1    3    3    0  502  0.22053086428E+03 -0.10642900652E+03  0.17204957170E+03  0.29926919429E+03  0.00000000000E+00 0.  1.
         11    1    5    5    0    0 -0.53446426446E+01 -0.22449545089E+02  0.58590348955E+02  0.62971233674E+02  0.00000000000E+00 0.  1.
        -11    1    5    5    0    0 -0.43873727271E+02  0.76222581986E+02  0.49375682751E+03  0.50152825510E+03  0.00000000000E+00 0. -1.
          1    1    6    6  503    0 -0.10490762960E+04  0.59891859023E+03  0.51997914177E+03  0.13151588727E+04  0.00000000000E+00 0. -1.
         -1    1    6    6    0  503 -0.51659370695E+02  0.12977911191E+02  0.12852561339E+02  0.54793294229E+02  0.00000000000E+00 0.  1.
<mgrwt>
<rscale>  0 0.29342784E+04</rscale>
<asrwt>0</asrwt>
<pdfrwt beam="1">  1        2 0.41161643E+00 0.29342784E+04</pdfrwt>
<pdfrwt beam="2">  1       -1 0.12377223E+00 0.29342784E+04</pdfrwt>
<totfact> 0.15400370E+00</totfact>
</mgrwt>
</event>
<event>
12    6  0.8914180E-008  0.2546337E+04  0.7818608E-02  0.8386661E-01
          2   -1    0    0  501    0  0.00000000000E+00  0.00000000000E+00  0.18478910428E+04  0.18478910428E+04  0.00000000000E+00 0. -1.
         -1   -1    0    0    0  501 -0.00000000000E+00 -0.00000000000E+00 -0.87719319644E+03  0.87719319644E+03  0.00000000000E+00 0.  1.
         24    2    1    2    0    0  0.29627897030E+03 -0.10297096988E+04  0.75676774353E+03  0.13141887074E+04  0.79443369449E+02 0.  0.
        254    2    1    2    0    0 -0.29627897030E+03  0.10297096988E+04  0.21393010286E+03  0.14108955318E+04  0.89262356048E+03 0.  0.
         23    2    4    4    0    0  0.25937470387E+02 -0.12324478386E+03 -0.78909902024E+02  0.17501964989E+03  0.92428762260E+02 0.  0.
         23    2    4    4    0    0 -0.32221644069E+03  0.11529544827E+04  0.29284000488E+03  0.12358758819E+04  0.92230435766E+02 0.  0.
          2    1    3    3  502    0  0.29645418635E+03 -0.10108894482E+04  0.73084180938E+03  0.12821514385E+04  0.00000000000E+00 0. -1.
         -1    1    3    3    0  502 -0.17521604245E+00 -0.18820250671E+02  0.25925934145E+02  0.32037268880E+02  0.00000000000E+00 0.  1.
         11    1    5    5    0    0 -0.25721153503E+02 -0.90698704059E+02 -0.56910437326E+02  0.11012098134E+03  0.00000000000E+00 0.  1.
        -11    1    5    5    0    0  0.51658623890E+02 -0.32546079801E+02 -0.21999464698E+02  0.64898668550E+02  0.00000000000E+00 0. -1.
          2    1    6    6  503    0 -0.18424487589E+03  0.56683574366E+03  0.10570968818E+03  0.60532922675E+03  0.00000000000E+00 0. -1.
         -2    1    6    6    0  503 -0.13797156480E+03  0.58611873904E+03  0.18713031670E+03  0.63054665520E+03  0.00000000000E+00 0.  1.
<mgrwt>
<rscale>  0 0.25463365E+04</rscale>
<asrwt>0</asrwt>
<pdfrwt beam="1">  1        2 0.28429093E+00 0.25463365E+04</pdfrwt>
<pdfrwt beam="2">  1       -1 0.13495280E+00 0.25463365E+04</pdfrwt>
<totfact> 0.37841009E+00</totfact>
</mgrwt>
</event>
<event>
12    6  0.8914180E-008  0.2950756E+04  0.7818608E-02  0.8257934E-01
          2   -1    0    0  501    0  0.00000000000E+00  0.00000000000E+00  0.30817018214E+04  0.30817018214E+04  0.00000000000E+00 0. -1.
         -1   -1    0    0    0  501 -0.00000000000E+00 -0.00000000000E+00 -0.70634364918E+03  0.70634364918E+03  0.00000000000E+00 0.  1.
         24    2    1    2    0    0  0.68485758232E+03  0.10888924754E+04  0.15598848280E+04  0.20235374883E+04  0.82137438251E+02 0.  0.
        254    2    1    2    0    0 -0.68485758232E+03 -0.10888924754E+04  0.81547334424E+03  0.17645079823E+04  0.89094046575E+03 0.  0.
         23    2    4    4    0    0 -0.63772261988E+03 -0.10510703711E+04  0.97477906244E+03  0.15716575496E+04  0.92055242916E+02 0.  0.
         23    2    4    4    0    0 -0.47134962434E+02 -0.37822104263E+02 -0.15930571820E+03  0.19285043270E+03  0.90336932014E+02 0.  0.
          4    1    3    3  502    0  0.63790150634E+03  0.97965087234E+03  0.13912765771E+04  0.18172189404E+04  0.00000000000E+00 0. -1.
         -3    1    3    3    0  502  0.46956075983E+02  0.10924160305E+03  0.16860825094E+03  0.20631854787E+03  0.00000000000E+00 0.  1.
         11    1    5    5    0    0 -0.61921019309E+03 -0.97864098685E+03  0.91455115499E+03  0.14756568908E+04  0.00000000000E+00 0.  1.
        -11    1    5    5    0    0 -0.18512426791E+02 -0.72429384276E+02  0.60227907453E+02  0.96000658792E+02  0.00000000000E+00 0. -1.
          1    1    6    6  503    0  0.21183129694E+02  0.77278307645E+01 -0.15865024475E+02  0.27570697372E+02  0.00000000000E+00 0. -1.
         -1    1    6    6    0  503 -0.68318092128E+02 -0.45549935028E+02 -0.14344069373E+03  0.16527973533E+03  0.00000000000E+00 0.  1.
<mgrwt>
<rscale>  0 0.29507562E+04</rscale>
<asrwt>0</asrwt>
<pdfrwt beam="1">  1        2 0.47410797E+00 0.29507562E+04</pdfrwt>
<pdfrwt beam="2">  1       -1 0.10866825E+00 0.29507562E+04</pdfrwt>
<totfact> 0.11850740E+00</totfact>
</mgrwt>
</event>
<event>
12    6  0.8914180E-008  0.2035194E+04  0.7818608E-02  0.8590341E-01
          2   -1    0    0  501    0  0.00000000000E+00  0.00000000000E+00  0.21897438798E+04  0.21897438798E+04  0.00000000000E+00 0. -1.
         -1   -1    0    0    0  501 -0.00000000000E+00 -0.00000000000E+00 -0.47288798914E+03  0.47288798914E+03  0.00000000000E+00 0.  1.
         24    2    1    2    0    0  0.38891530549E+03 -0.35930071605E+03 -0.11222308055E+03  0.54707946014E+03  0.79685610360E+02 0.  0.
        254    2    1    2    0    0 -0.38891530549E+03  0.35930071605E+03  0.18290789712E+04  0.21155524088E+04  0.92178088073E+03 0.  0.
         23    2    4    4    0    0 -0.29050017260E+03 -0.26099455723E+03  0.48363981909E+03  0.62810220256E+03  0.89979959252E+02 0.  0.
         23    2    4    4    0    0 -0.98415132898E+02  0.62029527327E+03  0.13454391522E+04  0.14874502063E+04  0.88599320417E+02 0.  0.
          2    1    3    3  502    0  0.17758492725E+02 -0.47312534431E+02 -0.12675651908E+02  0.52100980120E+02  0.00000000000E+00 0. -1.
         -1    1    3    3    0  502  0.37115681277E+03 -0.31198818162E+03 -0.99547428645E+02  0.49497848002E+03  0.00000000000E+00 0.  1.
         11    1    5    5    0    0 -0.12178467246E+03 -0.64408309222E+02  0.21116406729E+03  0.25213131511E+03  0.00000000000E+00 0. -1.
        -11    1    5    5    0    0 -0.16871550013E+03 -0.19658624801E+03  0.27247575180E+03  0.37597088745E+03  0.00000000000E+00 0.  1.
          4    1    6    6  503    0 -0.17275814346E+02  0.39515576886E+02  0.14754796494E+03  0.15372162027E+03  0.00000000000E+00 0. -1.
         -4    1    6    6    0  503 -0.81139318552E+02  0.58077969639E+03  0.11978911872E+04  0.13337285860E+04  0.00000000000E+00 0.  1.
<mgrwt>
<rscale>  0 0.20351939E+04</rscale>
<asrwt>0</asrwt>
<pdfrwt beam="1">  1        2 0.33688367E+00 0.20351939E+04</pdfrwt>
<pdfrwt beam="2">  1       -1 0.72752000E-01 0.20351939E+04</pdfrwt>
<totfact> 0.10513888E+01</totfact>
</mgrwt>
</event>
<event>
12    6  0.8914180E-008  0.1914630E+04  0.7818608E-02  0.8647608E-01
         -1   -1    0    0    0  501 -0.00000000000E+00  0.00000000000E+00  0.38210707477E+03  0.38210707477E+03  0.00000000000E+00 0.  1.
          2   -1    0    0  501    0  0.00000000000E+00 -0.00000000000E+00 -0.23984168893E+04  0.23984168893E+04  0.00000000000E+00 0. -1.
         24    2    1    2    0    0 -0.26433164761E+03  0.22905500880E+03 -0.17186536444E+04  0.17557009528E+04  0.79862815429E+02 0.  0.
        254    2    1    2    0    0  0.26433164761E+03 -0.22905500880E+03 -0.29765617018E+03  0.10248230113E+04  0.91614714533E+03 0.  0.
         23    2    4    4    0    0 -0.12682062353E+03  0.96553746989E+02 -0.44989301128E+03  0.48581109105E+03  0.90568195167E+02 0.  0.
         23    2    4    4    0    0  0.39115227114E+03 -0.32560875579E+03  0.15223684110E+03  0.53901192027E+03  0.91305166003E+02 0.  0.
          4    1    3    3  502    0 -0.20417660388E+03  0.13005429167E+03 -0.11045504444E+04  0.11307669470E+04  0.00000000000E+00 0. -1.
         -3    1    3    3    0  502 -0.60155043729E+02  0.99000717130E+02 -0.61410320003E+03  0.62493400577E+03  0.00000000000E+00 0.  1.
         11    1    5    5    0    0 -0.94125783943E+02  0.69482898091E+02 -0.19496934163E+03  0.22737761655E+03  0.00000000000E+00 0. -1.
        -11    1    5    5    0    0 -0.32694839590E+02  0.27070848897E+02 -0.25492366965E+03  0.25843347450E+03  0.00000000000E+00 0.  1.
          2    1    6    6  503    0  0.11567264354E+03 -0.12670449197E+03  0.13825648153E+02  0.17212012461E+03  0.00000000000E+00 0. -1.
         -2    1    6    6    0  503  0.27547962761E+03 -0.19890426382E+03  0.13841119295E+03  0.36689179567E+03  0.00000000000E+00 0.  1.
<mgrwt>
<rscale>  0 0.19146301E+04</rscale>
<asrwt>0</asrwt>
<pdfrwt beam="1">  1        2 0.36898721E+00 0.19146301E+04</pdfrwt>
<pdfrwt beam="2">  1       -1 0.58785705E-01 0.19146301E+04</pdfrwt>
<totfact> 0.12449599E+01</totfact>
</mgrwt>
</event>
<event>
12    6  0.8914180E-008  0.2841276E+04  0.7818608E-02  0.8290567E-01
          2   -1    0    0  501    0  0.00000000000E+00  0.00000000000E+00  0.96506645155E+03  0.96506645155E+03  0.00000000000E+00 0. -1.
         -1   -1    0    0    0  501 -0.00000000000E+00 -0.00000000000E+00 -0.20912675790E+04  0.20912675790E+04  0.00000000000E+00 0.  1.
         24    2    1    2    0    0  0.30561083334E+03 -0.10813908878E+04  0.14759373801E+03  0.11361932916E+04  0.79668378891E+02 0.  0.
        254    2    1    2    0    0 -0.30561083334E+03  0.10813908878E+04 -0.12737948655E+04  0.19201407390E+04  0.89531160192E+03 0.  0.
         23    2    4    4    0    0 -0.16501151944E+03 -0.92508765534E+02 -0.49916053349E+02  0.21597304994E+03  0.91466237872E+02 0.  0.
         23    2    4    4    0    0 -0.14059931390E+03  0.11738996534E+04 -0.12238788121E+04  0.17041676891E+04  0.92193288419E+02 0.  0.
          4    1    3    3  502    0  0.23996061800E+03 -0.91878290587E+03  0.10242797971E+03  0.95510974099E+03  0.00000000000E+00 0. -1.
         -3    1    3    3    0  502  0.65650215336E+02 -0.16260798196E+03  0.45165758292E+02  0.18108355058E+03  0.00000000000E+00 0.  1.
         11    1    5    5    0    0 -0.16186903659E+03 -0.83092466426E+02 -0.68893131435E+02  0.19455643536E+03  0.00000000000E+00 0. -1.
        -11    1    5    5    0    0 -0.31424828555E+01 -0.94162991078E+01  0.18977078086E+02  0.21416614580E+02  0.00000000000E+00 0.  1.
          3    1    6    6  503    0 -0.58806890384E+02  0.81224683651E+03 -0.86821616884E+03  0.11903791369E+04  0.00000000000E+00 0. -1.
         -3    1    6    6    0  503 -0.81792423513E+02  0.36165281685E+03 -0.35566264330E+03  0.51378855215E+03  0.00000000000E+00 0.  1.
<mgrwt>
<rscale>  0 0.28412759E+04</rscale>
<asrwt>0</asrwt>
<pdfrwt beam="1">  1        2 0.14847176E+00 0.28412759E+04</pdfrwt>
<pdfrwt beam="2">  1       -1 0.32173347E+00 0.28412759E+04</pdfrwt>
<totfact> 0.62547562E-01</totfact>
</mgrwt>
</event>
<event>
12    6  0.8914180E-008  0.1695793E+04  0.7818608E-02  0.8763767E-01
         -3   -1    0    0    0  501 -0.00000000000E+00  0.00000000000E+00  0.34684886371E+03  0.34684886371E+03  0.00000000000E+00 0.  1.
          2   -1    0    0  501    0  0.00000000000E+00 -0.00000000000E+00 -0.20727424295E+04  0.20727424295E+04  0.00000000000E+00 0. -1.
         24    2    1    2    0    0 -0.49525882127E+02  0.47548578371E+03 -0.86520680650E+02  0.49298092502E+03  0.83694807093E+02 0.  0.
        254    2    1    2    0    0  0.49525882127E+02 -0.47548578371E+03 -0.16393728851E+04  0.19266103681E+04  0.89204512820E+03 0.  0.
         23    2    4    4    0    0 -0.28681273237E+02 -0.68980358314E+03 -0.84359290826E+03  0.10938611461E+04  0.90728239280E+02 0.  0.
         23    2    4    4    0    0  0.78207155364E+02  0.21431779942E+03 -0.79577997684E+03  0.83274922202E+03  0.90316205300E+02 0.  0.
          4    1    3    3  502    0 -0.95312378971E+01  0.72324295995E+01 -0.12368655609E+02  0.17208607594E+02  0.00000000000E+00 0. -1.
         -3    1    3    3    0  502 -0.39994644229E+02  0.46825335411E+03 -0.74152025042E+02  0.47577231742E+03  0.00000000000E+00 0.  1.
         11    1    5    5    0    0 -0.44027736612E+02 -0.65976938480E+03 -0.81602372334E+03  0.10502993858E+04  0.00000000000E+00 0.  1.
        -11    1    5    5    0    0  0.15346463375E+02 -0.30034198337E+02 -0.27569184920E+02  0.43561760353E+02  0.00000000000E+00 0. -1.
          4    1    6    6  503    0 -0.19615751359E+02  0.40967115557E+02 -0.12190502044E+03  0.13009195312E+03  0.00000000000E+00 0. -1.
         -4    1    6    6    0  503  0.97822906723E+02  0.17335068386E+03 -0.67387495639E+03  0.70265726889E+03  0.00000000000E+00 0.  1.
<mgrwt>
<rscale>  0 0.16957929E+04</rscale>
<asrwt>0</asrwt>
<pdfrwt beam="1">  1        2 0.31888345E+00 0.16957929E+04</pdfrwt>
<pdfrwt beam="2">  1       -3 0.53361363E-01 0.16957929E+04</pdfrwt>
<totfact> 0.12914250E+01</totfact>
</mgrwt>
</event>
<event>
12    6  0.8914180E-008  0.1810604E+04  0.7818608E-02  0.8700681E-01
         -1   -1    0    0    0  501 -0.00000000000E+00  0.00000000000E+00  0.46776329014E+03  0.46776329014E+03  0.00000000000E+00 0.  1.
          2   -1    0    0  501    0  0.00000000000E+00 -0.00000000000E+00 -0.17521075069E+04  0.17521075069E+04  0.00000000000E+00 0. -1.
         24    2    1    2    0    0 -0.16543683183E+03  0.44648223111E+03  0.10844347961E+03  0.49474384041E+03  0.79345770712E+02 0.  0.
        254    2    1    2    0    0  0.16543683183E+03 -0.44648223111E+03 -0.13927876964E+04  0.17251269566E+04  0.89971646716E+03 0.  0.
         23    2    4    4    0    0  0.52327079739E+03 -0.17362701301E+03 -0.76426336527E+03  0.94678123947E+03  0.91310223239E+02 0.  0.
         23    2    4    4    0    0 -0.35783396556E+03 -0.27285521810E+03 -0.62852433109E+03  0.77834571715E+03  0.91017051545E+02 0.  0.
          4    1    3    3  502    0 -0.52379796757E+02  0.15842551593E+03  0.76785460541E+02  0.18367986867E+03  0.00000000000E+00 0. -1.
         -3    1    3    3    0  502 -0.11305703507E+03  0.28805671519E+03  0.31658019074E+02  0.31106397174E+03  0.00000000000E+00 0.  1.
         11    1    5    5    0    0  0.33078731049E+03 -0.81096571208E+02 -0.52780846932E+03  0.62815498002E+03  0.00000000000E+00 0. -1.
        -11    1    5    5    0    0  0.19248348690E+03 -0.92530441803E+02 -0.23645489595E+03  0.31862625945E+03  0.00000000000E+00 0.  1.
          3    1    6    6  503    0 -0.28820771254E+03 -0.25519074473E+03 -0.55611849307E+03  0.67635329532E+03  0.00000000000E+00 0. -1.
         -3    1    6    6    0  503 -0.69626253025E+02 -0.17664473376E+02 -0.72405838020E+02  0.10199242182E+03  0.00000000000E+00 0.  1.
<mgrwt>
<rscale>  0 0.18106038E+04</rscale>
<asrwt>0</asrwt>
<pdfrwt beam="1">  1        2 0.26955500E+00 0.18106038E+04</pdfrwt>
<pdfrwt beam="2">  1       -1 0.71963583E-01 0.18106038E+04</pdfrwt>
<totfact> 0.19206040E+01</totfact>
</mgrwt>
</event>
<event>
12    6  0.8914180E-008  0.2122736E+04  0.7818608E-02  0.8551294E-01
          2   -1    0    0  501    0  0.00000000000E+00  0.00000000000E+00  0.29674661702E+04  0.29674661702E+04  0.00000000000E+00 0. -1.
         -1   -1    0    0    0  501 -0.00000000000E+00 -0.00000000000E+00 -0.37961753069E+03  0.37961753069E+03  0.00000000000E+00 0.  1.
         24    2    1    2    0    0  0.22499397230E+03  0.83704345889E+03  0.95799170305E+03  0.12944105613E+04  0.80539173036E+02 0.  0.
        254    2    1    2    0    0 -0.22499397230E+03 -0.83704345889E+03  0.16298569365E+04  0.20526731396E+04  0.89764655914E+03 0.  0.
         23    2    4    4    0    0 -0.29251517399E+03  0.84683471528E+02  0.44069079399E+03  0.54330438070E+03  0.90746111853E+02 0.  0.
         23    2    4    4    0    0  0.67521201695E+02 -0.92172693042E+03  0.11891661425E+04  0.15093687589E+04  0.99690967787E+02 0.  0.
          2    1    3    3  502    0  0.10021616924E+03  0.23259153421E+03  0.28356062924E+03  0.38019565071E+03  0.00000000000E+00 0. -1.
         -1    1    3    3    0  502  0.12477780306E+03  0.60445192468E+03  0.67443107381E+03  0.91421491057E+03  0.00000000000E+00 0.  1.
         11    1    5    5    0    0 -0.70571491543E+02  0.30759740128E+02  0.18544004573E+03  0.20078472948E+03  0.00000000000E+00 0. -1.
        -11    1    5    5    0    0 -0.22194368245E+03  0.53923731400E+02  0.25525074826E+03  0.34251965122E+03  0.00000000000E+00 0.  1.
          1    1    6    6  503    0  0.99395849039E+01 -0.43074492056E+03  0.48139801944E+03  0.64605265657E+03  0.00000000000E+00 0. -1.
         -1    1    6    6    0  503  0.57581616791E+02 -0.49098200986E+03  0.70776812305E+03  0.86331610237E+03  0.00000000000E+00 0.  1.
<mgrwt>
<rscale>  0 0.21227361E+04</rscale>
<asrwt>0</asrwt>
<pdfrwt beam="1">  1        2 0.45653324E+00 0.21227361E+04</pdfrwt>
<pdfrwt beam="2">  1       -1 0.58402699E-01 0.21227361E+04</pdfrwt>
<totfact> 0.56831131E+00</totfact>
</mgrwt>
</event>
<event>
12    6  0.8914180E-008  0.1186265E+04  0.7818608E-02  0.9124964E-01
         -1   -1    0    0    0  501 -0.00000000000E+00  0.00000000000E+00  0.68114263241E+03  0.68114263241E+03  0.00000000000E+00 0.  1.
          2   -1    0    0  501    0  0.00000000000E+00 -0.00000000000E+00 -0.51649420950E+03  0.51649420950E+03  0.00000000000E+00 0. -1.
         24    2    1    2    0    0  0.18112096087E+03  0.14289714167E+03  0.89546092166E+02  0.25982991792E+03  0.79175046946E+02 0.  0.
        254    2    1    2    0    0 -0.18112096087E+03 -0.14289714167E+03  0.75102330748E+02  0.93780692400E+03  0.90587917023E+03 0.  0.
         23    2    4    4    0    0 -0.33685261173E+03 -0.93133334578E+02  0.41425653079E+03  0.54950905701E+03  0.90599284734E+02 0.  0.
         23    2    4    4    0    0  0.15573165086E+03 -0.49763807092E+02 -0.33915420004E+03  0.38829786699E+03  0.94978305546E+02 0.  0.
          4    1    3    3  502    0  0.11000591377E+02  0.47083799119E+02  0.12583564703E+02  0.49962418384E+02  0.00000000000E+00 0. -1.
         -3    1    3    3    0  502  0.17012036949E+03  0.95813342552E+02  0.76962527463E+02  0.20986749953E+03  0.00000000000E+00 0.  1.
         11    1    5    5    0    0 -0.11950628018E+03 -0.26594718570E+01  0.18932335752E+03  0.22390211588E+03  0.00000000000E+00 0.  1.
        -11    1    5    5    0    0 -0.21734633155E+03 -0.90473862721E+02  0.22493317327E+03  0.32560694113E+03  0.00000000000E+00 0. -1.
          2    1    6    6  503    0  0.47824893849E+02 -0.23066896515E+01 -0.27778438362E+02  0.55355062340E+02  0.00000000000E+00 0. -1.
         -2    1    6    6    0  503  0.10790675701E+03 -0.47457117441E+02 -0.31137576168E+03  0.33294280465E+03  0.00000000000E+00 0.  1.
<mgrwt>
<rscale>  0 0.11862651E+04</rscale>
<asrwt>0</asrwt>
<pdfrwt beam="1">  1        2 0.79460648E-01 0.11862651E+04</pdfrwt>
<pdfrwt beam="2">  1       -1 0.10479117E+00 0.11862651E+04</pdfrwt>
<totfact> 0.57298610E+01</totfact>
</mgrwt>
</event>
<event>
12    6  0.8914180E-008  0.1345737E+04  0.7818608E-02  0.8994062E-01
         -1   -1    0    0    0  501 -0.00000000000E+00  0.00000000000E+00  0.19133237956E+03  0.19133237956E+03  0.00000000000E+00 0.  1.
          2   -1    0    0  501    0  0.00000000000E+00 -0.00000000000E+00 -0.23663108624E+04  0.23663108624E+04  0.00000000000E+00 0. -1.
         24    2    1    2    0    0  0.20677865199E+03  0.21610399381E+03 -0.99465082902E+03  0.10414442923E+04  0.76273162194E+02 0.  0.
        254    2    1    2    0    0 -0.20677865199E+03 -0.21610399381E+03 -0.11803276538E+04  0.15161989496E+04  0.90345311857E+03 0.  0.
         23    2    4    4    0    0 -0.15991435144E+03  0.25348444626E+03 -0.92552395982E+02  0.32686474432E+03  0.91911102643E+02 0.  0.
         23    2    4    4    0    0 -0.46864300553E+02 -0.46958844006E+03 -0.10877752578E+04  0.11893342053E+04  0.92473102371E+02 0.  0.
          2    1    3    3  502    0  0.14307993452E+03  0.13334839961E+03 -0.52311991373E+03  0.55848733869E+03  0.00000000000E+00 0. -1.
         -1    1    3    3    0  502  0.63698717469E+02  0.82755594200E+02 -0.47153091529E+03  0.48295695362E+03  0.00000000000E+00 0.  1.
         11    1    5    5    0    0 -0.16263786079E+03  0.25978663043E+03 -0.91849960898E+02  0.31996340796E+03  0.00000000000E+00 0. -1.
        -11    1    5    5    0    0  0.27235093561E+01 -0.63021841745E+01 -0.70243508436E+00  0.69013363655E+01  0.00000000000E+00 0.  1.
          1    1    6    6  503    0 -0.67561154396E+02 -0.43715664729E+03 -0.10063389750E+04  0.10992672907E+04  0.00000000000E+00 0. -1.
         -1    1    6    6    0  503  0.20696853843E+02 -0.32431792777E+02 -0.81436282819E+02  0.90066914575E+02  0.00000000000E+00 0.  1.
<mgrwt>
<rscale>  0 0.13457368E+04</rscale>
<asrwt>0</asrwt>
<pdfrwt beam="1">  1        2 0.36404779E+00 0.13457368E+04</pdfrwt>
<pdfrwt beam="2">  1       -1 0.29435753E-01 0.13457368E+04</pdfrwt>
<totfact> 0.48942252E+01</totfact>
</mgrwt>
</event>
<event>
12    6  0.8914180E-008  0.1719398E+04  0.7818608E-02  0.8750378E-01
          2   -1    0    0  501    0  0.00000000000E+00  0.00000000000E+00  0.82613748158E+03  0.82613748158E+03  0.00000000000E+00 0. -1.
         -1   -1    0    0    0  501 -0.00000000000E+00 -0.00000000000E+00 -0.89462376008E+03  0.89462376008E+03  0.00000000000E+00 0.  1.
         24    2    1    2    0    0  0.44843380536E+03  0.38289953588E+03  0.17893822234E+03  0.62126277070E+03  0.79016520338E+02 0.  0.
        254    2    1    2    0    0 -0.44843380536E+03 -0.38289953588E+03 -0.24742450084E+03  0.10994984710E+04  0.89441213747E+03 0.  0.
         23    2    4    4    0    0  0.19434911359E+03 -0.35176557472E+03 -0.25493460234E+02  0.41271842217E+03  0.90421136771E+02 0.  0.
         23    2    4    4    0    0 -0.64278291894E+03 -0.31133961158E+02 -0.22193104061E+03  0.68678004878E+03  0.90962872631E+02 0.  0.
          4    1    3    3  502    0  0.65281794332E+02  0.37502534788E+02  0.95340751250E-01  0.75287195967E+02  0.00000000000E+00 0. -1.
         -3    1    3    3    0  502  0.38315201103E+03  0.34539700109E+03  0.17884288159E+03  0.54597557474E+03  0.00000000000E+00 0.  1.
         11    1    5    5    0    0  0.72856936035E+02 -0.97779817068E+02  0.30412215722E+02  0.12567389792E+03  0.00000000000E+00 0. -1.
        -11    1    5    5    0    0  0.12149217755E+03 -0.25398575765E+03 -0.55905675957E+02  0.28704452425E+03  0.00000000000E+00 0.  1.
          1    1    6    6  503    0 -0.49743378172E+03 -0.60259724469E+02 -0.18378558653E+03  0.53371222902E+03  0.00000000000E+00 0. -1.
         -1    1    6    6    0  503 -0.14534913723E+03  0.29125763311E+02 -0.38145454080E+02  0.15306781977E+03  0.00000000000E+00 0.  1.
<mgrwt>
<rscale>  0 0.17193978E+04</rscale>
<asrwt>0</asrwt>
<pdfrwt beam="1">  1        2 0.12709807E+00 0.17193978E+04</pdfrwt>
<pdfrwt beam="2">  1       -1 0.13763442E+00 0.17193978E+04</pdfrwt>
<totfact> 0.15681702E+01</totfact>
</mgrwt>
</event>
<event>
12    6  0.8914180E-008  0.1373230E+04  0.7818608E-02  0.8973428E-01
          2   -1    0    0  501    0  0.00000000000E+00  0.00000000000E+00  0.51211301723E+03  0.51211301723E+03  0.00000000000E+00 0. -1.
         -1   -1    0    0    0  501 -0.00000000000E+00 -0.00000000000E+00 -0.92057786913E+03  0.92057786913E+03  0.00000000000E+00 0.  1.
         24    2    1    2    0    0  0.71468314917E+02 -0.31985747620E+02  0.27658695906E+03  0.29853673002E+03  0.80579309770E+02 0.  0.
        254    2    1    2    0    0 -0.71468314917E+02  0.31985747620E+02 -0.68505181095E+03  0.11341541563E+04  0.90048812239E+03 0.  0.
         23    2    4    4    0    0  0.31249234367E+03  0.10093678960E+03 -0.64615899572E+03  0.73176537249E+03  0.10059528957E+03 0.  0.
         23    2    4    4    0    0 -0.38396065859E+03 -0.68951041975E+02 -0.38892815232E+02  0.40238878384E+03  0.90686541175E+02 0.  0.
          2    1    3    3  502    0  0.82950158286E+02 -0.41934305917E+02  0.25964737776E+03  0.27578247868E+03  0.00000000000E+00 0. -1.
         -1    1    3    3    0  502 -0.11481843368E+02  0.99485582971E+01  0.16939581301E+02  0.22754251339E+02  0.00000000000E+00 0.  1.
         11    1    5    5    0    0  0.11086694939E+03  0.52926498521E+02 -0.34463261898E+03  0.36587475559E+03  0.00000000000E+00 0.  1.
        -11    1    5    5    0    0  0.20162539428E+03  0.48010291074E+02 -0.30152637674E+03  0.36589061691E+03  0.00000000000E+00 0. -1.
          3    1    6    6  503    0 -0.31050913467E+03 -0.70810360076E+02 -0.63797149017E+02  0.32480779860E+03  0.00000000000E+00 0. -1.
         -3    1    6    6    0  503 -0.73451523919E+02  0.18593181007E+01  0.24904333785E+02  0.77580985242E+02  0.00000000000E+00 0.  1.
<mgrwt>
<rscale>  0 0.13732296E+04</rscale>
<asrwt>0</asrwt>
<pdfrwt beam="1">  1        2 0.78786618E-01 0.13732296E+04</pdfrwt>
<pdfrwt beam="2">  1       -1 0.14162736E+00 0.13732296E+04</pdfrwt>
<totfact> 0.27154273E+01</totfact>
</mgrwt>
</event>
<event>
12    6  0.8914180E-008  0.1170444E+04  0.7818608E-02  0.9139128E-01
          2   -1    0    0  501    0  0.00000000000E+00  0.00000000000E+00  0.11117121914E+04  0.11117121914E+04  0.00000000000E+00 0. -1.
         -1   -1    0    0    0  501 -0.00000000000E+00 -0.00000000000E+00 -0.30806956851E+03  0.30806956851E+03  0.00000000000E+00 0.  1.
         24    2    1    2    0    0 -0.45367806541E+02  0.12441258399E+03  0.38382549920E+03  0.41464492856E+03  0.84093245961E+02 0.  0.
        254    2    1    2    0    0  0.45367806541E+02 -0.12441258399E+03  0.41981712366E+03  0.10051368313E+04  0.90361324882E+03 0.  0.
         23    2    4    4    0    0 -0.58489902903E+02  0.21621462739E+03  0.56102691463E+03  0.61119864802E+03  0.92966416318E+02 0.  0.
         23    2    4    4    0    0  0.10385770944E+03 -0.34062721138E+03 -0.14120979097E+03  0.39393818331E+03  0.91835539179E+02 0.  0.
          2    1    3    3  502    0 -0.30945188467E+02  0.11499084047E+03  0.37822788894E+03  0.39653100011E+03  0.00000000000E+00 0. -1.
         -1    1    3    3    0  502 -0.14422618073E+02  0.94217435248E+01  0.55976102673E+01  0.18113928449E+02  0.00000000000E+00 0.  1.
         11    1    5    5    0    0 -0.49203146564E+01  0.80729778177E+02  0.10546480453E+03  0.13290722921E+03  0.00000000000E+00 0.  1.
        -11    1    5    5    0    0 -0.53569588247E+02  0.13548484921E+03  0.45556211010E+03  0.47829141881E+03  0.00000000000E+00 0. -1.
          1    1    6    6  503    0  0.81272733358E+02 -0.26769333343E+03 -0.67443125947E+02  0.28777344073E+03  0.00000000000E+00 0. -1.
         -1    1    6    6    0  503  0.22584976086E+02 -0.72933877947E+02 -0.73766665026E+02  0.10616474258E+03  0.00000000000E+00 0.  1.
<mgrwt>
<rscale>  0 0.11704438E+04</rscale>
<asrwt>0</asrwt>
<pdfrwt beam="1">  1        2 0.17103264E+00 0.11704438E+04</pdfrwt>
<pdfrwt beam="2">  1       -1 0.47395319E-01 0.11704438E+04</pdfrwt>
<totfact> 0.10726033E+02</totfact>
</mgrwt>
</event>
<event>
12    6  0.8914180E-008  0.1550584E+04  0.7818608E-02  0.8851495E-01
          2   -1    0    0  501    0  0.00000000000E+00  0.00000000000E+00  0.14960063544E+04  0.14960063544E+04  0.00000000000E+00 0. -1.
         -1   -1    0    0    0  501 -0.00000000000E+00 -0.00000000000E+00 -0.40178819275E+03  0.40178819275E+03  0.00000000000E+00 0.  1.
         24    2    1    2    0    0 -0.16599301675E+03 -0.35576316181E+03 -0.36472336034E+02  0.40221278231E+03  0.79522211005E+02 0.  0.
        254    2    1    2    0    0  0.16599301675E+03  0.35576316181E+03  0.11306904977E+04  0.14955817648E+04  0.89676234579E+03 0.  0.
         23    2    4    4    0    0 -0.10316630075E+03 -0.10426057818E+03 -0.64034880458E+02  0.18421178090E+03  0.91213817683E+02 0.  0.
         23    2    4    4    0    0  0.26915931750E+03  0.46002373999E+03  0.11947253781E+04  0.13113699839E+04  0.90851120074E+02 0.  0.
          4    1    3    3  502    0  0.38292247960E+01 -0.47644427022E+02  0.45305604913E+01  0.48012293917E+02  0.00000000000E+00 0. -1.
         -3    1    3    3    0  502 -0.16982224155E+03 -0.30811873479E+03 -0.41002896526E+02  0.35420048839E+03  0.00000000000E+00 0.  1.
         11    1    5    5    0    0 -0.99805442676E+02 -0.94100107263E+02 -0.84505723059E+02  0.16111230184E+03  0.00000000000E+00 0. -1.
        -11    1    5    5    0    0 -0.33608580731E+01 -0.10160470915E+02  0.20470842601E+02  0.23099479063E+02  0.00000000000E+00 0.  1.
          3    1    6    6  503    0  0.25127167883E+03  0.38808995502E+03  0.10797894708E+04  0.11746048574E+04  0.00000000000E+00 0. -1.
         -3    1    6    6    0  503  0.17887638666E+02  0.71933784976E+02  0.11493590730E+03  0.13676512650E+03  0.00000000000E+00 0.  1.
<mgrwt>
<rscale>  0 0.15505840E+04</rscale>
<asrwt>0</asrwt>
<pdfrwt beam="1">  1        2 0.23015482E+00 0.15505840E+04</pdfrwt>
<pdfrwt beam="2">  1       -1 0.61813569E-01 0.15505840E+04</pdfrwt>
<totfact> 0.37149596E+01</totfact>
</mgrwt>
</event>
<event>
12    6  0.8914180E-008  0.2400334E+04  0.7818608E-02  0.8439379E-01
          2   -1    0    0  501    0  0.00000000000E+00  0.00000000000E+00  0.11839550379E+04  0.11839550379E+04  0.00000000000E+00 0. -1.
         -1   -1    0    0    0  501 -0.00000000000E+00 -0.00000000000E+00 -0.12166005090E+04  0.12166005090E+04  0.00000000000E+00 0.  1.
         24    2    1    2    0    0  0.53233938552E+03 -0.61828932716E+03  0.59676313756E+03  0.10140803558E+04  0.81029699985E+02 0.  0.
        254    2    1    2    0    0 -0.53233938552E+03  0.61828932716E+03 -0.62940860870E+03  0.13864751910E+04  0.92762672731E+03 0.  0.
         23    2    4    4    0    0 -0.70997471247E+03  0.17330440891E+03 -0.28379971601E+03  0.78928964825E+03  0.91309142647E+02 0.  0.
         23    2    4    4    0    0  0.17763532694E+03  0.44498491825E+03 -0.34560889269E+03  0.59718554280E+03  0.87287908523E+02 0.  0.
          2    1    3    3  502    0  0.52489332259E+03 -0.58924978576E+03  0.56599746356E+03  0.97112380203E+03  0.00000000000E+00 0. -1.
         -1    1    3    3    0  502  0.74460629335E+01 -0.29039541399E+02  0.30765673995E+02  0.42956553799E+02  0.00000000000E+00 0.  1.
         11    1    5    5    0    0 -0.13722328549E+03  0.65147548706E+02 -0.80955403686E+02  0.17212847112E+03  0.00000000000E+00 0. -1.
        -11    1    5    5    0    0 -0.57275142698E+03  0.10815686020E+03 -0.20284431232E+03  0.61716117713E+03  0.00000000000E+00 0.  1.
          1    1    6    6  503    0  0.85399065943E+01  0.45863430117E+02 -0.67931484063E+02  0.82407953219E+02  0.00000000000E+00 0. -1.
         -1    1    6    6    0  503  0.16909542035E+03  0.39912148813E+03 -0.27767740863E+03  0.51477758958E+03  0.00000000000E+00 0.  1.
<mgrwt>
<rscale>  0 0.24003336E+04</rscale>
<asrwt>0</asrwt>
<pdfrwt beam="1">  1        2 0.18214693E+00 0.24003336E+04</pdfrwt>
<pdfrwt beam="2">  1       -1 0.18716931E+00 0.24003336E+04</pdfrwt>
<totfact> 0.36720982E+00</totfact>
</mgrwt>
</event>
<event>
12    6  0.8914180E-008  0.1574578E+04  0.7818608E-02  0.8836320E-01
         -1   -1    0    0    0  501 -0.00000000000E+00  0.00000000000E+00  0.32439199508E+03  0.32439199508E+03  0.00000000000E+00 0.  1.
          2   -1    0    0  501    0  0.00000000000E+00 -0.00000000000E+00 -0.19107244871E+04  0.19107244871E+04  0.00000000000E+00 0. -1.
         24    2    1    2    0    0 -0.64378917332E+02  0.33568148423E+02  0.20794892924E+03  0.23377970446E+03  0.78350031668E+02 0.  0.
        254    2    1    2    0    0  0.64378917332E+02 -0.33568148423E+02 -0.17942814213E+04  0.20013367777E+04  0.88353359507E+03 0.  0.
         23    2    4    4    0    0  0.32365464598E+03  0.20525113979E+03 -0.40582206745E+03  0.56588948616E+03  0.93053747210E+02 0.  0.
         23    2    4    4    0    0 -0.25927572865E+03 -0.23881928821E+03 -0.13884593538E+04  0.14354472916E+04  0.91820443149E+02 0.  0.
          2    1    3    3  502    0 -0.68280355774E+01  0.22719615424E+02  0.73941700151E+01  0.24849079361E+02  0.00000000000E+00 0. -1.
         -1    1    3    3    0  502 -0.57550881755E+02  0.10848533000E+02  0.20055475922E+03  0.20893062510E+03  0.00000000000E+00 0.  1.
         11    1    5    5    0    0  0.20153638507E+03  0.90214511310E+02 -0.18185030991E+03  0.28605088319E+03  0.00000000000E+00 0.  1.
        -11    1    5    5    0    0  0.12211826092E+03  0.11503662848E+03 -0.22397175754E+03  0.27983860298E+03  0.00000000000E+00 0. -1.
          4    1    6    6  503    0 -0.33449235746E+01 -0.91214936345E+01 -0.14457047850E+03  0.14489656108E+03  0.00000000000E+00 0. -1.
         -4    1    6    6    0  503 -0.25593080508E+03 -0.22969779458E+03 -0.12438888753E+04  0.12905507305E+04  0.00000000000E+00 0.  1.
<mgrwt>
<rscale>  0 0.15745777E+04</rscale>
<asrwt>0</asrwt>
<pdfrwt beam="1">  1        2 0.29395762E+00 0.15745777E+04</pdfrwt>
<pdfrwt beam="2">  1       -1 0.49906460E-01 0.15745777E+04</pdfrwt>
<totfact> 0.33024234E+01</totfact>
</mgrwt>
</event>
<event>
12    6  0.8914180E-008  0.3398118E+04  0.7818608E-02  0.8138368E-01
          2   -1    0    0  501    0  0.00000000000E+00  0.00000000000E+00  0.24083073932E+04  0.24083073932E+04  0.00000000000E+00 0. -1.
         -1   -1    0    0    0  501 -0.00000000000E+00 -0.00000000000E+00 -0.11986849841E+04  0.11986849841E+04  0.00000000000E+00 0.  1.
         24    2    1    2    0    0 -0.28827481824E+03  0.14267046371E+04 -0.96153715847E+02  0.14606423754E+04  0.75114043106E+02 0.  0.
        254    2    1    2    0    0  0.28827481824E+03 -0.14267046371E+04  0.13057761249E+04  0.21463500018E+04  0.88497375647E+03 0.  0.
         23    2    4    4    0    0 -0.23904201230E+03 -0.24684069770E+03  0.85167290008E+02  0.36568384242E+03  0.91650377156E+02 0.  0.
         23    2    4    4    0    0  0.52731683054E+03 -0.11798639394E+04  0.12206088349E+04  0.17806661594E+04  0.10365369354E+03 0.  0.
          2    1    3    3  502    0 -0.18643221235E+03  0.73324618173E+03 -0.50887995619E+02  0.75828525036E+03  0.00000000000E+00 0. -1.
         -1    1    3    3    0  502 -0.10184260589E+03  0.69345845538E+03 -0.45265720228E+02  0.70235712508E+03  0.00000000000E+00 0.  1.
         11    1    5    5    0    0 -0.13363441500E+03 -0.13532706203E+03  0.47965754784E-02  0.19018825046E+03  0.00000000000E+00 0.  1.
        -11    1    5    5    0    0 -0.10540759730E+03 -0.11151363567E+03  0.85162493432E+02  0.17549559196E+03  0.00000000000E+00 0. -1.
          1    1    6    6  503    0  0.13729380510E+03 -0.21541534182E+03  0.26458746722E+03  0.36777695173E+03  0.00000000000E+00 0. -1.
         -1    1    6    6    0  503  0.39002302544E+03 -0.96444859759E+03  0.95602136766E+03  0.14128892077E+04  0.00000000000E+00 0.  1.
<mgrwt>
<rscale>  0 0.33981182E+04</rscale>
<asrwt>0</asrwt>
<pdfrwt beam="1">  1        2 0.37050883E+00 0.33981182E+04</pdfrwt>
<pdfrwt beam="2">  1       -1 0.18441308E+00 0.33981182E+04</pdfrwt>
<totfact> 0.71654264E-01</totfact>
</mgrwt>
</event>
<event>
12    6  0.8914180E-008  0.1262416E+04  0.7818608E-02  0.9059912E-01
         -1   -1    0    0    0  501 -0.00000000000E+00  0.00000000000E+00  0.13337573730E+03  0.13337573730E+03  0.00000000000E+00 0.  1.
          2   -1    0    0  501    0  0.00000000000E+00 -0.00000000000E+00 -0.29872285927E+04  0.29872285927E+04  0.00000000000E+00 0. -1.
         24    2    1    2    0    0  0.22689780204E+03 -0.14972652609E+03 -0.38254727157E+03  0.47670840031E+03  0.83712835078E+02 0.  0.
        254    2    1    2    0    0 -0.22689780204E+03  0.14972652609E+03 -0.24713055838E+04  0.26438959297E+04  0.89940744557E+03 0.  0.
         23    2    4    4    0    0 -0.32200291901E+03 -0.28867105721E+03 -0.83219223554E+03  0.94206128916E+03  0.88987058132E+02 0.  0.
         23    2    4    4    0    0  0.95105116972E+02  0.43839758331E+03 -0.16391133483E+04  0.17018346405E+04  0.91165513364E+02 0.  0.
          4    1    3    3  502    0  0.16098622920E+03 -0.12020072796E+03 -0.33371648912E+03  0.38952724694E+03  0.00000000000E+00 0. -1.
         -3    1    3    3    0  502  0.65911572837E+02 -0.29525798136E+02 -0.48830782447E+02  0.87181153375E+02  0.00000000000E+00 0.  1.
         11    1    5    5    0    0 -0.61060154904E+02 -0.17359030234E+02 -0.15051855677E+03  0.16335701509E+03  0.00000000000E+00 0. -1.
        -11    1    5    5    0    0 -0.26094276411E+03 -0.27131202698E+03 -0.68167367877E+03  0.77870427407E+03  0.00000000000E+00 0.  1.
          1    1    6    6  503    0  0.16113789806E+02  0.19186569489E+02 -0.43689783932E+02  0.50364430809E+02  0.00000000000E+00 0. -1.
         -1    1    6    6    0  503  0.78991327166E+02  0.41921101382E+03 -0.15954235644E+04  0.16514702097E+04  0.00000000000E+00 0.  1.
<mgrwt>
<rscale>  0 0.12624164E+04</rscale>
<asrwt>0</asrwt>
<pdfrwt beam="1">  1        2 0.45957365E+00 0.12624164E+04</pdfrwt>
<pdfrwt beam="2">  1       -1 0.20519343E-01 0.12624164E+04</pdfrwt>
<totfact> 0.39369463E+01</totfact>
</mgrwt>
</event>
<event>
12    6  0.8914180E-008  0.1606783E+04  0.7818608E-02  0.8816392E-01
         -1   -1    0    0    0  501 -0.00000000000E+00  0.00000000000E+00  0.63295572644E+03  0.63295572644E+03  0.00000000000E+00 0.  1.
          2   -1    0    0  501    0  0.00000000000E+00 -0.00000000000E+00 -0.10197204578E+04  0.10197204578E+04  0.00000000000E+00 0. -1.
         24    2    1    2    0    0  0.47728958351E+03  0.27646785514E+03 -0.12362733171E+03  0.57006110000E+03  0.73797826081E+02 0.  0.
        254    2    1    2    0    0 -0.47728958351E+03 -0.27646785514E+03 -0.26313739969E+03  0.10826150843E+04  0.89362984963E+03 0.  0.
         23    2    4    4    0    0 -0.59960246381E+03 -0.34778638645E+03 -0.45024423899E+03  0.83153885179E+03  0.90876301014E+02 0.  0.
         23    2    4    4    0    0  0.12231288030E+03  0.71318531301E+02  0.18710683930E+03  0.25107623249E+03  0.89350610603E+02 0.  0.
          2    1    3    3  502    0  0.13226215029E+03  0.43044718358E+02 -0.44562402765E+02  0.14605455117E+03  0.00000000000E+00 0. -1.
         -1    1    3    3    0  502  0.34502743322E+03  0.23342313679E+03 -0.79064928949E+02  0.42400654883E+03  0.00000000000E+00 0.  1.
         11    1    5    5    0    0 -0.53037377553E+03 -0.33564460252E+03 -0.41872753685E+03  0.75451069647E+03  0.00000000000E+00 0. -1.
        -11    1    5    5    0    0 -0.69228688283E+02 -0.12141783923E+02 -0.31516702141E+02  0.77028155320E+02  0.00000000000E+00 0.  1.
          4    1    6    6  503    0  0.11826292675E+03  0.46623010135E+02  0.18691932522E+03  0.22605012510E+03  0.00000000000E+00 0. -1.
         -4    1    6    6    0  503  0.40499535520E+01  0.24695521166E+02  0.18751407537E+00  0.25026107388E+02  0.00000000000E+00 0.  1.
<mgrwt>
<rscale>  0 0.16067830E+04</rscale>
<asrwt>0</asrwt>
<pdfrwt beam="1">  1        2 0.15688007E+00 0.16067830E+04</pdfrwt>
<pdfrwt beam="2">  1       -1 0.97377805E-01 0.16067830E+04</pdfrwt>
<totfact> 0.27095366E+01</totfact>
</mgrwt>
</event>
<event>
12    6  0.8914180E-008  0.1910525E+04  0.7818608E-02  0.8649635E-01
          2   -1    0    0  501    0  0.00000000000E+00  0.00000000000E+00  0.18023349362E+04  0.18023349362E+04  0.00000000000E+00 0. -1.
         -1   -1    0    0    0  501 -0.00000000000E+00 -0.00000000000E+00 -0.50630222941E+03  0.50630222941E+03  0.00000000000E+00 0.  1.
         24    2    1    2    0    0  0.29716364969E+03 -0.26734352426E+03  0.12629288765E+04  0.13270756377E+04  0.79759677989E+02 0.  0.
        254    2    1    2    0    0 -0.29716364969E+03  0.26734352426E+03  0.33103830264E+02  0.98156152795E+03  0.89587296807E+03 0.  0.
         23    2    4    4    0    0 -0.42162321988E+03  0.82193566816E+02 -0.32646756337E+03  0.54737002226E+03  0.92254806715E+02 0.  0.
         23    2    4    4    0    0  0.12445957019E+03  0.18514995744E+03  0.35957139364E+03  0.43419150569E+03  0.97262454944E+02 0.  0.
          4    1    3    3  502    0  0.26078864781E+03 -0.24863651897E+03  0.10459243161E+04  0.11062497514E+04  0.00000000000E+00 0. -1.
         -3    1    3    3    0  502  0.36375001884E+02 -0.18707005286E+02  0.21700456042E+03  0.22082588628E+03  0.00000000000E+00 0.  1.
         11    1    5    5    0    0 -0.20008959306E+03  0.81883200227E+01 -0.19417594340E+03  0.27893940352E+03  0.00000000000E+00 0. -1.
        -11    1    5    5    0    0 -0.22153362682E+03  0.74005246794E+02 -0.13229161997E+03  0.26843061874E+03  0.00000000000E+00 0.  1.
          1    1    6    6  503    0  0.30929882801E+01  0.85564983485E+02  0.11084661851E+03  0.14006393472E+03  0.00000000000E+00 0. -1.
         -1    1    6    6    0  503  0.12136658191E+03  0.99584973955E+02  0.24872477513E+03  0.29412757097E+03  0.00000000000E+00 0.  1.
<mgrwt>
<rscale>  0 0.19105247E+04</rscale>
<asrwt>0</asrwt>
<pdfrwt beam="1">  1        2 0.27728229E+00 0.19105247E+04</pdfrwt>
<pdfrwt beam="2">  1       -1 0.77892652E-01 0.19105247E+04</pdfrwt>
<totfact> 0.15135926E+01</totfact>
</mgrwt>
</event>
<event>
12    6  0.8914180E-008  0.1952794E+04  0.7818608E-02  0.8629015E-01
          2   -1    0    0  501    0  0.00000000000E+00  0.00000000000E+00  0.14784523231E+04  0.14784523231E+04  0.00000000000E+00 0. -1.
         -1   -1    0    0    0  501 -0.00000000000E+00 -0.00000000000E+00 -0.64483061299E+03  0.64483061299E+03  0.00000000000E+00 0.  1.
         24    2    1    2    0    0  0.59310713047E+03 -0.33845261473E+03  0.46025637873E+03  0.82793377693E+03  0.85511193348E+02 0.  0.
        254    2    1    2    0    0 -0.59310713047E+03  0.33845261473E+03  0.37336533141E+03  0.12953491592E+04  0.10354716476E+04 0.  0.
         23    2    4    4    0    0 -0.60951210314E+02  0.29208651510E+03  0.62412275564E+03  0.69794358386E+03  0.92555117677E+02 0.  0.
         23    2    4    4    0    0 -0.53215592016E+03  0.46366099626E+02 -0.25075742422E+03  0.59740557534E+03  0.93136443393E+02 0.  0.
          2    1    3    3  502    0  0.63932646639E+02 -0.38811275982E+02  0.85580340722E+02  0.11365603005E+03  0.00000000000E+00 0. -1.
         -1    1    3    3    0  502  0.52917448383E+03 -0.29964133875E+03  0.37467603801E+03  0.71427774688E+03  0.00000000000E+00 0.  1.
         11    1    5    5    0    0 -0.27255734077E+02  0.13272737141E+02  0.81404178078E+02  0.86865878225E+02  0.00000000000E+00 0.  1.
        -11    1    5    5    0    0 -0.33695476237E+02  0.27881377796E+03  0.54271857756E+03  0.61107770564E+03  0.00000000000E+00 0. -1.
          4    1    6    6  503    0 -0.38396084397E+03 -0.73379640009E+01 -0.19015876763E+03  0.42853253356E+03  0.00000000000E+00 0. -1.
         -4    1    6    6    0  503 -0.14819507619E+03  0.53704063627E+02 -0.60598656594E+02  0.16887304177E+03  0.00000000000E+00 0.  1.
<mgrwt>
<rscale>  0 0.19527942E+04</rscale>
<asrwt>0</asrwt>
<pdfrwt beam="1">  1        2 0.22745420E+00 0.19527942E+04</pdfrwt>
<pdfrwt beam="2">  1       -1 0.99204710E-01 0.19527942E+04</pdfrwt>
<totfact> 0.13466911E+01</totfact>
</mgrwt>
</event>
<event>
12    6  0.8914180E-008  0.1144202E+04  0.7818608E-02  0.9163149E-01
         -1   -1    0    0    0  501 -0.00000000000E+00  0.00000000000E+00  0.19395090481E+03  0.19395090481E+03  0.00000000000E+00 0.  1.
          2   -1    0    0  501    0  0.00000000000E+00 -0.00000000000E+00 -0.16875377158E+04  0.16875377158E+04  0.00000000000E+00 0. -1.
         24    2    1    2    0    0  0.12440917081E+03  0.39967418405E+02 -0.25783841284E+02  0.15506603892E+03  0.79408019991E+02 0.  0.
        254    2    1    2    0    0 -0.12440917081E+03 -0.39967418405E+02 -0.14678029697E+04  0.17264225817E+04  0.89945224243E+03 0.  0.
         23    2    4    4    0    0 -0.39938853259E+03  0.10094995691E+03 -0.12921652786E+04  0.13592910287E+04  0.90988458473E+02 0.  0.
         23    2    4    4    0    0  0.27497936178E+03 -0.14091737531E+03 -0.17563769111E+03  0.36713155305E+03  0.92008818274E+02 0.  0.
          4    1    3    3  502    0  0.97585220532E+01  0.30642662131E+02 -0.23820231220E+02  0.40020056353E+02  0.00000000000E+00 0. -1.
         -3    1    3    3    0  502  0.11465064876E+03  0.93247562740E+01 -0.19636100640E+01  0.11504598256E+03  0.00000000000E+00 0.  1.
         11    1    5    5    0    0 -0.31279124761E+03  0.42587910962E+02 -0.91436544650E+03  0.96732428094E+03  0.00000000000E+00 0. -1.
        -11    1    5    5    0    0 -0.86597284977E+02  0.58362045947E+02 -0.37779983212E+03  0.39196674773E+03  0.00000000000E+00 0.  1.
          2    1    6    6  503    0  0.27462436369E+03 -0.14848553171E+03 -0.16247495470E+03  0.35194403698E+03  0.00000000000E+00 0. -1.
         -2    1    6    6    0  503  0.35499808694E+00  0.75681563916E+01 -0.13162736409E+02  0.15187516077E+02  0.00000000000E+00 0.  1.
<mgrwt>
<rscale>  0 0.11442018E+04</rscale>
<asrwt>0</asrwt>
<pdfrwt beam="1">  1        2 0.25962118E+00 0.11442018E+04</pdfrwt>
<pdfrwt beam="2">  1       -1 0.29838601E-01 0.11442018E+04</pdfrwt>
<totfact> 0.11578797E+02</totfact>
</mgrwt>
</event>
<event>
12    6  0.8914180E-008  0.2877875E+04  0.7818608E-02  0.8279491E-01
          2   -1    0    0  501    0  0.00000000000E+00  0.00000000000E+00  0.80569419898E+03  0.80569419898E+03  0.00000000000E+00 0. -1.
         -1   -1    0    0    0  501 -0.00000000000E+00 -0.00000000000E+00 -0.25698853977E+04  0.25698853977E+04  0.00000000000E+00 0.  1.
         24    2    1    2    0    0  0.98282802396E+03 -0.21635043910E+03 -0.17555006819E+04  0.20248361507E+04  0.73623064638E+02 0.  0.
        254    2    1    2    0    0 -0.98282802396E+03  0.21635043910E+03 -0.86905167829E+01  0.13507434460E+04  0.90092946151E+03 0.  0.
         23    2    4    4    0    0 -0.15269659706E+03 -0.21452883475E+03 -0.25688932785E+03  0.37891491519E+03  0.90804815386E+02 0.  0.
         23    2    4    4    0    0 -0.83013142690E+03  0.43087927385E+03  0.24819881107E+03  0.97182853080E+03  0.89849367799E+02 0.  0.
          4    1    3    3  502    0  0.44020057579E+03 -0.84320465563E+02 -0.85123120013E+03  0.96201925340E+03  0.00000000000E+00 0. -1.
         -1    1    3    3    0  502  0.54262744817E+03 -0.13202997354E+03 -0.90426948182E+03  0.10628168973E+04  0.00000000000E+00 0.  1.
         11    1    5    5    0    0 -0.97990455261E+02 -0.13083059741E+03 -0.96231602984E+02  0.18968209181E+03  0.00000000000E+00 0. -1.
        -11    1    5    5    0    0 -0.54706141799E+02 -0.83698237335E+02 -0.16065772487E+03  0.18923282338E+03  0.00000000000E+00 0.  1.
          4    1    6    6  503    0 -0.14112528751E+03  0.11196146077E+03  0.39330506853E+02  0.18438710432E+03  0.00000000000E+00 0. -1.
         -4    1    6    6    0  503 -0.68900613939E+03  0.31891781309E+03  0.20886830422E+03  0.78744142648E+03  0.00000000000E+00 0.  1.
<mgrwt>
<rscale>  0 0.28778754E+04</rscale>
<asrwt>0</asrwt>
<pdfrwt beam="1">  1        2 0.12395295E+00 0.28778754E+04</pdfrwt>
<pdfrwt beam="2">  1       -1 0.39536698E+00 0.28778754E+04</pdfrwt>
<totfact> 0.25867382E-01</totfact>
</mgrwt>
</event>
<event>
12    6  0.8914180E-008  0.1737857E+04  0.7818608E-02  0.8740063E-01
          2   -1    0    0  501    0  0.00000000000E+00  0.00000000000E+00  0.14292626344E+04  0.14292626344E+04  0.00000000000E+00 0. -1.
         -1   -1    0    0    0  501 -0.00000000000E+00 -0.00000000000E+00 -0.52826982341E+03  0.52826982341E+03  0.00000000000E+00 0.  1.
         24    2    1    2    0    0  0.37709039434E+03  0.90476369491E+02 -0.25015831070E+03  0.46823287988E+03  0.79244624072E+02 0.  0.
        254    2    1    2    0    0 -0.37709039434E+03 -0.90476369491E+02  0.11511511217E+04  0.14892995780E+04  0.86167348163E+03 0.  0.
         23    2    4    4    0    0 -0.63896044596E+03  0.19372900978E+02  0.81892919908E+03  0.10426337913E+04  0.88286062653E+02 0.  0.
         23    2    4    4    0    0  0.26187005162E+03 -0.10984927047E+03  0.33222192263E+03  0.44666578666E+03  0.92174470107E+02 0.  0.
          2    1    3    3  502    0  0.71087275330E+02  0.97814512783E+01 -0.13378950541E+02  0.72993656029E+02  0.00000000000E+00 0. -1.
         -1    1    3    3    0  502  0.30600311901E+03  0.80694918213E+02 -0.23677936016E+03  0.39523922385E+03  0.00000000000E+00 0.  1.
         11    1    5    5    0    0 -0.61044838259E+03  0.17796748441E+02  0.80613127552E+03  0.10113414781E+04  0.00000000000E+00 0. -1.
        -11    1    5    5    0    0 -0.28512063375E+02  0.15761525377E+01  0.12797923559E+02  0.31292313147E+02  0.00000000000E+00 0.  1.
          3    1    6    6  503    0  0.22570684457E+03 -0.11335992046E+03  0.24369061647E+03  0.35096889863E+03  0.00000000000E+00 0. -1.
         -3    1    6    6    0  503  0.36163207042E+02  0.35106499862E+01  0.88531306166E+02  0.95696888028E+02  0.00000000000E+00 0.  1.
<mgrwt>
<rscale>  0 0.17378565E+04</rscale>
<asrwt>0</asrwt>
<pdfrwt beam="1">  1        2 0.21988656E+00 0.17378565E+04</pdfrwt>
<pdfrwt beam="2">  1       -1 0.81272281E-01 0.17378565E+04</pdfrwt>
<totfact> 0.22705162E+01</totfact>
</mgrwt>
</event>
<event>
12    6  0.8914180E-008  0.1302580E+04  0.7818608E-02  0.9027522E-01
         -1   -1    0    0    0  501 -0.00000000000E+00  0.00000000000E+00  0.11391021578E+04  0.11391021578E+04  0.00000000000E+00 0.  1.
          2   -1    0    0  501    0  0.00000000000E+00 -0.00000000000E+00 -0.37237983201E+03  0.37237983201E+03  0.00000000000E+00 0. -1.
         24    2    1    2    0    0  0.26769254119E+03 -0.18630486632E+03  0.25397696841E+03  0.42124148932E+03  0.81063506114E+02 0.  0.
        254    2    1    2    0    0 -0.26769254119E+03  0.18630486632E+03  0.51274535733E+03  0.10902405004E+04  0.90517829598E+03 0.  0.
         23    2    4    4    0    0  0.20177825288E+03 -0.21169551551E+03  0.31023281322E+03  0.43611949377E+03  0.91795205881E+02 0.  0.
         23    2    4    4    0    0 -0.46947079407E+03  0.39800038182E+03  0.20251254411E+03  0.65412100667E+03  0.89754278114E+02 0.  0.
          4    1    3    3  502    0  0.69720976814E+02 -0.74496542655E+02  0.11931159040E+03  0.15699046175E+03  0.00000000000E+00 0. -1.
         -3    1    3    3    0  502  0.19797156437E+03 -0.11180832366E+03  0.13466537801E+03  0.26425102758E+03  0.00000000000E+00 0.  1.
         11    1    5    5    0    0  0.18268080709E+03 -0.21316288219E+03  0.30814844374E+03  0.41685267782E+03  0.00000000000E+00 0. -1.
        -11    1    5    5    0    0  0.19097445791E+02  0.14673666878E+01  0.20843694837E+01  0.19266815950E+02  0.00000000000E+00 0.  1.
          2    1    6    6  503    0 -0.38874238253E+03  0.36851782041E+03  0.18236796638E+03  0.56584812370E+03  0.00000000000E+00 0. -1.
         -2    1    6    6    0  503 -0.80728411534E+02  0.29482561411E+02  0.20144577732E+02  0.88272882971E+02  0.00000000000E+00 0.  1.
<mgrwt>
<rscale>  0 0.13025800E+04</rscale>
<asrwt>0</asrwt>
<pdfrwt beam="1">  1        2 0.57289205E-01 0.13025800E+04</pdfrwt>
<pdfrwt beam="2">  1       -1 0.17524648E+00 0.13025800E+04</pdfrwt>
<totfact> 0.21779378E+01</totfact>
</mgrwt>
</event>
<event>
12    6  0.8914180E-008  0.1601042E+04  0.7818608E-02  0.8819908E-01
         -1   -1    0    0    0  501 -0.00000000000E+00  0.00000000000E+00  0.32740891892E+03  0.32740891892E+03  0.00000000000E+00 0.  1.
          2   -1    0    0  501    0  0.00000000000E+00 -0.00000000000E+00 -0.19572879540E+04  0.19572879540E+04  0.00000000000E+00 0. -1.
         24    2    1    2    0    0 -0.35670207686E+03 -0.37985998965E+03 -0.43090694262E+03  0.68057254593E+03  0.77254214728E+02 0.  0.
        254    2    1    2    0    0  0.35670207686E+03  0.37985998965E+03 -0.11989720925E+04  0.16041243270E+04  0.92959711412E+03 0.  0.
         23    2    4    4    0    0 -0.90321896713E+02 -0.14845868232E+03  0.23478549223E+02  0.19620376225E+03  0.88015047938E+02 0.  0.
         23    2    4    4    0    0  0.44702397358E+03  0.52831867198E+03 -0.12224506417E+04  0.14079205647E+04  0.94359383067E+02 0.  0.
          2    1    3    3  502    0 -0.15475088487E+03 -0.17490647074E+03 -0.14469223164E+03  0.27472886956E+03  0.00000000000E+00 0. -1.
         -1    1    3    3    0  502 -0.20195119200E+03 -0.20495351891E+03 -0.28621471098E+03  0.40584367637E+03  0.00000000000E+00 0.  1.
         11    1    5    5    0    0  0.17073595299E+02 -0.11694128671E+02 -0.28095573914E+00  0.20696358084E+02  0.00000000000E+00 0.  1.
        -11    1    5    5    0    0 -0.10739549201E+03 -0.13676455365E+03  0.23759504962E+02  0.17550740416E+03  0.00000000000E+00 0. -1.
          2    1    6    6  503    0  0.40795940428E+03  0.45448993566E+03 -0.10191857189E+04  0.11881630809E+04  0.00000000000E+00 0. -1.
         -2    1    6    6    0  503  0.39064569295E+02  0.73828736314E+02 -0.20326492280E+03  0.21975748388E+03  0.00000000000E+00 0.  1.
<mgrwt>
<rscale>  0 0.16010416E+04</rscale>
<asrwt>0</asrwt>
<pdfrwt beam="1">  1        2 0.30112123E+00 0.16010416E+04</pdfrwt>
<pdfrwt beam="2">  1       -1 0.50370602E-01 0.16010416E+04</pdfrwt>
<totfact> 0.30508555E+01</totfact>
</mgrwt>
</event>
<event>
12    6  0.8914180E-008  0.2230114E+04  0.7818608E-02  0.8505998E-01
         -1   -1    0    0    0  501 -0.00000000000E+00  0.00000000000E+00  0.49249329851E+03  0.49249329851E+03  0.00000000000E+00 0.  1.
          2   -1    0    0  501    0  0.00000000000E+00 -0.00000000000E+00 -0.25246070625E+04  0.25246070625E+04  0.00000000000E+00 0. -1.
         24    2    1    2    0    0 -0.43334393785E+03 -0.21698659176E+02  0.26813986826E+03  0.51644858756E+03  0.81008359821E+02 0.  0.
        254    2    1    2    0    0  0.43334393785E+03  0.21698659176E+02 -0.23002536322E+04  0.25006517734E+04  0.87967875902E+03 0.  0.
         23    2    4    4    0    0  0.46089294023E+03  0.32929412848E+02 -0.46028350556E+03  0.65820198875E+03  0.88669633515E+02 0.  0.
         23    2    4    4    0    0 -0.27549002384E+02 -0.11230753671E+02 -0.18399701267E+04  0.18424497847E+04  0.90807844801E+02 0.  0.
          4    1    3    3  502    0 -0.30274812434E+03 -0.50330888627E+02  0.17244299942E+03  0.35203155142E+03  0.00000000000E+00 0. -1.
         -3    1    3    3    0  502 -0.13059581351E+03  0.28632229451E+02  0.95696868837E+02  0.16441703614E+03  0.00000000000E+00 0.  1.
         11    1    5    5    0    0  0.15516008431E+02  0.74051537481E+01 -0.47122142606E+02  0.50160533724E+02  0.00000000000E+00 0.  1.
        -11    1    5    5    0    0  0.44537693180E+03  0.25524259099E+02 -0.41316136296E+03  0.60804145502E+03  0.00000000000E+00 0. -1.
          3    1    6    6  503    0  0.32326405344E+01  0.15151331362E+02 -0.14987101694E+04  0.14987902404E+04  0.00000000000E+00 0. -1.
         -3    1    6    6    0  503 -0.30781642918E+02 -0.26382085034E+02 -0.34125995727E+03  0.34365954429E+03  0.00000000000E+00 0.  1.
<mgrwt>
<rscale>  0 0.22301140E+04</rscale>
<asrwt>0</asrwt>
<pdfrwt beam="1">  1        2 0.38840109E+00 0.22301140E+04</pdfrwt>
<pdfrwt beam="2">  1       -1 0.75768199E-01 0.22301140E+04</pdfrwt>
<totfact> 0.61166521E+00</totfact>
</mgrwt>
</event>
<event>
12    6  0.8914180E-008  0.2180866E+04  0.7818608E-02  0.8526434E-01
          2   -1    0    0  501    0  0.00000000000E+00  0.00000000000E+00  0.14213493136E+04  0.14213493136E+04  0.00000000000E+00 0. -1.
         -1   -1    0    0    0  501 -0.00000000000E+00 -0.00000000000E+00 -0.83656016969E+03  0.83656016969E+03  0.00000000000E+00 0.  1.
         24    2    1    2    0    0  0.55365266301E+03  0.36421555785E+03 -0.39423929328E+03  0.77540723117E+03  0.81532263171E+02 0.  0.
        254    2    1    2    0    0 -0.55365266301E+03 -0.36421555785E+03  0.97902843716E+03  0.14825022521E+04  0.89450097980E+03 0.  0.
         23    2    4    4    0    0 -0.27054306237E+03  0.68491495638E+02 -0.76445410933E+02  0.30371567823E+03  0.92275017077E+02 0.  0.
         23    2    4    4    0    0 -0.28310960064E+03 -0.43270705349E+03  0.10554738481E+04  0.11787865739E+04  0.90146007158E+02 0.  0.
          4    1    3    3  502    0  0.19463059945E+03  0.17248478607E+03 -0.17025838809E+03  0.31083756270E+03  0.00000000000E+00 0. -1.
         -3    1    3    3    0  502  0.35902206356E+03  0.19173077178E+03 -0.22398090519E+03  0.46456966847E+03  0.00000000000E+00 0.  1.
         11    1    5    5    0    0 -0.17019198293E+03  0.69009299434E+02 -0.86230387813E+02  0.20288734373E+03  0.00000000000E+00 0. -1.
        -11    1    5    5    0    0 -0.10035107944E+03 -0.51780379557E+00  0.97849768794E+01  0.10082833450E+03  0.00000000000E+00 0.  1.
          3    1    6    6  503    0 -0.25614222097E+03 -0.33047080318E+03  0.87106423508E+03  0.96621565438E+03  0.00000000000E+00 0. -1.
         -3    1    6    6    0  503 -0.26967379675E+02 -0.10223625031E+03  0.18440961301E+03  0.21257091949E+03  0.00000000000E+00 0.  1.
<mgrwt>
<rscale>  0 0.21808661E+04</rscale>
<asrwt>0</asrwt>
<pdfrwt beam="1">  1        2 0.21866912E+00 0.21808661E+04</pdfrwt>
<pdfrwt beam="2">  1       -1 0.12870156E+00 0.21808661E+04</pdfrwt>
<totfact> 0.76343171E+00</totfact>
</mgrwt>
</event>
<event>
12    6  0.8914180E-008  0.2203446E+04  0.7818608E-02  0.8516995E-01
          2   -1    0    0  501    0  0.00000000000E+00  0.00000000000E+00  0.29013767452E+04  0.29013767452E+04  0.00000000000E+00 0. -1.
         -1   -1    0    0    0  501 -0.00000000000E+00 -0.00000000000E+00 -0.41835074588E+03  0.41835074588E+03  0.00000000000E+00 0.  1.
         24    2    1    2    0    0 -0.40785232021E+03 -0.28702243877E+03  0.21513012798E+04  0.22097975855E+04  0.79892282968E+02 0.  0.
        254    2    1    2    0    0  0.40785232021E+03  0.28702243877E+03  0.33172471954E+03  0.11099299056E+04  0.93443978424E+03 0.  0.
         23    2    4    4    0    0  0.30144095663E+03  0.89765311531E+02 -0.29342040780E+03  0.43955560348E+03  0.90493819419E+02 0.  0.
         23    2    4    4    0    0  0.10641136358E+03  0.19725712724E+03  0.62514512734E+03  0.67037430213E+03  0.91441359247E+02 0.  0.
          4    1    3    3  502    0 -0.33350323115E+03 -0.26854941104E+03  0.18506885475E+04  0.18995766084E+04  0.00000000000E+00 0. -1.
         -3    1    3    3    0  502 -0.74349089064E+02 -0.18473027737E+02  0.30061273235E+03  0.31022097713E+03  0.00000000000E+00 0.  1.
         11    1    5    5    0    0  0.24307350166E+03  0.37862451082E+02 -0.24744085321E+03  0.34892014595E+03  0.00000000000E+00 0.  1.
        -11    1    5    5    0    0  0.58367454968E+02  0.51902860449E+02 -0.45979554587E+02  0.90635457533E+02  0.00000000000E+00 0. -1.
          1    1    6    6  503    0  0.55776469056E+02  0.76349826127E+02  0.14861411546E+03  0.17614331030E+03  0.00000000000E+00 0. -1.
         -1    1    6    6    0  503  0.50634894524E+02  0.12090730112E+03  0.47653101188E+03  0.49423099184E+03  0.00000000000E+00 0.  1.
<mgrwt>
<rscale>  0 0.22034456E+04</rscale>
<asrwt>0</asrwt>
<pdfrwt beam="1">  1        2 0.44636564E+00 0.22034456E+04</pdfrwt>
<pdfrwt beam="2">  1       -1 0.64361655E-01 0.22034456E+04</pdfrwt>
<totfact> 0.51083339E+00</totfact>
</mgrwt>
</event>
<event>
12    6  0.8914180E-008  0.2148367E+04  0.7818608E-02  0.8540232E-01
          2   -1    0    0  501    0  0.00000000000E+00  0.00000000000E+00  0.35367878322E+04  0.35367878322E+04  0.00000000000E+00 0. -1.
         -1   -1    0    0    0  501 -0.00000000000E+00 -0.00000000000E+00 -0.32624807961E+03  0.32624807961E+03  0.00000000000E+00 0.  1.
         24    2    1    2    0    0  0.15006146362E+02  0.32875276922E+03 -0.14807285592E+03  0.36961941850E+03  0.79933573490E+02 0.  0.
        254    2    1    2    0    0 -0.15006146362E+02 -0.32875276922E+03  0.33586126086E+04  0.34934164934E+04  0.90298204524E+03 0.  0.
         23    2    4    4    0    0  0.21393764738E+03 -0.23603386308E+03  0.31225316571E+04  0.31400620595E+04  0.91128955182E+02 0.  0.
         23    2    4    4    0    0 -0.22894379374E+03 -0.92718906140E+02  0.23608095148E+03  0.35335443388E+03  0.90072659777E+02 0.  0.
          4    1    3    3  502    0 -0.19669160790E+02  0.44552200976E+02 -0.33588840900E+01  0.48816560718E+02  0.00000000000E+00 0. -1.
         -3    1    3    3    0  502  0.34675307151E+02  0.28420056824E+03 -0.14471397183E+03  0.32080285778E+03  0.00000000000E+00 0.  1.
         11    1    5    5    0    0  0.99065464566E+02 -0.46121317672E+02  0.99204449201E+03  0.99804479676E+03  0.00000000000E+00 0.  1.
        -11    1    5    5    0    0  0.11487218282E+03 -0.18991254541E+03  0.21304871651E+04  0.21420172627E+04  0.00000000000E+00 0. -1.
          4    1    6    6  503    0 -0.67969163695E+02 -0.90903114515E+00  0.24898045548E+02  0.72391617078E+02  0.00000000000E+00 0. -1.
         -4    1    6    6    0  503 -0.16097463005E+03 -0.91809874995E+02  0.21118290593E+03  0.28096281680E+03  0.00000000000E+00 0.  1.
<mgrwt>
<rscale>  0 0.21483670E+04</rscale>
<asrwt>0</asrwt>
<pdfrwt beam="1">  1        2 0.54412118E+00 0.21483670E+04</pdfrwt>
<pdfrwt beam="2">  1       -1 0.50192015E-01 0.21483670E+04</pdfrwt>
<totfact> 0.32014829E+00</totfact>
</mgrwt>
</event>
<event>
12    6  0.8914180E-008  0.1911540E+04  0.7818608E-02  0.8649134E-01
         -1   -1    0    0    0  501 -0.00000000000E+00  0.00000000000E+00  0.46313724364E+03  0.46313724364E+03  0.00000000000E+00 0.  1.
          2   -1    0    0  501    0  0.00000000000E+00 -0.00000000000E+00 -0.19724090477E+04  0.19724090477E+04  0.00000000000E+00 0. -1.
         24    2    1    2    0    0 -0.15607633240E+03 -0.25387791170E+03 -0.14548609707E+04  0.14872254360E+04  0.80032730582E+02 0.  0.
        254    2    1    2    0    0  0.15607633240E+03  0.25387791170E+03 -0.54410833352E+02  0.94832085529E+03  0.89863123149E+03 0.  0.
         23    2    4    4    0    0  0.18683493100E+03 -0.17935376495E+03 -0.32758953124E+03  0.42745931996E+03  0.91277077085E+02 0.  0.
         23    2    4    4    0    0 -0.30758598602E+02  0.43323167665E+03  0.27317869788E+03  0.52086153533E+03  0.89634596939E+02 0.  0.
          2    1    3    3  502    0 -0.14388597958E+03 -0.25767261355E+03 -0.13716128514E+04  0.14030039790E+04  0.00000000000E+00 0. -1.
         -1    1    3    3    0  502 -0.12190352811E+02  0.37947018471E+01 -0.83248119283E+02  0.84221457052E+02  0.00000000000E+00 0.  1.
         11    1    5    5    0    0  0.20545120948E+01 -0.27932145899E+02 -0.93464615245E+01  0.29525957012E+02  0.00000000000E+00 0.  1.
        -11    1    5    5    0    0  0.18478041890E+03 -0.15142161905E+03 -0.31824306971E+03  0.39793336295E+03  0.00000000000E+00 0. -1.
          1    1    6    6  503    0 -0.56596221884E+02  0.30186692346E+03  0.21490270839E+03  0.37484656313E+03  0.00000000000E+00 0. -1.
         -1    1    6    6    0  503  0.25837623282E+02  0.13136475319E+03  0.58275989490E+02  0.14601497221E+03  0.00000000000E+00 0.  1.
<mgrwt>
<rscale>  0 0.19115398E+04</rscale>
<asrwt>0</asrwt>
<pdfrwt beam="1">  1        2 0.30344755E+00 0.19115398E+04</pdfrwt>
<pdfrwt beam="2">  1       -1 0.71251883E-01 0.19115398E+04</pdfrwt>
<totfact> 0.14669297E+01</totfact>
</mgrwt>
</event>
<event>
12    6  0.8914180E-008  0.1723519E+04  0.7818608E-02  0.8748063E-01
          2   -1    0    0  501    0  0.00000000000E+00  0.00000000000E+00  0.15573376777E+04  0.15573376777E+04  0.00000000000E+00 0. -1.
         -1   -1    0    0    0  501 -0.00000000000E+00 -0.00000000000E+00 -0.47685846949E+03  0.47685846949E+03  0.00000000000E+00 0.  1.
         24    2    1    2    0    0 -0.33658626314E+03 -0.80860650415E+02 -0.21718576334E+03  0.41609500566E+03  0.78336713076E+02 0.  0.
        254    2    1    2    0    0  0.33658626314E+03  0.80860650415E+02  0.12976649716E+04  0.16181011416E+04  0.90248998253E+03 0.  0.
         23    2    4    4    0    0 -0.11048269710E+03  0.35744943662E+03  0.30501240718E+03  0.49120418591E+03  0.90953051741E+02 0.  0.
         23    2    4    4    0    0  0.44706896025E+03 -0.27658878620E+03  0.99265256440E+03  0.11268969557E+04  0.90363837915E+02 0.  0.
          2    1    3    3  502    0 -0.11970983336E+03 -0.64972992446E+02 -0.66817674541E+02  0.15171201529E+03  0.00000000000E+00 0. -1.
         -1    1    3    3    0  502 -0.21687642978E+03 -0.15887657969E+02 -0.15036808880E+03  0.26438299037E+03  0.00000000000E+00 0.  1.
         11    1    5    5    0    0 -0.81159103200E+01  0.10544157006E+03  0.45047715842E+02  0.11494820312E+03  0.00000000000E+00 0.  1.
        -11    1    5    5    0    0 -0.10236678678E+03  0.25200786656E+03  0.25996469134E+03  0.37625598279E+03  0.00000000000E+00 0. -1.
          4    1    6    6  503    0  0.38328577407E+03 -0.20158344460E+03  0.76956271422E+03  0.88304622804E+03  0.00000000000E+00 0. -1.
         -4    1    6    6    0  503  0.63783186177E+02 -0.75005341605E+02  0.22308985018E+03  0.24385072762E+03  0.00000000000E+00 0.  1.
<mgrwt>
<rscale>  0 0.17235193E+04</rscale>
<asrwt>0</asrwt>
<pdfrwt beam="1">  1        2 0.23959041E+00 0.17235193E+04</pdfrwt>
<pdfrwt beam="2">  1       -1 0.73362842E-01 0.17235193E+04</pdfrwt>
<totfact> 0.23874617E+01</totfact>
</mgrwt>
</event>
<event>
12    6  0.8914180E-008  0.1525018E+04  0.7818608E-02  0.8867985E-01
         -1   -1    0    0    0  501 -0.00000000000E+00  0.00000000000E+00  0.27118244816E+03  0.27118244816E+03  0.00000000000E+00 0.  1.
          2   -1    0    0  501    0  0.00000000000E+00 -0.00000000000E+00 -0.21440174870E+04  0.21440174870E+04  0.00000000000E+00 0. -1.
         24    2    1    2    0    0 -0.45769695180E+03 -0.12570364066E+03 -0.83871395788E+03  0.96705041790E+03  0.80358587962E+02 0.  0.
        254    2    1    2    0    0  0.45769695180E+03  0.12570364066E+03 -0.10341210810E+04  0.14481495173E+04  0.89579166624E+03 0.  0.
         23    2    4    4    0    0  0.56004299728E+03  0.25267350087E+03 -0.29923056889E+03  0.68967415035E+03  0.92840957845E+02 0.  0.
         23    2    4    4    0    0 -0.10234604548E+03 -0.12696986021E+03 -0.73489051206E+03  0.75847536691E+03  0.92869580956E+02 0.  0.
          2    1    3    3  502    0 -0.39098060328E+03 -0.12418301813E+03 -0.66993293098E+03  0.78555546344E+03  0.00000000000E+00 0. -1.
         -1    1    3    3    0  502 -0.66716348515E+02 -0.15206225324E+01 -0.16878102690E+03  0.18149495445E+03  0.00000000000E+00 0.  1.
         11    1    5    5    0    0  0.11122113301E+03  0.83644931857E+02 -0.41531888387E+02  0.14522917340E+03  0.00000000000E+00 0. -1.
        -11    1    5    5    0    0  0.44882186427E+03  0.16902856901E+03 -0.25769868051E+03  0.54444497695E+03  0.00000000000E+00 0.  1.
          3    1    6    6  503    0 -0.80265355342E+02 -0.56734550403E+02 -0.26090635124E+03  0.27880721044E+03  0.00000000000E+00 0.  1.
         -3    1    6    6    0  503 -0.22080690140E+02 -0.70235309806E+02 -0.47398416082E+03  0.47966815647E+03  0.00000000000E+00 0. -1.
<mgrwt>
<rscale>  0 0.15250179E+04</rscale>
<asrwt>0</asrwt>
<pdfrwt beam="1">  1        2 0.32984886E+00 0.15250179E+04</pdfrwt>
<pdfrwt beam="2">  1       -1 0.41720375E-01 0.15250179E+04</pdfrwt>
<totfact> 0.34400220E+01</totfact>
</mgrwt>
</event>
<event>
12    6  0.8914180E-008  0.2274987E+04  0.7818608E-02  0.8487849E-01
          2   -1    0    0  501    0  0.00000000000E+00  0.00000000000E+00  0.44251317524E+03  0.44251317524E+03  0.00000000000E+00 0. -1.
         -1   -1    0    0    0  501 -0.00000000000E+00 -0.00000000000E+00 -0.29239613161E+04  0.29239613161E+04  0.00000000000E+00 0.  1.
         24    2    1    2    0    0  0.88501236980E+03  0.16187608921E+03 -0.58782314517E+03  0.10797618444E+04  0.10439745046E+03 0.  0.
        254    2    1    2    0    0 -0.88501236980E+03 -0.16187608921E+03 -0.18936249957E+04  0.22867126469E+04  0.91312011390E+03 0.  0.
         23    2    4    4    0    0 -0.82872911373E+03  0.95889840194E+02 -0.80454955979E+03  0.11623817571E+04  0.88569462518E+02 0.  0.
         23    2    4    4    0    0 -0.56283256073E+02 -0.25776592940E+03 -0.10890754359E+04  0.11243308898E+04  0.91779984103E+02 0.  0.
          4    1    3    3  502    0  0.58344007041E+03  0.57742503592E+02 -0.36534030037E+03  0.69080391397E+03  0.00000000000E+00 0. -1.
         -3    1    3    3    0  502  0.30157229940E+03  0.10413358561E+03 -0.22248284480E+03  0.38895793044E+03  0.00000000000E+00 0.  1.
         11    1    5    5    0    0 -0.11770047355E+03  0.21687266416E+02 -0.16013425281E+03  0.19991677749E+03  0.00000000000E+00 0.  1.
        -11    1    5    5    0    0 -0.71102864018E+03  0.74202573777E+02 -0.64441530697E+03  0.96246497961E+03  0.00000000000E+00 0. -1.
          4    1    6    6  503    0 -0.68488877336E+02 -0.11968602528E+03 -0.62298905364E+03  0.63806804646E+03  0.00000000000E+00 0. -1.
         -4    1    6    6    0  503  0.12205621264E+02 -0.13807990412E+03 -0.46608638226E+03  0.48626284337E+03  0.00000000000E+00 0.  1.
<mgrwt>
<rscale>  0 0.22749870E+04</rscale>
<asrwt>0</asrwt>
<pdfrwt beam="1">  1        2 0.68078952E-01 0.22749870E+04</pdfrwt>
<pdfrwt beam="2">  1       -1 0.44984019E+00 0.22749870E+04</pdfrwt>
<totfact> 0.23851585E-01</totfact>
</mgrwt>
</event>
<event>
12    6  0.8914180E-008  0.2009038E+04  0.7818608E-02  0.8602407E-01
          2   -1    0    0  501    0  0.00000000000E+00  0.00000000000E+00  0.65570089921E+03  0.65570089921E+03  0.00000000000E+00 0. -1.
         -1   -1    0    0    0  501 -0.00000000000E+00 -0.00000000000E+00 -0.15389003335E+04  0.15389003335E+04  0.00000000000E+00 0.  1.
         24    2    1    2    0    0  0.59887423279E+03  0.34314322263E+03 -0.82020465568E+03  0.10749061377E+04  0.79308950784E+02 0.  0.
        254    2    1    2    0    0 -0.59887423279E+03 -0.34314322263E+03 -0.62994778595E+02  0.11196950950E+04  0.87940385815E+03 0.  0.
         23    2    4    4    0    0 -0.10722080748E+02  0.29178746917E+02  0.30960372621E+03  0.32490741891E+03  0.93509364734E+02 0.  0.
         23    2    4    4    0    0 -0.58815215204E+03 -0.37232196954E+03 -0.37259850481E+03  0.79478767610E+03  0.91165790402E+02 0.  0.
          2    1    3    3  502    0  0.13272999600E+03  0.87974146506E+02 -0.24096941341E+03  0.28883033166E+03  0.00000000000E+00 0. -1.
         -1    1    3    3    0  502  0.46614423680E+03  0.25516907612E+03 -0.57923524228E+03  0.78607580601E+03  0.00000000000E+00 0.  1.
         11    1    5    5    0    0  0.11743555617E+02  0.22361117060E+02  0.29735721888E+03  0.29842795827E+03  0.00000000000E+00 0. -1.
        -11    1    5    5    0    0 -0.22465636365E+02  0.68176298562E+01  0.12246507327E+02  0.26479460641E+02  0.00000000000E+00 0.  1.
          4    1    6    6  503    0 -0.13220419881E+03 -0.12583400943E+03 -0.11784647864E+03  0.21725547322E+03  0.00000000000E+00 0.  1.
         -4    1    6    6    0  503 -0.45594795323E+03 -0.24648796011E+03 -0.25475202616E+03  0.57753220288E+03  0.00000000000E+00 0. -1.
<mgrwt>
<rscale>  0 0.20090379E+04</rscale>
<asrwt>0</asrwt>
<pdfrwt beam="1">  1        2 0.10087706E+00 0.20090379E+04</pdfrwt>
<pdfrwt beam="2">  1       -1 0.23675389E+00 0.20090379E+04</pdfrwt>
<totfact> 0.40146701E+00</totfact>
</mgrwt>
</event>
<event>
12    6  0.8914180E-008  0.1942098E+04  0.7818608E-02  0.8634181E-01
         -1   -1    0    0    0  501 -0.00000000000E+00  0.00000000000E+00  0.65225040967E+03  0.65225040967E+03  0.00000000000E+00 0.  1.
          2   -1    0    0  501    0  0.00000000000E+00 -0.00000000000E+00 -0.14456661412E+04  0.14456661412E+04  0.00000000000E+00 0. -1.
         24    2    1    2    0    0 -0.52468099560E+03 -0.53636893372E+02 -0.88978366011E+03  0.10374949784E+04  0.80708146322E+02 0.  0.
        254    2    1    2    0    0  0.52468099560E+03  0.53636893372E+02  0.96367928584E+02  0.10604215725E+04  0.91489893992E+03 0.  0.
         23    2    4    4    0    0  0.19733123142E+03 -0.40990482107E+03 -0.53491434038E+02  0.46708031179E+03  0.91329660682E+02 0.  0.
         23    2    4    4    0    0  0.32734976418E+03  0.46354171444E+03  0.14985936262E+03  0.59334126070E+03  0.86989849684E+02 0.  0.
          2    1    3    3  502    0 -0.35509205049E+03 -0.63338485408E+02 -0.55188823190E+03  0.65930474635E+03  0.00000000000E+00 0. -1.
         -1    1    3    3    0  502 -0.16958894510E+03  0.97015920364E+01 -0.33789542821E+03  0.37819023202E+03  0.00000000000E+00 0.  1.
         11    1    5    5    0    0  0.15204788381E+02 -0.83453118600E+02  0.17414084696E+02  0.86595952213E+02  0.00000000000E+00 0. -1.
        -11    1    5    5    0    0  0.18212644303E+03 -0.32645170247E+03 -0.70905518735E+02  0.38048435958E+03  0.00000000000E+00 0.  1.
          1    1    6    6  503    0  0.62249253730E+02  0.56544317948E+02 -0.29547903870E+01  0.84148441865E+02  0.00000000000E+00 0. -1.
         -1    1    6    6    0  503  0.26510051045E+03  0.40699739649E+03  0.15281415301E+03  0.50919281883E+03  0.00000000000E+00 0.  1.
<mgrwt>
<rscale>  0 0.19420982E+04</rscale>
<asrwt>0</asrwt>
<pdfrwt beam="1">  1        2 0.22241017E+00 0.19420982E+04</pdfrwt>
<pdfrwt beam="2">  1       -1 0.10034622E+00 0.19420982E+04</pdfrwt>
<totfact> 0.13706475E+01</totfact>
</mgrwt>
</event>
<event>
12    6  0.8914180E-008  0.1866966E+04  0.7818608E-02  0.8671477E-01
         -1   -1    0    0    0  501 -0.00000000000E+00  0.00000000000E+00  0.57969466082E+03  0.57969466082E+03  0.00000000000E+00 0.  1.
          2   -1    0    0  501    0  0.00000000000E+00 -0.00000000000E+00 -0.15031887094E+04  0.15031887094E+04  0.00000000000E+00 0. -1.
         24    2    1    2    0    0  0.38935348850E+03 -0.35374682008E+03 -0.84888185510E+03  0.10018844273E+04  0.80243690941E+02 0.  0.
        254    2    1    2    0    0 -0.38935348850E+03  0.35374682008E+03 -0.74612193498E+02  0.10809989430E+04  0.94141318430E+03 0.  0.
         23    2    4    4    0    0 -0.46181218293E+03  0.62445450064E+03 -0.39885703694E+02  0.78304121837E+03  0.91371574529E+02 0.  0.
         23    2    4    4    0    0  0.72458694431E+02 -0.27070768057E+03 -0.34726489804E+02  0.29795772461E+03  0.95078734952E+02 0.  0.
          2    1    3    3  502    0  0.21032093644E+03 -0.15162808056E+03 -0.36415659843E+03  0.44703019954E+03  0.00000000000E+00 0. -1.
         -1    1    3    3    0  502  0.17903255206E+03 -0.20211873952E+03 -0.48472525667E+03  0.55485422772E+03  0.00000000000E+00 0.  1.
         11    1    5    5    0    0 -0.23574555210E+03  0.29085323133E+03 -0.61803769976E+02  0.37946182086E+03  0.00000000000E+00 0.  1.
        -11    1    5    5    0    0 -0.22606663083E+03  0.33360126932E+03  0.21918066281E+02  0.40357939751E+03  0.00000000000E+00 0. -1.
          1    1    6    6  503    0  0.74381132392E+02 -0.17046529033E+03 -0.58400218640E+02  0.19493987176E+03  0.00000000000E+00 0. -1.
         -1    1    6    6    0  503 -0.19224379618E+01 -0.10024239024E+03  0.23673728836E+02  0.10301785285E+03  0.00000000000E+00 0.  1.
<mgrwt>
<rscale>  0 0.18669660E+04</rscale>
<asrwt>0</asrwt>
<pdfrwt beam="1">  1        2 0.23125980E+00 0.18669660E+04</pdfrwt>
<pdfrwt beam="2">  1       -1 0.89183794E-01 0.18669660E+04</pdfrwt>
<totfact> 0.16670258E+01</totfact>
</mgrwt>
</event>
<event>
12    6  0.8914180E-008  0.2499002E+04  0.7818608E-02  0.8403341E-01
          2   -1    0    0  501    0  0.00000000000E+00  0.00000000000E+00  0.15201183255E+04  0.15201183255E+04  0.00000000000E+00 0. -1.
         -1   -1    0    0    0  501 -0.00000000000E+00 -0.00000000000E+00 -0.10270600869E+04  0.10270600869E+04  0.00000000000E+00 0.  1.
         24    2    1    2    0    0  0.36625684272E+03 -0.46943310346E+03 -0.71089537389E+03  0.93089685342E+03  0.81763106714E+02 0.  0.
        254    2    1    2    0    0 -0.36625684272E+03  0.46943310346E+03  0.12039536125E+04  0.16162815590E+04  0.89908301255E+03 0.  0.
         23    2    4    4    0    0 -0.51579080934E+02  0.23213919500E+03 -0.82800843352E+02  0.26754181334E+03  0.90408156595E+02 0.  0.
         23    2    4    4    0    0 -0.31467776179E+03  0.23729390846E+03  0.12867544559E+04  0.13487397457E+04  0.89617961953E+02 0.  0.
          2    1    3    3  502    0  0.17743016926E+03 -0.27431507084E+03 -0.43240737345E+03  0.54194682365E+03  0.00000000000E+00 0. -1.
         -1    1    3    3    0  502  0.18882667346E+03 -0.19511803263E+03 -0.27848800044E+03  0.38895002977E+03  0.00000000000E+00 0.  1.
         11    1    5    5    0    0  0.55480777567E+01 -0.60975436914E+01 -0.77471117220E+01  0.11312777992E+02  0.00000000000E+00 0. -1.
        -11    1    5    5    0    0 -0.57127158691E+02  0.23823673869E+03 -0.75053731630E+02  0.25622903535E+03  0.00000000000E+00 0.  1.
          4    1    6    6  503    0  0.27094744645E+01  0.79851558541E+01  0.70694644931E+02  0.71195763833E+02  0.00000000000E+00 0. -1.
         -4    1    6    6    0  503 -0.31738723625E+03  0.22930875260E+03  0.12160598109E+04  0.12775439818E+04  0.00000000000E+00 0.  1.
<mgrwt>
<rscale>  0 0.24990021E+04</rscale>
<asrwt>0</asrwt>
<pdfrwt beam="1">  1        2 0.23386436E+00 0.24990021E+04</pdfrwt>
<pdfrwt beam="2">  1       -1 0.15800924E+00 0.24990021E+04</pdfrwt>
<totfact> 0.38017426E+00</totfact>
</mgrwt>
</event>
<event>
12    6  0.8914180E-008  0.1985736E+04  0.7818608E-02  0.8613319E-01
          2   -1    0    0  501    0  0.00000000000E+00  0.00000000000E+00  0.17216839359E+04  0.17216839359E+04  0.00000000000E+00 0. -1.
         -1   -1    0    0    0  501 -0.00000000000E+00 -0.00000000000E+00 -0.57257135839E+03  0.57257135839E+03  0.00000000000E+00 0.  1.
         24    2    1    2    0    0 -0.84656964422E+02  0.20187847345E+03 -0.41455611400E+03  0.47576887425E+03  0.81101975190E+02 0.  0.
        254    2    1    2    0    0  0.84656964422E+02 -0.20187847345E+03  0.15636686915E+04  0.18184864200E+04  0.90217036272E+03 0.  0.
         23    2    4    4    0    0  0.44438010249E+03 -0.23800671389E+03  0.62477271995E+03  0.80801234090E+03  0.91772109621E+02 0.  0.
         23    2    4    4    0    0 -0.35972313807E+03  0.36128240447E+02  0.93889597156E+03  0.10104740791E+04  0.93948035439E+02 0.  0.
          4    1    3    3  502    0 -0.28561851370E+02  0.53711086428E+01 -0.54225502331E+02  0.61522624007E+02  0.00000000000E+00 0. -1.
         -3    1    3    3    0  502 -0.56095113052E+02  0.19650736480E+03 -0.36033061167E+03  0.41424625024E+03  0.00000000000E+00 0.  1.
         11    1    5    5    0    0  0.44276170331E+03 -0.24362121502E+03  0.62233906006E+03  0.80168268535E+03  0.00000000000E+00 0. -1.
        -11    1    5    5    0    0  0.16183991874E+01  0.56145011302E+01  0.24336598937E+01  0.63296555474E+01  0.00000000000E+00 0.  1.
          2    1    6    6  503    0 -0.16551869376E+03  0.38588466946E+02  0.32754770266E+03  0.36901626697E+03  0.00000000000E+00 0. -1.
         -2    1    6    6    0  503 -0.19420444431E+03 -0.24602264991E+01  0.61134826889E+03  0.64145781216E+03  0.00000000000E+00 0.  1.
<mgrwt>
<rscale>  0 0.19857360E+04</rscale>
<asrwt>0</asrwt>
<pdfrwt beam="1">  1        2 0.26487445E+00 0.19857360E+04</pdfrwt>
<pdfrwt beam="2">  1       -1 0.88087902E-01 0.19857360E+04</pdfrwt>
<totfact> 0.12796172E+01</totfact>
</mgrwt>
</event>
<event>
12    6  0.8914180E-008  0.1491208E+04  0.7818608E-02  0.8890321E-01
          2   -1    0    0  501    0  0.00000000000E+00  0.00000000000E+00  0.10131380456E+04  0.10131380456E+04  0.00000000000E+00 0. -1.
         -1   -1    0    0    0  501 -0.00000000000E+00 -0.00000000000E+00 -0.54871620290E+03  0.54871620290E+03  0.00000000000E+00 0.  1.
         24    2    1    2    0    0 -0.15724198076E+03 -0.43611152064E+03  0.16788449282E+03  0.49918304152E+03  0.77975682533E+02 0.  0.
        254    2    1    2    0    0  0.15724198076E+03  0.43611152064E+03  0.29653734986E+03  0.10626712069E+04  0.90907502180E+03 0.  0.
         23    2    4    4    0    0  0.50919835080E+03  0.26358123067E+03  0.31374434726E+03  0.65960366137E+03  0.88788788885E+02 0.  0.
         23    2    4    4    0    0 -0.35195637004E+03  0.17253028997E+03 -0.17206997400E+02  0.40306754558E+03  0.92343804179E+02 0.  0.
          2    1    3    3  502    0 -0.10906894594E+03 -0.24935912155E+03  0.13398441191E+03  0.30336088921E+03  0.00000000000E+00 0. -1.
         -1    1    3    3    0  502 -0.48173034820E+02 -0.18675239909E+03  0.33900080906E+02  0.19582215231E+03  0.00000000000E+00 0.  1.
         11    1    5    5    0    0  0.37750241461E+03  0.15401769047E+03  0.20143425809E+03  0.45475848793E+03  0.00000000000E+00 0.  1.
        -11    1    5    5    0    0  0.13169593619E+03  0.10956354020E+03  0.11231008916E+03  0.20484517343E+03  0.00000000000E+00 0. -1.
          3    1    6    6  503    0 -0.27613795080E+03  0.10850886945E+03 -0.44833787915E+02  0.30006067913E+03  0.00000000000E+00 0. -1.
         -3    1    6    6    0  503 -0.75818419246E+02  0.64021420521E+02  0.27626790514E+02  0.10300686645E+03  0.00000000000E+00 0.  1.
<mgrwt>
<rscale>  0 0.14912079E+04</rscale>
<asrwt>0</asrwt>
<pdfrwt beam="1">  1        2 0.15586739E+00 0.14912079E+04</pdfrwt>
<pdfrwt beam="2">  1       -1 0.84417878E-01 0.14912079E+04</pdfrwt>
<totfact> 0.37876082E+01</totfact>
</mgrwt>
</event>
<event>
12    6  0.8914180E-008  0.1336448E+04  0.7818608E-02  0.9001150E-01
         -1   -1    0    0    0  501 -0.00000000000E+00  0.00000000000E+00  0.33592308061E+03  0.33592308061E+03  0.00000000000E+00 0.  1.
          2   -1    0    0  501    0  0.00000000000E+00 -0.00000000000E+00 -0.13292433592E+04  0.13292433592E+04  0.00000000000E+00 0. -1.
         24    2    1    2    0    0 -0.26027401486E+03 -0.20719470698E+03 -0.97649963699E+02  0.35577198330E+03  0.79787087168E+02 0.  0.
        254    2    1    2    0    0  0.26027401486E+03  0.20719470698E+03 -0.89567031488E+03  0.13093944565E+04  0.89533028561E+03 0.  0.
         23    2    4    4    0    0 -0.46837514118E+02  0.18957682599E+03  0.11782318266E+03  0.24541083594E+03  0.90614846161E+02 0.  0.
         23    2    4    4    0    0  0.30711152898E+03  0.17617880982E+02 -0.10134934975E+04  0.10639836205E+04  0.10131235994E+03 0.  0.
          2    1    3    3  502    0 -0.16246426696E+03 -0.10100212980E+03 -0.21383155361E+02  0.19249235724E+03  0.00000000000E+00 0. -1.
         -1    1    3    3    0  502 -0.97809747904E+02 -0.10619257717E+03 -0.76266808337E+02  0.16327962606E+03  0.00000000000E+00 0.  1.
         11    1    5    5    0    0  0.10619043161E+02  0.97779193119E+01 -0.98990625304E+01  0.17503234636E+02  0.00000000000E+00 0.  1.
        -11    1    5    5    0    0 -0.57456557280E+02  0.17979890668E+03  0.12772224519E+03  0.22790760131E+03  0.00000000000E+00 0. -1.
          1    1    6    6  503    0  0.21789827234E+03  0.56163192027E+02 -0.65621525703E+03  0.69372359394E+03  0.00000000000E+00 0. -1.
         -1    1    6    6    0  503  0.89213256640E+02 -0.38545311045E+02 -0.35727824051E+03  0.37026002661E+03  0.00000000000E+00 0.  1.
<mgrwt>
<rscale>  0 0.13364483E+04</rscale>
<asrwt>0</asrwt>
<pdfrwt beam="1">  1        2 0.20449898E+00 0.13364483E+04</pdfrwt>
<pdfrwt beam="2">  1       -1 0.51680474E-01 0.13364483E+04</pdfrwt>
<totfact> 0.66733949E+01</totfact>
</mgrwt>
</event>
<event>
12    6  0.8914180E-008  0.1534540E+04  0.7818608E-02  0.8861804E-01
         -1   -1    0    0    0  501 -0.00000000000E+00  0.00000000000E+00  0.17756008461E+04  0.17756008461E+04  0.00000000000E+00 0.  1.
          2   -1    0    0  501    0  0.00000000000E+00 -0.00000000000E+00 -0.33155163115E+03  0.33155163115E+03  0.00000000000E+00 0. -1.
         24    2    1    2    0    0 -0.48087568059E+02 -0.20434120850E+03 -0.14270711418E+03  0.26715522427E+03  0.83299758241E+02 0.  0.
        254    2    1    2    0    0  0.48087568059E+02  0.20434120850E+03  0.15867563291E+04  0.18399972530E+04  0.90759379639E+03 0.  0.
         23    2    4    4    0    0  0.76340577075E+02 -0.15634724754E+02  0.15947823095E+04  0.15992942373E+04  0.91318751817E+02 0.  0.
         23    2    4    4    0    0 -0.28253009017E+02  0.21997593325E+03 -0.80259803988E+01  0.24070301566E+03  0.93198077537E+02 0.  0.
          4    1    3    3  502    0 -0.63801129526E+02 -0.10954849430E+03 -0.59468806813E+02  0.14002855322E+03  0.00000000000E+00 0. -1.
         -3    1    3    3    0  502  0.15713561467E+02 -0.94792714199E+02 -0.83238307365E+02  0.12712667105E+03  0.00000000000E+00 0.  1.
         11    1    5    5    0    0  0.56333910945E+02  0.34483675841E+02  0.89640471074E+03  0.89883482290E+03  0.00000000000E+00 0.  1.
        -11    1    5    5    0    0  0.20006666130E+02 -0.50118400595E+02  0.69837759876E+03  0.70045941440E+03  0.00000000000E+00 0. -1.
          1    1    6    6  503    0  0.17485661690E+02  0.44906287246E+02  0.28669529677E+02  0.56073745468E+02  0.00000000000E+00 0. -1.
         -1    1    6    6    0  503 -0.45738670707E+02  0.17506964601E+03 -0.36695510076E+02  0.18462927019E+03  0.00000000000E+00 0.  1.
<mgrwt>
<rscale>  0 0.15345401E+04</rscale>
<asrwt>0</asrwt>
<pdfrwt beam="1">  1        2 0.51007944E-01 0.15345401E+04</pdfrwt>
<pdfrwt beam="2">  1       -1 0.27316936E+00 0.15345401E+04</pdfrwt>
<totfact> 0.53440617E+00</totfact>
</mgrwt>
</event>
<event>
12    6  0.8914180E-008  0.2030402E+04  0.7818608E-02  0.8592537E-01
         -1   -1    0    0    0  501 -0.00000000000E+00  0.00000000000E+00  0.38675674757E+03  0.38675674757E+03  0.00000000000E+00 0.  1.
          2   -1    0    0  501    0  0.00000000000E+00 -0.00000000000E+00 -0.26648082795E+04  0.26648082795E+04  0.00000000000E+00 0. -1.
         24    2    1    2    0    0  0.54007230484E+03 -0.44651768802E+03 -0.15458452426E+04  0.16991778746E+04  0.80695697057E+02 0.  0.
        254    2    1    2    0    0 -0.54007230484E+03  0.44651768802E+03 -0.73220628933E+03  0.13523871524E+04  0.89541544529E+03 0.  0.
         23    2    4    4    0    0 -0.21028809389E+03  0.68333507543E+03 -0.46436097417E+03  0.85746324067E+03  0.91892257693E+02 0.  0.
         23    2    4    4    0    0 -0.32978421095E+03 -0.23681738741E+03 -0.26784531517E+03  0.49492391173E+03  0.91479313367E+02 0.  0.
          4    1    3    3  502    0  0.43902405946E+03 -0.34552366908E+03 -0.11546162717E+04  0.12826797985E+04  0.00000000000E+00 0. -1.
         -3    1    3    3    0  502  0.10104824538E+03 -0.10099401894E+03 -0.39122897090E+03  0.41649807614E+03  0.00000000000E+00 0.  1.
         11    1    5    5    0    0 -0.69445731486E+01  0.77124419594E+01 -0.22988938697E+02  0.25223008536E+02  0.00000000000E+00 0. -1.
        -11    1    5    5    0    0 -0.20334352074E+03  0.67562263347E+03 -0.44137203547E+03  0.83224023213E+03  0.00000000000E+00 0.  1.
          4    1    6    6  503    0 -0.12492726759E+03 -0.38235803370E+02 -0.91770214516E+02  0.15965766853E+03  0.00000000000E+00 0. -1.
         -4    1    6    6    0  503 -0.20485694335E+03 -0.19858158404E+03 -0.17607510065E+03  0.33526624320E+03  0.00000000000E+00 0.  1.
<mgrwt>
<rscale>  0 0.20304015E+04</rscale>
<asrwt>0</asrwt>
<pdfrwt beam="1">  1        2 0.40997049E+00 0.20304015E+04</pdfrwt>
<pdfrwt beam="2">  1       -1 0.59501040E-01 0.20304015E+04</pdfrwt>
<totfact> 0.84250348E+00</totfact>
</mgrwt>
</event>
<event>
12    6  0.8914180E-008  0.2662252E+04  0.7818608E-02  0.8347358E-01
         -1   -1    0    0    0  501 -0.00000000000E+00  0.00000000000E+00  0.49726326290E+03  0.49726326290E+03  0.00000000000E+00 0.  1.
          2   -1    0    0  501    0  0.00000000000E+00 -0.00000000000E+00 -0.35632957514E+04  0.35632957514E+04  0.00000000000E+00 0. -1.
         24    2    1    2    0    0  0.90190493343E+03  0.97136383444E+02 -0.25034602659E+04  0.26639386294E+04  0.79923288851E+02 0.  0.
        254    2    1    2    0    0 -0.90190493343E+03 -0.97136383444E+02 -0.56257222261E+03  0.13966203850E+04  0.90066253841E+03 0.  0.
         23    2    4    4    0    0  0.54306915394E+02  0.35276139734E+02 -0.39766619716E+03  0.41309170463E+03  0.91174036750E+02 0.  0.
         23    2    4    4    0    0 -0.95621184883E+03 -0.13241252318E+03 -0.16490602545E+03  0.98352868033E+03  0.90887247066E+02 0.  0.
          2    1    3    3  502    0  0.76154646499E+03  0.10757722016E+03 -0.20747869543E+04  0.22127509535E+04  0.00000000000E+00 0. -1.
         -1    1    3    3    0  502  0.14035846844E+03 -0.10440836717E+02 -0.42867331164E+03  0.45118767586E+03  0.00000000000E+00 0.  1.
         11    1    5    5    0    0  0.38927506839E+02  0.55736802445E+02 -0.36654589657E+03  0.37279731253E+03  0.00000000000E+00 0.  1.
        -11    1    5    5    0    0  0.15379408555E+02 -0.20460662712E+02 -0.31120300586E+02  0.40294392099E+02  0.00000000000E+00 0. -1.
          1    1    6    6  503    0 -0.37527766509E+03 -0.93359211092E+02 -0.48284133122E+02  0.38971864944E+03  0.00000000000E+00 0. -1.
         -1    1    6    6    0  503 -0.58093418374E+03 -0.39053312086E+02 -0.11662189233E+03  0.59381003089E+03  0.00000000000E+00 0.  1.
<mgrwt>
<rscale>  0 0.26622517E+04</rscale>
<asrwt>0</asrwt>
<pdfrwt beam="1">  1        2 0.54819937E+00 0.26622517E+04</pdfrwt>
<pdfrwt beam="2">  1       -1 0.76502036E-01 0.26622517E+04</pdfrwt>
<totfact> 0.12590413E+00</totfact>
</mgrwt>
</event>
<event>
12    6  0.8914180E-008  0.4626157E+04  0.7818608E-02  0.7888915E-01
         -1   -1    0    0    0  501 -0.00000000000E+00  0.00000000000E+00  0.11779617078E+04  0.11779617078E+04  0.00000000000E+00 0.  1.
          2   -1    0    0  501    0  0.00000000000E+00 -0.00000000000E+00 -0.45420246293E+04  0.45420246293E+04  0.00000000000E+00 0. -1.
         24    2    1    2    0    0 -0.29755765494E+03  0.15587220204E+04 -0.35456175015E+04  0.38853683413E+04  0.80800900137E+02 0.  0.
        254    2    1    2    0    0  0.29755765494E+03 -0.15587220204E+04  0.18155457991E+03  0.18346179958E+04  0.90261078560E+03 0.  0.
         23    2    4    4    0    0 -0.13154719137E+03 -0.14413609040E+03 -0.21213452090E+03  0.30211702196E+03  0.90519411654E+02 0.  0.
         23    2    4    4    0    0  0.42910484631E+03 -0.14145859300E+04  0.39368910081E+03  0.15325009739E+04  0.91563116953E+02 0.  0.
          2    1    3    3  502    0 -0.61807833126E+02  0.24918199871E+03 -0.51162113542E+03  0.57242297554E+03  0.00000000000E+00 0. -1.
         -1    1    3    3    0  502 -0.23574982182E+03  0.13095400217E+04 -0.30339963661E+04  0.33129453657E+04  0.00000000000E+00 0.  1.
         11    1    5    5    0    0 -0.12750063999E+03 -0.82146034613E+02 -0.13476426783E+03  0.20289354865E+03  0.00000000000E+00 0. -1.
        -11    1    5    5    0    0 -0.40465513763E+01 -0.61990055791E+02 -0.77370253067E+02  0.99223473305E+02  0.00000000000E+00 0.  1.
          3    1    6    6  503    0  0.23343352651E+03 -0.62426362202E+03  0.15939501175E+03  0.68527589396E+03  0.00000000000E+00 0. -1.
         -3    1    6    6    0  503  0.19567131980E+03 -0.79032230798E+03  0.23429408906E+03  0.84722507992E+03  0.00000000000E+00 0.  1.
<mgrwt>
<rscale>  0 0.46261565E+04</rscale>
<asrwt>0</asrwt>
<pdfrwt beam="1">  1        2 0.69877302E+00 0.46261565E+04</pdfrwt>
<pdfrwt beam="2">  1       -1 0.18122488E+00 0.46261565E+04</pdfrwt>
<totfact> 0.19214433E-02</totfact>
</mgrwt>
</event>
<event>
12    6  0.8914180E-008  0.2177495E+04  0.7818608E-02  0.8527854E-01
         -1   -1    0    0    0  501 -0.00000000000E+00  0.00000000000E+00  0.15975324599E+04  0.15975324599E+04  0.00000000000E+00 0.  1.
          2   -1    0    0  501    0  0.00000000000E+00 -0.00000000000E+00 -0.74200109425E+03  0.74200109425E+03  0.00000000000E+00 0. -1.
         24    2    1    2    0    0 -0.78377357519E+03 -0.44576516213E+03  0.28676724452E+03  0.94949672865E+03  0.79378764524E+02 0.  0.
        254    2    1    2    0    0  0.78377357519E+03  0.44576516213E+03  0.56876412110E+03  0.13900368255E+04  0.89202138639E+03 0.  0.
         23    2    4    4    0    0  0.10520432389E+03  0.41457742870E+03 -0.81671158404E+02  0.44513846816E+03  0.92388763234E+02 0.  0.
         23    2    4    4    0    0  0.67856925130E+03  0.31187733432E+02  0.65043527950E+03  0.94489835730E+03  0.91312372045E+02 0.  0.
          4    1    3    3  502    0 -0.55689971116E+03 -0.33637258664E+03  0.23915621226E+03  0.69316628538E+03  0.00000000000E+00 0. -1.
         -3    1    3    3    0  502 -0.22687386403E+03 -0.10939257549E+03  0.47611032257E+02  0.25633044327E+03  0.00000000000E+00 0.  1.
         11    1    5    5    0    0  0.29780462233E+02  0.10177150717E+03  0.19542147636E+02  0.10782490963E+03  0.00000000000E+00 0. -1.
        -11    1    5    5    0    0  0.75423861653E+02  0.31280592153E+03 -0.10121330604E+03  0.33731355853E+03  0.00000000000E+00 0.  1.
          1    1    6    6  503    0  0.13539435061E+03 -0.24755206504E+02  0.10513986684E+03  0.17320173794E+03  0.00000000000E+00 0. -1.
         -1    1    6    6    0  503  0.54317490069E+03  0.55942939936E+02  0.54529541266E+03  0.77169661937E+03  0.00000000000E+00 0.  1.
<mgrwt>
<rscale>  0 0.21774947E+04</rscale>
<asrwt>0</asrwt>
<pdfrwt beam="1">  1        2 0.11415402E+00 0.21774947E+04</pdfrwt>
<pdfrwt beam="2">  1       -1 0.24577422E+00 0.21774947E+04</pdfrwt>
<totfact> 0.29523353E+00</totfact>
</mgrwt>
</event>
<event>
12    6  0.8914180E-008  0.1498340E+04  0.7818608E-02  0.8885558E-01
         -1   -1    0    0    0  501 -0.00000000000E+00  0.00000000000E+00  0.50715992182E+03  0.50715992182E+03  0.00000000000E+00 0.  1.
          2   -1    0    0  501    0  0.00000000000E+00 -0.00000000000E+00 -0.11066636677E+04  0.11066636677E+04  0.00000000000E+00 0. -1.
         24    2    1    2    0    0 -0.43066258869E+03  0.12138416439E+03  0.80047387769E+01  0.45431317390E+03  0.78307110018E+02 0.  0.
        254    2    1    2    0    0  0.43066258869E+03 -0.12138416439E+03 -0.60750848467E+03  0.11595104156E+04  0.88045071660E+03 0.  0.
         23    2    4    4    0    0 -0.59933839595E+02  0.25257096101E+03  0.16273589861E+02  0.27815343439E+03  0.98591824510E+02 0.  0.
         23    2    4    4    0    0  0.49059642828E+03 -0.37395512541E+03 -0.62378207453E+03  0.88135698125E+03  0.84609459439E+02 0.  0.
          4    1    3    3  502    0 -0.16261246762E+03  0.37921096081E+02 -0.34122631762E+02  0.17042645966E+03  0.00000000000E+00 0. -1.
         -3    1    3    3    0  502 -0.26805012107E+03  0.83463068314E+02  0.42127370539E+02  0.28388671425E+03  0.00000000000E+00 0.  1.
         11    1    5    5    0    0 -0.44167377320E+02  0.42309308397E+02 -0.19695891325E+02  0.64255450597E+02  0.00000000000E+00 0. -1.
        -11    1    5    5    0    0 -0.15766462274E+02  0.21026165261E+03  0.35969481186E+02  0.21389798379E+03  0.00000000000E+00 0.  1.
          1    1    6    6  503    0  0.43896990437E+03 -0.29711729187E+03 -0.52984556568E+03  0.74947287179E+03  0.00000000000E+00 0. -1.
         -1    1    6    6    0  503  0.51626523911E+02 -0.76837833531E+02 -0.93936508848E+02  0.13188410946E+03  0.00000000000E+00 0.  1.
<mgrwt>
<rscale>  0 0.14983397E+04</rscale>
<asrwt>0</asrwt>
<pdfrwt beam="1">  1        2 0.17025595E+00 0.14983397E+04</pdfrwt>
<pdfrwt beam="2">  1       -1 0.78024604E-01 0.14983397E+04</pdfrwt>
<totfact> 0.39133060E+01</totfact>
</mgrwt>
</event>
<event>
12    6  0.8914180E-008  0.1130430E+04  0.7818608E-02  0.9176030E-01
         -1   -1    0    0    0  501 -0.00000000000E+00  0.00000000000E+00  0.51570415734E+03  0.51570415734E+03  0.00000000000E+00 0.  1.
          2   -1    0    0  501    0  0.00000000000E+00 -0.00000000000E+00 -0.61947942281E+03  0.61947942281E+03  0.00000000000E+00 0. -1.
         24    2    1    2    0    0  0.57859173344E+01 -0.86037199149E+02 -0.22030200096E+03  0.24970875006E+03  0.79910022854E+02 0.  0.
        254    2    1    2    0    0 -0.57859173344E+01  0.86037199149E+02  0.11652673549E+03  0.88547483009E+03  0.87352808665E+03 0.  0.
         23    2    4    4    0    0  0.36281203071E+03 -0.13500718773E+02  0.27380904159E+03  0.46408236435E+03  0.92661807701E+02 0.  0.
         23    2    4    4    0    0 -0.36859794805E+03  0.99537917922E+02 -0.15728230610E+03  0.42139246574E+03  0.84033576390E+02 0.  0.
          2    1    3    3  502    0  0.31581848894E+02 -0.65945439870E+02 -0.19532880144E+03  0.20856546907E+03  0.00000000000E+00 0. -1.
         -1    1    3    3    0  502 -0.25795931559E+02 -0.20091759279E+02 -0.24973199526E+02  0.41143280989E+02  0.00000000000E+00 0.  1.
         11    1    5    5    0    0  0.94004249794E+02  0.13351383147E+02  0.28382631649E+02  0.99099102874E+02  0.00000000000E+00 0.  1.
        -11    1    5    5    0    0  0.26880778092E+03 -0.26852101921E+02  0.24542640994E+03  0.36498326148E+03  0.00000000000E+00 0. -1.
          3    1    6    6  503    0 -0.35834231013E+03  0.10588921307E+03 -0.16344884276E+03  0.40784465287E+03  0.00000000000E+00 0. -1.
         -3    1    6    6    0  503 -0.10255637922E+02 -0.63512951482E+01  0.61665366630E+01  0.13547812874E+02  0.00000000000E+00 0.  1.
<mgrwt>
<rscale>  0 0.11304302E+04</rscale>
<asrwt>0</asrwt>
<pdfrwt beam="1">  1        2 0.95304526E-01 0.11304302E+04</pdfrwt>
<pdfrwt beam="2">  1       -1 0.79339102E-01 0.11304302E+04</pdfrwt>
<totfact> 0.85818691E+01</totfact>
</mgrwt>
</event>
<event>
12    6  0.8914180E-008  0.1541070E+04  0.7818608E-02  0.8857592E-01
          2   -1    0    0  501    0  0.00000000000E+00  0.00000000000E+00  0.11905397028E+04  0.11905397028E+04  0.00000000000E+00 0. -1.
         -1   -1    0    0    0  501 -0.00000000000E+00 -0.00000000000E+00 -0.49870145070E+03  0.49870145070E+03  0.00000000000E+00 0.  1.
         24    2    1    2    0    0  0.44385956920E+03  0.88124520916E+02 -0.12473912145E+02  0.46045160071E+03  0.84159549367E+02 0.  0.
        254    2    1    2    0    0 -0.44385956920E+03 -0.88124520916E+02  0.70431216422E+03  0.12287895528E+04  0.89949479819E+03 0.  0.
         23    2    4    4    0    0  0.11232033892E+02  0.35315326628E+03  0.27730473679E+03  0.45908090386E+03  0.94941935796E+02 0.  0.
         23    2    4    4    0    0 -0.45509160310E+03 -0.44127778720E+03  0.42700742743E+03  0.76970864891E+03  0.91003343032E+02 0.  0.
          4    1    3    3  502    0  0.30037673333E+02  0.28047866762E+02  0.76714250586E+01  0.41806643151E+02  0.00000000000E+00 0. -1.
         -3    1    3    3    0  502  0.41382189587E+03  0.60076654154E+02 -0.20145337203E+02  0.41864495756E+03  0.00000000000E+00 0.  1.
         11    1    5    5    0    0 -0.16237166098E+02  0.20406870814E+02  0.16788069960E+01  0.26132438314E+02  0.00000000000E+00 0.  1.
        -11    1    5    5    0    0  0.27469199989E+02  0.33274639547E+03  0.27562592979E+03  0.43294846555E+03  0.00000000000E+00 0. -1.
          1    1    6    6  503    0 -0.32294897789E+03 -0.36648209648E+03  0.33116035554E+03  0.59014604162E+03  0.00000000000E+00 0. -1.
         -1    1    6    6    0  503 -0.13214262521E+03 -0.74795690723E+02  0.95847071891E+02  0.17956260729E+03  0.00000000000E+00 0.  1.
<mgrwt>
<rscale>  0 0.15410696E+04</rscale>
<asrwt>0</asrwt>
<pdfrwt beam="1">  1        2 0.18315995E+00 0.15410696E+04</pdfrwt>
<pdfrwt beam="2">  1       -1 0.76723300E-01 0.15410696E+04</pdfrwt>
<totfact> 0.35930897E+01</totfact>
</mgrwt>
</event>
<event>
12    6  0.8914180E-008  0.2205435E+04  0.7818608E-02  0.8516169E-01
         -1   -1    0    0    0  501 -0.00000000000E+00  0.00000000000E+00  0.56875817346E+03  0.56875817346E+03  0.00000000000E+00 0.  1.
          2   -1    0    0  501    0  0.00000000000E+00 -0.00000000000E+00 -0.21379657661E+04  0.21379657661E+04  0.00000000000E+00 0. -1.
         24    2    1    2    0    0  0.62467330182E+03  0.65711404524E+03 -0.48499137027E+03  0.10310860390E+04  0.76851727963E+02 0.  0.
        254    2    1    2    0    0 -0.62467330182E+03 -0.65711404524E+03 -0.10842162224E+04  0.16756379006E+04  0.90012329965E+03 0.  0.
         23    2    4    4    0    0 -0.29790038978E+03 -0.16928588592E+03 -0.10188339250E+04  0.10786470111E+04  0.89746613321E+02 0.  0.
         23    2    4    4    0    0 -0.32677291205E+03 -0.48782815932E+03 -0.65382297442E+02  0.59699088947E+03  0.85827898800E+02 0.  0.
          4    1    3    3  502    0  0.35090037206E+03  0.39564198342E+03 -0.32005469821E+03  0.61814129453E+03  0.00000000000E+00 0. -1.
         -3    1    3    3    0  502  0.27377292976E+03  0.26147206182E+03 -0.16493667206E+03  0.41294474446E+03  0.00000000000E+00 0.  1.
         11    1    5    5    0    0 -0.29006845304E+03 -0.14517116248E+03 -0.88821216141E+03  0.94558723423E+03  0.00000000000E+00 0. -1.
        -11    1    5    5    0    0 -0.78319367381E+01 -0.24114723446E+02 -0.13062176354E+03  0.13305977691E+03  0.00000000000E+00 0.  1.
          2    1    6    6  503    0 -0.89507030388E+02 -0.19224536741E+03  0.17113659802E+01  0.21206772162E+03  0.00000000000E+00 0. -1.
         -2    1    6    6    0  503 -0.23726588166E+03 -0.29558279191E+03 -0.67093663422E+02  0.38492316784E+03  0.00000000000E+00 0.  1.
<mgrwt>
<rscale>  0 0.22054347E+04</rscale>
<asrwt>0</asrwt>
<pdfrwt beam="1">  1        2 0.32891781E+00 0.22054347E+04</pdfrwt>
<pdfrwt beam="2">  1       -1 0.87501259E-01 0.22054347E+04</pdfrwt>
<totfact> 0.74763372E+00</totfact>
</mgrwt>
</event>
<event>
12    6  0.8914180E-008  0.1307136E+04  0.7818608E-02  0.9023926E-01
          2   -1    0    0  501    0  0.00000000000E+00  0.00000000000E+00  0.23825467598E+03  0.23825467598E+03  0.00000000000E+00 0. -1.
         -1   -1    0    0    0  501 -0.00000000000E+00 -0.00000000000E+00 -0.17928328412E+04  0.17928328412E+04  0.00000000000E+00 0.  1.
         24    2    1    2    0    0 -0.30319124811E+03 -0.11156111337E+03 -0.26598034463E+03  0.42601695698E+03  0.79837891742E+02 0.  0.
        254    2    1    2    0    0  0.30319124811E+03  0.11156111337E+03 -0.12885978206E+04  0.16050705602E+04  0.90077541320E+03 0.  0.
         23    2    4    4    0    0  0.23880598466E+03  0.47096667600E+03 -0.98446616321E+03  0.11211186295E+04  0.94315676040E+02 0.  0.
         23    2    4    4    0    0  0.64385263453E+02 -0.35940556263E+03 -0.30413165738E+03  0.48395193067E+03  0.91627428112E+02 0.  0.
          4    1    3    3  502    0 -0.10107676413E+03 -0.32482764614E+02 -0.42112990995E+02  0.11421535034E+03  0.00000000000E+00 0. -1.
         -3    1    3    3    0  502 -0.20211448398E+03 -0.79078348755E+02 -0.22386735364E+03  0.31180160664E+03  0.00000000000E+00 0.  1.
         11    1    5    5    0    0  0.20236837220E+03  0.31159924151E+03 -0.71972563462E+03  0.80997039113E+03  0.00000000000E+00 0. -1.
        -11    1    5    5    0    0  0.36437612460E+02  0.15936743449E+03 -0.26474052859E+03  0.31114823839E+03  0.00000000000E+00 0.  1.
          1    1    6    6  503    0 -0.78407870888E+01 -0.18344789258E+03 -0.12088138039E+03  0.21983383579E+03  0.00000000000E+00 0. -1.
         -1    1    6    6    0  503  0.72226050542E+02 -0.17595767005E+03 -0.18325027699E+03  0.26411809488E+03  0.00000000000E+00 0.  1.
<mgrwt>
<rscale>  0 0.13071355E+04</rscale>
<asrwt>0</asrwt>
<pdfrwt beam="1">  1        2 0.36654564E-01 0.13071355E+04</pdfrwt>
<pdfrwt beam="2">  1       -1 0.27582045E+00 0.13071355E+04</pdfrwt>
<totfact> 0.75801039E+00</totfact>
</mgrwt>
</event>
<event>
12    6  0.8914180E-008  0.1611328E+04  0.7818608E-02  0.8813619E-01
         -1   -1    0    0    0  501 -0.00000000000E+00  0.00000000000E+00  0.13076999517E+04  0.13076999517E+04  0.00000000000E+00 0.  1.
          2   -1    0    0  501    0  0.00000000000E+00 -0.00000000000E+00 -0.49636341332E+03  0.49636341332E+03  0.00000000000E+00 0. -1.
         24    2    1    2    0    0  0.16563250516E+03 -0.51587538595E+03  0.38671616834E+03  0.67035490279E+03  0.79150238419E+02 0.  0.
        254    2    1    2    0    0 -0.16563250516E+03  0.51587538595E+03  0.42462037004E+03  0.11337084622E+04  0.90079458152E+03 0.  0.
         23    2    4    4    0    0  0.13509749885E+03  0.44409429116E+03  0.60266132873E+03  0.76622209451E+03  0.91785332882E+02 0.  0.
         23    2    4    4    0    0 -0.30073000401E+03  0.71781094791E+02 -0.17804095869E+03  0.36748636772E+03  0.88071485783E+02 0.  0.
          2    1    3    3  502    0 -0.33543636360E+01 -0.20215492907E+02  0.31476447180E+02  0.37559081938E+02  0.00000000000E+00 0. -1.
         -1    1    3    3    0  502  0.16898686879E+03 -0.49565989304E+03  0.35523972116E+03  0.63279582085E+03  0.00000000000E+00 0.  1.
         11    1    5    5    0    0  0.33966310680E+02  0.58304833083E+02  0.46935129189E+02  0.82195317227E+02  0.00000000000E+00 0. -1.
        -11    1    5    5    0    0  0.10113118817E+03  0.38578945807E+03  0.55572619954E+03  0.68402677728E+03  0.00000000000E+00 0.  1.
          2    1    6    6  503    0 -0.20402425225E+03  0.14953161932E+02 -0.84124782097E+02  0.22119328995E+03  0.00000000000E+00 0. -1.
         -2    1    6    6    0  503 -0.96705751761E+02  0.56827932859E+02 -0.93916176595E+02  0.14629307777E+03  0.00000000000E+00 0.  1.
<mgrwt>
<rscale>  0 0.16113279E+04</rscale>
<asrwt>0</asrwt>
<pdfrwt beam="1">  1        2 0.76363603E-01 0.16113279E+04</pdfrwt>
<pdfrwt beam="2">  1       -1 0.20118461E+00 0.16113279E+04</pdfrwt>
<totfact> 0.10044696E+01</totfact>
</mgrwt>
</event>
<event>
12    6  0.8914180E-008  0.2184657E+04  0.7818608E-02  0.8524841E-01
         -1   -1    0    0    0  501 -0.00000000000E+00  0.00000000000E+00  0.29975419599E+03  0.29975419599E+03  0.00000000000E+00 0.  1.
          2   -1    0    0  501    0  0.00000000000E+00 -0.00000000000E+00 -0.39805350869E+04  0.39805350869E+04  0.00000000000E+00 0. -1.
         24    2    1    2    0    0  0.25030754921E+03 -0.51505447620E+03 -0.28672327162E+04  0.29249805516E+04  0.80949340845E+02 0.  0.
        254    2    1    2    0    0 -0.25030754921E+03  0.51505447620E+03 -0.81354817471E+03  0.13553087313E+04  0.92036196241E+03 0.  0.
         23    2    4    4    0    0  0.36802552961E+02 -0.24482693893E+03 -0.16741723775E+03  0.31323112806E+03  0.93757933834E+02 0.  0.
         23    2    4    4    0    0 -0.28711010217E+03  0.75988141514E+03 -0.64613093695E+03  0.10420776032E+04  0.92674525079E+02 0.  0.
          4    1    3    3  502    0  0.24808950864E+03 -0.49271533550E+03 -0.28071616224E+04  0.28608518278E+04  0.00000000000E+00 0. -1.
         -3    1    3    3    0  502  0.22180405717E+01 -0.22339140702E+02 -0.60071093736E+02  0.64128723782E+02  0.00000000000E+00 0.  1.
         11    1    5    5    0    0  0.18671031149E+02 -0.32333970589E+02 -0.68778380983E+02  0.78259560112E+02  0.00000000000E+00 0.  1.
        -11    1    5    5    0    0  0.18131521813E+02 -0.21249296835E+03 -0.98638856771E+02  0.23497156795E+03  0.00000000000E+00 0. -1.
          3    1    6    6  503    0 -0.18644258585E+03  0.57052953106E+03 -0.51370537262E+03  0.79003670389E+03  0.00000000000E+00 0. -1.
         -3    1    6    6    0  503 -0.10066751632E+03  0.18935188408E+03 -0.13242556433E+03  0.25204089933E+03  0.00000000000E+00 0.  1.
<mgrwt>
<rscale>  0 0.21846575E+04</rscale>
<asrwt>0</asrwt>
<pdfrwt beam="1">  1        2 0.61239000E+00 0.21846575E+04</pdfrwt>
<pdfrwt beam="2">  1       -1 0.46116031E-01 0.21846575E+04</pdfrwt>
<totfact> 0.17405727E+00</totfact>
</mgrwt>
</event>
<event>
12    6  0.8914180E-008  0.1086112E+04  0.7818608E-02  0.9218834E-01
         -1   -1    0    0    0  501 -0.00000000000E+00  0.00000000000E+00  0.13432236350E+03  0.13432236350E+03  0.00000000000E+00 0.  1.
          2   -1    0    0  501    0  0.00000000000E+00 -0.00000000000E+00 -0.21955396456E+04  0.21955396456E+04  0.00000000000E+00 0. -1.
         24    2    1    2    0    0  0.12324483691E+03 -0.13606995616E+02 -0.48001865939E+03  0.50248392071E+03  0.81839703428E+02 0.  0.
        254    2    1    2    0    0 -0.12324483691E+03  0.13606995616E+02 -0.15811986227E+04  0.18273780884E+04  0.90760517477E+03 0.  0.
         23    2    4    4    0    0 -0.21661869313E+03 -0.57188772220E+02 -0.16463613157E+04  0.16640738623E+04  0.91880483882E+02 0.  0.
         23    2    4    4    0    0  0.93373856222E+02  0.70795767836E+02  0.65162693023E+02  0.16330422609E+03  0.93227549193E+02 0.  0.
          2    1    3    3  502    0  0.30490124942E+02 -0.12635639051E+02 -0.28074782989E+03  0.28268118275E+03  0.00000000000E+00 0. -1.
         -1    1    3    3    0  502  0.92754711968E+02 -0.97135656532E+00 -0.19927082950E+03  0.21980273796E+03  0.00000000000E+00 0.  1.
         11    1    5    5    0    0 -0.13734909355E+03 -0.26252864687E+02 -0.69585459687E+03  0.70976588140E+03  0.00000000000E+00 0.  1.
        -11    1    5    5    0    0 -0.79269599577E+02 -0.30935907533E+02 -0.95050671885E+03  0.95430798088E+03  0.00000000000E+00 0. -1.
          4    1    6    6  503    0  0.23725951315E+02  0.19723524509E+02  0.70312622816E+02  0.76784133205E+02  0.00000000000E+00 0. -1.
         -4    1    6    6    0  503  0.69647904907E+02  0.51072243328E+02 -0.51499297925E+01  0.86520092888E+02  0.00000000000E+00 0.  1.
<mgrwt>
<rscale>  0 0.10861125E+04</rscale>
<asrwt>0</asrwt>
<pdfrwt beam="1">  1        2 0.33777532E+00 0.10861125E+04</pdfrwt>
<pdfrwt beam="2">  1       -1 0.20664980E-01 0.10861125E+04</pdfrwt>
<totfact> 0.11434658E+02</totfact>
</mgrwt>
</event>
<event>
12    6  0.8914180E-008  0.1529725E+04  0.7818608E-02  0.8864923E-01
         -1   -1    0    0    0  501 -0.00000000000E+00  0.00000000000E+00  0.66090304612E+03  0.66090304612E+03  0.00000000000E+00 0.  1.
          2   -1    0    0  501    0  0.00000000000E+00 -0.00000000000E+00 -0.88517520035E+03  0.88517520035E+03  0.00000000000E+00 0. -1.
         24    2    1    2    0    0  0.26588818270E+03  0.15372572370E+03  0.32770330730E+03  0.45700788138E+03  0.84490367538E+02 0.  0.
        254    2    1    2    0    0 -0.26588818270E+03 -0.15372572370E+03 -0.55197546154E+03  0.10890703651E+04  0.88716922069E+03 0.  0.
         23    2    4    4    0    0 -0.19632899423E+03 -0.34292147302E+03  0.85541939838E+02  0.41432493388E+03  0.90595346065E+02 0.  0.
         23    2    4    4    0    0 -0.69559188463E+02  0.18919574932E+03 -0.63751740137E+03  0.67474543120E+03  0.90661169292E+02 0.  0.
          2    1    3    3  502    0  0.16073084254E+03  0.95383625975E+02  0.13771908001E+03  0.23216154902E+03  0.00000000000E+00 0. -1.
         -1    1    3    3    0  502  0.10515734016E+03  0.58342097726E+02  0.18998422729E+03  0.22484633236E+03  0.00000000000E+00 0.  1.
         11    1    5    5    0    0 -0.20250382114E+03 -0.33492448092E+03  0.72857726877E+02  0.39810859557E+03  0.00000000000E+00 0.  1.
        -11    1    5    5    0    0  0.61748269044E+01 -0.79969920952E+01  0.12684212961E+02  0.16216338314E+02  0.00000000000E+00 0. -1.
          3    1    6    6  503    0 -0.63381793478E+02  0.48182600346E+02 -0.24589715227E+03  0.25846513153E+03  0.00000000000E+00 0. -1.
         -3    1    6    6    0  503 -0.61773949848E+01  0.14101314897E+03 -0.39162024910E+03  0.41628029968E+03  0.00000000000E+00 0.  1.
<mgrwt>
<rscale>  0 0.15297254E+04</rscale>
<asrwt>0</asrwt>
<pdfrwt beam="1">  1        2 0.13618080E+00 0.15297254E+04</pdfrwt>
<pdfrwt beam="2">  1       -1 0.10167739E+00 0.15297254E+04</pdfrwt>
<totfact> 0.30300296E+01</totfact>
</mgrwt>
</event>
<event>
12    6  0.8914180E-008  0.2139087E+04  0.7818608E-02  0.8544218E-01
          2   -1    0    0  501    0  0.00000000000E+00  0.00000000000E+00  0.16682619228E+04  0.16682619228E+04  0.00000000000E+00 0. -1.
         -1   -1    0    0    0  501 -0.00000000000E+00 -0.00000000000E+00 -0.68569753372E+03  0.68569753372E+03  0.00000000000E+00 0.  1.
         24    2    1    2    0    0 -0.58901194768E+03 -0.64336506123E+03  0.30436861777E+03  0.92732203028E+03  0.80201096184E+02 0.  0.
        254    2    1    2    0    0  0.58901194768E+03  0.64336506123E+03  0.67819577131E+03  0.14266374263E+04  0.90249164275E+03 0.  0.
         23    2    4    4    0    0 -0.90421085717E+02 -0.16585207119E+00  0.43832375614E+03  0.45664846278E+03  0.90686840913E+02 0.  0.
         23    2    4    4    0    0  0.67943303340E+03  0.64353091330E+03  0.23987201517E+03  0.96998896347E+03  0.87055857646E+02 0.  0.
          2    1    3    3  502    0 -0.23244994950E+03 -0.19860942955E+03  0.97641009148E+02  0.32095552837E+03  0.00000000000E+00 0. -1.
         -1    1    3    3    0  502 -0.35656199818E+03 -0.44475563168E+03  0.20672760862E+03  0.60636650190E+03  0.00000000000E+00 0.  1.
         11    1    5    5    0    0 -0.92071595336E+02  0.84786835975E+01  0.22654535611E+03  0.24468728025E+03  0.00000000000E+00 0. -1.
        -11    1    5    5    0    0  0.16505096200E+01 -0.86445356687E+01  0.21177840003E+03  0.21196118252E+03  0.00000000000E+00 0.  1.
          3    1    6    6  503    0  0.41905911855E+03  0.45261357259E+03  0.16623084429E+03  0.63882883821E+03  0.00000000000E+00 0.  1.
         -3    1    6    6    0  503  0.26037391484E+03  0.19091734072E+03  0.73641170879E+02  0.33116012527E+03  0.00000000000E+00 0. -1.
<mgrwt>
<rscale>  0 0.21390868E+04</rscale>
<asrwt>0</asrwt>
<pdfrwt beam="1">  1        2 0.25665568E+00 0.21390868E+04</pdfrwt>
<pdfrwt beam="2">  1       -1 0.10549193E+00 0.21390868E+04</pdfrwt>
<totfact> 0.89990054E+00</totfact>
</mgrwt>
</event>
<event>
12    6  0.8914180E-008  0.2474367E+04  0.7818608E-02  0.8412175E-01
         -1   -1    0    0    0  501 -0.00000000000E+00  0.00000000000E+00  0.45829800255E+03  0.45829800255E+03  0.00000000000E+00 0.  1.
          2   -1    0    0  501    0  0.00000000000E+00 -0.00000000000E+00 -0.33397990137E+04  0.33397990137E+04  0.00000000000E+00 0. -1.
         24    2    1    2    0    0  0.27764865702E+03 -0.99936881219E+03 -0.83293857862E+03  0.13325679490E+04  0.78255117960E+02 0.  0.
        254    2    1    2    0    0 -0.27764865702E+03  0.99936881219E+03 -0.20485624326E+04  0.24655290673E+04  0.89799707233E+03 0.  0.
         23    2    4    4    0    0 -0.15215508684E+03 -0.11784851878E+03 -0.55327054483E+03  0.59249513905E+03  0.88897413890E+02 0.  0.
         23    2    4    4    0    0 -0.12549357018E+03  0.11172173310E+04 -0.14952918877E+04  0.18730339282E+04  0.91842615100E+02 0.  0.
          4    1    3    3  502    0  0.10545962876E+03 -0.48523790380E+03 -0.36365088569E+03  0.61548316244E+03  0.00000000000E+00 0. -1.
         -3    1    3    3    0  502  0.17218902826E+03 -0.51413090839E+03 -0.46928769293E+03  0.71708478658E+03  0.00000000000E+00 0.  1.
         11    1    5    5    0    0 -0.10436995369E+03 -0.11489107801E+03 -0.48407024698E+03  0.50834737243E+03  0.00000000000E+00 0.  1.
        -11    1    5    5    0    0 -0.47785133153E+02 -0.29574407723E+01 -0.69200297845E+02  0.84147766626E+02  0.00000000000E+00 0. -1.
          3    1    6    6  503    0 -0.17182570302E+02  0.56275906661E+03 -0.73965873400E+03  0.92956336554E+03  0.00000000000E+00 0. -1.
         -3    1    6    6    0  503 -0.10831099988E+03  0.55445826436E+03 -0.75563315375E+03  0.94347056268E+03  0.00000000000E+00 0.  1.
<mgrwt>
<rscale>  0 0.24743672E+04</rscale>
<asrwt>0</asrwt>
<pdfrwt beam="1">  1        2 0.51381522E+00 0.24743672E+04</pdfrwt>
<pdfrwt beam="2">  1       -1 0.70507386E-01 0.24743672E+04</pdfrwt>
<totfact> 0.21663647E+00</totfact>
</mgrwt>
</event>
<event>
12    6  0.8914180E-008  0.2317994E+04  0.7818608E-02  0.8470860E-01
         -1   -1    0    0    0  501 -0.00000000000E+00  0.00000000000E+00  0.69421691995E+03  0.69421691995E+03  0.00000000000E+00 0.  1.
          2   -1    0    0  501    0  0.00000000000E+00 -0.00000000000E+00 -0.19349483666E+04  0.19349483666E+04  0.00000000000E+00 0. -1.
         24    2    1    2    0    0  0.23375592544E+03  0.23184918217E+03 -0.15780495749E+04  0.16141047901E+04  0.81840922953E+02 0.  0.
        254    2    1    2    0    0 -0.23375592544E+03 -0.23184918217E+03  0.33731812819E+03  0.10150604965E+04  0.89898187745E+03 0.  0.
         23    2    4    4    0    0  0.57045723647E+00 -0.53296385526E+03  0.81617160030E+02  0.54692132276E+03  0.91710283159E+02 0.  0.
         23    2    4    4    0    0 -0.23432638267E+03  0.30111467310E+03  0.25570096816E+03  0.46813917374E+03  0.90511882624E+02 0.  0.
          2    1    3    3  502    0  0.22448513777E+03  0.23715159190E+03 -0.14871472672E+04  0.15225772391E+04  0.00000000000E+00 0. -1.
         -1    1    3    3    0  502  0.92707876651E+01 -0.53024097332E+01 -0.90902307651E+02  0.91527550984E+02  0.00000000000E+00 0.  1.
         11    1    5    5    0    0  0.36977992378E+02 -0.11434902489E+03  0.27181861079E+02  0.12321495439E+03  0.00000000000E+00 0. -1.
        -11    1    5    5    0    0 -0.36407535141E+02 -0.41861483037E+03  0.54435298951E+02  0.42370636837E+03  0.00000000000E+00 0.  1.
          2    1    6    6  503    0 -0.13002828156E+03  0.96001480809E+02  0.95124587108E+02  0.18754286282E+03  0.00000000000E+00 0. -1.
         -2    1    6    6    0  503 -0.10429810111E+03  0.20511319229E+03  0.16057638106E+03  0.28059631092E+03  0.00000000000E+00 0.  1.
<mgrwt>
<rscale>  0 0.23179939E+04</rscale>
<asrwt>0</asrwt>
<pdfrwt beam="1">  1        2 0.29768436E+00 0.23179939E+04</pdfrwt>
<pdfrwt beam="2">  1       -1 0.10680261E+00 0.23179939E+04</pdfrwt>
<totfact> 0.61210184E+00</totfact>
</mgrwt>
</event>
<event>
12    6  0.8914180E-008  0.1928340E+04  0.7818608E-02  0.8640877E-01
          2   -1    0    0  501    0  0.00000000000E+00  0.00000000000E+00  0.12054417118E+04  0.12054417118E+04  0.00000000000E+00 0. -1.
         -1   -1    0    0    0  501 -0.00000000000E+00 -0.00000000000E+00 -0.77118949708E+03  0.77118949708E+03  0.00000000000E+00 0.  1.
         24    2    1    2    0    0 -0.44374235630E+02 -0.10592033226E+03  0.93056568932E+03  0.94137428938E+03  0.83933670158E+02 0.  0.
        254    2    1    2    0    0  0.44374235630E+02  0.10592033226E+03 -0.49631347458E+03  0.10352569195E+04  0.90124449225E+03 0.  0.
         23    2    4    4    0    0 -0.39538316896E+03 -0.89482342446E+01 -0.38294456216E+03  0.55804394271E+03  0.91425287099E+02 0.  0.
         23    2    4    4    0    0  0.43975740459E+03  0.11486856650E+03 -0.11336891242E+03  0.47721297681E+03  0.91095293356E+02 0.  0.
          4    1    3    3  502    0 -0.51322662818E+02 -0.11177845424E+03  0.91589280006E+03  0.92411474382E+03  0.00000000000E+00 0. -1.
         -3    1    3    3    0  502  0.69484271878E+01  0.58581219777E+01  0.14672889265E+02  0.17259545558E+02  0.00000000000E+00 0.  1.
         11    1    5    5    0    0 -0.19232699324E+03  0.25740405397E+02 -0.13863568627E+03  0.23847870829E+03  0.00000000000E+00 0.  1.
        -11    1    5    5    0    0 -0.20305617572E+03 -0.34688639642E+02 -0.24430887588E+03  0.31956523443E+03  0.00000000000E+00 0. -1.
          3    1    6    6  503    0  0.27688339090E+03  0.11703807987E+03 -0.69873092044E+02  0.30861719539E+03  0.00000000000E+00 0. -1.
         -3    1    6    6    0  503  0.16287401369E+03 -0.21695133716E+01 -0.43495820378E+02  0.16859578143E+03  0.00000000000E+00 0.  1.
<mgrwt>
<rscale>  0 0.19283402E+04</rscale>
<asrwt>0</asrwt>
<pdfrwt beam="1">  1        2 0.18545257E+00 0.19283402E+04</pdfrwt>
<pdfrwt beam="2">  1       -1 0.11864454E+00 0.19283402E+04</pdfrwt>
<totfact> 0.12750952E+01</totfact>
</mgrwt>
</event>
<event>
12    6  0.8914180E-008  0.1328625E+04  0.7818608E-02  0.9007168E-01
          2   -1    0    0  501    0  0.00000000000E+00  0.00000000000E+00  0.15469496725E+04  0.15469496725E+04  0.00000000000E+00 0. -1.
         -1   -1    0    0    0  501 -0.00000000000E+00 -0.00000000000E+00 -0.28527819065E+03  0.28527819065E+03  0.00000000000E+00 0.  1.
         24    2    1    2    0    0  0.24135493674E+03 -0.91518448767E+02  0.14415653284E+02  0.26649365971E+03  0.64677876055E+02 0.  0.
        254    2    1    2    0    0 -0.24135493674E+03  0.91518448767E+02  0.12472558286E+04  0.15657342035E+04  0.91063091425E+03 0.  0.
         23    2    4    4    0    0  0.24959270988E+03  0.15520399663E+03  0.90824476654E+03  0.95905579543E+03  0.92166487470E+02 0.  0.
         23    2    4    4    0    0 -0.49094764662E+03 -0.63685547866E+02  0.33901106207E+03  0.60667840805E+03  0.89692529550E+02 0.  0.
          4    1    3    3  502    0  0.32722778887E+02 -0.15710086406E+02  0.25305167807E+02  0.44248599873E+02  0.00000000000E+00 0. -1.
         -3    1    3    3    0  502  0.20863215785E+03 -0.75808362360E+02 -0.10889514523E+02  0.22224505983E+03  0.00000000000E+00 0.  1.
         11    1    5    5    0    0  0.76447480573E+02  0.46907299499E+02  0.42618614824E+03  0.43552169290E+03  0.00000000000E+00 0. -1.
        -11    1    5    5    0    0  0.17314522931E+03  0.10829669713E+03  0.48205861830E+03  0.52353410253E+03  0.00000000000E+00 0.  1.
          1    1    6    6  503    0 -0.21089402580E+03 -0.44356819516E+02  0.98220473981E+02  0.23683555278E+03  0.00000000000E+00 0. -1.
         -1    1    6    6    0  503 -0.28005362082E+03 -0.19328728350E+02  0.24079058809E+03  0.36984285526E+03  0.00000000000E+00 0.  1.
<mgrwt>
<rscale>  0 0.13286249E+04</rscale>
<asrwt>0</asrwt>
<pdfrwt beam="1">  1        2 0.23799225E+00 0.13286249E+04</pdfrwt>
<pdfrwt beam="2">  1       -1 0.43888953E-01 0.13286249E+04</pdfrwt>
<totfact> 0.68293673E+01</totfact>
</mgrwt>
</event>
<event>
12    6  0.8914180E-008  0.1513324E+04  0.7818608E-02  0.8875641E-01
         -1   -1    0    0    0  501 -0.00000000000E+00  0.00000000000E+00  0.13064931341E+04  0.13064931341E+04  0.00000000000E+00 0.  1.
          2   -1    0    0  501    0  0.00000000000E+00 -0.00000000000E+00 -0.43822456692E+03  0.43822456692E+03  0.00000000000E+00 0. -1.
         24    2    1    2    0    0 -0.13633690471E+03  0.33489569428E+03  0.71000165501E+03  0.80074929625E+03  0.79713284277E+02 0.  0.
        254    2    1    2    0    0  0.13633690471E+03 -0.33489569428E+03  0.15826691219E+03  0.94396840479E+03  0.85748764196E+03 0.  0.
         23    2    4    4    0    0  0.39433193100E+03 -0.44828491220E+03 -0.69091608117E+01  0.60392642624E+03  0.90677216017E+02 0.  0.
         23    2    4    4    0    0 -0.25799502629E+03  0.11338921791E+03  0.16517607300E+03  0.34004197855E+03  0.94482081653E+02 0.  0.
          2    1    3    3  502    0 -0.80423856134E+02  0.22193198396E+03  0.53800337448E+03  0.58751121954E+03  0.00000000000E+00 0. -1.
         -3    1    3    3    0  502 -0.55913048571E+02  0.11296371032E+03  0.17199828053E+03  0.21323807670E+03  0.00000000000E+00 0.  1.
         11    1    5    5    0    0  0.68357979303E+02 -0.66312603283E+02 -0.33779992167E+02  0.10105079198E+03  0.00000000000E+00 0. -1.
        -11    1    5    5    0    0  0.32597395170E+03 -0.38197230891E+03  0.26870831356E+02  0.50287563427E+03  0.00000000000E+00 0.  1.
          2    1    6    6  503    0 -0.61788642680E-01  0.17204212559E+02  0.27027161026E+02  0.32038354839E+02  0.00000000000E+00 0. -1.
         -2    1    6    6    0  503 -0.25793323765E+03  0.96185005355E+02  0.13814891197E+03  0.30800362371E+03  0.00000000000E+00 0.  1.
<mgrwt>
<rscale>  0 0.15133240E+04</rscale>
<asrwt>0</asrwt>
<pdfrwt beam="1">  1        2 0.67419165E-01 0.15133240E+04</pdfrwt>
<pdfrwt beam="2">  1       -1 0.20099894E+00 0.15133240E+04</pdfrwt>
<totfact> 0.11721699E+01</totfact>
</mgrwt>
</event>
<event>
12    6  0.8914180E-008  0.1038801E+04  0.7818608E-02  0.9266983E-01
         -1   -1    0    0    0  501 -0.00000000000E+00  0.00000000000E+00  0.16676823482E+03  0.16676823482E+03  0.00000000000E+00 0.  1.
          2   -1    0    0  501    0  0.00000000000E+00 -0.00000000000E+00 -0.16176768109E+04  0.16176768109E+04  0.00000000000E+00 0. -1.
         24    2    1    2    0    0 -0.45509843342E+02 -0.83176569914E+02 -0.26312982019E+03  0.29072048698E+03  0.79319680104E+02 0.  0.
        254    2    1    2    0    0  0.45509843342E+02  0.83176569914E+02 -0.11877787559E+04  0.14937245588E+04  0.90078032662E+03 0.  0.
         23    2    4    4    0    0  0.35986361951E+03 -0.20611875281E+03 -0.35457376167E+03  0.55304046344E+03  0.90246533618E+02 0.  0.
         23    2    4    4    0    0 -0.31435377616E+03  0.28929532272E+03 -0.83320499425E+03  0.94068409534E+03  0.90254775116E+02 0.  0.
          4    1    3    3  502    0 -0.22327742778E+02 -0.38519880754E+02 -0.21996873099E+03  0.22442939184E+03  0.00000000000E+00 0. -1.
         -3    1    3    3    0  502 -0.23182100564E+02 -0.44656689160E+02 -0.43161089209E+02  0.66291095141E+02  0.00000000000E+00 0.  1.
         11    1    5    5    0    0  0.10567634078E+03 -0.89278932509E+02 -0.74259827631E+02  0.15701190652E+03  0.00000000000E+00 0.  1.
        -11    1    5    5    0    0  0.25418727873E+03 -0.11683982030E+03 -0.28031393404E+03  0.39602855691E+03  0.00000000000E+00 0. -1.
          2    1    6    6  503    0 -0.25825884786E+03  0.25025938206E+03 -0.61947263917E+03  0.71629165951E+03  0.00000000000E+00 0. -1.
         -2    1    6    6    0  503 -0.56094928305E+02  0.39035940660E+02 -0.21373235509E+03  0.22439243583E+03  0.00000000000E+00 0.  1.
<mgrwt>
<rscale>  0 0.10388014E+04</rscale>
<asrwt>0</asrwt>
<pdfrwt beam="1">  1        2 0.24887336E+00 0.10388014E+04</pdfrwt>
<pdfrwt beam="2">  1       -1 0.25656651E-01 0.10388014E+04</pdfrwt>
<totfact> 0.16570887E+02</totfact>
</mgrwt>
</event>
<event>
12    6  0.8914180E-008  0.1101114E+04  0.7818608E-02  0.9204107E-01
         -3   -1    0    0    0  501 -0.00000000000E+00  0.00000000000E+00  0.90700463343E+02  0.90700463343E+02  0.00000000000E+00 0.  1.
          2   -1    0    0  501    0  0.00000000000E+00 -0.00000000000E+00 -0.33419104679E+04  0.33419104679E+04  0.00000000000E+00 0. -1.
         24    2    1    2    0    0  0.70618523457E+02  0.10720398862E+03 -0.90484616633E+03  0.91738184832E+03  0.79769667699E+02 0.  0.
        254    2    1    2    0    0 -0.70618523457E+02 -0.10720398862E+03 -0.23463638382E+04  0.25152290829E+04  0.89692497300E+03 0.  0.
         23    2    4    4    0    0  0.34413921542E+03  0.14658416661E+03 -0.71966872338E+03  0.81491393322E+03  0.79012212047E+02 0.  0.
         23    2    4    4    0    0 -0.41475773887E+03 -0.25378815522E+03 -0.16266951148E+04  0.17003151497E+04  0.92207385538E+02 0.  0.
          2    1    3    3  502    0  0.26898031407E+02  0.93441386237E+02 -0.45903097752E+03  0.46921661850E+03  0.00000000000E+00 0. -1.
         -1    1    3    3    0  502  0.43720492050E+02  0.13762602380E+02 -0.44581518881E+03  0.44816522982E+03  0.00000000000E+00 0.  1.
         11    1    5    5    0    0  0.32036578357E+03  0.12525124752E+03 -0.60575778525E+03  0.69660936305E+03  0.00000000000E+00 0.  1.
        -11    1    5    5    0    0  0.23773431847E+02  0.21332919081E+02 -0.11391093813E+03  0.11830457017E+03  0.00000000000E+00 0. -1.
          1    1    6    6  503    0 -0.19164120778E+03 -0.83176301071E+02 -0.57559881432E+03  0.61233866824E+03  0.00000000000E+00 0. -1.
         -1    1    6    6    0  503 -0.22311653110E+03 -0.17061185415E+03 -0.10510963005E+04  0.10879764815E+04  0.00000000000E+00 0.  1.
<mgrwt>
<rscale>  0 0.11011137E+04</rscale>
<asrwt>0</asrwt>
<pdfrwt beam="1">  1        2 0.51414009E+00 0.11011137E+04</pdfrwt>
<pdfrwt beam="2">  1       -3 0.13953917E-01 0.11011137E+04</pdfrwt>
<totfact> 0.30333934E+01</totfact>
</mgrwt>
</event>
<event>
12    6  0.8914180E-008  0.1649593E+04  0.7818608E-02  0.8790647E-01
          2   -1    0    0  501    0  0.00000000000E+00  0.00000000000E+00  0.12246529260E+04  0.12246529260E+04  0.00000000000E+00 0. -1.
         -1   -1    0    0    0  501 -0.00000000000E+00 -0.00000000000E+00 -0.55549536094E+03  0.55549536094E+03  0.00000000000E+00 0.  1.
         24    2    1    2    0    0 -0.45979786407E+03  0.10655775983E+03  0.59166038049E+03  0.76119477072E+03  0.81159356498E+02 0.  0.
        254    2    1    2    0    0  0.45979786407E+03 -0.10655775983E+03  0.77497184573E+02  0.10189535162E+04  0.89971763493E+03 0.  0.
         23    2    4    4    0    0 -0.50006334553E+02  0.28144254061E+03 -0.14725820138E+03  0.33382707189E+03  0.89693917824E+02 0.  0.
         23    2    4    4    0    0  0.50980419862E+03 -0.38800030043E+03  0.22475538595E+03  0.68512644433E+03  0.91862435941E+02 0.  0.
          2    1    3    3  502    0 -0.30527915317E+03  0.38769568126E+02  0.34449396904E+03  0.46192481583E+03  0.00000000000E+00 0. -1.
         -1    1    3    3    0  502 -0.15451871090E+03  0.67788191702E+02  0.24716641144E+03  0.29926995489E+03  0.00000000000E+00 0.  1.
         11    1    5    5    0    0 -0.34220291138E+02  0.27565475898E+03 -0.12176249267E+03  0.30328646375E+03  0.00000000000E+00 0. -1.
        -11    1    5    5    0    0 -0.15786043415E+02  0.57877816256E+01 -0.25495708708E+02  0.30540608136E+02  0.00000000000E+00 0.  1.
          3    1    6    6  503    0  0.50562375425E+03 -0.38245094839E+03  0.23199768820E+03  0.67509039107E+03  0.00000000000E+00 0. -1.
         -3    1    6    6    0  503  0.41804443776E+01 -0.55493520391E+01 -0.72423022460E+01  0.10036053262E+02  0.00000000000E+00 0.  1.
<mgrwt>
<rscale>  0 0.16495927E+04</rscale>
<asrwt>0</asrwt>
<pdfrwt beam="1">  1        2 0.18840814E+00 0.16495927E+04</pdfrwt>
<pdfrwt beam="2">  1       -1 0.85460825E-01 0.16495927E+04</pdfrwt>
<totfact> 0.26988812E+01</totfact>
</mgrwt>
</event>
<event>
12    6  0.8914180E-008  0.1783917E+04  0.7818608E-02  0.8714899E-01
         -1   -1    0    0    0  501 -0.00000000000E+00  0.00000000000E+00  0.94451617229E+03  0.94451617229E+03  0.00000000000E+00 0.  1.
          2   -1    0    0  501    0  0.00000000000E+00 -0.00000000000E+00 -0.84232578761E+03  0.84232578761E+03  0.00000000000E+00 0. -1.
         24    2    1    2    0    0 -0.13237986537E+03  0.49578072217E+03 -0.36722020415E+03  0.63603230449E+03  0.79771303081E+02 0.  0.
        254    2    1    2    0    0  0.13237986537E+03 -0.49578072217E+03  0.46941058882E+03  0.11508096554E+04  0.91689345557E+03 0.  0.
         23    2    4    4    0    0 -0.27052453162E+03  0.87183724225E+02  0.63086933467E+01  0.29913780688E+03  0.93054306268E+02 0.  0.
         23    2    4    4    0    0  0.40290439699E+03 -0.58296444639E+03  0.46310189547E+03  0.85167184853E+03  0.93284902993E+02 0.  0.
          4    1    3    3  502    0 -0.88095555668E+02  0.25867785901E+03 -0.15159325337E+03  0.31249892182E+03  0.00000000000E+00 0. -1.
         -3    1    3    3    0  502 -0.44284309703E+02  0.23710286316E+03 -0.21562695077E+03  0.32353338268E+03  0.00000000000E+00 0.  1.
         11    1    5    5    0    0 -0.29877891291E+02 -0.10704014509E+02  0.22399985753E+02  0.38846153945E+02  0.00000000000E+00 0. -1.
        -11    1    5    5    0    0 -0.24064664033E+03  0.97887738733E+02 -0.16091292406E+02  0.26029165293E+03  0.00000000000E+00 0.  1.
          3    1    6    6  503    0  0.26764608480E+03 -0.38275172747E+03  0.25130558343E+03  0.53036573028E+03  0.00000000000E+00 0. -1.
         -3    1    6    6    0  503  0.13525831219E+03 -0.20021271892E+03  0.21179631204E+03  0.32130611825E+03  0.00000000000E+00 0.  1.
<mgrwt>
<rscale>  0 0.17839174E+04</rscale>
<asrwt>0</asrwt>
<pdfrwt beam="1">  1        2 0.12958858E+00 0.17839174E+04</pdfrwt>
<pdfrwt beam="2">  1       -1 0.14531018E+00 0.17839174E+04</pdfrwt>
<totfact> 0.13172723E+01</totfact>
</mgrwt>
</event>
<event>
12    6  0.8914180E-008  0.3853539E+04  0.7818608E-02  0.8034762E-01
         -1   -1    0    0    0  501 -0.00000000000E+00  0.00000000000E+00  0.17027682542E+04  0.17027682542E+04  0.00000000000E+00 0.  1.
          2   -1    0    0  501    0  0.00000000000E+00 -0.00000000000E+00 -0.21802385949E+04  0.21802385949E+04  0.00000000000E+00 0. -1.
         24    2    1    2    0    0  0.52792316018E+03 -0.68650124199E+03  0.13868485904E+04  0.16369341137E+04  0.78850881874E+02 0.  0.
        254    2    1    2    0    0 -0.52792316018E+03  0.68650124199E+03 -0.18643189311E+04  0.22460727353E+04  0.90508056939E+03 0.  0.
         23    2    4    4    0    0 -0.55164458430E+03  0.38586735132E+03 -0.17995058467E+04  0.19235215394E+04  0.92241313633E+02 0.  0.
         23    2    4    4    0    0  0.23721424115E+02  0.30063389067E+03 -0.64813084419E+02  0.32255119594E+03  0.94313816109E+02 0.  0.
          2    1    3    3  502    0 -0.10313802439E+01 -0.22189111067E+01 -0.58387699479E-01  0.24475949073E+01  0.00000000000E+00 0. -1.
         -1    1    3    3    0  502  0.52895454043E+03 -0.68428233088E+03  0.13869069781E+04  0.16344865188E+04  0.00000000000E+00 0.  1.
         11    1    5    5    0    0 -0.53704303102E+03  0.35087989010E+03 -0.16923241880E+04  0.18098323325E+04  0.00000000000E+00 0. -1.
        -11    1    5    5    0    0 -0.14601553282E+02  0.34987461218E+02 -0.10718165869E+03  0.11368920688E+03  0.00000000000E+00 0.  1.
          3    1    6    6  503    0  0.52716650940E+02  0.16832116234E+03 -0.62341174655E+02  0.18707613701E+03  0.00000000000E+00 0. -1.
         -3    1    6    6    0  503 -0.28995226824E+02  0.13231272833E+03 -0.24719097638E+01  0.13547505894E+03  0.00000000000E+00 0.  1.
<mgrwt>
<rscale>  0 0.38535392E+04</rscale>
<asrwt>0</asrwt>
<pdfrwt beam="1">  1        2 0.33542132E+00 0.38535392E+04</pdfrwt>
<pdfrwt beam="2">  1       -1 0.26196435E+00 0.38535392E+04</pdfrwt>
<totfact> 0.28022993E-01</totfact>
</mgrwt>
</event>
<event>
12    6  0.8914180E-008  0.1535454E+04  0.7818608E-02  0.8861213E-01
          2   -1    0    0  501    0  0.00000000000E+00  0.00000000000E+00  0.89846892545E+03  0.89846892545E+03  0.00000000000E+00 0. -1.
         -1   -1    0    0    0  501 -0.00000000000E+00 -0.00000000000E+00 -0.65601048142E+03  0.65601048142E+03  0.00000000000E+00 0.  1.
         24    2    1    2    0    0 -0.12616871258E+03  0.14578366867E+03  0.55277102187E+03  0.59087183059E+03  0.80014345439E+02 0.  0.
        254    2    1    2    0    0  0.12616871258E+03 -0.14578366867E+03 -0.31031257784E+03  0.96360757628E+03  0.89166935745E+03 0.  0.
         23    2    4    4    0    0 -0.76972670519E-01 -0.63702384083E+02 -0.60776640237E+03  0.61814209442E+03  0.93067982623E+02 0.  0.
         23    2    4    4    0    0  0.12624568525E+03 -0.82081284589E+02  0.29745382453E+03  0.34546548185E+03  0.90511386586E+02 0.  0.
          2    1    3    3  502    0 -0.65577590538E+02  0.37564929650E+02  0.29915443703E+03  0.30855294767E+03  0.00000000000E+00 0. -1.
         -1    1    3    3    0  502 -0.60591122042E+02  0.10821873902E+03  0.25361658484E+03  0.28231888292E+03  0.00000000000E+00 0.  1.
         11    1    5    5    0    0 -0.37681082472E+02 -0.16193100960E+02 -0.12424626501E+03  0.13084041754E+03  0.00000000000E+00 0. -1.
        -11    1    5    5    0    0  0.37604109801E+02 -0.47509283123E+02 -0.48352013736E+03  0.48730167688E+03  0.00000000000E+00 0.  1.
          2    1    6    6  503    0  0.10707569048E+03 -0.51120308666E+02  0.13841421589E+03  0.18231013304E+03  0.00000000000E+00 0. -1.
         -2    1    6    6    0  503  0.19169994770E+02 -0.30960975923E+02  0.15903960864E+03  0.16315534881E+03  0.00000000000E+00 0.  1.
<mgrwt>
<rscale>  0 0.15354544E+04</rscale>
<asrwt>0</asrwt>
<pdfrwt beam="1">  1        2 0.13822599E+00 0.15354544E+04</pdfrwt>
<pdfrwt beam="2">  1       -1 0.10092469E+00 0.15354544E+04</pdfrwt>
<totfact> 0.30173386E+01</totfact>
</mgrwt>
</event>
<event>
12    6  0.8914180E-008  0.1952372E+04  0.7818608E-02  0.8629218E-01
         -1   -1    0    0    0  501 -0.00000000000E+00  0.00000000000E+00  0.81616773423E+03  0.81616773423E+03  0.00000000000E+00 0.  1.
          2   -1    0    0  501    0  0.00000000000E+00 -0.00000000000E+00 -0.11675778782E+04  0.11675778782E+04  0.00000000000E+00 0. -1.
         24    2    1    2    0    0 -0.35101623041E+03 -0.66497169454E+03 -0.28300750238E+03  0.80727487607E+03  0.78738367853E+02 0.  0.
        254    2    1    2    0    0  0.35101623041E+03  0.66497169454E+03 -0.68402641622E+02  0.11764707364E+04  0.90222210328E+03 0.  0.
         23    2    4    4    0    0  0.32908588186E+03 -0.12961828541E+03  0.54819768866E+02  0.36789819030E+03  0.85120231497E+02 0.  0.
         23    2    4    4    0    0  0.21930348545E+02  0.79458997995E+03 -0.12322241049E+03  0.80857254610E+03  0.82168262908E+02 0.  0.
          4    1    3    3  502    0 -0.27751520344E+03 -0.45839689525E+03 -0.21880203072E+03  0.57880629779E+03  0.00000000000E+00 0. -1.
         -1    1    3    3    0  502 -0.73501026968E+02 -0.20657479929E+03 -0.64205471657E+02  0.22846857827E+03  0.00000000000E+00 0.  1.
         11    1    5    5    0    0  0.17066902528E+03 -0.95560522877E+02  0.63442553279E+02  0.20563240817E+03  0.00000000000E+00 0. -1.
        -11    1    5    5    0    0  0.15841685658E+03 -0.34057762532E+02 -0.86227844135E+01  0.16226578213E+03  0.00000000000E+00 0.  1.
          3    1    6    6  503    0  0.41470615941E+02  0.22834607827E+03 -0.23301681396E+02  0.23324817642E+03  0.00000000000E+00 0. -1.
         -3    1    6    6    0  503 -0.19540267396E+02  0.56624390168E+03 -0.99920729091E+02  0.57532436968E+03  0.00000000000E+00 0.  1.
<mgrwt>
<rscale>  0 0.19523723E+04</rscale>
<asrwt>0</asrwt>
<pdfrwt beam="1">  1        2 0.17962737E+00 0.19523723E+04</pdfrwt>
<pdfrwt beam="2">  1       -1 0.12556427E+00 0.19523723E+04</pdfrwt>
<totfact> 0.11659560E+01</totfact>
</mgrwt>
</event>
<event>
12    6  0.8914180E-008  0.1381327E+04  0.7818608E-02  0.8967447E-01
         -1   -1    0    0    0  501 -0.00000000000E+00  0.00000000000E+00  0.32084335065E+03  0.32084335065E+03  0.00000000000E+00 0.  1.
          2   -1    0    0  501    0  0.00000000000E+00 -0.00000000000E+00 -0.14867575056E+04  0.14867575056E+04  0.00000000000E+00 0. -1.
         24    2    1    2    0    0  0.37250048740E+02  0.36946358520E+03 -0.18357131001E+03  0.42191196071E+03  0.80127210207E+02 0.  0.
        254    2    1    2    0    0 -0.37250048740E+02 -0.36946358520E+03 -0.98234284492E+03  0.13856888955E+04  0.90401622952E+03 0.  0.
         23    2    4    4    0    0  0.30538181315E+03  0.94420746012E+02 -0.60566994863E+03  0.69066361140E+03  0.89480770868E+02 0.  0.
         23    2    4    4    0    0 -0.34263186189E+03 -0.46388433121E+03 -0.37667289629E+03  0.69502528411E+03  0.92695249159E+02 0.  0.
          2    1    3    3  502    0  0.43686260806E+02  0.12274258224E+03 -0.39536062272E+02  0.13615186777E+03  0.00000000000E+00 0. -1.
         -1    1    3    3    0  502 -0.64362120657E+01  0.24672100296E+03 -0.14403524773E+03  0.28576009294E+03  0.00000000000E+00 0.  1.
         11    1    5    5    0    0  0.13380643966E+03  0.13397066912E+02 -0.18059954862E+03  0.22516625337E+03  0.00000000000E+00 0. -1.
        -11    1    5    5    0    0  0.17157537349E+03  0.81023679099E+02 -0.42507040001E+03  0.46549735802E+03  0.00000000000E+00 0.  1.
          1    1    6    6  503    0 -0.84962297521E+02 -0.10026685599E+03 -0.42944788932E+02  0.13826166970E+03  0.00000000000E+00 0. -1.
         -1    1    6    6    0  503 -0.25766956437E+03 -0.36361747522E+03 -0.33372810736E+03  0.55676361441E+03  0.00000000000E+00 0.  1.
<mgrwt>
<rscale>  0 0.13813273E+04</rscale>
<asrwt>0</asrwt>
<pdfrwt beam="1">  1        2 0.22873193E+00 0.13813273E+04</pdfrwt>
<pdfrwt beam="2">  1       -1 0.49360514E-01 0.13813273E+04</pdfrwt>
<totfact> 0.58989668E+01</totfact>
</mgrwt>
</event>
<event>
12    6  0.8914180E-008  0.1602849E+04  0.7818608E-02  0.8818800E-01
         -1   -1    0    0    0  501 -0.00000000000E+00  0.00000000000E+00  0.84596914088E+03  0.84596914088E+03  0.00000000000E+00 0.  1.
          2   -1    0    0  501    0  0.00000000000E+00 -0.00000000000E+00 -0.75922515918E+03  0.75922515918E+03  0.00000000000E+00 0. -1.
         24    2    1    2    0    0  0.19096051419E+03 -0.26726530013E+03  0.45573215546E+03  0.56732624821E+03  0.79187219660E+02 0.  0.
        254    2    1    2    0    0 -0.19096051419E+03  0.26726530013E+03 -0.36898817376E+03  0.10378680518E+04  0.91275471077E+03 0.  0.
         23    2    4    4    0    0  0.23742516647E+03 -0.10468503422E+03 -0.37367809701E+03  0.46331376221E+03  0.87719188308E+02 0.  0.
         23    2    4    4    0    0 -0.42838568066E+03  0.37195033435E+03  0.46899232578E+01  0.57455428964E+03  0.90715454864E+02 0.  0.
          4    1    3    3  502    0 -0.17731969945E+00 -0.43863422930E+02  0.60808960666E+02  0.74978403628E+02  0.00000000000E+00 0. -1.
         -3    1    3    3    0  502  0.19113783389E+03 -0.22340187720E+03  0.39492319480E+03  0.49234784459E+03  0.00000000000E+00 0.  1.
         11    1    5    5    0    0  0.51249058814E+02 -0.36262749106E+02 -0.37921615982E+02  0.73345088185E+02  0.00000000000E+00 0. -1.
        -11    1    5    5    0    0  0.18617610766E+03 -0.68422285109E+02 -0.33575648103E+03  0.38996867402E+03  0.00000000000E+00 0.  1.
          4    1    6    6  503    0 -0.22903715997E+03  0.17922383545E+03 -0.40453227321E+02  0.29362504566E+03  0.00000000000E+00 0. -1.
         -4    1    6    6    0  503 -0.19934852069E+03  0.19272649890E+03  0.45143150579E+02  0.28092924398E+03  0.00000000000E+00 0.  1.
<mgrwt>
<rscale>  0 0.16028488E+04</rscale>
<asrwt>0</asrwt>
<pdfrwt beam="1">  1        2 0.11680387E+00 0.16028488E+04</pdfrwt>
<pdfrwt beam="2">  1       -1 0.13014910E+00 0.16028488E+04</pdfrwt>
<totfact> 0.20434760E+01</totfact>
</mgrwt>
</event>
<event>
12    6  0.8914180E-008  0.2903096E+04  0.7818608E-02  0.8271957E-01
          2   -1    0    0  501    0  0.00000000000E+00  0.00000000000E+00  0.16727160722E+04  0.16727160722E+04  0.00000000000E+00 0. -1.
         -1   -1    0    0    0  501 -0.00000000000E+00 -0.00000000000E+00 -0.12596229719E+04  0.12596229719E+04  0.00000000000E+00 0.  1.
         24    2    1    2    0    0 -0.45225317403E+03  0.71992369330E+02 -0.10554877733E+04  0.11538885148E+04  0.87683694757E+02 0.  0.
        254    2    1    2    0    0  0.45225317403E+03 -0.71992369330E+02  0.14685808735E+04  0.17784505293E+04  0.89243524597E+03 0.  0.
         23    2    4    4    0    0  0.20684021430E+03 -0.45685835679E+03  0.98208336222E+03  0.11063320715E+04  0.89333586907E+02 0.  0.
         23    2    4    4    0    0  0.24541295973E+03  0.38486598746E+03  0.48649751132E+03  0.67211845772E+03  0.81939267654E+02 0.  0.
          2    1    3    3  502    0 -0.22844296912E+01  0.29509717274E+01 -0.50097566417E+02  0.50236371426E+02  0.00000000000E+00 0. -1.
         -1    1    3    3    0  502 -0.44996874433E+03  0.69041397602E+02 -0.10053902068E+04  0.11036521433E+04  0.00000000000E+00 0.  1.
         11    1    5    5    0    0  0.34828073011E+02 -0.16034242673E+03  0.37103858320E+03  0.40569978889E+03  0.00000000000E+00 0.  1.
        -11    1    5    5    0    0  0.17201214129E+03 -0.29651593006E+03  0.61104477902E+03  0.70063228265E+03  0.00000000000E+00 0. -1.
          1    1    6    6  503    0  0.18986521362E+03  0.34285786957E+03  0.43493375897E+03  0.58546365623E+03  0.00000000000E+00 0. -1.
         -1    1    6    6    0  503  0.55547746104E+02  0.42008117887E+02  0.51563752358E+02  0.86654801499E+02  0.00000000000E+00 0.  1.
<mgrwt>
<rscale>  0 0.29030960E+04</rscale>
<asrwt>0</asrwt>
<pdfrwt beam="1">  1        2 0.25734094E+00 0.29030960E+04</pdfrwt>
<pdfrwt beam="2">  1       -1 0.19378815E+00 0.29030960E+04</pdfrwt>
<totfact> 0.16581991E+00</totfact>
</mgrwt>
</event>
<event>
12    6  0.8914180E-008  0.2408654E+04  0.7818608E-02  0.8436271E-01
         -1   -1    0    0    0  501 -0.00000000000E+00  0.00000000000E+00  0.69779116539E+03  0.69779116539E+03  0.00000000000E+00 0.  1.
          2   -1    0    0  501    0  0.00000000000E+00 -0.00000000000E+00 -0.20785635301E+04  0.20785635301E+04  0.00000000000E+00 0. -1.
         24    2    1    2    0    0  0.48574993962E+03  0.63248619837E+03 -0.13468514336E+04  0.15672901107E+04  0.79985699208E+02 0.  0.
        254    2    1    2    0    0 -0.48574993962E+03 -0.63248619837E+03 -0.33920931175E+02  0.12090645848E+04  0.90812705371E+03 0.  0.
         23    2    4    4    0    0  0.23393522187E+03 -0.61951259784E+02 -0.11450148690E+03  0.28264211975E+03  0.90621910900E+02 0.  0.
         23    2    4    4    0    0 -0.71968516149E+03 -0.57053493859E+03  0.80580555726E+02  0.92642246505E+03  0.91151028426E+02 0.  0.
          4    1    3    3  502    0  0.28019461073E+03  0.36681503135E+03 -0.70129500234E+03  0.83956951315E+03  0.00000000000E+00 0. -1.
         -3    1    3    3    0  502  0.20555532889E+03  0.26567116703E+03 -0.64555643124E+03  0.72772059758E+03  0.00000000000E+00 0.  1.
         11    1    5    5    0    0  0.13477010267E+03 -0.68521876203E+02 -0.10222248763E+03  0.18250387686E+03  0.00000000000E+00 0. -1.
        -11    1    5    5    0    0  0.99165119194E+02  0.65706164190E+01 -0.12278999267E+02  0.10013824288E+03  0.00000000000E+00 0.  1.
          3    1    6    6  503    0 -0.52329769593E+03 -0.40220914888E+03  0.97707045163E+02  0.66720262640E+03  0.00000000000E+00 0. -1.
         -3    1    6    6    0  503 -0.19638746555E+03 -0.16832578971E+03 -0.17126489437E+02  0.25921983865E+03  0.00000000000E+00 0.  1.
<mgrwt>
<rscale>  0 0.24086538E+04</rscale>
<asrwt>0</asrwt>
<pdfrwt beam="1">  1        2 0.31977900E+00 0.24086538E+04</pdfrwt>
<pdfrwt beam="2">  1       -1 0.10735249E+00 0.24086538E+04</pdfrwt>
<totfact> 0.49917454E+00</totfact>
</mgrwt>
</event>
<event>
12    6  0.8914180E-008  0.2382548E+04  0.7818608E-02  0.8446066E-01
          2   -1    0    0  501    0  0.00000000000E+00  0.00000000000E+00  0.28009150895E+04  0.28009150895E+04  0.00000000000E+00 0. -1.
         -1   -1    0    0    0  501 -0.00000000000E+00 -0.00000000000E+00 -0.50666801533E+03  0.50666801533E+03  0.00000000000E+00 0.  1.
         24    2    1    2    0    0 -0.95179424448E+02  0.10117149796E+04  0.91850147956E+03  0.13719321114E+04  0.76983294598E+02 0.  0.
        254    2    1    2    0    0  0.95179424448E+02 -0.10117149796E+04  0.13757455947E+04  0.19356509935E+04  0.90633465376E+03 0.  0.
         23    2    4    4    0    0 -0.19798642280E+03 -0.75704847149E+03  0.40391255513E+03  0.88523831230E+03  0.90446147372E+02 0.  0.
         23    2    4    4    0    0  0.29316584725E+03 -0.25466650806E+03  0.97183303953E+03  0.10504126812E+04  0.90033880958E+02 0.  0.
          2    1    3    3  502    0 -0.28902749768E+02  0.43484658323E+03  0.44284183644E+03  0.62131780273E+03  0.00000000000E+00 0. -1.
         -1    1    3    3    0  502 -0.66276674679E+02  0.57686839633E+03  0.47565964312E+03  0.75061430867E+03  0.00000000000E+00 0.  1.
         11    1    5    5    0    0 -0.52263602047E+02 -0.20300863881E+03  0.64354034440E+02  0.21928391022E+03  0.00000000000E+00 0. -1.
        -11    1    5    5    0    0 -0.14572282075E+03 -0.55403983268E+03  0.33955852069E+03  0.66595440208E+03  0.00000000000E+00 0.  1.
          3    1    6    6  503    0  0.51569487022E+02 -0.85211256707E+02  0.18584081397E+03  0.21084870974E+03  0.00000000000E+00 0. -1.
         -3    1    6    6    0  503  0.24159636022E+03 -0.16945525136E+03  0.78599222556E+03  0.83956397143E+03  0.00000000000E+00 0.  1.
<mgrwt>
<rscale>  0 0.23825483E+04</rscale>
<asrwt>0</asrwt>
<pdfrwt beam="1">  1        2 0.43091001E+00 0.23825483E+04</pdfrwt>
<pdfrwt beam="2">  1       -1 0.77948927E-01 0.23825483E+04</pdfrwt>
<totfact> 0.39003850E+00</totfact>
</mgrwt>
</event>
<event>
12    6  0.8914180E-008  0.1659322E+04  0.7818608E-02  0.8784911E-01
         -1   -1    0    0    0  501 -0.00000000000E+00  0.00000000000E+00  0.58228413833E+03  0.58228413833E+03  0.00000000000E+00 0.  1.
          2   -1    0    0  501    0  0.00000000000E+00 -0.00000000000E+00 -0.11821330187E+04  0.11821330187E+04  0.00000000000E+00 0. -1.
         24    2    1    2    0    0  0.22136647150E+03 -0.17448257973E+03  0.33033658281E+03  0.44162387309E+03  0.80387200473E+02 0.  0.
        254    2    1    2    0    0 -0.22136647150E+03  0.17448257973E+03 -0.93018546322E+03  0.13227932840E+04  0.89726795931E+03 0.  0.
         23    2    4    4    0    0 -0.20992552345E+03  0.42472953994E+03 -0.93784872093E+03  0.10549491598E+04  0.94305879387E+02 0.  0.
         23    2    4    4    0    0 -0.11440948053E+02 -0.25024696020E+03  0.76632577098E+01  0.26784412419E+03  0.94484458826E+02 0.  0.
          2    1    3    3  502    0  0.10193998981E+03 -0.91644858767E+02  0.10163818711E+03  0.17064835991E+03  0.00000000000E+00 0. -1.
         -3    1    3    3    0  502  0.11942648169E+03 -0.82837720968E+02  0.22869839570E+03  0.27097551317E+03  0.00000000000E+00 0.  1.
         11    1    5    5    0    0 -0.10595811775E+03  0.31182347136E+03 -0.62361199719E+03  0.70523253119E+03  0.00000000000E+00 0.  1.
        -11    1    5    5    0    0 -0.10396740569E+03  0.11290606858E+03 -0.31423672374E+03  0.34971662860E+03  0.00000000000E+00 0. -1.
          3    1    6    6  503    0  0.14149297615E+02 -0.11507484319E+03 -0.39385151219E+02  0.12244840667E+03  0.00000000000E+00 0. -1.
         -3    1    6    6    0  503 -0.25590245668E+02 -0.13517211701E+03  0.47048408929E+02  0.14539571752E+03  0.00000000000E+00 0.  1.
<mgrwt>
<rscale>  0 0.16593219E+04</rscale>
<asrwt>0</asrwt>
<pdfrwt beam="1">  1        2 0.18186662E+00 0.16593219E+04</pdfrwt>
<pdfrwt beam="2">  1       -1 0.89582175E-01 0.16593219E+04</pdfrwt>
<totfact> 0.25794381E+01</totfact>
</mgrwt>
</event>
<event>
12    6  0.8914180E-008  0.2632202E+04  0.7818608E-02  0.8357344E-01
         -1   -1    0    0    0  501 -0.00000000000E+00  0.00000000000E+00  0.67849673379E+03  0.67849673379E+03  0.00000000000E+00 0.  1.
          2   -1    0    0  501    0  0.00000000000E+00 -0.00000000000E+00 -0.25528816076E+04  0.25528816076E+04  0.00000000000E+00 0. -1.
         24    2    1    2    0    0 -0.55312678645E+03  0.59014963751E+03  0.19306184658E+03  0.83579647108E+03  0.84006118359E+02 0.  0.
        254    2    1    2    0    0  0.55312678645E+03 -0.59014963751E+03 -0.20674467204E+04  0.23955818703E+04  0.90013927764E+03 0.  0.
         23    2    4    4    0    0  0.36264670832E+02 -0.66759199361E+03 -0.12623279329E+04  0.14314212390E+04  0.92199550308E+02 0.  0.
         23    2    4    4    0    0  0.51686211562E+03  0.77442356106E+02 -0.80511878750E+03  0.96416063129E+03  0.90805814010E+02 0.  0.
          2    1    3    3  502    0 -0.15850721938E+03  0.19823853576E+03  0.95226046648E+02  0.27109233780E+03  0.00000000000E+00 0. -1.
         -1    1    3    3    0  502 -0.39461956708E+03  0.39191110175E+03  0.97835799937E+02  0.56470413328E+03  0.00000000000E+00 0.  1.
         11    1    5    5    0    0  0.43204332584E+02 -0.66419952447E+03 -0.12340594973E+04  0.14021164237E+04  0.00000000000E+00 0.  1.
        -11    1    5    5    0    0 -0.69396617520E+01 -0.33924691466E+01 -0.28268435534E+02  0.29304815298E+02  0.00000000000E+00 0. -1.
          2    1    6    6  503    0  0.10276460822E+03  0.41254695986E+02 -0.12426325371E+03  0.16644479825E+03  0.00000000000E+00 0. -1.
         -2    1    6    6    0  503  0.41409750740E+03  0.36187660120E+02 -0.68085553379E+03  0.79771583303E+03  0.00000000000E+00 0.  1.
<mgrwt>
<rscale>  0 0.26322020E+04</rscale>
<asrwt>0</asrwt>
<pdfrwt beam="1">  1        2 0.39275101E+00 0.26322020E+04</pdfrwt>
<pdfrwt beam="2">  1       -1 0.10438411E+00 0.26322020E+04</pdfrwt>
<totfact> 0.28071432E+00</totfact>
</mgrwt>
</event>
<event>
12    6  0.8914180E-008  0.2377651E+04  0.7818608E-02  0.8447919E-01
         -3   -1    0    0    0  501 -0.00000000000E+00  0.00000000000E+00  0.66009409503E+03  0.66009409503E+03  0.00000000000E+00 0.  1.
          4   -1    0    0  501    0  0.00000000000E+00 -0.00000000000E+00 -0.21410668134E+04  0.21410668134E+04  0.00000000000E+00 0. -1.
         24    2    1    2    0    0 -0.70374413474E+03 -0.64768901294E+03 -0.23356565640E+03  0.98779644509E+03  0.80199977634E+02 0.  0.
        254    2    1    2    0    0  0.70374413474E+03  0.64768901294E+03 -0.12474070619E+04  0.18133644633E+04  0.90416228297E+03 0.  0.
         23    2    4    4    0    0  0.71344229669E+02  0.19315505455E+02 -0.80600833506E+03  0.81435163718E+03  0.89755584440E+02 0.  0.
         23    2    4    4    0    0  0.63239990507E+03  0.62837350748E+03 -0.44139872686E+03  0.99901282611E+03  0.91710881699E+02 0.  0.
          2    1    3    3  502    0 -0.20304329219E+03 -0.14281393159E+03 -0.46651357343E+02  0.25258413787E+03  0.00000000000E+00 0. -1.
         -1    1    3    3    0  502 -0.50070084255E+03 -0.50487508134E+03 -0.18691429906E+03  0.73521230722E+03  0.00000000000E+00 0.  1.
         11    1    5    5    0    0 -0.17332418471E+02 -0.15444326570E+01 -0.51424213643E+02  0.54288560039E+02  0.00000000000E+00 0.  1.
        -11    1    5    5    0    0  0.88676648139E+02  0.20859938112E+02 -0.75458412142E+03  0.76006307714E+03  0.00000000000E+00 0. -1.
          4    1    6    6  503    0  0.97595669717E+02  0.14783705317E+03 -0.81777404982E+02  0.19511087362E+03  0.00000000000E+00 0.  1.
         -4    1    6    6    0  503  0.53480423536E+03  0.48053645431E+03 -0.35962132188E+03  0.80390195249E+03  0.00000000000E+00 0. -1.
<mgrwt>
<rscale>  0 0.23776506E+04</rscale>
<asrwt>0</asrwt>
<pdfrwt beam="1">  1        4 0.32939490E+00 0.23776506E+04</pdfrwt>
<pdfrwt beam="2">  1       -3 0.10155294E+00 0.23776506E+04</pdfrwt>
<totfact> 0.34817166E-02</totfact>
</mgrwt>
</event>
<event>
12    6  0.8914180E-008  0.2144915E+04  0.7818608E-02  0.8541712E-01
         -1   -1    0    0    0  501 -0.00000000000E+00  0.00000000000E+00  0.47313048922E+03  0.47313048922E+03  0.00000000000E+00 0.  1.
          2   -1    0    0  501    0  0.00000000000E+00 -0.00000000000E+00 -0.24309675226E+04  0.24309675226E+04  0.00000000000E+00 0. -1.
         24    2    1    2    0    0  0.36935773380E+03 -0.69363964092E+03 -0.13725582665E+04  0.15847422388E+04  0.99652804402E+02 0.  0.
        254    2    1    2    0    0 -0.36935773380E+03  0.69363964092E+03 -0.58527876684E+03  0.13193557730E+04  0.88350853639E+03 0.  0.
         23    2    4    4    0    0 -0.35132906031E+03  0.23364973731E+02  0.78223222355E+02  0.37164216337E+03  0.89560004801E+02 0.  0.
         23    2    4    4    0    0 -0.18028673485E+02  0.67027466719E+03 -0.66350198919E+03  0.94771360963E+03  0.91285451653E+02 0.  0.
          4    1    3    3  502    0  0.12500926491E+03 -0.32280526672E+03 -0.54751133885E+03  0.64776478964E+03  0.00000000000E+00 0. -1.
         -3    1    3    3    0  502  0.24434846889E+03 -0.37083437420E+03 -0.82504692768E+03  0.93697744914E+03  0.00000000000E+00 0.  1.
         11    1    5    5    0    0 -0.39278415807E+02 -0.18998213809E+02 -0.96762074514E+01  0.44691778516E+02  0.00000000000E+00 0. -1.
        -11    1    5    5    0    0 -0.31205064451E+03  0.42363187540E+02  0.87899429807E+02  0.32695038485E+03  0.00000000000E+00 0.  1.
          3    1    6    6  503    0 -0.61719572677E+01  0.36723685080E+03 -0.29942761852E+03  0.47387540174E+03  0.00000000000E+00 0. -1.
         -3    1    6    6    0  503 -0.11856716218E+02  0.30303781639E+03 -0.36407437067E+03  0.47383820789E+03  0.00000000000E+00 0.  1.
<mgrwt>
<rscale>  0 0.21449148E+04</rscale>
<asrwt>0</asrwt>
<pdfrwt beam="1">  1        2 0.37399500E+00 0.21449148E+04</pdfrwt>
<pdfrwt beam="2">  1       -1 0.72789307E-01 0.21449148E+04</pdfrwt>
<totfact> 0.75895084E+00</totfact>
</mgrwt>
</event>
<event>
12    6  0.8914180E-008  0.2064742E+04  0.7818608E-02  0.8576936E-01
         -1   -1    0    0    0  501 -0.00000000000E+00  0.00000000000E+00  0.72295615899E+03  0.72295615899E+03  0.00000000000E+00 0.  1.
          2   -1    0    0  501    0  0.00000000000E+00 -0.00000000000E+00 -0.14742107145E+04  0.14742107145E+04  0.00000000000E+00 0. -1.
         24    2    1    2    0    0 -0.28013720098E+03  0.56073314475E+03  0.27624759019E+03  0.68976874141E+03  0.81053528862E+02 0.  0.
        254    2    1    2    0    0  0.28013720098E+03 -0.56073314475E+03 -0.10275021457E+04  0.15073981320E+04  0.90751857180E+03 0.  0.
         23    2    4    4    0    0  0.24591032714E+03 -0.21939153376E+03 -0.10932457080E+04  0.11456398208E+04  0.93273184249E+02 0.  0.
         23    2    4    4    0    0  0.34226873845E+02 -0.34134161099E+03  0.65743562325E+02  0.36175831124E+03  0.94134401151E+02 0.  0.
          2    1    3    3  502    0 -0.20193982640E+03  0.39092384535E+03  0.15297458344E+03  0.46583513127E+03  0.00000000000E+00 0. -1.
         -1    1    3    3    0  502 -0.78197374587E+02  0.16980929940E+03  0.12327300675E+03  0.22393361014E+03  0.00000000000E+00 0.  1.
         11    1    5    5    0    0  0.22642724580E+03 -0.22211923300E+03 -0.96234528200E+03  0.10132693093E+04  0.00000000000E+00 0. -1.
        -11    1    5    5    0    0  0.19483081334E+02  0.27276992395E+01 -0.13090042598E+03  0.13237051153E+03  0.00000000000E+00 0.  1.
          3    1    6    6  503    0 -0.31683265376E+01 -0.10556834366E+03  0.63087038978E+02  0.12302311963E+03  0.00000000000E+00 0. -1.
         -3    1    6    6    0  503  0.37395200383E+02 -0.23577326733E+03  0.26565233471E+01  0.23873519161E+03  0.00000000000E+00 0.  1.
<mgrwt>
<rscale>  0 0.20647418E+04</rscale>
<asrwt>0</asrwt>
<pdfrwt beam="1">  1        2 0.22680165E+00 0.20647418E+04</pdfrwt>
<pdfrwt beam="2">  1       -1 0.11122402E+00 0.20647418E+04</pdfrwt>
<totfact> 0.10277076E+01</totfact>
</mgrwt>
</event>
<event>
12    6  0.8914180E-008  0.1620003E+04  0.7818608E-02  0.8808353E-01
         -1   -1    0    0    0  501 -0.00000000000E+00  0.00000000000E+00  0.97781076603E+03  0.97781076603E+03  0.00000000000E+00 0.  1.
          2   -1    0    0  501    0  0.00000000000E+00 -0.00000000000E+00 -0.67099157438E+03  0.67099157438E+03  0.00000000000E+00 0. -1.
         24    2    1    2    0    0  0.48351618671E+02 -0.36441890249E+03  0.53313770561E+03  0.65244340577E+03  0.79420205697E+02 0.  0.
        254    2    1    2    0    0 -0.48351618671E+02  0.36441890249E+03 -0.22631851395E+03  0.99635893464E+03  0.89798220548E+03 0.  0.
         23    2    4    4    0    0  0.15306103231E+03  0.55951224191E+03  0.54183690529E+02  0.58995839703E+03  0.92916141972E+02 0.  0.
         23    2    4    4    0    0 -0.20141265098E+03 -0.19509333942E+03 -0.28050220448E+03  0.40640053761E+03  0.88608369753E+02 0.  0.
          4    1    3    3  502    0 -0.16662174651E+02 -0.13370721503E+03  0.16314624040E+03  0.21159381648E+03  0.00000000000E+00 0. -1.
         -3    1    3    3    0  502  0.65013793322E+02 -0.23071168746E+03  0.36999146521E+03  0.44084958930E+03  0.00000000000E+00 0.  1.
         11    1    5    5    0    0  0.85094325210E+02  0.15663847047E+03  0.29127551396E+02  0.18062410931E+03  0.00000000000E+00 0. -1.
        -11    1    5    5    0    0  0.67966707102E+02  0.40287377144E+03  0.25056139133E+02  0.40933428771E+03  0.00000000000E+00 0.  1.
          2    1    6    6  503    0 -0.17065653282E+03 -0.11597689743E+03 -0.22333596035E+03  0.30406125060E+03  0.00000000000E+00 0. -1.
         -2    1    6    6    0  503 -0.30756118161E+02 -0.79116441992E+02 -0.57166244136E+02  0.10233928701E+03  0.00000000000E+00 0.  1.
<mgrwt>
<rscale>  0 0.16200034E+04</rscale>
<asrwt>0</asrwt>
<pdfrwt beam="1">  1        2 0.10322947E+00 0.16200034E+04</pdfrwt>
<pdfrwt beam="2">  1       -1 0.15043242E+00 0.16200034E+04</pdfrwt>
<totfact> 0.16363356E+01</totfact>
</mgrwt>
</event>
<event>
12    6  0.8914180E-008  0.1106278E+04  0.7818608E-02  0.9199094E-01
          2   -1    0    0  501    0  0.00000000000E+00  0.00000000000E+00  0.14323092746E+04  0.14323092746E+04  0.00000000000E+00 0. -1.
         -1   -1    0    0    0  501 -0.00000000000E+00 -0.00000000000E+00 -0.21361498599E+03  0.21361498599E+03  0.00000000000E+00 0.  1.
         24    2    1    2    0    0 -0.14157768538E+03  0.61772035551E+02  0.95808935188E+02  0.19644503547E+03  0.74506875692E+02 0.  0.
        254    2    1    2    0    0  0.14157768538E+03 -0.61772035551E+02  0.11228853534E+04  0.14494792251E+04  0.90347024398E+03 0.  0.
         23    2    4    4    0    0 -0.20644875605E+03  0.12981189418E+03  0.39995208611E+01  0.25865474384E+03  0.86104956857E+02 0.  0.
         23    2    4    4    0    0  0.34802644143E+03 -0.19158392974E+03  0.11188858326E+04  0.11908244813E+04  0.91272300527E+02 0.  0.
          2    1    3    3  502    0 -0.17805357902E+02 -0.16757262227E+02  0.88126637693E+01  0.25990376105E+02  0.00000000000E+00 0. -1.
         -1    1    3    3    0  502 -0.12377232747E+03  0.78529297778E+02  0.86996271419E+02  0.17045465936E+03  0.00000000000E+00 0.  1.
         11    1    5    5    0    0 -0.13615900816E+03  0.70470898858E+02 -0.37351120602E+02  0.15779901552E+03  0.00000000000E+00 0.  1.
        -11    1    5    5    0    0 -0.70289747897E+02  0.59340995327E+02  0.41350641463E+02  0.10085572832E+03  0.00000000000E+00 0. -1.
          3    1    6    6  503    0  0.29805126318E+03 -0.17362592141E+03  0.86093244896E+03  0.92746169611E+03  0.00000000000E+00 0. -1.
         -3    1    6    6    0  503  0.49975178246E+02 -0.17958008331E+02  0.25795338362E+03  0.26336278519E+03  0.00000000000E+00 0.  1.
<mgrwt>
<rscale>  0 0.11062779E+04</rscale>
<asrwt>0</asrwt>
<pdfrwt beam="1">  1        2 0.22035527E+00 0.11062779E+04</pdfrwt>
<pdfrwt beam="2">  1       -1 0.32863845E-01 0.11062779E+04</pdfrwt>
<totfact> 0.13609027E+02</totfact>
</mgrwt>
</event>
<event>
12    6  0.8914180E-008  0.2790046E+04  0.7818608E-02  0.8306365E-01
         -1   -1    0    0    0  501 -0.00000000000E+00  0.00000000000E+00  0.15111734765E+04  0.15111734765E+04  0.00000000000E+00 0.  1.
          2   -1    0    0  501    0  0.00000000000E+00 -0.00000000000E+00 -0.12878003846E+04  0.12878003846E+04  0.00000000000E+00 0. -1.
         24    2    1    2    0    0 -0.66253971550E+03 -0.56213062806E+02  0.11583368810E+04  0.13380078707E+04  0.80012181422E+02 0.  0.
        254    2    1    2    0    0  0.66253971550E+03  0.56213062806E+02 -0.93496378914E+03  0.14609659904E+04  0.90451398838E+03 0.  0.
         23    2    4    4    0    0  0.15129978464E+03  0.36953559220E+03 -0.69638442159E+03  0.80789270750E+03  0.91055946856E+02 0.  0.
         23    2    4    4    0    0  0.51123993086E+03 -0.31332252940E+03 -0.23857936754E+03  0.65307328293E+03  0.10023634037E+03 0.  0.
          4    1    3    3  502    0 -0.29492685108E+03 -0.41016263966E+02  0.44602644884E+03  0.53628702619E+03  0.00000000000E+00 0. -1.
         -3    1    3    3    0  502 -0.36761286441E+03 -0.15196798840E+02  0.71231043219E+03  0.80172084455E+03  0.00000000000E+00 0.  1.
         11    1    5    5    0    0  0.63543225161E+02  0.58515264088E+02 -0.14411727538E+03  0.16802251830E+03  0.00000000000E+00 0.  1.
        -11    1    5    5    0    0  0.87756559476E+02  0.31102032812E+03 -0.55226714622E+03  0.63987018920E+03  0.00000000000E+00 0. -1.
          1    1    6    6  503    0  0.47138697124E+03 -0.29728844367E+03 -0.24651374210E+03  0.60938913712E+03  0.00000000000E+00 0. -1.
         -1    1    6    6    0  503  0.39852959619E+02 -0.16034085725E+02  0.79343745631E+01  0.43684145809E+02  0.00000000000E+00 0.  1.
<mgrwt>
<rscale>  0 0.27900464E+04</rscale>
<asrwt>0</asrwt>
<pdfrwt beam="1">  1        2 0.19812314E+00 0.27900464E+04</pdfrwt>
<pdfrwt beam="2">  1       -1 0.23248823E+00 0.27900464E+04</pdfrwt>
<totfact> 0.15151171E+00</totfact>
</mgrwt>
</event>
<event>
12    6  0.8914180E-008  0.1920136E+04  0.7818608E-02  0.8644898E-01
         -1   -1    0    0    0  501 -0.00000000000E+00  0.00000000000E+00  0.87785653158E+03  0.87785653158E+03  0.00000000000E+00 0.  1.
          2   -1    0    0  501    0  0.00000000000E+00 -0.00000000000E+00 -0.10499787909E+04  0.10499787909E+04  0.00000000000E+00 0. -1.
         24    2    1    2    0    0  0.29012166370E+02  0.35164757871E+03  0.59509594263E+03  0.69653425108E+03  0.80765441699E+02 0.  0.
        254    2    1    2    0    0 -0.29012166370E+02 -0.35164757871E+03 -0.76721820194E+03  0.12313010714E+04  0.89609197831E+03 0.  0.
         23    2    4    4    0    0 -0.30004787854E+02 -0.20199736995E+03 -0.95191966881E+03  0.97836217827E+03  0.96634731099E+02 0.  0.
         23    2    4    4    0    0  0.99262148342E+00 -0.14965020876E+03  0.18470146687E+03  0.25293889311E+03  0.86413433583E+02 0.  0.
          4    1    3    3  502    0  0.39552694601E+02  0.22491774314E+03  0.44201366151E+03  0.49752234502E+03  0.00000000000E+00 0. -1.
         -3    1    3    3    0  502 -0.10540528231E+02  0.12672983558E+03  0.15308228112E+03  0.19901190606E+03  0.00000000000E+00 0.  1.
         11    1    5    5    0    0 -0.28934730533E+02 -0.65485365685E+01 -0.99904639582E+02  0.10421630857E+03  0.00000000000E+00 0. -1.
        -11    1    5    5    0    0 -0.10700573201E+01 -0.19544883338E+03 -0.85201502922E+03  0.87414586970E+03  0.00000000000E+00 0.  1.
          3    1    6    6  503    0 -0.17362113707E+02  0.40347593222E+01  0.23039070484E+02  0.29129384544E+02  0.00000000000E+00 0. -1.
         -3    1    6    6    0  503  0.18354735190E+02 -0.15368496809E+03  0.16166239638E+03  0.22380950856E+03  0.00000000000E+00 0.  1.
<mgrwt>
<rscale>  0 0.19201362E+04</rscale>
<asrwt>0</asrwt>
<pdfrwt beam="1">  1        2 0.16153520E+00 0.19201362E+04</pdfrwt>
<pdfrwt beam="2">  1       -1 0.13505485E+00 0.19201362E+04</pdfrwt>
<totfact> 0.11489933E+01</totfact>
</mgrwt>
</event>
<event>
12    6  0.8914180E-008  0.2030365E+04  0.7818608E-02  0.8592554E-01
         -1   -1    0    0    0  501 -0.00000000000E+00  0.00000000000E+00  0.48939917625E+03  0.48939917625E+03  0.00000000000E+00 0.  1.
          2   -1    0    0  501    0  0.00000000000E+00 -0.00000000000E+00 -0.21058381661E+04  0.21058381661E+04  0.00000000000E+00 0. -1.
         24    2    1    2    0    0 -0.28946191357E+03  0.41202313320E+03  0.16344339088E+03  0.53693168595E+03  0.89613791662E+02 0.  0.
        254    2    1    2    0    0  0.28946191357E+03 -0.41202313320E+03 -0.17798823808E+04  0.20583056564E+04  0.90282314117E+03 0.  0.
         23    2    4    4    0    0  0.28365494016E+03 -0.53617554786E+03 -0.56618790425E+03  0.83477436544E+03  0.91297070442E+02 0.  0.
         23    2    4    4    0    0  0.58069734150E+01  0.12415241466E+03 -0.12136944765E+04  0.12235312910E+04  0.92341727901E+02 0.  0.
          4    1    3    3  502    0 -0.70936819379E+02  0.95862478120E+02  0.80126461207E+02  0.14367288137E+03  0.00000000000E+00 0. -1.
         -3    1    3    3    0  502 -0.21852509420E+03  0.31616065508E+03  0.83316929672E+02  0.39325880459E+03  0.00000000000E+00 0.  1.
         11    1    5    5    0    0  0.18244591143E+02 -0.10699990925E+03 -0.91123992518E+02  0.14172306692E+03  0.00000000000E+00 0.  1.
        -11    1    5    5    0    0  0.26541034902E+03 -0.42917563861E+03 -0.47506391173E+03  0.69305129851E+03  0.00000000000E+00 0. -1.
          2    1    6    6  503    0 -0.95803276341E+01  0.53887067789E+02 -0.90139677305E+03  0.90305688704E+03  0.00000000000E+00 0. -1.
         -2    1    6    6    0  503  0.15387301049E+02  0.70265346872E+02 -0.31229770346E+03  0.32047440396E+03  0.00000000000E+00 0.  1.
<mgrwt>
<rscale>  0 0.20303650E+04</rscale>
<asrwt>0</asrwt>
<pdfrwt beam="1">  1        2 0.32397510E+00 0.20303650E+04</pdfrwt>
<pdfrwt beam="2">  1       -1 0.75292181E-01 0.20303650E+04</pdfrwt>
<totfact> 0.10911482E+01</totfact>
</mgrwt>
</event>
<event>
12    6  0.8914180E-008  0.1400341E+04  0.7818608E-02  0.8953572E-01
          2   -1    0    0  501    0  0.00000000000E+00  0.00000000000E+00  0.25269379953E+04  0.25269379953E+04  0.00000000000E+00 0. -1.
         -1   -1    0    0    0  501 -0.00000000000E+00 -0.00000000000E+00 -0.19400500106E+03  0.19400500106E+03  0.00000000000E+00 0.  1.
         24    2    1    2    0    0 -0.24677618009E+03  0.26892599864E+02  0.70818793500E+02  0.27329225117E+03  0.89731031692E+02 0.  0.
        254    2    1    2    0    0  0.24677618009E+03 -0.26892599864E+02  0.22621142007E+04  0.24476507452E+04  0.90122795024E+03 0.  0.
         23    2    4    4    0    0  0.19757347354E+03  0.23420530449E+03  0.22461495963E+03  0.39093918679E+03  0.92163797566E+02 0.  0.
         23    2    4    4    0    0  0.49202706552E+02 -0.26109790435E+03  0.20374992411E+04  0.20567115584E+04  0.89812332032E+02 0.  0.
          2    1    3    3  502    0 -0.16822467179E+03  0.40040594747E+02  0.84525917575E+02  0.19247706401E+03  0.00000000000E+00 0. -1.
         -1    1    3    3    0  502 -0.78551508294E+02 -0.13147994883E+02 -0.13707124076E+02  0.80815187156E+02  0.00000000000E+00 0.  1.
         11    1    5    5    0    0  0.18635425729E+03  0.16581765129E+03  0.18940711712E+03  0.31320673477E+03  0.00000000000E+00 0.  1.
        -11    1    5    5    0    0  0.11219216251E+02  0.68387653196E+02  0.35207842512E+02  0.77732452022E+02  0.00000000000E+00 0. -1.
          1    1    6    6  503    0  0.58000903925E+01 -0.83340378248E+02  0.37612053239E+03  0.38528679523E+03  0.00000000000E+00 0. -1.
         -1    1    6    6    0  503  0.43402616159E+02 -0.17775752610E+03  0.16613787087E+04  0.16714247632E+04  0.00000000000E+00 0.  1.
<mgrwt>
<rscale>  0 0.14003408E+04</rscale>
<asrwt>0</asrwt>
<pdfrwt beam="1">  1        2 0.38875967E+00 0.14003408E+04</pdfrwt>
<pdfrwt beam="2">  1       -1 0.29846925E-01 0.14003408E+04</pdfrwt>
<totfact> 0.38473118E+01</totfact>
</mgrwt>
</event>
<event>
12    6  0.8914180E-008  0.1555624E+04  0.7818608E-02  0.8848284E-01
          2   -1    0    0  501    0  0.00000000000E+00  0.00000000000E+00  0.11629670717E+04  0.11629670717E+04  0.00000000000E+00 0. -1.
         -1   -1    0    0    0  501 -0.00000000000E+00 -0.00000000000E+00 -0.52021353123E+03  0.52021353123E+03  0.00000000000E+00 0.  1.
         24    2    1    2    0    0 -0.39328637029E+03  0.13198603874E+03  0.54452420880E+03  0.68887399407E+03  0.77112140821E+02 0.  0.
        254    2    1    2    0    0  0.39328637029E+03 -0.13198603874E+03  0.98229331675E+02  0.99430660886E+03  0.89827732207E+03 0.  0.
         23    2    4    4    0    0  0.51981579033E+03 -0.25741332433E+03 -0.21286114109E+03  0.62476174243E+03  0.92451576458E+02 0.  0.
         23    2    4    4    0    0 -0.12652942004E+03  0.12542728559E+03  0.31109047277E+03  0.36954486643E+03  0.89690735050E+02 0.  0.
          4    1    3    3  502    0 -0.34500868207E+03  0.12328396104E+03  0.43409485312E+03  0.56803896632E+03  0.00000000000E+00 0. -1.
         -3    1    3    3    0  502 -0.48277688227E+02  0.87020776993E+01  0.11042935568E+03  0.12083502776E+03  0.00000000000E+00 0.  1.
         11    1    5    5    0    0  0.17122656363E+03 -0.73392235455E+02 -0.11388362855E+03  0.21834476675E+03  0.00000000000E+00 0. -1.
        -11    1    5    5    0    0  0.34858922671E+03 -0.18402108888E+03 -0.98977512544E+02  0.40641697567E+03  0.00000000000E+00 0.  1.
          3    1    6    6  503    0 -0.11151693416E+02  0.92311549209E+01  0.10656788195E+03  0.10754667801E+03  0.00000000000E+00 0. -1.
         -3    1    6    6    0  503 -0.11537772662E+03  0.11619613067E+03  0.20452259082E+03  0.26199818843E+03  0.00000000000E+00 0.  1.
<mgrwt>
<rscale>  0 0.15556236E+04</rscale>
<asrwt>0</asrwt>
<pdfrwt beam="1">  1        2 0.17891801E+00 0.15556236E+04</pdfrwt>
<pdfrwt beam="2">  1       -1 0.80032851E-01 0.15556236E+04</pdfrwt>
<totfact> 0.34100298E+01</totfact>
</mgrwt>
</event>
<event>
12    6  0.8914180E-008  0.1893010E+04  0.7818608E-02  0.8658343E-01
         -1   -1    0    0    0  501 -0.00000000000E+00  0.00000000000E+00  0.92044863258E+03  0.92044863258E+03  0.00000000000E+00 0.  1.
          2   -1    0    0  501    0  0.00000000000E+00 -0.00000000000E+00 -0.97329932806E+03  0.97329932806E+03  0.00000000000E+00 0. -1.
         24    2    1    2    0    0  0.30305233565E+03 -0.17198831269E+03  0.61887774130E+03  0.71483744985E+03  0.81007550107E+02 0.  0.
        254    2    1    2    0    0 -0.30305233565E+03  0.17198831269E+03 -0.67172843679E+03  0.11789105108E+04  0.90398573098E+03 0.  0.
         23    2    4    4    0    0  0.26812971211E+03  0.78634709565E+02 -0.94289803395E+01  0.29457132749E+03  0.92770691744E+02 0.  0.
         23    2    4    4    0    0 -0.57118204776E+03  0.93353603126E+02 -0.66229945645E+03  0.88433918330E+03  0.91931464695E+02 0.  0.
          2    1    3    3  502    0  0.25615888686E+03 -0.15084595919E+03  0.57469215064E+03  0.64702623341E+03  0.00000000000E+00 0. -1.
         -1    1    3    3    0  502  0.46893448799E+02 -0.21142353499E+02  0.44185590665E+02  0.67811216433E+02  0.00000000000E+00 0.  1.
         11    1    5    5    0    0  0.11007527163E+02  0.30025749344E+02 -0.76789389587E+01  0.32888864095E+02  0.00000000000E+00 0.  1.
        -11    1    5    5    0    0  0.25712218494E+03  0.48608960221E+02 -0.17500413808E+01  0.26168246340E+03  0.00000000000E+00 0. -1.
          3    1    6    6  503    0 -0.69742969727E+02 -0.13274598962E+02 -0.56471074364E+02  0.90715373800E+02  0.00000000000E+00 0.  1.
         -3    1    6    6    0  503 -0.50143907803E+03  0.10662820209E+03 -0.60582838209E+03  0.79362380950E+03  0.00000000000E+00 0. -1.
<mgrwt>
<rscale>  0 0.18930103E+04</rscale>
<asrwt>0</asrwt>
<pdfrwt beam="1">  1        2 0.14973836E+00 0.18930103E+04</pdfrwt>
<pdfrwt beam="2">  1       -1 0.14160748E+00 0.18930103E+04</pdfrwt>
<totfact> 0.11400086E+01</totfact>
</mgrwt>
</event>
<event>
12    6  0.8914180E-008  0.1510976E+04  0.7818608E-02  0.8877187E-01
         -1   -1    0    0    0  501 -0.00000000000E+00  0.00000000000E+00  0.93847827020E+03  0.93847827020E+03  0.00000000000E+00 0.  1.
          2   -1    0    0  501    0  0.00000000000E+00 -0.00000000000E+00 -0.60817811861E+03  0.60817811861E+03  0.00000000000E+00 0. -1.
         24    2    1    2    0    0 -0.22946957627E+03 -0.15041734149E+03  0.52083994327E+03  0.59452046488E+03  0.83058254267E+02 0.  0.
        254    2    1    2    0    0  0.22946957627E+03  0.15041734149E+03 -0.19053979168E+03  0.95213592393E+03  0.89161412190E+03 0.  0.
         23    2    4    4    0    0 -0.16276838026E+03  0.42182470319E+02  0.27030261376E+03  0.33058124669E+03  0.89149039479E+02 0.  0.
         23    2    4    4    0    0  0.39223795653E+03  0.10823487117E+03 -0.46084240545E+03  0.62155467724E+03  0.91591987978E+02 0.  0.
          4    1    3    3  502    0  0.52388433794E+01 -0.28667248064E+01  0.31876522448E+02  0.32431100420E+02  0.00000000000E+00 0. -1.
         -3    1    3    3    0  502 -0.23470841965E+03 -0.14755061668E+03  0.48896342082E+03  0.56208936446E+03  0.00000000000E+00 0.  1.
         11    1    5    5    0    0 -0.77079411955E+02  0.52926496225E+02  0.19393824606E+03  0.21530093598E+03  0.00000000000E+00 0. -1.
        -11    1    5    5    0    0 -0.85688968307E+02 -0.10744025905E+02  0.76364367706E+02  0.11528031071E+03  0.00000000000E+00 0.  1.
          3    1    6    6  503    0  0.17783009781E+03  0.18034558692E+02 -0.25196736191E+03  0.30892772692E+03  0.00000000000E+00 0. -1.
         -3    1    6    6    0  503  0.21440785872E+03  0.90200312476E+02 -0.20887504354E+03  0.31262695032E+03  0.00000000000E+00 0.  1.
<mgrwt>
<rscale>  0 0.15109758E+04</rscale>
<asrwt>0</asrwt>
<pdfrwt beam="1">  1        2 0.93565865E-01 0.15109758E+04</pdfrwt>
<pdfrwt beam="2">  1       -1 0.14438127E+00 0.15109758E+04</pdfrwt>
<totfact> 0.20799808E+01</totfact>
</mgrwt>
</event>
<event>
12    6  0.8914180E-008  0.1290833E+04  0.7818608E-02  0.9036867E-01
          2   -1    0    0  501    0  0.00000000000E+00  0.00000000000E+00  0.25246016561E+04  0.25246016561E+04  0.00000000000E+00 0. -1.
         -1   -1    0    0    0  501 -0.00000000000E+00 -0.00000000000E+00 -0.16500121967E+03  0.16500121967E+03  0.00000000000E+00 0.  1.
         24    2    1    2    0    0  0.53290376473E+02 -0.84588117899E+02 -0.31997113640E+02  0.13158380681E+03  0.79343991704E+02 0.  0.
        254    2    1    2    0    0 -0.53290376473E+02  0.84588117899E+02  0.23915975500E+04  0.25580190689E+04  0.90206856817E+03 0.  0.
         23    2    4    4    0    0 -0.45958468438E+03 -0.44444859052E+02  0.12890242514E+04  0.13724239433E+04  0.93651117575E+02 0.  0.
         23    2    4    4    0    0  0.40629430791E+03  0.12903297695E+03  0.11025732986E+04  0.11855951256E+04  0.90792892014E+02 0.  0.
          4    1    3    3  502    0  0.48148037674E+02 -0.71881079352E+01 -0.21821242718E+02  0.53348561943E+02  0.00000000000E+00 0. -1.
         -3    1    3    3    0  502  0.51423387981E+01 -0.77400009964E+02 -0.10175870921E+02  0.78235244869E+02  0.00000000000E+00 0.  1.
         11    1    5    5    0    0 -0.83316485665E+02 -0.27137012258E+01  0.14339805635E+03  0.16586742755E+03  0.00000000000E+00 0.  1.
        -11    1    5    5    0    0 -0.37626819872E+03 -0.41731157826E+02  0.11456261951E+04  0.12065565158E+04  0.00000000000E+00 0. -1.
          1    1    6    6  503    0  0.37794001846E+03  0.13418534721E+03  0.96473696403E+03  0.10447783376E+04  0.00000000000E+00 0. -1.
         -1    1    6    6    0  503  0.28354289450E+02 -0.51523702561E+01  0.13783633456E+03  0.14081678797E+03  0.00000000000E+00 0.  1.
<mgrwt>
<rscale>  0 0.12908328E+04</rscale>
<asrwt>0</asrwt>
<pdfrwt beam="1">  1        2 0.38840023E+00 0.12908328E+04</pdfrwt>
<pdfrwt beam="2">  1       -1 0.25384805E-01 0.12908328E+04</pdfrwt>
<totfact> 0.51605910E+01</totfact>
</mgrwt>
</event>
<event>
12    6  0.8914180E-008  0.1332936E+04  0.7818608E-02  0.9003847E-01
         -1   -1    0    0    0  501 -0.00000000000E+00  0.00000000000E+00  0.49277552871E+03  0.49277552871E+03  0.00000000000E+00 0.  1.
          2   -1    0    0  501    0  0.00000000000E+00 -0.00000000000E+00 -0.90138287427E+03  0.90138287427E+03  0.00000000000E+00 0. -1.
         24    2    1    2    0    0  0.35301737881E+03  0.66979604655E+02 -0.94022808942E+02  0.38013713322E+03  0.80971688040E+02 0.  0.
        254    2    1    2    0    0 -0.35301737881E+03 -0.66979604655E+02 -0.31458453662E+03  0.10140212698E+04  0.89452119464E+03 0.  0.
         23    2    4    4    0    0 -0.38583054750E+03 -0.30795240088E+03  0.11130997549E+03  0.51455631194E+03  0.93157903193E+02 0.  0.
         23    2    4    4    0    0  0.32813168684E+02  0.24097279622E+03 -0.42589451211E+03  0.49946495782E+03  0.94522569199E+02 0.  0.
          2    1    3    3  502    0  0.20068247148E+03  0.19653425496E+01 -0.31745657507E+02  0.20318736107E+03  0.00000000000E+00 0. -1.
         -1    1    3    3    0  502  0.15233490734E+03  0.65014262105E+02 -0.62277151435E+02  0.17694977214E+03  0.00000000000E+00 0.  1.
         11    1    5    5    0    0 -0.38974615001E+03 -0.29873175097E+03  0.10349392162E+03  0.50185028873E+03  0.00000000000E+00 0. -1.
        -11    1    5    5    0    0  0.39156025158E+01 -0.92206499124E+01  0.78160538631E+01  0.12706023212E+02  0.00000000000E+00 0.  1.
          4    1    6    6  503    0  0.94266505502E+01  0.13564863616E+03 -0.14608148080E+03  0.19957257643E+03  0.00000000000E+00 0. -1.
         -4    1    6    6    0  503  0.23386518133E+02  0.10532416007E+03 -0.27981303131E+03  0.29989238139E+03  0.00000000000E+00 0.  1.
<mgrwt>
<rscale>  0 0.13329357E+04</rscale>
<asrwt>0</asrwt>
<pdfrwt beam="1">  1        2 0.13867429E+00 0.13329357E+04</pdfrwt>
<pdfrwt beam="2">  1       -1 0.75811620E-01 0.13329357E+04</pdfrwt>
<totfact> 0.57096640E+01</totfact>
</mgrwt>
</event>
<event>
12    6  0.8914180E-008  0.1414394E+04  0.7818608E-02  0.8943465E-01
         -1   -1    0    0    0  501 -0.00000000000E+00  0.00000000000E+00  0.13746101622E+03  0.13746101622E+03  0.00000000000E+00 0.  1.
          2   -1    0    0  501    0  0.00000000000E+00 -0.00000000000E+00 -0.36383255887E+04  0.36383255887E+04  0.00000000000E+00 0. -1.
         24    2    1    2    0    0 -0.37540798703E+03 -0.17069528869E+03 -0.88962500276E+03  0.98380492520E+03  0.79821344394E+02 0.  0.
        254    2    1    2    0    0  0.37540798703E+03  0.17069528869E+03 -0.26112395697E+04  0.27919816797E+04  0.89806546032E+03 0.  0.
         23    2    4    4    0    0 -0.53424688900E+02 -0.31207963676E+03 -0.72306790164E+03  0.79437692010E+03  0.89216611395E+02 0.  0.
         23    2    4    4    0    0  0.42883267593E+03  0.48277492545E+03 -0.18881716681E+04  0.19976047596E+04  0.90903436908E+02 0.  0.
          2    1    3    3  502    0 -0.67730106307E+02 -0.66609093266E+02 -0.18754643369E+03  0.21023273626E+03  0.00000000000E+00 0. -1.
         -1    1    3    3    0  502 -0.30767788072E+03 -0.10408619542E+03 -0.70207856907E+03  0.77357218894E+03  0.00000000000E+00 0.  1.
         11    1    5    5    0    0 -0.53324294760E+02 -0.22778824872E+03 -0.61018246044E+03  0.65349338305E+03  0.00000000000E+00 0.  1.
        -11    1    5    5    0    0 -0.10039414018E+00 -0.84291388045E+02 -0.11288544120E+03  0.14088353705E+03  0.00000000000E+00 0. -1.
          4    1    6    6  503    0  0.33065440882E+02  0.28199269911E+02 -0.21082434502E+03  0.21525665300E+03  0.00000000000E+00 0. -1.
         -4    1    6    6    0  503  0.39576723505E+03  0.45457565554E+03 -0.16773473230E+04  0.17823481066E+04  0.00000000000E+00 0.  1.
<mgrwt>
<rscale>  0 0.14143945E+04</rscale>
<asrwt>0</asrwt>
<pdfrwt beam="1">  1        2 0.55974245E+00 0.14143945E+04</pdfrwt>
<pdfrwt beam="2">  1       -1 0.21147847E-01 0.14143945E+04</pdfrwt>
<totfact> 0.13618126E+01</totfact>
</mgrwt>
</event>
<event>
12    6  0.8914180E-008  0.1977209E+04  0.7818608E-02  0.8617351E-01
          2   -1    0    0  501    0  0.00000000000E+00  0.00000000000E+00  0.22701587495E+04  0.22701587495E+04  0.00000000000E+00 0. -1.
         -1   -1    0    0    0  501 -0.00000000000E+00 -0.00000000000E+00 -0.43051579218E+03  0.43051579218E+03  0.00000000000E+00 0.  1.
         24    2    1    2    0    0  0.70689222337E+03 -0.13202630824E+03  0.11413231511E+04  0.13512980681E+04  0.79122513133E+02 0.  0.
        254    2    1    2    0    0 -0.70689222337E+03  0.13202630824E+03  0.69831980623E+03  0.13493764736E+04  0.90334863379E+03 0.  0.
         23    2    4    4    0    0 -0.24609512846E+03  0.33022530452E+02 -0.20016161273E+03  0.33164585086E+03  0.90945035126E+02 0.  0.
         23    2    4    4    0    0 -0.46079709491E+03  0.99003777785E+02  0.89848141897E+03  0.10177306227E+04  0.79818854375E+02 0.  0.
          4    1    3    3  502    0  0.66646604009E+03 -0.13328557486E+03  0.10421441544E+04  0.12441890795E+04  0.00000000000E+00 0. -1.
         -3    1    3    3    0  502  0.40426183275E+02  0.12592666182E+01  0.99178996696E+02  0.10710898857E+03  0.00000000000E+00 0.  1.
         11    1    5    5    0    0 -0.77027945048E+02  0.42447495739E+02 -0.33664927332E+02  0.94172297121E+02  0.00000000000E+00 0.  1.
        -11    1    5    5    0    0 -0.16906718341E+03 -0.94249652870E+01 -0.16649668540E+03  0.23747355374E+03  0.00000000000E+00 0. -1.
          3    1    6    6  503    0 -0.37328363619E+03  0.89941015651E+02  0.66035989711E+03  0.76387515541E+03  0.00000000000E+00 0. -1.
         -3    1    6    6    0  503 -0.87513458722E+02  0.90627621341E+01  0.23812152186E+03  0.25385546732E+03  0.00000000000E+00 0.  1.
<mgrwt>
<rscale>  0 0.19772093E+04</rscale>
<asrwt>0</asrwt>
<pdfrwt beam="1">  1        2 0.34925518E+00 0.19772093E+04</pdfrwt>
<pdfrwt beam="2">  1       -1 0.66233200E-01 0.19772093E+04</pdfrwt>
<totfact> 0.11540222E+01</totfact>
</mgrwt>
</event>
<event>
12    6  0.8914180E-008  0.2307054E+04  0.7818608E-02  0.8475145E-01
          2   -1    0    0  501    0  0.00000000000E+00  0.00000000000E+00  0.38089261895E+04  0.38089261895E+04  0.00000000000E+00 0. -1.
         -1   -1    0    0    0  501 -0.00000000000E+00 -0.00000000000E+00 -0.34934371659E+03  0.34934371659E+03  0.00000000000E+00 0.  1.
         24    2    1    2    0    0  0.13858646280E+03  0.33724466967E+03  0.30853678275E+04  0.31078672471E+04  0.80025120072E+02 0.  0.
        254    2    1    2    0    0 -0.13858646280E+03 -0.33724466967E+03  0.37421464540E+03  0.10504026590E+04  0.91124583413E+03 0.  0.
         23    2    4    4    0    0  0.35675385124E+03 -0.29798403438E+03  0.20501427850E+03  0.51703466744E+03  0.96053099044E+02 0.  0.
         23    2    4    4    0    0 -0.49534031404E+03 -0.39260635298E+02  0.16920036690E+03  0.53336799151E+03  0.94600348929E+02 0.  0.
          2    1    3    3  502    0  0.85066061960E+02  0.28730204211E+03  0.24163697583E+04  0.24348760763E+04  0.00000000000E+00 0. -1.
         -1    1    3    3    0  502  0.53520400839E+02  0.49942627561E+02  0.66899806920E+03  0.67299117078E+03  0.00000000000E+00 0.  1.
         11    1    5    5    0    0  0.25474809057E+03 -0.15767727136E+03  0.15001080345E+03  0.33505514875E+03  0.00000000000E+00 0. -1.
        -11    1    5    5    0    0  0.10200576067E+03 -0.14030676301E+03  0.55003475043E+02  0.18197951869E+03  0.00000000000E+00 0.  1.
          3    1    6    6  503    0 -0.10853359898E+03 -0.24018351861E+02  0.65764901791E+00  0.11116139544E+03  0.00000000000E+00 0. -1.
         -3    1    6    6    0  503 -0.38680671505E+03 -0.15242283437E+02  0.16854271788E+03  0.42220659607E+03  0.00000000000E+00 0.  1.
<mgrwt>
<rscale>  0 0.23070539E+04</rscale>
<asrwt>0</asrwt>
<pdfrwt beam="1">  1        2 0.58598861E+00 0.23070539E+04</pdfrwt>
<pdfrwt beam="2">  1       -1 0.53745190E-01 0.23070539E+04</pdfrwt>
<totfact> 0.17490512E+00</totfact>
</mgrwt>
</event>
<event>
12    6  0.8914180E-008  0.2447209E+04  0.7818608E-02  0.8422038E-01
         -3   -1    0    0    0  501 -0.00000000000E+00  0.00000000000E+00  0.86286518651E+03  0.86286518651E+03  0.00000000000E+00 0.  1.
          2   -1    0    0  501    0  0.00000000000E+00 -0.00000000000E+00 -0.17351592882E+04  0.17351592882E+04  0.00000000000E+00 0. -1.
         24    2    1    2    0    0 -0.98109683803E+03  0.30966148721E+03 -0.14595860094E+03  0.10422035382E+04  0.80268670770E+02 0.  0.
        254    2    1    2    0    0  0.98109683803E+03 -0.30966148721E+03 -0.72633550079E+03  0.15558209366E+04  0.91355037340E+03 0.  0.
         23    2    4    4    0    0  0.89130619014E+03  0.12978521714E+03 -0.37809737326E+03  0.98050614638E+03  0.84638952347E+02 0.  0.
         23    2    4    4    0    0  0.89790647895E+02 -0.43944670435E+03 -0.34823812754E+03  0.57531479021E+03  0.92420495273E+02 0.  0.
          2    1    3    3  502    0 -0.20361098908E+03  0.98004549694E+02 -0.23894048300E+02  0.22722951432E+03  0.00000000000E+00 0. -1.
         -1    1    3    3    0  502 -0.77748584895E+03  0.21165693752E+03 -0.12206455264E+03  0.81497402384E+03  0.00000000000E+00 0.  1.
         11    1    5    5    0    0  0.25727302818E+03  0.35258642438E+02 -0.68179101561E+02  0.26847899878E+03  0.00000000000E+00 0.  1.
        -11    1    5    5    0    0  0.63403316196E+03  0.94526574700E+02 -0.30991827170E+03  0.71202714760E+03  0.00000000000E+00 0. -1.
          4    1    6    6  503    0 -0.55473361420E+01  0.22137415504E+01 -0.62901509093E+01  0.86740756502E+01  0.00000000000E+00 0.  1.
         -4    1    6    6    0  503  0.95337984037E+02 -0.44166044590E+03 -0.34194797663E+03  0.56664071456E+03  0.00000000000E+00 0. -1.
<mgrwt>
<rscale>  0 0.24472095E+04</rscale>
<asrwt>0</asrwt>
<pdfrwt beam="1">  1        2 0.26694758E+00 0.24472095E+04</pdfrwt>
<pdfrwt beam="2">  1       -3 0.13274849E+00 0.24472095E+04</pdfrwt>
<totfact> 0.23496190E+00</totfact>
</mgrwt>
</event>
<event>
12    6  0.8914180E-008  0.2396326E+04  0.7818608E-02  0.8440880E-01
         -3   -1    0    0    0  501 -0.00000000000E+00  0.00000000000E+00  0.94779146049E+03  0.94779146049E+03  0.00000000000E+00 0.  1.
          2   -1    0    0  501    0  0.00000000000E+00 -0.00000000000E+00 -0.15146734835E+04  0.15146734835E+04  0.00000000000E+00 0. -1.
         24    2    1    2    0    0  0.10058665516E+04  0.79792515573E+02 -0.44560400200E+03  0.11059891229E+04  0.80713371366E+02 0.  0.
        254    2    1    2    0    0 -0.10058665516E+04 -0.79792515573E+02 -0.12127802097E+03  0.13564758210E+04  0.89843415424E+03 0.  0.
         23    2    4    4    0    0  0.13990172966E+03 -0.34080435890E+02  0.76551807363E+02  0.18946190499E+03  0.96445135495E+02 0.  0.
         23    2    4    4    0    0 -0.11457682812E+04 -0.45712079683E+02 -0.19782982833E+03  0.11670139160E+04  0.88939815053E+02 0.  0.
          4    1    3    3  502    0  0.38187054977E+03  0.66924637468E+02 -0.15510830859E+03  0.41756749308E+03  0.00000000000E+00 0. -1.
         -3    1    3    3    0  502  0.62399600181E+03  0.12867878105E+02 -0.29049569340E+03  0.68842162985E+03  0.00000000000E+00 0.  1.
         11    1    5    5    0    0  0.13786504607E+03 -0.50430063354E+02  0.86330609751E+02  0.17030248500E+03  0.00000000000E+00 0.  1.
        -11    1    5    5    0    0  0.20366835921E+01  0.16349627464E+02 -0.97788023889E+01  0.19159419992E+02  0.00000000000E+00 0. -1.
          3    1    6    6  503    0 -0.51032846620E+03  0.46311528265E+01 -0.12500969297E+03  0.52543697465E+03  0.00000000000E+00 0. -1.
         -3    1    6    6    0  503 -0.63543981503E+03 -0.50343232510E+02 -0.72820135361E+02  0.64157694138E+03  0.00000000000E+00 0.  1.
<mgrwt>
<rscale>  0 0.23963260E+04</rscale>
<asrwt>0</asrwt>
<pdfrwt beam="1">  1        2 0.23302669E+00 0.23963260E+04</pdfrwt>
<pdfrwt beam="2">  1       -3 0.14581407E+00 0.23963260E+04</pdfrwt>
<totfact> 0.24642236E+00</totfact>
</mgrwt>
</event>
<event>
12    6  0.8914180E-008  0.2284280E+04  0.7818608E-02  0.8484145E-01
          2   -1    0    0  501    0  0.00000000000E+00  0.00000000000E+00  0.97080511125E+03  0.97080511125E+03  0.00000000000E+00 0. -1.
         -1   -1    0    0    0  501 -0.00000000000E+00 -0.00000000000E+00 -0.13437137256E+04  0.13437137256E+04  0.00000000000E+00 0.  1.
         24    2    1    2    0    0 -0.43430278948E+03  0.26905165820E+03  0.66439703589E+03  0.84177588667E+03  0.78457086051E+02 0.  0.
        254    2    1    2    0    0  0.43430278948E+03 -0.26905165820E+03 -0.10373056503E+04  0.14727429502E+04  0.91211900407E+03 0.  0.
         23    2    4    4    0    0  0.68219113552E+03 -0.17810543093E+03 -0.50597362495E+03  0.87239479208E+03  0.89202433809E+02 0.  0.
         23    2    4    4    0    0 -0.24788834603E+03 -0.90946227273E+02 -0.53133202532E+03  0.60034815813E+03  0.91566049857E+02 0.  0.
          4    1    3    3  502    0 -0.21637047200E+03  0.13514902040E+03  0.39564029824E+03  0.47075756442E+03  0.00000000000E+00 0. -1.
         -3    1    3    3    0  502 -0.21793231749E+03  0.13390263780E+03  0.26875673765E+03  0.37101832225E+03  0.00000000000E+00 0.  1.
         11    1    5    5    0    0  0.46958313069E+03 -0.79478871572E+02 -0.34376946677E+03  0.58736926540E+03  0.00000000000E+00 0. -1.
        -11    1    5    5    0    0  0.21260800482E+03 -0.98626559355E+02 -0.16220415818E+03  0.28502552668E+03  0.00000000000E+00 0.  1.
          3    1    6    6  503    0 -0.13724559703E+03 -0.97493308002E+02 -0.33357309552E+03  0.37364730571E+03  0.00000000000E+00 0. -1.
         -3    1    6    6    0  503 -0.11064274900E+03  0.65470807288E+01 -0.19775892980E+03  0.22670085242E+03  0.00000000000E+00 0.  1.
<mgrwt>
<rscale>  0 0.22842803E+04</rscale>
<asrwt>0</asrwt>
<pdfrwt beam="1">  1        2 0.14935463E+00 0.22842803E+04</pdfrwt>
<pdfrwt beam="2">  1       -1 0.20672519E+00 0.22842803E+04</pdfrwt>
<totfact> 0.36858555E+00</totfact>
</mgrwt>
</event>
<event>
12    6  0.8914180E-008  0.3299394E+04  0.7818608E-02  0.8163050E-01
          2   -1    0    0  501    0  0.00000000000E+00  0.00000000000E+00  0.20275871100E+04  0.20275871100E+04  0.00000000000E+00 0. -1.
         -1   -1    0    0    0  501 -0.00000000000E+00 -0.00000000000E+00 -0.13422358204E+04  0.13422358204E+04  0.00000000000E+00 0.  1.
         24    2    1    2    0    0 -0.12392673038E+04 -0.87128804234E+03  0.33881678146E+03  0.15545149586E+04  0.82423552428E+02 0.  0.
        254    2    1    2    0    0  0.12392673038E+04  0.87128804234E+03  0.34653450813E+03  0.18153079717E+04  0.93825932656E+03 0.  0.
         23    2    4    4    0    0  0.11273811303E+04  0.10170740816E+04  0.14557786914E+03  0.15278475865E+04  0.87735004306E+02 0.  0.
         23    2    4    4    0    0  0.11188617348E+03 -0.14578603928E+03  0.20095663898E+03  0.28746038525E+03  0.92075063248E+02 0.  0.
          2    1    3    3  502    0 -0.11452345524E+04 -0.77874984351E+03  0.31784177113E+03  0.14209281792E+04  0.00000000000E+00 0. -1.
         -1    1    3    3    0  502 -0.94032751378E+02 -0.92538198834E+02  0.20975010327E+02  0.13358677941E+03  0.00000000000E+00 0.  1.
         11    1    5    5    0    0  0.48928540748E+03  0.47107746366E+03  0.10293650738E+03  0.68695713934E+03  0.00000000000E+00 0. -1.
        -11    1    5    5    0    0  0.63809572287E+03  0.54599661797E+03  0.42641361763E+02  0.84089044715E+03  0.00000000000E+00 0.  1.
          3    1    6    6  503    0  0.80479277730E+02 -0.12732373154E+03  0.10174147692E+03  0.18176791489E+03  0.00000000000E+00 0. -1.
         -3    1    6    6    0  503  0.31406895753E+02 -0.18462307739E+02  0.99215162064E+02  0.10569247036E+03  0.00000000000E+00 0.  1.
<mgrwt>
<rscale>  0 0.32993939E+04</rscale>
<asrwt>0</asrwt>
<pdfrwt beam="1">  1        2 0.31193648E+00 0.32993939E+04</pdfrwt>
<pdfrwt beam="2">  1       -1 0.20649782E+00 0.32993939E+04</pdfrwt>
<totfact> 0.83208669E-01</totfact>
</mgrwt>
</event>
<event>
12    6  0.8914180E-008  0.1866695E+04  0.7818608E-02  0.8671614E-01
         -1   -1    0    0    0  501 -0.00000000000E+00  0.00000000000E+00  0.86809566225E+03  0.86809566225E+03  0.00000000000E+00 0.  1.
          2   -1    0    0  501    0  0.00000000000E+00 -0.00000000000E+00 -0.10035041273E+04  0.10035041273E+04  0.00000000000E+00 0. -1.
         24    2    1    2    0    0 -0.40329180131E+03  0.45744194983E+03 -0.41239456427E+03  0.74071133344E+03  0.81771562194E+02 0.  0.
        254    2    1    2    0    0  0.40329180131E+03 -0.45744194983E+03  0.27698609920E+03  0.11308884561E+04  0.91120249483E+03 0.  0.
         23    2    4    4    0    0 -0.22882805199E+03 -0.38118708344E+03  0.12176968300E+03  0.46943023931E+03  0.88718791247E+02 0.  0.
         23    2    4    4    0    0  0.63211985330E+03 -0.76254866387E+02  0.15521641621E+03  0.66145821682E+03  0.89691265752E+02 0.  0.
          4    1    3    3  502    0 -0.38315127568E+03  0.40082504285E+03 -0.38223168290E+03  0.67347358853E+03  0.00000000000E+00 0. -1.
         -3    1    3    3    0  502 -0.20140525627E+02  0.56616906983E+02 -0.30162881368E+02  0.67237744916E+02  0.00000000000E+00 0.  1.
         11    1    5    5    0    0 -0.20651086722E+02 -0.69450111127E+02 -0.76569875704E+01  0.72858868897E+02  0.00000000000E+00 0.  1.
        -11    1    5    5    0    0 -0.20817696527E+03 -0.31173697232E+03  0.12942667057E+03  0.39657137041E+03  0.00000000000E+00 0. -1.
          3    1    6    6  503    0  0.49554630777E+03 -0.92514998771E+02  0.13931063590E+03  0.52300346215E+03  0.00000000000E+00 0. -1.
         -3    1    6    6    0  503  0.13657354553E+03  0.16260132384E+02  0.15905780301E+02  0.13845475467E+03  0.00000000000E+00 0.  1.
<mgrwt>
<rscale>  0 0.18666950E+04</rscale>
<asrwt>0</asrwt>
<pdfrwt beam="1">  1        2 0.15438525E+00 0.18666950E+04</pdfrwt>
<pdfrwt beam="2">  1       -1 0.13355318E+00 0.18666950E+04</pdfrwt>
<totfact> 0.12712990E+01</totfact>
</mgrwt>
</event>
<event>
12    6  0.8914180E-008  0.2974531E+04  0.7818608E-02  0.8251041E-01
         -1   -1    0    0    0  501 -0.00000000000E+00  0.00000000000E+00  0.47709508868E+03  0.47709508868E+03  0.00000000000E+00 0.  1.
          2   -1    0    0  501    0  0.00000000000E+00 -0.00000000000E+00 -0.46363054710E+04  0.46363054710E+04  0.00000000000E+00 0. -1.
         24    2    1    2    0    0  0.50231868270E+03  0.65506055658E+03 -0.54860442741E+02  0.83107323234E+03  0.79023145722E+02 0.  0.
        254    2    1    2    0    0 -0.50231868270E+03 -0.65506055658E+03 -0.41043499396E+04  0.42823273273E+04  0.90067226020E+03 0.  0.
         23    2    4    4    0    0 -0.17297013891E+03 -0.85962277470E+02 -0.12340939215E+03  0.24638576220E+03  0.90376344480E+02 0.  0.
         23    2    4    4    0    0 -0.32934854378E+03 -0.56909827911E+03 -0.39809405474E+04  0.40359415651E+04  0.92700380637E+02 0.  0.
          4    1    3    3  502    0  0.17455331359E+03  0.28375784663E+03 -0.37420391640E+01  0.33316869251E+03  0.00000000000E+00 0. -1.
         -3    1    3    3    0  502  0.32776536910E+03  0.37130270994E+03 -0.51118403577E+02  0.49790453982E+03  0.00000000000E+00 0.  1.
         11    1    5    5    0    0 -0.16190119623E+03 -0.69971486093E+02 -0.70372302729E+02  0.18989541121E+03  0.00000000000E+00 0. -1.
        -11    1    5    5    0    0 -0.11068942684E+02 -0.15990791377E+02 -0.53037089424E+02  0.56490350995E+02  0.00000000000E+00 0.  1.
          1    1    6    6  503    0 -0.11694102860E+03 -0.17088319350E+03 -0.10204212350E+04  0.10412184050E+04  0.00000000000E+00 0. -1.
         -1    1    6    6    0  503 -0.21240751519E+03 -0.39821508561E+03 -0.29605193124E+04  0.29947231602E+04  0.00000000000E+00 0.  1.
<mgrwt>
<rscale>  0 0.29745309E+04</rscale>
<asrwt>0</asrwt>
<pdfrwt beam="1">  1        2 0.71327778E+00 0.29745309E+04</pdfrwt>
<pdfrwt beam="2">  1       -1 0.73399242E-01 0.29745309E+04</pdfrwt>
<totfact> 0.16332089E-01</totfact>
</mgrwt>
</event>
<event>
12    6  0.8914180E-008  0.1519950E+04  0.7818608E-02  0.8871294E-01
          2   -1    0    0  501    0  0.00000000000E+00  0.00000000000E+00  0.72308637104E+03  0.72308637104E+03  0.00000000000E+00 0. -1.
         -1   -1    0    0    0  501 -0.00000000000E+00 -0.00000000000E+00 -0.79874537959E+03  0.79874537959E+03  0.00000000000E+00 0.  1.
         24    2    1    2    0    0  0.46241750963E+03  0.98583133690E+02  0.98329282236E+02  0.48940403544E+03  0.79366710294E+02 0.  0.
        254    2    1    2    0    0 -0.46241750963E+03 -0.98583133690E+02 -0.17398829078E+03  0.10324277152E+04  0.90115840689E+03 0.  0.
         23    2    4    4    0    0  0.22791690646E+02  0.91856829192E+02  0.29653699861E+03  0.32442203906E+03  0.91423900881E+02 0.  0.
         23    2    4    4    0    0 -0.48520920027E+03 -0.19043996288E+03 -0.47052528940E+03  0.70800567613E+03  0.90457956973E+02 0.  0.
          4    1    3    3  502    0  0.39596781200E+03  0.11226801038E+03  0.85137351497E+02  0.42028916583E+03  0.00000000000E+00 0. -1.
         -3    1    3    3    0  502  0.66449697626E+02 -0.13684876688E+02  0.13191930739E+02  0.69114869610E+02  0.00000000000E+00 0.  1.
         11    1    5    5    0    0 -0.27122109207E+02  0.13716008633E+02  0.32125682550E+02  0.44224395755E+02  0.00000000000E+00 0. -1.
        -11    1    5    5    0    0  0.49913799853E+02  0.78140820559E+02  0.26441131606E+03  0.28019764331E+03  0.00000000000E+00 0.  1.
          3    1    6    6  503    0 -0.66203579306E+02 -0.50812787758E+02 -0.10881178505E+03  0.13713080573E+03  0.00000000000E+00 0. -1.
         -3    1    6    6    0  503 -0.41900562097E+03 -0.13962717512E+03 -0.36171350434E+03  0.57087487040E+03  0.00000000000E+00 0.  1.
<mgrwt>
<rscale>  0 0.15199499E+04</rscale>
<asrwt>0</asrwt>
<pdfrwt beam="1">  1        2 0.11124406E+00 0.15199499E+04</pdfrwt>
<pdfrwt beam="2">  1       -1 0.12288390E+00 0.15199499E+04</pdfrwt>
<totfact> 0.25296490E+01</totfact>
</mgrwt>
</event>
<event>
12    6  0.8914180E-008  0.1558193E+04  0.7818608E-02  0.8846651E-01
          2   -1    0    0  501    0  0.00000000000E+00  0.00000000000E+00  0.70081891875E+03  0.70081891875E+03  0.00000000000E+00 0. -1.
         -1   -1    0    0    0  501 -0.00000000000E+00 -0.00000000000E+00 -0.86611742416E+03  0.86611742416E+03  0.00000000000E+00 0.  1.
         24    2    1    2    0    0  0.31399537968E+03  0.86721146869E+02  0.35091536940E+03  0.48543319304E+03  0.79938305265E+02 0.  0.
        254    2    1    2    0    0 -0.31399537968E+03 -0.86721146869E+02 -0.51621387482E+03  0.10815031499E+04  0.89278140821E+03 0.  0.
         23    2    4    4    0    0  0.26139844098E+03  0.10164684844E+03 -0.21756476477E+02  0.29456007535E+03  0.87355978480E+02 0.  0.
         23    2    4    4    0    0 -0.57539382066E+03 -0.18836799531E+03 -0.49445739834E+03  0.78694307452E+03  0.90723388689E+02 0.  0.
          4    1    3    3  502    0  0.28335856369E+03  0.78412614740E+02  0.27263657266E+03  0.40096298398E+03  0.00000000000E+00 0. -1.
         -3    1    3    3    0  502  0.30636815987E+02  0.83085321284E+01  0.78278796739E+02  0.84470209062E+02  0.00000000000E+00 0.  1.
         11    1    5    5    0    0  0.15008151297E+03  0.31684894143E+02  0.24191689977E+02  0.15528564298E+03  0.00000000000E+00 0.  1.
        -11    1    5    5    0    0  0.11131692801E+03  0.69961954297E+02 -0.45948166454E+02  0.13927443236E+03  0.00000000000E+00 0. -1.
          3    1    6    6  503    0 -0.26397216437E+01 -0.21338376719E+01  0.39359184152E+01  0.51973885113E+01  0.00000000000E+00 0. -1.
         -3    1    6    6    0  503 -0.57275409901E+03 -0.18623415764E+03 -0.49839331675E+03  0.78174568601E+03  0.00000000000E+00 0.  1.
<mgrwt>
<rscale>  0 0.15581932E+04</rscale>
<asrwt>0</asrwt>
<pdfrwt beam="1">  1        2 0.10781830E+00 0.15581932E+04</pdfrwt>
<pdfrwt beam="2">  1       -1 0.13324883E+00 0.15581932E+04</pdfrwt>
<totfact> 0.21414071E+01</totfact>
</mgrwt>
</event>
<event>
12    6  0.8914180E-008  0.2688758E+04  0.7818608E-02  0.8338662E-01
         -1   -1    0    0    0  501 -0.00000000000E+00  0.00000000000E+00  0.11043410898E+04  0.11043410898E+04  0.00000000000E+00 0.  1.
          2   -1    0    0  501    0  0.00000000000E+00 -0.00000000000E+00 -0.16365915743E+04  0.16365915743E+04  0.00000000000E+00 0. -1.
         24    2    1    2    0    0  0.42964162477E+03 -0.11109922539E+04 -0.23658502362E+03  0.12174000346E+04  0.84821323535E+02 0.  0.
        254    2    1    2    0    0 -0.42964162477E+03  0.11109922539E+04 -0.29566546088E+03  0.15235326295E+04  0.90268371785E+03 0.  0.
         23    2    4    4    0    0 -0.27659508888E+03  0.11353429258E+04  0.59003899038E+01  0.11721152795E+04  0.91164749559E+02 0.  0.
         23    2    4    4    0    0 -0.15304653590E+03 -0.24350671854E+02 -0.30156585078E+03  0.35141735002E+03  0.92390444134E+02 0.  0.
          4    1    3    3  502    0  0.28832128148E+03 -0.79623284945E+03 -0.13338165018E+03  0.85726692255E+03  0.00000000000E+00 0. -1.
         -3    1    3    3    0  502  0.14132034330E+03 -0.31475940446E+03 -0.10320337343E+03  0.36013311208E+03  0.00000000000E+00 0.  1.
         11    1    5    5    0    0 -0.86396085082E+02  0.52817725827E+03  0.22055983329E+02  0.53565097412E+03  0.00000000000E+00 0. -1.
        -11    1    5    5    0    0 -0.19019900380E+03  0.60716566750E+03 -0.16155593425E+02  0.63646430539E+03  0.00000000000E+00 0.  1.
          1    1    6    6  503    0 -0.11704002240E+03  0.22970506698E+02 -0.22291785797E+03  0.25282085045E+03  0.00000000000E+00 0. -1.
         -1    1    6    6    0  503 -0.36006513501E+02 -0.47321178552E+02 -0.78647992812E+02  0.98596499570E+02  0.00000000000E+00 0.  1.
<mgrwt>
<rscale>  0 0.26887583E+04</rscale>
<asrwt>0</asrwt>
<pdfrwt beam="1">  1        2 0.25178332E+00 0.26887583E+04</pdfrwt>
<pdfrwt beam="2">  1       -1 0.16989863E+00 0.26887583E+04</pdfrwt>
<totfact> 0.26217234E+00</totfact>
</mgrwt>
</event>
<event>
12    6  0.8914180E-008  0.2797409E+04  0.7818608E-02  0.8304073E-01
         -1   -1    0    0    0  501 -0.00000000000E+00  0.00000000000E+00  0.69285403713E+03  0.69285403713E+03  0.00000000000E+00 0.  1.
          2   -1    0    0  501    0  0.00000000000E+00 -0.00000000000E+00 -0.28236463463E+04  0.28236463463E+04  0.00000000000E+00 0. -1.
         24    2    1    2    0    0 -0.18616509204E+03 -0.12448400650E+04 -0.94530958935E+03  0.15761731672E+04  0.80171094126E+02 0.  0.
        254    2    1    2    0    0  0.18616509204E+03  0.12448400650E+04 -0.11854827199E+04  0.19403272163E+04  0.88046362698E+03 0.  0.
         23    2    4    4    0    0 -0.24711277124E+03  0.65716856504E+03 -0.91447367301E+03  0.11562894204E+04  0.88362212084E+02 0.  0.
         23    2    4    4    0    0  0.43327786327E+03  0.58767149992E+03 -0.27100904684E+03  0.78403779590E+03  0.90453652825E+02 0.  0.
          4    1    3    3  502    0 -0.48106048916E+02 -0.18946872370E+03 -0.12057770737E+03  0.22967710534E+03  0.00000000000E+00 0. -1.
         -3    1    3    3    0  502 -0.13805904312E+03 -0.10553713413E+04 -0.82473188198E+03  0.13464960618E+04  0.00000000000E+00 0.  1.
         11    1    5    5    0    0 -0.11680996016E+03  0.35799381694E+03 -0.42282538775E+03  0.56620265655E+03  0.00000000000E+00 0.  1.
        -11    1    5    5    0    0 -0.13030281108E+03  0.29917474811E+03 -0.49164828526E+03  0.59008676386E+03  0.00000000000E+00 0. -1.
          1    1    6    6  503    0  0.39994046240E+03  0.55091936296E+03 -0.22676141466E+03  0.71755505512E+03  0.00000000000E+00 0. -1.
         -1    1    6    6    0  503  0.33337400872E+02  0.36752136959E+02 -0.44247632180E+02  0.66482740779E+02  0.00000000000E+00 0.  1.
<mgrwt>
<rscale>  0 0.27974094E+04</rscale>
<asrwt>0</asrwt>
<pdfrwt beam="1">  1        2 0.43440714E+00 0.27974094E+04</pdfrwt>
<pdfrwt beam="2">  1       -1 0.10659293E+00 0.27974094E+04</pdfrwt>
<totfact> 0.18183545E+00</totfact>
</mgrwt>
</event>
<event>
12    6  0.8914180E-008  0.1385305E+04  0.7818608E-02  0.8964525E-01
         -1   -1    0    0    0  501 -0.00000000000E+00  0.00000000000E+00  0.22414261528E+03  0.22414261528E+03  0.00000000000E+00 0.  1.
          2   -1    0    0  501    0  0.00000000000E+00 -0.00000000000E+00 -0.21404568094E+04  0.21404568094E+04  0.00000000000E+00 0. -1.
         24    2    1    2    0    0  0.26291751818E+03 -0.13925399616E+03 -0.11366372425E+03  0.32864010989E+03  0.81040624383E+02 0.  0.
        254    2    1    2    0    0 -0.26291751818E+03  0.13925399616E+03 -0.18026504698E+04  0.20359593148E+04  0.89836758523E+03 0.  0.
         23    2    4    4    0    0 -0.54669549564E+02  0.18705886516E+02 -0.17739746121E+04  0.17772814464E+04  0.91677400376E+02 0.  0.
         23    2    4    4    0    0 -0.20824796862E+03  0.12054810964E+03 -0.28675857759E+02  0.25867786833E+03  0.90514482656E+02 0.  0.
          4    1    3    3  502    0  0.15408669442E+03 -0.10239749982E+03 -0.32199296621E+02  0.18778911595E+03  0.00000000000E+00 0. -1.
         -3    1    3    3    0  502  0.10883082376E+03 -0.36856496344E+02 -0.81464427631E+02  0.14085099393E+03  0.00000000000E+00 0.  1.
         11    1    5    5    0    0 -0.79313961103E+02  0.43808857996E+01 -0.12326516629E+04  0.12352084920E+04  0.00000000000E+00 0. -1.
        -11    1    5    5    0    0  0.24644411538E+02  0.14325000717E+02 -0.54132294918E+03  0.54207295447E+03  0.00000000000E+00 0.  1.
          3    1    6    6  503    0 -0.18977411154E+03  0.10198054419E+03 -0.54149981025E+02  0.22214064294E+03  0.00000000000E+00 0. -1.
         -3    1    6    6    0  503 -0.18473857083E+02  0.18567565454E+02  0.25474123266E+02  0.36537225382E+02  0.00000000000E+00 0.  1.
<mgrwt>
<rscale>  0 0.13853051E+04</rscale>
<asrwt>0</asrwt>
<pdfrwt beam="1">  1        2 0.32930103E+00 0.13853051E+04</pdfrwt>
<pdfrwt beam="2">  1       -1 0.34483481E-01 0.13853051E+04</pdfrwt>
<totfact> 0.49392348E+01</totfact>
</mgrwt>
</event>
<event>
12    6  0.8914180E-008  0.1522226E+04  0.7818608E-02  0.8869806E-01
          2   -1    0    0  501    0  0.00000000000E+00  0.00000000000E+00  0.23328404806E+04  0.23328404806E+04  0.00000000000E+00 0. -1.
         -1   -1    0    0    0  501 -0.00000000000E+00 -0.00000000000E+00 -0.24832095748E+03  0.24832095748E+03  0.00000000000E+00 0.  1.
         24    2    1    2    0    0 -0.48103002860E+03 -0.99612797017E+02  0.66302868779E+03  0.82901589166E+03  0.79672517540E+02 0.  0.
        254    2    1    2    0    0  0.48103002860E+03  0.99612797017E+02  0.14214908353E+04  0.17521455464E+04  0.89892448135E+03 0.  0.
         23    2    4    4    0    0  0.54806892915E+03 -0.26133564566E+03  0.10849707458E+04  0.12466013942E+04  0.90430338005E+02 0.  0.
         23    2    4    4    0    0 -0.67038900555E+02  0.36094844268E+03  0.33652008953E+03  0.50554415220E+03  0.86897219216E+02 0.  0.
          4    1    3    3  502    0 -0.23497228357E+03 -0.51533386254E+02  0.25865568358E+03  0.35322857556E+03  0.00000000000E+00 0. -1.
         -3    1    3    3    0  502 -0.24605774503E+03 -0.48079410764E+02  0.40437300421E+03  0.47578731610E+03  0.00000000000E+00 0.  1.
         11    1    5    5    0    0  0.24692097850E+03 -0.68534908361E+02  0.46079757651E+03  0.52725838998E+03  0.00000000000E+00 0.  1.
        -11    1    5    5    0    0  0.30114795066E+03 -0.19280073730E+03  0.62417316930E+03  0.71934300425E+03  0.00000000000E+00 0. -1.
          4    1    6    6  503    0 -0.65899628472E+02  0.12749486001E+03  0.13780173980E+03  0.19896487090E+03  0.00000000000E+00 0.  1.
         -4    1    6    6    0  503 -0.11392720831E+01  0.23345358267E+03  0.19871834973E+03  0.30657928129E+03  0.00000000000E+00 0. -1.
<mgrwt>
<rscale>  0 0.15222262E+04</rscale>
<asrwt>0</asrwt>
<pdfrwt beam="1">  1        2 0.35889852E+00 0.15222262E+04</pdfrwt>
<pdfrwt beam="2">  1       -1 0.38203226E-01 0.15222262E+04</pdfrwt>
<totfact> 0.31654097E+01</totfact>
</mgrwt>
</event>
<event>
12    6  0.8914180E-008  0.2538142E+04  0.7818608E-02  0.8389522E-01
         -1   -1    0    0    0  501 -0.00000000000E+00  0.00000000000E+00  0.13026310571E+04  0.13026310571E+04  0.00000000000E+00 0.  1.
          2   -1    0    0  501    0  0.00000000000E+00 -0.00000000000E+00 -0.12363755005E+04  0.12363755005E+04  0.00000000000E+00 0. -1.
         24    2    1    2    0    0  0.80352862368E+03 -0.11305264544E+03  0.78422579606E+03  0.11312798623E+04  0.79654741533E+02 0.  0.
        254    2    1    2    0    0 -0.80352862368E+03  0.11305264544E+03 -0.71797023941E+03  0.14077266954E+04  0.89876250170E+03 0.  0.
         23    2    4    4    0    0 -0.15821441256E+03 -0.32135346399E+03 -0.38393299244E+02  0.37060394796E+03  0.87025235771E+02 0.  0.
         23    2    4    4    0    0 -0.64531421112E+03  0.43440610942E+03 -0.67957694017E+03  0.10371227474E+04  0.93057383356E+02 0.  0.
          2    1    3    3  502    0  0.68072576515E+03 -0.10109839144E+03  0.70165499234E+03  0.98281645304E+03  0.00000000000E+00 0. -1.
         -1    1    3    3    0  502  0.12280285854E+03 -0.11954253992E+02  0.82570803722E+02  0.14846340923E+03  0.00000000000E+00 0.  1.
         11    1    5    5    0    0 -0.15218142927E+03 -0.32609910297E+03 -0.41655464106E+02  0.36226370238E+03  0.00000000000E+00 0. -1.
        -11    1    5    5    0    0 -0.60329832916E+01  0.47456389853E+01  0.32621648618E+01  0.83402455816E+01  0.00000000000E+00 0.  1.
          1    1    6    6  503    0 -0.20142021148E+03  0.15624214334E+03 -0.27706007003E+03  0.37648903218E+03  0.00000000000E+00 0. -1.
         -1    1    6    6    0  503 -0.44389399964E+03  0.27816396608E+03 -0.40251687014E+03  0.66063371522E+03  0.00000000000E+00 0.  1.
<mgrwt>
<rscale>  0 0.25381419E+04</rscale>
<asrwt>0</asrwt>
<pdfrwt beam="1">  1        2 0.19021162E+00 0.25381419E+04</pdfrwt>
<pdfrwt beam="2">  1       -1 0.20040478E+00 0.25381419E+04</pdfrwt>
<totfact> 0.27300889E+00</totfact>
</mgrwt>
</event>
<event>
12    6  0.8914180E-008  0.1404025E+04  0.7818608E-02  0.8950911E-01
          2   -1    0    0  501    0  0.00000000000E+00  0.00000000000E+00  0.18012693811E+04  0.18012693811E+04  0.00000000000E+00 0. -1.
         -1   -1    0    0    0  501 -0.00000000000E+00 -0.00000000000E+00 -0.27359664087E+03  0.27359664087E+03  0.00000000000E+00 0.  1.
         24    2    1    2    0    0  0.33023275029E+03 -0.17197951433E+03  0.71222225656E+03  0.80587902728E+03  0.59580543471E+02 0.  0.
        254    2    1    2    0    0 -0.33023275029E+03  0.17197951433E+03  0.81545048364E+03  0.12689869947E+04  0.89818588201E+03 0.  0.
         23    2    4    4    0    0 -0.48226458501E+02  0.50057530983E+03  0.31125559246E+03  0.59827879988E+03  0.90310832355E+02 0.  0.
         23    2    4    4    0    0 -0.28200629179E+03 -0.32859579550E+03  0.50419489118E+03  0.67070819479E+03  0.90190070575E+02 0.  0.
          2    1    3    3  502    0  0.22433229600E+03 -0.94640401971E+02  0.41769732845E+03  0.48347993020E+03  0.00000000000E+00 0. -1.
         -1    1    3    3    0  502  0.10590045428E+03 -0.77339112357E+02  0.29452492811E+03  0.32239909708E+03  0.00000000000E+00 0.  1.
         11    1    5    5    0    0  0.48171435903E+01  0.29859295286E+03  0.14850852013E+03  0.33352021966E+03  0.00000000000E+00 0. -1.
        -11    1    5    5    0    0 -0.53043602091E+02  0.20198235696E+03  0.16274707233E+03  0.26475858022E+03  0.00000000000E+00 0.  1.
          3    1    6    6  503    0 -0.28338416165E+03 -0.30771533467E+03  0.45974701378E+03  0.62158074853E+03  0.00000000000E+00 0. -1.
         -3    1    6    6    0  503  0.13778698618E+01 -0.20880460826E+02  0.44447877408E+02  0.49127446257E+02  0.00000000000E+00 0.  1.
<mgrwt>
<rscale>  0 0.14040246E+04</rscale>
<asrwt>0</asrwt>
<pdfrwt beam="1">  1        2 0.27711836E+00 0.14040246E+04</pdfrwt>
<pdfrwt beam="2">  1       -1 0.42091792E-01 0.14040246E+04</pdfrwt>
<totfact> 0.52958087E+01</totfact>
</mgrwt>
</event>
<event>
12    6  0.8914180E-008  0.2163502E+04  0.7818608E-02  0.8533775E-01
          2   -1    0    0  501    0  0.00000000000E+00  0.00000000000E+00  0.36556087003E+04  0.36556087003E+04  0.00000000000E+00 0. -1.
         -1   -1    0    0    0  501 -0.00000000000E+00 -0.00000000000E+00 -0.32010688644E+03  0.32010688644E+03  0.00000000000E+00 0.  1.
         24    2    1    2    0    0  0.34345145693E+03  0.71198659438E+03  0.61563594325E+03  0.10050481648E+04  0.78932788795E+02 0.  0.
        254    2    1    2    0    0 -0.34345145693E+03 -0.71198659438E+03  0.27198658706E+04  0.29706674219E+04  0.89571801572E+03 0.  0.
         23    2    4    4    0    0 -0.91049326688E+02 -0.20122463267E+02 -0.20231454187E+02  0.13161158121E+03  0.90649893286E+02 0.  0.
         23    2    4    4    0    0 -0.25240213024E+03 -0.69186413111E+03  0.27400973248E+04  0.28390558407E+04  0.98599726261E+02 0.  0.
          4    1    3    3  502    0  0.12164829598E+02  0.53871216566E+01  0.16404480558E+02  0.21121343264E+02  0.00000000000E+00 0. -1.
         -3    1    3    3    0  502  0.33128662733E+03  0.70659947272E+03  0.59923146269E+03  0.98392682156E+03  0.00000000000E+00 0.  1.
         11    1    5    5    0    0 -0.63485463078E+02  0.24285253100E+01 -0.53363423443E+02  0.82969613226E+02  0.00000000000E+00 0.  1.
        -11    1    5    5    0    0 -0.27563863610E+02 -0.22550988577E+02  0.33131969256E+02  0.48641967987E+02  0.00000000000E+00 0. -1.
          1    1    6    6  503    0 -0.39473616112E+02 -0.23446175146E+03  0.81948770576E+03  0.85328223886E+03  0.00000000000E+00 0. -1.
         -1    1    6    6    0  503 -0.21292851413E+03 -0.45740237965E+03  0.19206096190E+04  0.19857736018E+04  0.00000000000E+00 0.  1.
<mgrwt>
<rscale>  0 0.21635023E+04</rscale>
<asrwt>0</asrwt>
<pdfrwt beam="1">  1        2 0.56240131E+00 0.21635023E+04</pdfrwt>
<pdfrwt beam="2">  1       -1 0.49247216E-01 0.21635023E+04</pdfrwt>
<totfact> 0.27253910E+00</totfact>
</mgrwt>
</event>
<event>
12    6  0.8914180E-008  0.1768869E+04  0.7818608E-02  0.8723032E-01
          2   -1    0    0  501    0  0.00000000000E+00  0.00000000000E+00  0.70873006954E+03  0.70873006954E+03  0.00000000000E+00 0. -1.
         -1   -1    0    0    0  501 -0.00000000000E+00 -0.00000000000E+00 -0.11036982475E+04  0.11036982475E+04  0.00000000000E+00 0.  1.
         24    2    1    2    0    0 -0.46519743395E+03 -0.34953391660E+03 -0.44507658744E+03  0.73962553073E+03  0.10183391188E+03 0.  0.
        254    2    1    2    0    0  0.46519743395E+03  0.34953391660E+03  0.50108409492E+02  0.10728027863E+04  0.89989574630E+03 0.  0.
         23    2    4    4    0    0  0.61197683943E+02  0.36539418528E+00 -0.37022116233E+03  0.38709684281E+03  0.95052441556E+02 0.  0.
         23    2    4    4    0    0  0.40399975000E+03  0.34916852242E+03  0.42032957182E+03  0.68570594350E+03  0.91549095822E+02 0.  0.
          2    1    3    3  502    0 -0.19212091849E+03 -0.20406287404E+03 -0.23353055645E+03  0.36481313666E+03  0.00000000000E+00 0. -1.
         -1    1    3    3    0  502 -0.27307651546E+03 -0.14547104256E+03 -0.21154603099E+03  0.37481239407E+03  0.00000000000E+00 0.  1.
         11    1    5    5    0    0  0.45220153576E+02 -0.33279162490E+02 -0.10314566426E+03  0.11743676171E+03  0.00000000000E+00 0.  1.
        -11    1    5    5    0    0  0.15977530367E+02  0.33644556675E+02 -0.26707549807E+03  0.26966008110E+03  0.00000000000E+00 0. -1.
          2    1    6    6  503    0  0.39289043154E+03  0.33472747237E+03  0.37841478101E+03  0.64000243627E+03  0.00000000000E+00 0. -1.
         -2    1    6    6    0  503  0.11109318467E+02  0.14441050050E+02  0.41914790814E+02  0.45703507221E+02  0.00000000000E+00 0.  1.
<mgrwt>
<rscale>  0 0.17688687E+04</rscale>
<asrwt>0</asrwt>
<pdfrwt beam="1">  1        2 0.10903540E+00 0.17688687E+04</pdfrwt>
<pdfrwt beam="2">  1       -1 0.16979973E+00 0.17688687E+04</pdfrwt>
<totfact> 0.10760807E+01</totfact>
</mgrwt>
</event>
<event>
12    6  0.8914180E-008  0.2058676E+04  0.7818608E-02  0.8579669E-01
          2   -1    0    0  501    0  0.00000000000E+00  0.00000000000E+00  0.16744653598E+04  0.16744653598E+04  0.00000000000E+00 0. -1.
         -1   -1    0    0    0  501 -0.00000000000E+00 -0.00000000000E+00 -0.63276108410E+03  0.63276108410E+03  0.00000000000E+00 0.  1.
         24    2    1    2    0    0 -0.18268259030E+02 -0.70631144756E+03  0.91214256004E+03  0.11565405136E+04  0.79826810104E+02 0.  0.
        254    2    1    2    0    0  0.18268259030E+02  0.70631144756E+03  0.12956171562E+03  0.11506859302E+04  0.89893396955E+03 0.  0.
         23    2    4    4    0    0  0.31355197601E+03  0.39356845500E+03  0.38704770366E+03  0.64124424593E+03  0.90428356143E+02 0.  0.
         23    2    4    4    0    0 -0.29528371699E+03  0.31274299256E+03 -0.25748598804E+03  0.50944168429E+03  0.90725645434E+02 0.  0.
          2    1    3    3  502    0 -0.90355763679E+01 -0.50578946749E+03  0.59229966881E+03  0.77892459502E+03  0.00000000000E+00 0. -1.
         -1    1    3    3    0  502 -0.92326826616E+01 -0.20052198008E+03  0.31984289124E+03  0.37761591862E+03  0.00000000000E+00 0.  1.
         11    1    5    5    0    0  0.28465010451E+03  0.32602763866E+03  0.29641981299E+03  0.52458022141E+03  0.00000000000E+00 0.  1.
        -11    1    5    5    0    0  0.28901871507E+02  0.67540816343E+02  0.90627890673E+02  0.11666402452E+03  0.00000000000E+00 0. -1.
          2    1    6    6  503    0 -0.12123118255E+03  0.88036901708E+02 -0.12820659963E+03  0.19719134838E+03  0.00000000000E+00 0.  1.
         -2    1    6    6    0  503 -0.17405253443E+03  0.22470609085E+03 -0.12927938841E+03  0.31225033591E+03  0.00000000000E+00 0. -1.
<mgrwt>
<rscale>  0 0.20586758E+04</rscale>
<asrwt>0</asrwt>
<pdfrwt beam="1">  1        2 0.25761005E+00 0.20586758E+04</pdfrwt>
<pdfrwt beam="2">  1       -1 0.97347859E-01 0.20586758E+04</pdfrwt>
<totfact> 0.10813718E+01</totfact>
</mgrwt>
</event>
<event>
12    6  0.8914180E-008  0.1591651E+04  0.7818608E-02  0.8825694E-01
          2   -1    0    0  501    0  0.00000000000E+00  0.00000000000E+00  0.13196063576E+04  0.13196063576E+04  0.00000000000E+00 0. -1.
         -1   -1    0    0    0  501 -0.00000000000E+00 -0.00000000000E+00 -0.47994458207E+03  0.47994458207E+03  0.00000000000E+00 0.  1.
         24    2    1    2    0    0 -0.35482706483E+02 -0.20108312915E+03  0.84557385405E+03  0.87361800295E+03  0.80745434171E+02 0.  0.
        254    2    1    2    0    0  0.35482706483E+02  0.20108312915E+03 -0.59120785109E+01  0.92593293673E+03  0.90311870945E+03 0.  0.
         23    2    4    4    0    0  0.42906167329E+03 -0.17856334798E+02 -0.11574202287E+03  0.45374281596E+03  0.89852985469E+02 0.  0.
         23    2    4    4    0    0 -0.39357896681E+03  0.21893946394E+03  0.10982994436E+03  0.47219012077E+03  0.89788648984E+02 0.  0.
          2    1    3    3  502    0 -0.58624081297E+02 -0.14535588211E+03  0.54719942943E+03  0.56920324221E+03  0.00000000000E+00 0. -1.
         -3    1    3    3    0  502  0.23141374814E+02 -0.55727247037E+02  0.29837442461E+03  0.30441476073E+03  0.00000000000E+00 0.  1.
         11    1    5    5    0    0  0.30063826963E+03 -0.52570029703E+02 -0.70591545107E+02  0.31325731185E+03  0.00000000000E+00 0.  1.
        -11    1    5    5    0    0  0.12842340366E+03  0.34713694905E+02 -0.45150477768E+02  0.14048550411E+03  0.00000000000E+00 0. -1.
          4    1    6    6  503    0 -0.97180852281E+02  0.88053122265E+02  0.60587444108E+02  0.14445867497E+03  0.00000000000E+00 0. -1.
         -4    1    6    6    0  503 -0.29639811453E+03  0.13088634168E+03  0.49242500256E+02  0.32773144580E+03  0.00000000000E+00 0.  1.
<mgrwt>
<rscale>  0 0.15916506E+04</rscale>
<asrwt>0</asrwt>
<pdfrwt beam="1">  1        2 0.20301636E+00 0.15916506E+04</pdfrwt>
<pdfrwt beam="2">  1       -1 0.73837628E-01 0.15916506E+04</pdfrwt>
<totfact> 0.32536726E+01</totfact>
</mgrwt>
</event>
<event>
12    6  0.8914180E-008  0.1685178E+04  0.7818608E-02  0.8769864E-01
         -1   -1    0    0    0  501 -0.00000000000E+00  0.00000000000E+00  0.47083297280E+03  0.47083297280E+03  0.00000000000E+00 0.  1.
          2   -1    0    0  501    0  0.00000000000E+00 -0.00000000000E+00 -0.15078719843E+04  0.15078719843E+04  0.00000000000E+00 0. -1.
         24    2    1    2    0    0  0.17502032604E+03 -0.52108360456E+03 -0.66107033219E+03  0.86339086954E+03  0.79180629250E+02 0.  0.
        254    2    1    2    0    0 -0.17502032604E+03  0.52108360456E+03 -0.37596867931E+03  0.11153140875E+04  0.89465793943E+03 0.  0.
         23    2    4    4    0    0 -0.42247246518E+03  0.16094727164E+03  0.90601219186E+02  0.46999200641E+03  0.91087304722E+02 0.  0.
         23    2    4    4    0    0  0.24745213914E+03  0.36013633292E+03 -0.46656989849E+03  0.64532208114E+03  0.88444212779E+02 0.  0.
          2    1    3    3  502    0  0.73902442319E+02 -0.21879348553E+03 -0.33957470811E+03  0.41066183494E+03  0.00000000000E+00 0. -1.
         -1    1    3    3    0  502  0.10111788373E+03 -0.30229011903E+03 -0.32149562408E+03  0.45272903460E+03  0.00000000000E+00 0.  1.
         11    1    5    5    0    0 -0.41035420971E+03  0.14689196166E+03  0.10276337148E+03  0.44780368059E+03  0.00000000000E+00 0. -1.
        -11    1    5    5    0    0 -0.12118255469E+02  0.14055309974E+02 -0.12162152294E+02  0.22188325816E+02  0.00000000000E+00 0.  1.
          1    1    6    6  503    0  0.24229658612E+03  0.35521558202E+03 -0.47033612985E+03  0.63726118696E+03  0.00000000000E+00 0. -1.
         -1    1    6    6    0  503  0.51555530241E+01  0.49207508967E+01  0.37662313615E+01  0.80608941837E+01  0.00000000000E+00 0.  1.
<mgrwt>
<rscale>  0 0.16851776E+04</rscale>
<asrwt>0</asrwt>
<pdfrwt beam="1">  1        2 0.23198030E+00 0.16851776E+04</pdfrwt>
<pdfrwt beam="2">  1       -1 0.72435843E-01 0.16851776E+04</pdfrwt>
<totfact> 0.26219922E+01</totfact>
</mgrwt>
</event>
<event>
12    6  0.8914180E-008  0.1739131E+04  0.7818608E-02  0.8739356E-01
         -1   -1    0    0    0  501 -0.00000000000E+00  0.00000000000E+00  0.49193934632E+03  0.49193934632E+03  0.00000000000E+00 0.  1.
          2   -1    0    0  501    0  0.00000000000E+00 -0.00000000000E+00 -0.15370682501E+04  0.15370682501E+04  0.00000000000E+00 0. -1.
         24    2    1    2    0    0 -0.86577733136E+02  0.90988370515E+02  0.34183052838E+03  0.37237302253E+03  0.77710812203E+02 0.  0.
        254    2    1    2    0    0  0.86577733136E+02 -0.90988370515E+02 -0.13869594321E+04  0.16566345739E+04  0.89722185523E+03 0.  0.
         23    2    4    4    0    0  0.15610301415E+03 -0.44957358270E+03 -0.51575967374E+03  0.70775500971E+03  0.91785376935E+02 0.  0.
         23    2    4    4    0    0 -0.69525281010E+02  0.35858521218E+03 -0.87119975839E+03  0.94887956416E+03  0.89254070864E+02 0.  0.
          2    1    3    3  502    0 -0.28373736499E+02 -0.28213610772E+01  0.13442186610E+03  0.13741276174E+03  0.00000000000E+00 0. -1.
         -3    1    3    3    0  502 -0.58203996637E+02  0.93809731592E+02  0.20740866227E+03  0.23496026079E+03  0.00000000000E+00 0.  1.
         11    1    5    5    0    0  0.98908359438E+02 -0.22898542767E+03 -0.20780442539E+03  0.32465345966E+03  0.00000000000E+00 0.  1.
        -11    1    5    5    0    0  0.57194654709E+02 -0.22058815502E+03 -0.30795524835E+03  0.38310155005E+03  0.00000000000E+00 0. -1.
          3    1    6    6  503    0 -0.55108580615E+02  0.16575213413E+03 -0.51141507965E+03  0.54042215843E+03  0.00000000000E+00 0.  1.
         -3    1    6    6    0  503 -0.14416700396E+02  0.19283307805E+03 -0.35978467874E+03  0.40845740573E+03  0.00000000000E+00 0. -1.
<mgrwt>
<rscale>  0 0.17391312E+04</rscale>
<asrwt>0</asrwt>
<pdfrwt beam="1">  1        2 0.23647204E+00 0.17391312E+04</pdfrwt>
<pdfrwt beam="2">  1       -1 0.75682977E-01 0.17391312E+04</pdfrwt>
<totfact> 0.22937159E+01</totfact>
</mgrwt>
</event>
<event>
12    6  0.8914180E-008  0.2331606E+04  0.7818608E-02  0.8465563E-01
          2   -1    0    0  501    0  0.00000000000E+00  0.00000000000E+00  0.25093827704E+04  0.25093827704E+04  0.00000000000E+00 0. -1.
         -1   -1    0    0    0  501 -0.00000000000E+00 -0.00000000000E+00 -0.54160578766E+03  0.54160578766E+03  0.00000000000E+00 0.  1.
         24    2    1    2    0    0  0.83918147185E+03  0.34145755495E+03  0.13583181754E+04  0.16344566196E+04  0.74842310751E+02 0.  0.
        254    2    1    2    0    0 -0.83918147185E+03 -0.34145755495E+03  0.60945880735E+03  0.14165319384E+04  0.90238788225E+03 0.  0.
         23    2    4    4    0    0 -0.84227254053E+03  0.34206379322E+02  0.23860192204E+03  0.88086910108E+03  0.91686351880E+02 0.  0.
         23    2    4    4    0    0  0.30910686804E+01 -0.37566393427E+03  0.37085688531E+03  0.53566283728E+03  0.90922492539E+02 0.  0.
          4    1    3    3  502    0  0.79845804334E+03  0.31247352085E+03  0.12585404116E+04  0.15228587971E+04  0.00000000000E+00 0. -1.
         -3    1    3    3    0  502  0.40723428515E+02  0.28984034106E+02  0.99777763753E+02  0.11159782257E+03  0.00000000000E+00 0.  1.
         11    1    5    5    0    0 -0.94413452009E+02  0.15352441356E+02  0.33692842108E-01  0.95653533710E+02  0.00000000000E+00 0. -1.
        -11    1    5    5    0    0 -0.74785908852E+03  0.18853937965E+02  0.23856822920E+03  0.78521556737E+03  0.00000000000E+00 0.  1.
          4    1    6    6  503    0 -0.34814482190E+02 -0.19850111218E+03  0.23260428351E+03  0.30776532036E+03  0.00000000000E+00 0. -1.
         -4    1    6    6    0  503  0.37905550870E+02 -0.17716282209E+03  0.13825260180E+03  0.22789751693E+03  0.00000000000E+00 0.  1.
<mgrwt>
<rscale>  0 0.23316057E+04</rscale>
<asrwt>0</asrwt>
<pdfrwt beam="1">  1        2 0.38605888E+00 0.23316057E+04</pdfrwt>
<pdfrwt beam="2">  1       -1 0.83323969E-01 0.23316057E+04</pdfrwt>
<totfact> 0.50552551E+00</totfact>
</mgrwt>
</event>
<event>
12    6  0.8914180E-008  0.1740962E+04  0.7818608E-02  0.8738341E-01
         -1   -1    0    0    0  501 -0.00000000000E+00  0.00000000000E+00  0.50841370904E+03  0.50841370904E+03  0.00000000000E+00 0.  1.
          2   -1    0    0  501    0  0.00000000000E+00 -0.00000000000E+00 -0.14903944007E+04  0.14903944007E+04  0.00000000000E+00 0. -1.
         24    2    1    2    0    0  0.77259056118E+01  0.82306603660E+02  0.36127919340E+03  0.37935240442E+03  0.80941488333E+02 0.  0.
        254    2    1    2    0    0 -0.77259056118E+01 -0.82306603660E+02 -0.13432598850E+04  0.16194557053E+04  0.90080830146E+03 0.  0.
         23    2    4    4    0    0 -0.18521573608E+03  0.34433853397E+03 -0.83688402237E+03  0.92835592370E+03  0.92714396420E+02 0.  0.
         23    2    4    4    0    0  0.17748983047E+03 -0.42664513763E+03 -0.50637586266E+03  0.69109978157E+03  0.87599545750E+02 0.  0.
          2    1    3    3  502    0 -0.22260406993E+02  0.74454553442E+02  0.18977694209E+03  0.20507143633E+03  0.00000000000E+00 0. -1.
         -1    1    3    3    0  502  0.29986312605E+02  0.78520502183E+01  0.17150225131E+03  0.17428096810E+03  0.00000000000E+00 0.  1.
         11    1    5    5    0    0 -0.23399090211E+02  0.23514084276E+02 -0.28590931204E+02  0.43793503276E+02  0.00000000000E+00 0.  1.
        -11    1    5    5    0    0 -0.16181664587E+03  0.32082444970E+03 -0.80829309117E+03  0.88456242043E+03  0.00000000000E+00 0. -1.
          4    1    6    6  503    0  0.13933170931E+03 -0.25292726008E+03 -0.35444298580E+03  0.45718197066E+03  0.00000000000E+00 0.  1.
         -4    1    6    6    0  503  0.38158121163E+02 -0.17371787755E+03 -0.15193287686E+03  0.23391781091E+03  0.00000000000E+00 0. -1.
<mgrwt>
<rscale>  0 0.17409617E+04</rscale>
<asrwt>0</asrwt>
<pdfrwt beam="1">  1        2 0.22929144E+00 0.17409617E+04</pdfrwt>
<pdfrwt beam="2">  1       -1 0.78217496E-01 0.17409617E+04</pdfrwt>
<totfact> 0.22734292E+01</totfact>
</mgrwt>
</event>
<event>
12    6  0.8914180E-008  0.2231651E+04  0.7818608E-02  0.8505369E-01
         -1   -1    0    0    0  501 -0.00000000000E+00  0.00000000000E+00  0.12077366057E+04  0.12077366057E+04  0.00000000000E+00 0.  1.
          2   -1    0    0  501    0  0.00000000000E+00 -0.00000000000E+00 -0.10309091312E+04  0.10309091312E+04  0.00000000000E+00 0. -1.
         24    2    1    2    0    0  0.66000132419E+03  0.45907840511E+03  0.55954478768E+03  0.98264624699E+03  0.78412673246E+02 0.  0.
        254    2    1    2    0    0 -0.66000132419E+03 -0.45907840511E+03 -0.38271731311E+03  0.12559994899E+04  0.88583714472E+03 0.  0.
         23    2    4    4    0    0 -0.37347096411E+02 -0.49578937203E+03 -0.36948603270E+03  0.62581533747E+03  0.89011242124E+02 0.  0.
         23    2    4    4    0    0 -0.62265422778E+03  0.36710966915E+02 -0.13231280410E+02  0.63018415246E+03  0.88943896685E+02 0.  0.
          2    1    3    3  502    0  0.65344172489E+02  0.76680037662E+02  0.72761855456E+02  0.12427379717E+03  0.00000000000E+00 0. -1.
         -1    1    3    3    0  502  0.59465715170E+03  0.38239836745E+03  0.48678293222E+03  0.85837244982E+03  0.00000000000E+00 0.  1.
         11    1    5    5    0    0 -0.97471530007E+01 -0.24485316477E+03 -0.23615542294E+03  0.34031964838E+03  0.00000000000E+00 0. -1.
        -11    1    5    5    0    0 -0.27599943410E+02 -0.25093620726E+03 -0.13333060976E+03  0.28549568909E+03  0.00000000000E+00 0.  1.
          2    1    6    6  503    0 -0.33452868509E+03 -0.90344913307E+01  0.26772003224E+02  0.33571982863E+03  0.00000000000E+00 0. -1.
         -2    1    6    6    0  503 -0.28812554270E+03  0.45745458246E+02 -0.40003283634E+02  0.29446432382E+03  0.00000000000E+00 0.  1.
<mgrwt>
<rscale>  0 0.22316511E+04</rscale>
<asrwt>0</asrwt>
<pdfrwt beam="1">  1        2 0.15860140E+00 0.22316511E+04</pdfrwt>
<pdfrwt beam="2">  1       -1 0.18580563E+00 0.22316511E+04</pdfrwt>
<totfact> 0.47332471E+00</totfact>
</mgrwt>
</event>
<event>
12    6  0.8914180E-008  0.1552524E+04  0.7818608E-02  0.8850257E-01
         -1   -1    0    0    0  501 -0.00000000000E+00  0.00000000000E+00  0.15097845038E+04  0.15097845038E+04  0.00000000000E+00 0.  1.
          2   -1    0    0  501    0  0.00000000000E+00 -0.00000000000E+00 -0.39911837026E+03  0.39911837026E+03  0.00000000000E+00 0. -1.
         24    2    1    2    0    0  0.25899227411E+02  0.12522116843E+03 -0.23771827000E+03  0.28155942691E+03  0.80091347777E+02 0.  0.
        254    2    1    2    0    0 -0.25899227411E+02 -0.12522116843E+03  0.13483844035E+04  0.16273434471E+04  0.90208374571E+03 0.  0.
         23    2    4    4    0    0 -0.39014876909E+03  0.99873485143E+02  0.95096291179E+03  0.10366472690E+04  0.90090652856E+02 0.  0.
         23    2    4    4    0    0  0.36424954168E+03 -0.22509465357E+03  0.39742149170E+03  0.59069617807E+03  0.87365903238E+02 0.  0.
          4    1    3    3  502    0  0.45140776229E+02  0.82804023491E+02 -0.20177144084E+03  0.22272384319E+03  0.00000000000E+00 0. -1.
         -3    1    3    3    0  502 -0.19241548818E+02  0.42417144938E+02 -0.35946829151E+02  0.58835583719E+02  0.00000000000E+00 0.  1.
         11    1    5    5    0    0 -0.30058302758E+03  0.49556687873E+02  0.63283646416E+03  0.70234465340E+03  0.00000000000E+00 0. -1.
        -11    1    5    5    0    0 -0.89565741515E+02  0.50316797269E+02  0.31812644763E+03  0.33430261564E+03  0.00000000000E+00 0.  1.
          4    1    6    6  503    0  0.50240235270E+02 -0.20292261683E+02  0.17476889528E+02  0.56932405463E+02  0.00000000000E+00 0.  1.
         -4    1    6    6    0  503  0.31400930641E+03 -0.20480239189E+03  0.37994460217E+03  0.53376377261E+03  0.00000000000E+00 0. -1.
<mgrwt>
<rscale>  0 0.15525240E+04</rscale>
<asrwt>0</asrwt>
<pdfrwt beam="1">  1        2 0.61402827E-01 0.15525240E+04</pdfrwt>
<pdfrwt beam="2">  1       -1 0.23227454E+00 0.15525240E+04</pdfrwt>
<totfact> 0.80024433E+00</totfact>
</mgrwt>
</event>
<event>
12    6  0.8914180E-008  0.1876403E+04  0.7818608E-02  0.8666692E-01
          2   -1    0    0  501    0  0.00000000000E+00  0.00000000000E+00  0.10596969339E+04  0.10596969339E+04  0.00000000000E+00 0. -1.
         -1   -1    0    0    0  501 -0.00000000000E+00 -0.00000000000E+00 -0.83063558349E+03  0.83063558349E+03  0.00000000000E+00 0.  1.
         24    2    1    2    0    0  0.58020034136E+03  0.23194884523E+03 -0.26668538894E+03  0.68411676415E+03  0.80386238852E+02 0.  0.
        254    2    1    2    0    0 -0.58020034136E+03 -0.23194884523E+03  0.49574673940E+03  0.12062157533E+04  0.90485297751E+03 0.  0.
         23    2    4    4    0    0 -0.61051761082E+03 -0.13236025442E+03 -0.58294541879E+02  0.63376681822E+03  0.89504950634E+02 0.  0.
         23    2    4    4    0    0  0.30317269459E+02 -0.99588590807E+02  0.55404128128E+03  0.57244893506E+03  0.99493807064E+02 0.  0.
          2    1    3    3  502    0  0.12710858992E+03  0.34246733275E+02 -0.25563705683E+02  0.13410046763E+03  0.00000000000E+00 0. -1.
         -1    1    3    3    0  502  0.45309175144E+03  0.19770211195E+03 -0.24112168326E+03  0.55001629652E+03  0.00000000000E+00 0.  1.
         11    1    5    5    0    0 -0.30292995678E+03 -0.40110374450E+02 -0.65704592919E+02  0.31255798563E+03  0.00000000000E+00 0.  1.
        -11    1    5    5    0    0 -0.30758765405E+03 -0.92249879969E+02  0.74100510407E+01  0.32120883259E+03  0.00000000000E+00 0. -1.
          4    1    6    6  503    0  0.48807250149E+02 -0.13109142484E+02  0.27900135553E+03  0.28354144966E+03  0.00000000000E+00 0. -1.
         -4    1    6    6    0  503 -0.18489980690E+02 -0.86479448323E+02  0.27503992575E+03  0.28890748541E+03  0.00000000000E+00 0.  1.
<mgrwt>
<rscale>  0 0.18764029E+04</rscale>
<asrwt>0</asrwt>
<pdfrwt beam="1">  1        2 0.16303030E+00 0.18764029E+04</pdfrwt>
<pdfrwt beam="2">  1       -1 0.12779009E+00 0.18764029E+04</pdfrwt>
<totfact> 0.13083693E+01</totfact>
</mgrwt>
</event>
<event>
12    6  0.8914180E-008  0.1823689E+04  0.7818608E-02  0.8693803E-01
          2   -1    0    0  501    0  0.00000000000E+00  0.00000000000E+00  0.11172370369E+04  0.11172370369E+04  0.00000000000E+00 0. -1.
         -1   -1    0    0    0  501 -0.00000000000E+00 -0.00000000000E+00 -0.74421095326E+03  0.74421095326E+03  0.00000000000E+00 0.  1.
         24    2    1    2    0    0 -0.48285789338E+03  0.59776964718E+02  0.63516942443E+03  0.80446834983E+03  0.83690485985E+02 0.  0.
        254    2    1    2    0    0  0.48285789338E+03 -0.59776964718E+02 -0.26214334078E+03  0.10569796403E+04  0.90097824518E+03 0.  0.
         23    2    4    4    0    0  0.37670531852E+03  0.39003572245E+03 -0.18079919017E+03  0.57904859900E+03  0.92596819902E+02 0.  0.
         23    2    4    4    0    0  0.10615257486E+03 -0.44981268716E+03 -0.81344150613E+02  0.47793104134E+03  0.90561508147E+02 0.  0.
          2    1    3    3  502    0 -0.33955165559E+03  0.78969339309E+02  0.43238921738E+03  0.55542048816E+03  0.00000000000E+00 0. -1.
         -1    1    3    3    0  502 -0.14330623779E+03 -0.19192374591E+02  0.20278020705E+03  0.24904786167E+03  0.00000000000E+00 0.  1.
         11    1    5    5    0    0  0.28556173800E+02  0.74484591997E+02 -0.18041926582E+02  0.81785821643E+02  0.00000000000E+00 0. -1.
        -11    1    5    5    0    0  0.34814914472E+03  0.31555113045E+03 -0.16275726359E+03  0.49726277736E+03  0.00000000000E+00 0.  1.
          2    1    6    6  503    0  0.76973829827E+02 -0.15365401783E+03 -0.48268786367E+02  0.17850603186E+03  0.00000000000E+00 0. -1.
         -2    1    6    6    0  503  0.29178745033E+02 -0.29615866934E+03 -0.33075364246E+02  0.29942500949E+03  0.00000000000E+00 0.  1.
<mgrwt>
<rscale>  0 0.18236886E+04</rscale>
<asrwt>0</asrwt>
<pdfrwt beam="1">  1        2 0.17188262E+00 0.18236886E+04</pdfrwt>
<pdfrwt beam="2">  1       -1 0.11449399E+00 0.18236886E+04</pdfrwt>
<totfact> 0.15851341E+01</totfact>
</mgrwt>
</event>
<event>
12    6  0.8914180E-008  0.2650472E+04  0.7818608E-02  0.8351256E-01
          2   -1    0    0  501    0  0.00000000000E+00  0.00000000000E+00  0.38054744388E+04  0.38054744388E+04  0.00000000000E+00 0. -1.
         -1   -1    0    0    0  501 -0.00000000000E+00 -0.00000000000E+00 -0.46150633294E+03  0.46150633294E+03  0.00000000000E+00 0.  1.
         24    2    1    2    0    0  0.26692270654E+02  0.64682749147E+03 -0.90009448947E+02  0.65870849469E+03  0.81834583422E+02 0.  0.
        254    2    1    2    0    0 -0.26692270654E+02 -0.64682749147E+03  0.34339775548E+04  0.36082722771E+04  0.89907101907E+03 0.  0.
         23    2    4    4    0    0 -0.30988689234E+03 -0.28472062928E+03  0.27221245166E+04  0.27559886854E+04  0.91738907420E+02 0.  0.
         23    2    4    4    0    0  0.28319462168E+03 -0.36210686219E+03  0.71185303823E+03  0.85228359171E+03  0.91279785650E+02 0.  0.
          4    1    3    3  502    0  0.75608783358E+01  0.87586235551E+02 -0.40986008931E+02  0.96996744622E+02  0.00000000000E+00 0. -1.
         -3    1    3    3    0  502  0.19131392318E+02  0.55924125592E+03 -0.49023440016E+02  0.56171175007E+03  0.00000000000E+00 0.  1.
         11    1    5    5    0    0 -0.65748381577E+02 -0.58235792102E+02  0.36293078938E+03  0.37340730449E+03  0.00000000000E+00 0. -1.
        -11    1    5    5    0    0 -0.24413851076E+03 -0.22648483718E+03  0.23591937272E+04  0.23825813809E+04  0.00000000000E+00 0.  1.
          2    1    6    6  503    0  0.26875554759E+03 -0.36273123577E+03  0.70255967465E+03  0.83510094611E+03  0.00000000000E+00 0.  1.
         -2    1    6    6    0  503  0.14439074097E+02  0.62437357387E+00  0.92933635856E+01  0.17182645602E+02  0.00000000000E+00 0. -1.
<mgrwt>
<rscale>  0 0.26504721E+04</rscale>
<asrwt>0</asrwt>
<pdfrwt beam="1">  1        2 0.58545759E+00 0.26504721E+04</pdfrwt>
<pdfrwt beam="2">  1       -1 0.71000977E-01 0.26504721E+04</pdfrwt>
<totfact> 0.97732099E-01</totfact>
</mgrwt>
</event>
<event>
12    6  0.8914180E-008  0.1408550E+04  0.7818608E-02  0.8947653E-01
         -1   -1    0    0    0  501 -0.00000000000E+00  0.00000000000E+00  0.28097157284E+03  0.28097157284E+03  0.00000000000E+00 0.  1.
          2   -1    0    0  501    0  0.00000000000E+00 -0.00000000000E+00 -0.17653151117E+04  0.17653151117E+04  0.00000000000E+00 0. -1.
         24    2    1    2    0    0  0.76424264714E+02  0.72410561022E+02 -0.95427621255E+03  0.96335247580E+03  0.79504372180E+02 0.  0.
        254    2    1    2    0    0 -0.76424264714E+02 -0.72410561022E+02 -0.53006732634E+03  0.10829342088E+04  0.93845147584E+03 0.  0.
         23    2    4    4    0    0 -0.43057626987E+03  0.17602012091E+03 -0.40431633627E+03  0.62294087271E+03  0.90579379388E+02 0.  0.
         23    2    4    4    0    0  0.35415200516E+03 -0.24843068193E+03 -0.12575099007E+03  0.45999333607E+03  0.92946819427E+02 0.  0.
          2    1    3    3  502    0  0.34855724640E+02  0.57070295285E+02 -0.80138304157E+03  0.80416834025E+03  0.00000000000E+00 0. -1.
         -1    1    3    3    0  502  0.41568540074E+02  0.15340265737E+02 -0.15289317098E+03  0.15918413555E+03  0.00000000000E+00 0.  1.
         11    1    5    5    0    0 -0.15474299550E+02 -0.10540048645E+02 -0.13787718299E+02  0.23251833216E+02  0.00000000000E+00 0. -1.
        -11    1    5    5    0    0 -0.41510197032E+03  0.18656016956E+03 -0.39052861797E+03  0.59968903949E+03  0.00000000000E+00 0.  1.
          2    1    6    6  503    0  0.46427377162E+02 -0.77565061830E+02 -0.29522161367E+02  0.95096783219E+02  0.00000000000E+00 0. -1.
         -2    1    6    6    0  503  0.30772462800E+03 -0.17086562010E+03 -0.96228828701E+02  0.36489655285E+03  0.00000000000E+00 0.  1.
<mgrwt>
<rscale>  0 0.14085501E+04</rscale>
<asrwt>0</asrwt>
<pdfrwt beam="1">  1        2 0.27158694E+00 0.14085501E+04</pdfrwt>
<pdfrwt beam="2">  1       -1 0.43226396E-01 0.14085501E+04</pdfrwt>
<totfact> 0.52763473E+01</totfact>
</mgrwt>
</event>
<event>
12    6  0.8914180E-008  0.2608189E+04  0.7818608E-02  0.8365425E-01
         -1   -1    0    0    0  501 -0.00000000000E+00  0.00000000000E+00  0.92738072235E+03  0.92738072235E+03  0.00000000000E+00 0.  1.
          2   -1    0    0  501    0  0.00000000000E+00 -0.00000000000E+00 -0.18338342078E+04  0.18338342078E+04  0.00000000000E+00 0. -1.
         24    2    1    2    0    0 -0.79793305527E+03  0.21136917872E+03  0.44117138071E+03  0.93955757427E+03  0.82232340413E+02 0.  0.
        254    2    1    2    0    0  0.79793305527E+03 -0.21136917872E+03 -0.13476248662E+04  0.18216573559E+04  0.90607320452E+03 0.  0.
         23    2    4    4    0    0  0.37644496650E+03  0.83755769922E+02 -0.24254333053E+02  0.39826878486E+03  0.96456780597E+02 0.  0.
         23    2    4    4    0    0  0.42148808877E+03 -0.29512494864E+03 -0.13233705331E+04  0.14233885710E+04  0.99872478353E+02 0.  0.
          4    1    3    3  502    0 -0.31121451943E+03  0.73678269923E+02  0.21571537721E+03  0.38576688366E+03  0.00000000000E+00 0. -1.
         -3    1    3    3    0  502 -0.48671853584E+03  0.13769090879E+03  0.22545600350E+03  0.55379069061E+03  0.00000000000E+00 0.  1.
         11    1    5    5    0    0  0.27156511943E+03  0.52021332545E+02 -0.60137759068E+02  0.28296710621E+03  0.00000000000E+00 0.  1.
        -11    1    5    5    0    0  0.10487984707E+03  0.31734437376E+02  0.35883426014E+02  0.11530167865E+03  0.00000000000E+00 0. -1.
          3    1    6    6  503    0  0.37923435700E+03 -0.25162270836E+03 -0.10682528694E+04  0.11611618655E+04  0.00000000000E+00 0. -1.
         -3    1    6    6    0  503  0.42253731774E+02 -0.43502240282E+02 -0.25511766370E+03  0.26222670552E+03  0.00000000000E+00 0.  1.
<mgrwt>
<rscale>  0 0.26081890E+04</rscale>
<asrwt>0</asrwt>
<pdfrwt beam="1">  1        2 0.28212834E+00 0.26081890E+04</pdfrwt>
<pdfrwt beam="2">  1       -1 0.14267396E+00 0.26081890E+04</pdfrwt>
<totfact> 0.33156066E+00</totfact>
</mgrwt>
</event>
<event>
12    6  0.8914180E-008  0.2567632E+04  0.7818608E-02  0.8379280E-01
          2   -1    0    0  501    0  0.00000000000E+00  0.00000000000E+00  0.24900434446E+04  0.24900434446E+04  0.00000000000E+00 0. -1.
         -1   -1    0    0    0  501 -0.00000000000E+00 -0.00000000000E+00 -0.66190974563E+03  0.66190974563E+03  0.00000000000E+00 0.  1.
         24    2    1    2    0    0  0.48892447936E+03 -0.59459392729E+03  0.18168644954E+04  0.19748516018E+04  0.80331621572E+02 0.  0.
        254    2    1    2    0    0 -0.48892447936E+03  0.59459392729E+03  0.11269203487E+02  0.11771015884E+04  0.89042241074E+03 0.  0.
         23    2    4    4    0    0 -0.24226252345E+03  0.77253220489E+03  0.15453275114E+03  0.82890013402E+03  0.87737809136E+02 0.  0.
         23    2    4    4    0    0 -0.24666195590E+03 -0.17793827760E+03 -0.14326354765E+03  0.34820145436E+03  0.90640264838E+02 0.  0.
          2    1    3    3  502    0  0.44296015318E+03 -0.52470436662E+03  0.15528448362E+04  0.16978973629E+04  0.00000000000E+00 0. -1.
         -1    1    3    3    0  502  0.45964326176E+02 -0.69889560670E+02  0.26401965920E+03  0.27695423885E+03  0.00000000000E+00 0.  1.
         11    1    5    5    0    0 -0.78076394162E+02  0.31068699684E+03  0.10064657321E+03  0.33578574423E+03  0.00000000000E+00 0.  1.
        -11    1    5    5    0    0 -0.16418612929E+03  0.46184520805E+03  0.53886177932E+02  0.49311438980E+03  0.00000000000E+00 0. -1.
          3    1    6    6  503    0 -0.27702164523E+02 -0.55705262970E+02 -0.52855687173E+02  0.81634612195E+02  0.00000000000E+00 0. -1.
         -3    1    6    6    0  503 -0.21895979138E+03 -0.12223301463E+03 -0.90407860479E+02  0.26656684217E+03  0.00000000000E+00 0.  1.
<mgrwt>
<rscale>  0 0.25676324E+04</rscale>
<asrwt>0</asrwt>
<pdfrwt beam="1">  1        2 0.38308360E+00 0.25676324E+04</pdfrwt>
<pdfrwt beam="2">  1       -1 0.10183227E+00 0.25676324E+04</pdfrwt>
<totfact> 0.32519013E+00</totfact>
</mgrwt>
</event>
<event>
12    6  0.8914180E-008  0.1289259E+04  0.7818608E-02  0.9038126E-01
         -1   -1    0    0    0  501 -0.00000000000E+00  0.00000000000E+00  0.12253262500E+03  0.12253262500E+03  0.00000000000E+00 0.  1.
          2   -1    0    0  501    0  0.00000000000E+00 -0.00000000000E+00 -0.33913195679E+04  0.33913195679E+04  0.00000000000E+00 0. -1.
         24    2    1    2    0    0  0.23857340889E+03 -0.63121978368E+02 -0.14254344128E+04  0.14488208629E+04  0.79479382036E+02 0.  0.
        254    2    1    2    0    0 -0.23857340889E+03  0.63121978368E+02 -0.18433525301E+04  0.20650313299E+04  0.89749885113E+03 0.  0.
         23    2    4    4    0    0  0.29604466651E+03  0.17530122602E+03 -0.94495201105E+03  0.10097706616E+04  0.91266211849E+02 0.  0.
         23    2    4    4    0    0 -0.53461807540E+03 -0.11217924765E+03 -0.89840051904E+03  0.10552606683E+04  0.89726893157E+02 0.  0.
          4    1    3    3  502    0  0.17799101289E+03 -0.44081216421E+02 -0.83025038351E+03  0.85025858045E+03  0.00000000000E+00 0. -1.
         -3    1    3    3    0  502  0.60582396002E+02 -0.19040761947E+02 -0.59518402928E+03  0.59856228250E+03  0.00000000000E+00 0.  1.
         11    1    5    5    0    0  0.24014842595E+03  0.17153126277E+03 -0.84684411998E+03  0.89679384707E+03  0.00000000000E+00 0. -1.
        -11    1    5    5    0    0  0.55896240556E+02  0.37699632527E+01 -0.98107891067E+02  0.11297681453E+03  0.00000000000E+00 0.  1.
          3    1    6    6  503    0 -0.16700292950E+03 -0.27459880708E+02 -0.20459960095E+03  0.26552781439E+03  0.00000000000E+00 0. -1.
         -3    1    6    6    0  503 -0.36761514590E+03 -0.84719366942E+02 -0.69380091809E+03  0.78973285393E+03  0.00000000000E+00 0.  1.
<mgrwt>
<rscale>  0 0.12892591E+04</rscale>
<asrwt>0</asrwt>
<pdfrwt beam="1">  1        2 0.52174146E+00 0.12892591E+04</pdfrwt>
<pdfrwt beam="2">  1       -1 0.18851173E-01 0.12892591E+04</pdfrwt>
<totfact> 0.24848393E+01</totfact>
</mgrwt>
</event>
<event>
12    6  0.8914180E-008  0.2121002E+04  0.7818608E-02  0.8552048E-01
          2   -1    0    0  501    0  0.00000000000E+00  0.00000000000E+00  0.75989641643E+03  0.75989641643E+03  0.00000000000E+00 0. -1.
         -1   -1    0    0    0  501 -0.00000000000E+00 -0.00000000000E+00 -0.14800201618E+04  0.14800201618E+04  0.00000000000E+00 0.  1.
         24    2    1    2    0    0 -0.20329389920E+03  0.71111065115E+03 -0.60530617262E+03  0.95900911354E+03  0.79348280407E+02 0.  0.
        254    2    1    2    0    0  0.20329389920E+03 -0.71111065115E+03 -0.11481757278E+03  0.12809074647E+04  0.10394874172E+04 0.  0.
         23    2    4    4    0    0  0.16657983050E+03  0.21417428755E+03  0.13624660416E+03  0.31722342746E+03  0.91913548536E+02 0.  0.
         23    2    4    4    0    0  0.36714068696E+02 -0.92528493870E+03 -0.25106417694E+03  0.96368403726E+03  0.90297076989E+02 0.  0.
          4    1    3    3  502    0 -0.68858428886E+02  0.20353754809E+03 -0.22166331055E+03  0.30871287624E+03  0.00000000000E+00 0. -1.
         -3    1    3    3    0  502 -0.13443547031E+03  0.50757310305E+03 -0.38364286207E+03  0.65029623730E+03  0.00000000000E+00 0.  1.
         11    1    5    5    0    0  0.38136854756E+02  0.91377037600E+02  0.10580347394E+02  0.99579749157E+02  0.00000000000E+00 0.  1.
        -11    1    5    5    0    0  0.12844297575E+03  0.12279724995E+03  0.12566625677E+03  0.21764367830E+03  0.00000000000E+00 0. -1.
          3    1    6    6  503    0  0.48164711173E+02 -0.74906770244E+03 -0.23414594116E+03  0.78628657880E+03  0.00000000000E+00 0. -1.
         -3    1    6    6    0  503 -0.11450642477E+02 -0.17621723626E+03 -0.16918235787E+02  0.17739745846E+03  0.00000000000E+00 0.  1.
<mgrwt>
<rscale>  0 0.21210017E+04</rscale>
<asrwt>0</asrwt>
<pdfrwt beam="1">  1        2 0.11690714E+00 0.21210017E+04</pdfrwt>
<pdfrwt beam="2">  1       -1 0.22769541E+00 0.21210017E+04</pdfrwt>
<totfact> 0.37839874E+00</totfact>
</mgrwt>
</event>
<event>
12    6  0.8914180E-008  0.2539735E+04  0.7818608E-02  0.8388965E-01
         -1   -1    0    0    0  501 -0.00000000000E+00  0.00000000000E+00  0.14743590278E+04  0.14743590278E+04  0.00000000000E+00 0.  1.
          2   -1    0    0  501    0  0.00000000000E+00 -0.00000000000E+00 -0.10937386398E+04  0.10937386398E+04  0.00000000000E+00 0. -1.
         24    2    1    2    0    0  0.25264360371E+03  0.18984651543E+03  0.12423345663E+04  0.12843485562E+04  0.79281456960E+02 0.  0.
        254    2    1    2    0    0 -0.25264360371E+03 -0.18984651543E+03 -0.86171417820E+03  0.12837491114E+04  0.89754663728E+03 0.  0.
         23    2    4    4    0    0 -0.30833175170E+03 -0.51492906123E+03 -0.52123470436E+03  0.80020557835E+03  0.91776594999E+02 0.  0.
         23    2    4    4    0    0  0.55688147998E+02  0.32508254580E+03 -0.34047947384E+03  0.48354353300E+03  0.95437124816E+02 0.  0.
          2    1    3    3  502    0  0.51004876598E+02  0.71190115278E+02  0.25306965963E+03  0.26779429153E+03  0.00000000000E+00 0. -1.
         -1    1    3    3    0  502  0.20163872711E+03  0.11865640016E+03  0.98926490662E+03  0.10165542647E+04  0.00000000000E+00 0.  1.
         11    1    5    5    0    0 -0.22328018592E+03 -0.39497302022E+03 -0.44085593722E+03  0.63262286199E+03  0.00000000000E+00 0.  1.
        -11    1    5    5    0    0 -0.85051565784E+02 -0.11995604102E+03 -0.80378767134E+02  0.16758271637E+03  0.00000000000E+00 0. -1.
          2    1    6    6  503    0 -0.43517770973E+01  0.60433142110E+00 -0.30446090148E+02  0.30761462671E+02  0.00000000000E+00 0. -1.
         -2    1    6    6    0  503  0.60039925096E+02  0.32447821438E+03 -0.31003338369E+03  0.45278207033E+03  0.00000000000E+00 0.  1.
<mgrwt>
<rscale>  0 0.25397350E+04</rscale>
<asrwt>0</asrwt>
<pdfrwt beam="1">  1        2 0.16826748E+00 0.25397350E+04</pdfrwt>
<pdfrwt beam="2">  1       -1 0.22682446E+00 0.25397350E+04</pdfrwt>
<totfact> 0.22070481E+00</totfact>
</mgrwt>
</event>
<event>
12    6  0.8914180E-008  0.1318740E+04  0.7818608E-02  0.9014835E-01
         -1   -1    0    0    0  501 -0.00000000000E+00  0.00000000000E+00  0.55195053552E+03  0.55195053552E+03  0.00000000000E+00 0.  1.
          2   -1    0    0  501    0  0.00000000000E+00 -0.00000000000E+00 -0.78769504971E+03  0.78769504971E+03  0.00000000000E+00 0. -1.
         24    2    1    2    0    0 -0.96192335245E+02 -0.31162309505E+02 -0.39721137684E+03  0.41764785096E+03  0.80179764425E+02 0.  0.
        254    2    1    2    0    0  0.96192335245E+02  0.31162309505E+02  0.16146686266E+03  0.92199773427E+03  0.90209989434E+03 0.  0.
         23    2    4    4    0    0 -0.25481769390E+03  0.28640448898E+03  0.25437107566E+03  0.46909724296E+03  0.91585974809E+02 0.  0.
         23    2    4    4    0    0  0.35101002915E+03 -0.25524217948E+03 -0.92904212996E+02  0.45290049132E+03  0.90172343295E+02 0.  0.
          4    1    3    3  502    0 -0.94958465906E+02 -0.23875862009E+02 -0.22626886565E+03  0.24654566838E+03  0.00000000000E+00 0. -1.
         -3    1    3    3    0  502 -0.12338693395E+01 -0.72864474960E+01 -0.17094251119E+03  0.17110218258E+03  0.00000000000E+00 0.  1.
         11    1    5    5    0    0 -0.38838165801E+02  0.22232847141E+02  0.22014564160E+01  0.44805680724E+02  0.00000000000E+00 0.  1.
        -11    1    5    5    0    0 -0.21597952810E+03  0.26417164184E+03  0.25216961924E+03  0.42429156223E+03  0.00000000000E+00 0. -1.
          3    1    6    6  503    0  0.49417196534E+02 -0.69976002102E+02 -0.41658829154E+02  0.95258376167E+02  0.00000000000E+00 0. -1.
         -3    1    6    6    0  503  0.30159283261E+03 -0.18526617738E+03 -0.51245383842E+02  0.35764211515E+03  0.00000000000E+00 0.  1.
<mgrwt>
<rscale>  0 0.13187399E+04</rscale>
<asrwt>0</asrwt>
<pdfrwt beam="1">  1        2 0.12118385E+00 0.13187399E+04</pdfrwt>
<pdfrwt beam="2">  1       -1 0.84915466E-01 0.13187399E+04</pdfrwt>
<totfact> 0.53946928E+01</totfact>
</mgrwt>
</event>
<event>
12    6  0.8914180E-008  0.2344960E+04  0.7818608E-02  0.8460402E-01
         -1   -1    0    0    0  501 -0.00000000000E+00  0.00000000000E+00  0.64774586062E+03  0.64774586062E+03  0.00000000000E+00 0.  1.
          2   -1    0    0  501    0  0.00000000000E+00 -0.00000000000E+00 -0.21222974812E+04  0.21222974812E+04  0.00000000000E+00 0. -1.
         24    2    1    2    0    0 -0.61172810736E+03 -0.34213966650E+03 -0.14804899825E+04  0.16400091077E+04  0.80675002829E+02 0.  0.
        254    2    1    2    0    0  0.61172810736E+03  0.34213966650E+03  0.59383619971E+01  0.11300342341E+04  0.88638100015E+03 0.  0.
         23    2    4    4    0    0  0.83309301774E+02 -0.19543697760E+03 -0.23796642433E+03  0.33248391166E+03  0.93709553557E+02 0.  0.
         23    2    4    4    0    0  0.52841880558E+03  0.53757664410E+03  0.24390478633E+03  0.79755032247E+03  0.91552660801E+02 0.  0.
          2    1    3    3  502    0 -0.47472346638E+03 -0.23896321474E+03 -0.11764580498E+04  0.12909373844E+04  0.00000000000E+00 0. -1.
         -1    1    3    3    0  502 -0.13700464097E+03 -0.10317645176E+03 -0.30403193278E+03  0.34907172328E+03  0.00000000000E+00 0.  1.
         11    1    5    5    0    0  0.10448743434E+02 -0.74585435327E+02 -0.14530911988E+03  0.16366705142E+03  0.00000000000E+00 0.  1.
        -11    1    5    5    0    0  0.72860558341E+02 -0.12085154227E+03 -0.92657304455E+02  0.16881686023E+03  0.00000000000E+00 0. -1.
          3    1    6    6  503    0  0.51093623249E+03  0.53644188396E+03  0.24417087971E+03  0.78002893987E+03  0.00000000000E+00 0. -1.
         -3    1    6    6    0  503  0.17482573090E+02  0.11347601427E+01 -0.26609338171E+00  0.17521382598E+02  0.00000000000E+00 0.  1.
<mgrwt>
<rscale>  0 0.23449600E+04</rscale>
<asrwt>0</asrwt>
<pdfrwt beam="1">  1        2 0.32650730E+00 0.23449600E+04</pdfrwt>
<pdfrwt beam="2">  1       -1 0.99653210E-01 0.23449600E+04</pdfrwt>
<totfact> 0.56375163E+00</totfact>
</mgrwt>
</event>
<event>
12    6  0.8914180E-008  0.1245281E+04  0.7818608E-02  0.9074120E-01
         -1   -1    0    0    0  501 -0.00000000000E+00  0.00000000000E+00  0.95150538669E+03  0.95150538669E+03  0.00000000000E+00 0.  1.
          2   -1    0    0  501    0  0.00000000000E+00 -0.00000000000E+00 -0.40744012244E+03  0.40744012244E+03  0.00000000000E+00 0. -1.
         24    2    1    2    0    0  0.16853587222E+03  0.60477713526E+02 -0.11599411063E+03  0.22813110381E+03  0.80791538959E+02 0.  0.
        254    2    1    2    0    0 -0.16853587222E+03 -0.60477713526E+02  0.66005937488E+03  0.11308144053E+04  0.90055590990E+03 0.  0.
         23    2    4    4    0    0  0.26454957182E+03  0.58738870281E+02 -0.45045683880E+02  0.28995066761E+03  0.92766077761E+02 0.  0.
         23    2    4    4    0    0 -0.43308544403E+03 -0.11921658381E+03  0.70510505876E+03  0.84086373770E+03  0.90017141754E+02 0.  0.
          4    1    3    3  502    0  0.14232814748E+03  0.14337654810E+02 -0.90386508012E+02  0.16921167437E+03  0.00000000000E+00 0. -1.
         -3    1    3    3    0  502  0.26207724734E+02  0.46140058716E+02 -0.25607602616E+02  0.58919429442E+02  0.00000000000E+00 0.  1.
         11    1    5    5    0    0  0.23609245824E+03  0.59516215796E+02 -0.85015674426E+01  0.24362698010E+03  0.00000000000E+00 0. -1.
        -11    1    5    5    0    0  0.28457113573E+02 -0.77734551570E+00 -0.36544116437E+02  0.46323687517E+02  0.00000000000E+00 0.  1.
          4    1    6    6  503    0 -0.31726714781E+03 -0.84473675535E+02  0.58254827574E+03  0.66869779311E+03  0.00000000000E+00 0. -1.
         -4    1    6    6    0  503 -0.11581829622E+03 -0.34742908271E+02  0.12255678302E+03  0.17216594459E+03  0.00000000000E+00 0.  1.
<mgrwt>
<rscale>  0 0.12452814E+04</rscale>
<asrwt>0</asrwt>
<pdfrwt beam="1">  1        2 0.62683096E-01 0.12452814E+04</pdfrwt>
<pdfrwt beam="2">  1       -1 0.14638544E+00 0.12452814E+04</pdfrwt>
<totfact> 0.32666741E+01</totfact>
</mgrwt>
</event>
<event>
12    6  0.8914180E-008  0.1852845E+04  0.7818608E-02  0.8678691E-01
          2   -1    0    0  501    0  0.00000000000E+00  0.00000000000E+00  0.23380752506E+04  0.23380752506E+04  0.00000000000E+00 0. -1.
         -3   -1    0    0    0  501 -0.00000000000E+00 -0.00000000000E+00 -0.36707918831E+03  0.36707918831E+03  0.00000000000E+00 0.  1.
         24    2    1    2    0    0 -0.15438235099E+03 -0.60356930696E+03  0.12166280667E+04  0.13691727264E+04  0.79500210927E+02 0.  0.
        254    2    1    2    0    0  0.15438235099E+03  0.60356930696E+03  0.75436799561E+03  0.13359817125E+04  0.90975064974E+03 0.  0.
         23    2    4    4    0    0  0.46286134700E+02  0.60853728374E+03  0.51240881926E+02  0.61867121657E+03  0.87569482532E+02 0.  0.
         23    2    4    4    0    0  0.10809621629E+03 -0.49679767808E+01  0.70312711369E+03  0.71731049592E+03  0.91853888216E+02 0.  0.
          4    1    3    3  502    0 -0.13883836906E+03 -0.48359081918E+03  0.91532745968E+03  0.10444905608E+04  0.00000000000E+00 0. -1.
         -3    1    3    3    0  502 -0.15543981930E+02 -0.11997848778E+03  0.30130060703E+03  0.32468216566E+03  0.00000000000E+00 0.  1.
         11    1    5    5    0    0  0.54438441501E+02  0.51016478644E+03  0.14252653136E+02  0.51325899052E+03  0.00000000000E+00 0. -1.
        -11    1    5    5    0    0 -0.81523068009E+01  0.98372497302E+02  0.36988228790E+02  0.10541222605E+03  0.00000000000E+00 0.  1.
          4    1    6    6  503    0  0.81781482747E+02  0.22467352075E+02  0.62156082952E+03  0.62732037877E+03  0.00000000000E+00 0. -1.
         -4    1    6    6    0  503  0.26314733540E+02 -0.27435328856E+02  0.81566284168E+02  0.89990117144E+02  0.00000000000E+00 0.  1.
<mgrwt>
<rscale>  0 0.18528451E+04</rscale>
<asrwt>0</asrwt>
<pdfrwt beam="1">  1        2 0.35970388E+00 0.18528451E+04</pdfrwt>
<pdfrwt beam="2">  1       -3 0.56473723E-01 0.18528451E+04</pdfrwt>
<totfact> 0.80413251E+00</totfact>
</mgrwt>
</event>
<event>
12    6  0.8914180E-008  0.2471168E+04  0.7818608E-02  0.8413330E-01
         -1   -1    0    0    0  501 -0.00000000000E+00  0.00000000000E+00  0.11688621656E+04  0.11688621656E+04  0.00000000000E+00 0.  1.
          2   -1    0    0  501    0  0.00000000000E+00 -0.00000000000E+00 -0.13061141138E+04  0.13061141138E+04  0.00000000000E+00 0. -1.
         24    2    1    2    0    0  0.21862806187E+03 -0.18497327335E+03 -0.10924488609E+04  0.11322014954E+04  0.80139698045E+02 0.  0.
        254    2    1    2    0    0 -0.21862806187E+03  0.18497327335E+03  0.95519691278E+03  0.13427747840E+04  0.89923836499E+03 0.  0.
         23    2    4    4    0    0 -0.49266377760E+03 -0.90497697589E+02  0.35678067609E+03  0.62322367749E+03  0.10103400585E+03 0.  0.
         23    2    4    4    0    0  0.27403571572E+03  0.27547097094E+03  0.59841623669E+03  0.71955110651E+03  0.93123430016E+02 0.  0.
          2    1    3    3  502    0  0.10159364250E+03 -0.73871073349E+02 -0.33552269560E+03  0.35826482236E+03  0.00000000000E+00 0. -1.
         -1    1    3    3    0  502  0.11703441938E+03 -0.11110220000E+03 -0.75692616531E+03  0.77393667305E+03  0.00000000000E+00 0.  1.
         11    1    5    5    0    0  0.13257158049E+01  0.22718137870E+01  0.15411637976E+02  0.15634488971E+02  0.00000000000E+00 0. -1.
        -11    1    5    5    0    0 -0.49398949340E+03 -0.92769511376E+02  0.34136903811E+03  0.60758918852E+03  0.00000000000E+00 0.  1.
          2    1    6    6  503    0  0.23385918837E+02  0.36155098353E+02  0.25694727978E+02  0.50142909595E+02  0.00000000000E+00 0. -1.
         -2    1    6    6    0  503  0.25064979688E+03  0.23931587259E+03  0.57272150871E+03  0.66940819691E+03  0.00000000000E+00 0.  1.
<mgrwt>
<rscale>  0 0.24711676E+04</rscale>
<asrwt>0</asrwt>
<pdfrwt beam="1">  1        2 0.20094063E+00 0.24711676E+04</pdfrwt>
<pdfrwt beam="2">  1       -1 0.17982495E+00 0.24711676E+04</pdfrwt>
<totfact> 0.34862014E+00</totfact>
</mgrwt>
</event>
<event>
12    6  0.8914180E-008  0.1503707E+04  0.7818608E-02  0.8881991E-01
          2   -1    0    0  501    0  0.00000000000E+00  0.00000000000E+00  0.49808541461E+03  0.49808541461E+03  0.00000000000E+00 0. -1.
         -1   -1    0    0    0  501 -0.00000000000E+00 -0.00000000000E+00 -0.11349134018E+04  0.11349134018E+04  0.00000000000E+00 0.  1.
         24    2    1    2    0    0  0.49048087238E+02 -0.28537131301E+03 -0.60133778783E+03  0.67183912896E+03  0.76929701551E+02 0.  0.
        254    2    1    2    0    0 -0.49048087238E+02  0.28537131301E+03 -0.35490199399E+02  0.96115968749E+03  0.91581979092E+03 0.  0.
         23    2    4    4    0    0 -0.12100625301E+02  0.58924314971E+03  0.11923995228E+03  0.60783652999E+03  0.88843493604E+02 0.  0.
         23    2    4    4    0    0 -0.36947461936E+02 -0.30387183670E+03 -0.15473015168E+03  0.35332315750E+03  0.84809349166E+02 0.  0.
          4    1    3    3  502    0  0.14516779499E+02 -0.29753032717E+02 -0.13415346005E+03  0.13817789507E+03  0.00000000000E+00 0. -1.
         -3    1    3    3    0  502  0.34531307739E+02 -0.25561828030E+03 -0.46718432778E+03  0.53366123389E+03  0.00000000000E+00 0.  1.
         11    1    5    5    0    0 -0.37388284700E+02  0.13339491964E+03  0.42301344225E+02  0.14484989521E+03  0.00000000000E+00 0.  1.
        -11    1    5    5    0    0  0.25287659399E+02  0.45584823007E+03  0.76938608055E+02  0.46298663478E+03  0.00000000000E+00 0. -1.
          3    1    6    6  503    0 -0.33607418605E+02 -0.15045131204E+03 -0.12156344797E+03  0.19632301893E+03  0.00000000000E+00 0. -1.
         -3    1    6    6    0  503 -0.33400433314E+01 -0.15342052465E+03 -0.33166703706E+02  0.15700013856E+03  0.00000000000E+00 0.  1.
<mgrwt>
<rscale>  0 0.15037072E+04</rscale>
<asrwt>0</asrwt>
<pdfrwt beam="1">  1        2 0.76628526E-01 0.15037072E+04</pdfrwt>
<pdfrwt beam="2">  1       -1 0.17460206E+00 0.15037072E+04</pdfrwt>
<totfact> 0.15552332E+01</totfact>
</mgrwt>
</event>
<event>
12    6  0.8914180E-008  0.2636556E+04  0.7818608E-02  0.8355889E-01
          2   -1    0    0  501    0  0.00000000000E+00  0.00000000000E+00  0.31207691196E+04  0.31207691196E+04  0.00000000000E+00 0. -1.
         -1   -1    0    0    0  501 -0.00000000000E+00 -0.00000000000E+00 -0.55686796334E+03  0.55686796334E+03  0.00000000000E+00 0.  1.
         24    2    1    2    0    0 -0.61262896357E+03  0.83775003378E+02  0.25109108765E+04  0.25873714473E+04  0.86516347709E+02 0.  0.
        254    2    1    2    0    0  0.61262896357E+03 -0.83775003378E+02  0.52990279748E+02  0.10902656356E+04  0.89640319515E+03 0.  0.
         23    2    4    4    0    0  0.58842871940E+03 -0.42303078431E+03  0.89732036863E+02  0.73662695100E+03  0.96767888370E+02 0.  0.
         23    2    4    4    0    0  0.24200244172E+02  0.33925578094E+03 -0.36741757115E+02  0.35363868462E+03  0.89611527307E+02 0.  0.
          2    1    3    3  502    0 -0.56848162781E+03  0.94133040398E+02  0.22539426682E+04  0.23264328793E+04  0.00000000000E+00 0. -1.
         -1    1    3    3    0  502 -0.44147335754E+02 -0.10358037020E+02  0.25696820834E+03  0.26093856802E+03  0.00000000000E+00 0.  1.
         11    1    5    5    0    0  0.85613628889E+02 -0.61432825853E+02 -0.21065699192E+02  0.10745905837E+03  0.00000000000E+00 0.  1.
        -11    1    5    5    0    0  0.50281509051E+03 -0.36159795846E+03  0.11079773605E+03  0.62916789263E+03  0.00000000000E+00 0. -1.
          3    1    6    6  503    0  0.18774896476E+01  0.20737950473E+03 -0.64198672187E+02  0.21709733637E+03  0.00000000000E+00 0. -1.
         -3    1    6    6    0  503  0.22322754524E+02  0.13187627621E+03  0.27456915072E+02  0.13654134825E+03  0.00000000000E+00 0.  1.
<mgrwt>
<rscale>  0 0.26365556E+04</rscale>
<asrwt>0</asrwt>
<pdfrwt beam="1">  1        2 0.48011832E+00 0.26365556E+04</pdfrwt>
<pdfrwt beam="2">  1       -1 0.85671996E-01 0.26365556E+04</pdfrwt>
<totfact> 0.19691865E+00</totfact>
</mgrwt>
</event>
<event>
12    6  0.8914180E-008  0.1830786E+04  0.7818608E-02  0.8690097E-01
          2   -1    0    0  501    0  0.00000000000E+00  0.00000000000E+00  0.12535938747E+04  0.12535938747E+04  0.00000000000E+00 0. -1.
         -1   -1    0    0    0  501 -0.00000000000E+00 -0.00000000000E+00 -0.66843362321E+03  0.66843362321E+03  0.00000000000E+00 0.  1.
         24    2    1    2    0    0 -0.41554812805E+03  0.12269201435E+02  0.80504473770E+03  0.90955552981E+03  0.79771248402E+02 0.  0.
        254    2    1    2    0    0  0.41554812805E+03 -0.12269201435E+02 -0.21988448619E+03  0.10124719681E+04  0.89661559150E+03 0.  0.
         23    2    4    4    0    0  0.60213881943E+03 -0.25168722841E+03 -0.22201954643E+03  0.69560483006E+03  0.93036454157E+02 0.  0.
         23    2    4    4    0    0 -0.18659069138E+03  0.23941802697E+03  0.21350602424E+01  0.31686713805E+03  0.90901853366E+02 0.  0.
          4    1    3    3  502    0 -0.24406849777E+03 -0.28199556754E+02  0.50524313419E+03  0.56181426757E+03  0.00000000000E+00 0. -1.
         -3    1    3    3    0  502 -0.17147963028E+03  0.40468758189E+02  0.29980160351E+03  0.34774126223E+03  0.00000000000E+00 0.  1.
         11    1    5    5    0    0  0.17655004030E+03 -0.36551056654E+02 -0.85719449336E+02  0.19963396621E+03  0.00000000000E+00 0.  1.
        -11    1    5    5    0    0  0.42558877913E+03 -0.21513617175E+03 -0.13630009710E+03  0.49597086385E+03  0.00000000000E+00 0. -1.
          1    1    6    6  503    0 -0.17529709720E+03  0.24571732648E+03  0.94962281124E+01  0.30198717716E+03  0.00000000000E+00 0. -1.
         -1    1    6    6    0  503 -0.11293594178E+02 -0.62992995077E+01 -0.73611678700E+01  0.14879960893E+02  0.00000000000E+00 0.  1.
<mgrwt>
<rscale>  0 0.18307859E+04</rscale>
<asrwt>0</asrwt>
<pdfrwt beam="1">  1        2 0.19286060E+00 0.18307859E+04</pdfrwt>
<pdfrwt beam="2">  1       -1 0.10283594E+00 0.18307859E+04</pdfrwt>
<totfact> 0.16888997E+01</totfact>
</mgrwt>
</event>
<event>
12    6  0.8914180E-008  0.1756609E+04  0.7818608E-02  0.8729721E-01
         -1   -1    0    0    0  501 -0.00000000000E+00  0.00000000000E+00  0.32275733636E+03  0.32275733636E+03  0.00000000000E+00 0.  1.
          2   -1    0    0  501    0  0.00000000000E+00 -0.00000000000E+00 -0.23900901128E+04  0.23900901128E+04  0.00000000000E+00 0. -1.
         24    2    1    2    0    0 -0.17168675681E+03  0.52258580662E+03 -0.12852844631E+04  0.14003135718E+04  0.79684883117E+02 0.  0.
        254    2    1    2    0    0  0.17168675681E+03 -0.52258580662E+03 -0.78204831340E+03  0.13125338774E+04  0.89920706574E+03 0.  0.
         23    2    4    4    0    0  0.45726464783E+03 -0.49835166473E+03 -0.30523115046E+03  0.74765182852E+03  0.91497877473E+02 0.  0.
         23    2    4    4    0    0 -0.28557789102E+03 -0.24234141891E+02 -0.47681716294E+03  0.56488204888E+03  0.97954564980E+02 0.  0.
          2    1    3    3  502    0 -0.12002371074E+03  0.29710989987E+03 -0.66164118119E+03  0.73515238990E+03  0.00000000000E+00 0. -1.
         -1    1    3    3    0  502 -0.51663046064E+02  0.22547590675E+03 -0.62364328189E+03  0.66516118189E+03  0.00000000000E+00 0.  1.
         11    1    5    5    0    0  0.36682507684E+03 -0.44467743566E+03 -0.27164244516E+03  0.63725056045E+03  0.00000000000E+00 0.  1.
        -11    1    5    5    0    0  0.90439570987E+02 -0.53674229067E+02 -0.33588705304E+02  0.11040126806E+03  0.00000000000E+00 0. -1.
          4    1    6    6  503    0 -0.42634870333E+02 -0.36953492683E+02 -0.60723663837E+02  0.82889421156E+02  0.00000000000E+00 0. -1.
         -4    1    6    6    0  503 -0.24294302069E+03  0.12719350792E+02 -0.41609349910E+03  0.48199262772E+03  0.00000000000E+00 0.  1.
<mgrwt>
<rscale>  0 0.17566094E+04</rscale>
<asrwt>0</asrwt>
<pdfrwt beam="1">  1        2 0.36770618E+00 0.17566094E+04</pdfrwt>
<pdfrwt beam="2">  1       -1 0.49654974E-01 0.17566094E+04</pdfrwt>
<totfact> 0.17688095E+01</totfact>
</mgrwt>
</event>
<event>
12    6  0.8914180E-008  0.2375583E+04  0.7818608E-02  0.8448702E-01
         -1   -1    0    0    0  501 -0.00000000000E+00  0.00000000000E+00  0.54302362914E+03  0.54302362914E+03  0.00000000000E+00 0.  1.
          2   -1    0    0  501    0  0.00000000000E+00 -0.00000000000E+00 -0.25981355778E+04  0.25981355778E+04  0.00000000000E+00 0. -1.
         24    2    1    2    0    0 -0.47059732569E+03 -0.12293005374E+03 -0.20564179024E+04  0.21146526752E+04  0.79546880379E+02 0.  0.
        254    2    1    2    0    0  0.47059732569E+03  0.12293005374E+03  0.13059537272E+01  0.10265065318E+04  0.90395813687E+03 0.  0.
         23    2    4    4    0    0  0.63282760943E+03 -0.18196766533E+03  0.48237422389E+02  0.66632308196E+03  0.89869828962E+02 0.  0.
         23    2    4    4    0    0 -0.16223028373E+03  0.30489771907E+03 -0.46931468661E+02  0.36018344983E+03  0.90819990786E+02 0.  0.
          4    1    3    3  502    0 -0.40600203280E+03 -0.80591779673E+02 -0.17921563680E+04  0.18393360577E+04  0.00000000000E+00 0. -1.
         -3    1    3    3    0  502 -0.64595292893E+02 -0.42338274072E+02 -0.26426153437E+03  0.27531661749E+03  0.00000000000E+00 0.  1.
         11    1    5    5    0    0  0.44371888408E+03 -0.16927074412E+03  0.28505022675E+02  0.47576419497E+03  0.00000000000E+00 0.  1.
        -11    1    5    5    0    0  0.18910872535E+03 -0.12696921209E+02  0.19732399714E+02  0.19055888699E+03  0.00000000000E+00 0. -1.
          1    1    6    6  503    0 -0.91890008343E+02  0.16817086412E+03  0.19618402505E+02  0.19263980609E+03  0.00000000000E+00 0. -1.
         -1    1    6    6    0  503 -0.70340275388E+02  0.13672685495E+03 -0.66549871166E+02  0.16754364374E+03  0.00000000000E+00 0.  1.
<mgrwt>
<rscale>  0 0.23755833E+04</rscale>
<asrwt>0</asrwt>
<pdfrwt beam="1">  1        2 0.39971316E+00 0.23755833E+04</pdfrwt>
<pdfrwt beam="2">  1       -1 0.83542097E-01 0.23755833E+04</pdfrwt>
<totfact> 0.44447715E+00</totfact>
</mgrwt>
</event>
<event>
12    6  0.8914180E-008  0.1087969E+04  0.7818608E-02  0.9216998E-01
          2   -1    0    0  501    0  0.00000000000E+00  0.00000000000E+00  0.98656623940E+03  0.98656623940E+03  0.00000000000E+00 0. -1.
         -1   -1    0    0    0  501 -0.00000000000E+00 -0.00000000000E+00 -0.29994854427E+03  0.29994854427E+03  0.00000000000E+00 0.  1.
         24    2    1    2    0    0  0.29235305536E+02 -0.45439541080E+02 -0.64977252075E+02  0.11620781165E+03  0.79766892987E+02 0.  0.
        254    2    1    2    0    0 -0.29235305536E+02  0.45439541080E+02  0.75159494721E+03  0.11703069720E+04  0.89543508370E+03 0.  0.
         23    2    4    4    0    0  0.34764748185E+03 -0.17744653357E+03  0.16578826173E+03  0.43354317691E+03  0.90154836842E+02 0.  0.
         23    2    4    4    0    0 -0.37688278739E+03  0.22288607465E+03  0.58580668548E+03  0.73676379511E+03  0.89065028706E+02 0.  0.
          4    1    3    3  502    0  0.11344990378E+02  0.70096492165E+01  0.14254032335E+02  0.19519770148E+02  0.00000000000E+00 0. -1.
         -3    1    3    3    0  502  0.17890315158E+02 -0.52449190296E+02 -0.79231284410E+02  0.96688041497E+02  0.00000000000E+00 0.  1.
         11    1    5    5    0    0  0.13124127579E+03 -0.22008049606E+02  0.70324297197E+02  0.15051290142E+03  0.00000000000E+00 0. -1.
        -11    1    5    5    0    0  0.21640620606E+03 -0.15543848397E+03  0.95463964534E+02  0.28303027549E+03  0.00000000000E+00 0.  1.
          2    1    6    6  503    0 -0.33779638348E+03  0.21863447140E+03  0.49572152212E+03  0.63847259634E+03  0.00000000000E+00 0.  1.
         -2    1    6    6    0  503 -0.39086403907E+02  0.42516032519E+01  0.90085163352E+02  0.98291198775E+02  0.00000000000E+00 0. -1.
<mgrwt>
<rscale>  0 0.10879689E+04</rscale>
<asrwt>0</asrwt>
<pdfrwt beam="1">  1        2 0.15177942E+00 0.10879689E+04</pdfrwt>
<pdfrwt beam="2">  1       -1 0.46145930E-01 0.10879689E+04</pdfrwt>
<totfact> 0.13596927E+02</totfact>
</mgrwt>
</event>
<event>
12    6  0.8914180E-008  0.2207301E+04  0.7818608E-02  0.8515395E-01
         -1   -1    0    0    0  501 -0.00000000000E+00  0.00000000000E+00  0.11348319229E+04  0.11348319229E+04  0.00000000000E+00 0.  1.
          2   -1    0    0  501    0  0.00000000000E+00 -0.00000000000E+00 -0.10733256968E+04  0.10733256968E+04  0.00000000000E+00 0. -1.
         24    2    1    2    0    0 -0.72389543325E+03  0.22268235218E+03  0.53971925046E+03  0.93335708058E+03  0.79035070035E+02 0.  0.
        254    2    1    2    0    0  0.72389543325E+03 -0.22268235218E+03 -0.47821302436E+03  0.12748005391E+04  0.90709243711E+03 0.  0.
         23    2    4    4    0    0 -0.19699929031E+03 -0.55385068865E+01 -0.16766767033E+03  0.27486763579E+03  0.92738201881E+02 0.  0.
         23    2    4    4    0    0  0.92089472356E+03 -0.21714384530E+03 -0.31054535403E+03  0.99993290327E+03  0.90713023868E+02 0.  0.
          4    1    3    3  502    0 -0.44596871550E+02  0.92685043217E+01  0.12058191034E+02  0.47118850744E+02  0.00000000000E+00 0. -1.
         -3    1    3    3    0  502 -0.67929856170E+03  0.21341384786E+03  0.52766105943E+03  0.88623822984E+03  0.00000000000E+00 0.  1.
         11    1    5    5    0    0 -0.17744543306E+03 -0.34274460078E+02 -0.15427734187E+03  0.23761969309E+03  0.00000000000E+00 0.  1.
        -11    1    5    5    0    0 -0.19553857249E+02  0.28735953191E+02 -0.13390328457E+02  0.37247942699E+02  0.00000000000E+00 0. -1.
          1    1    6    6  503    0  0.45722813250E+03 -0.90712667560E+02 -0.10853925154E+03  0.47860957191E+03  0.00000000000E+00 0. -1.
         -1    1    6    6    0  503  0.46366659107E+03 -0.12643117774E+03 -0.20200610249E+03  0.52132333136E+03  0.00000000000E+00 0.  1.
<mgrwt>
<rscale>  0 0.22073009E+04</rscale>
<asrwt>0</asrwt>
<pdfrwt beam="1">  1        2 0.16512703E+00 0.22073009E+04</pdfrwt>
<pdfrwt beam="2">  1       -1 0.17458953E+00 0.22073009E+04</pdfrwt>
<totfact> 0.53694729E+00</totfact>
</mgrwt>
</event>
<event>
12    6  0.8914180E-008  0.1735897E+04  0.7818608E-02  0.8741152E-01
          2   -1    0    0  501    0  0.00000000000E+00  0.00000000000E+00  0.19922110311E+04  0.19922110311E+04  0.00000000000E+00 0. -1.
         -1   -1    0    0    0  501 -0.00000000000E+00 -0.00000000000E+00 -0.37814008926E+03  0.37814008926E+03  0.00000000000E+00 0.  1.
         24    2    1    2    0    0  0.34517407053E+03  0.11701471654E+03 -0.11224205134E+03  0.38981062878E+03  0.80724626778E+02 0.  0.
        254    2    1    2    0    0 -0.34517407053E+03 -0.11701471654E+03  0.17263129932E+04  0.19805404916E+04  0.89974802336E+03 0.  0.
         23    2    4    4    0    0 -0.20991490521E+03  0.66495617604E+02  0.15948555830E+00  0.23704705955E+03  0.87780114010E+02 0.  0.
         23    2    4    4    0    0 -0.13525916532E+03 -0.18351033414E+03  0.17261535076E+04  0.17434934320E+04  0.90511497425E+02 0.  0.
          2    1    3    3  502    0  0.54700990067E+01  0.45214921551E+01  0.94686937661E+01  0.11833090724E+02  0.00000000000E+00 0. -1.
         -1    1    3    3    0  502  0.33970397152E+03  0.11249322438E+03 -0.12171074511E+03  0.37797753805E+03  0.00000000000E+00 0.  1.
         11    1    5    5    0    0 -0.16415218790E+03  0.59417270766E+02 -0.36057109041E+02  0.17825955226E+03  0.00000000000E+00 0.  1.
        -11    1    5    5    0    0 -0.45762717305E+02  0.70783468378E+01  0.36216594599E+02  0.58787507291E+02  0.00000000000E+00 0. -1.
          3    1    6    6  503    0 -0.45898564185E+02 -0.52408209267E+02  0.86836900587E+03  0.87115901474E+03  0.00000000000E+00 0. -1.
         -3    1    6    6    0  503 -0.89360601134E+02 -0.13110212487E+03  0.85778450173E+03  0.87233441729E+03  0.00000000000E+00 0.  1.
<mgrwt>
<rscale>  0 0.17358973E+04</rscale>
<asrwt>0</asrwt>
<pdfrwt beam="1">  1        2 0.30649400E+00 0.17358973E+04</pdfrwt>
<pdfrwt beam="2">  1       -1 0.58175399E-01 0.17358973E+04</pdfrwt>
<totfact> 0.21833974E+01</totfact>
</mgrwt>
</event>
<event>
12    6  0.8914180E-008  0.2750444E+04  0.7818608E-02  0.8318821E-01
         -1   -1    0    0    0  501 -0.00000000000E+00  0.00000000000E+00  0.56810248212E+03  0.56810248212E+03  0.00000000000E+00 0.  1.
          2   -1    0    0  501    0  0.00000000000E+00 -0.00000000000E+00 -0.33290389374E+04  0.33290389374E+04  0.00000000000E+00 0. -1.
         24    2    1    2    0    0 -0.90184336298E+03  0.55867185632E+03 -0.36093596804E+03  0.11233548566E+04  0.78839498180E+02 0.  0.
        254    2    1    2    0    0  0.90184336298E+03 -0.55867185632E+03 -0.24000004872E+04  0.27737865629E+04  0.89914062492E+03 0.  0.
         23    2    4    4    0    0 -0.22066403079E+02 -0.42236363817E+03 -0.55413993902E+03  0.70309536030E+03  0.91619019134E+02 0.  0.
         23    2    4    4    0    0  0.92390976606E+03 -0.13630821815E+03 -0.18458605482E+04  0.20706912026E+04  0.91497032199E+02 0.  0.
          2    1    3    3  502    0 -0.66330335512E+03  0.38446251455E+03 -0.23150377392E+03  0.80086001483E+03  0.00000000000E+00 0. -1.
         -1    1    3    3    0  502 -0.23854000786E+03  0.17420934177E+03 -0.12943219412E+03  0.32249484180E+03  0.00000000000E+00 0.  1.
         11    1    5    5    0    0  0.31226457369E+02 -0.12050912561E+03 -0.18953980753E+03  0.22676613423E+03  0.00000000000E+00 0.  1.
        -11    1    5    5    0    0 -0.53292860448E+02 -0.30185451256E+03 -0.36460013149E+03  0.47632922607E+03  0.00000000000E+00 0. -1.
          2    1    6    6  503    0  0.72908879680E+03 -0.91397921966E+02 -0.13719129031E+04  0.15562998000E+04  0.00000000000E+00 0. -1.
         -2    1    6    6    0  503  0.19482096926E+03 -0.44910296185E+02 -0.47394764508E+03  0.51439140257E+03  0.00000000000E+00 0.  1.
<mgrwt>
<rscale>  0 0.27504438E+04</rscale>
<asrwt>0</asrwt>
<pdfrwt beam="1">  1        2 0.51215983E+00 0.27504438E+04</pdfrwt>
<pdfrwt beam="2">  1       -1 0.87400383E-01 0.27504438E+04</pdfrwt>
<totfact> 0.13624586E+00</totfact>
</mgrwt>
</event>
<event>
12    6  0.8914180E-008  0.1740742E+04  0.7818608E-02  0.8738463E-01
         -3   -1    0    0    0  501 -0.00000000000E+00  0.00000000000E+00  0.22090003128E+04  0.22090003128E+04  0.00000000000E+00 0.  1.
          2   -1    0    0  501    0  0.00000000000E+00 -0.00000000000E+00 -0.34293600820E+03  0.34293600820E+03  0.00000000000E+00 0. -1.
         24    2    1    2    0    0  0.14932330194E+03 -0.35192887441E+03  0.14140075406E+04  0.14670037327E+04  0.80816124289E+02 0.  0.
        254    2    1    2    0    0 -0.14932330194E+03  0.35192887441E+03  0.45205676401E+03  0.10849325882E+04  0.90916006400E+03 0.  0.
         23    2    4    4    0    0 -0.20711438048E+02  0.43033262792E+03  0.67189337745E+03  0.80323696467E+03  0.90187451620E+02 0.  0.
         23    2    4    4    0    0 -0.12861186389E+03 -0.78403753508E+02 -0.21983661344E+03  0.28169562357E+03  0.91302396647E+02 0.  0.
          2    1    3    3  502    0  0.35236570205E+02 -0.30276811844E+02  0.23721825639E+03  0.24172464165E+03  0.00000000000E+00 0. -1.
         -1    1    3    3    0  502  0.11408673173E+03 -0.32165206257E+03  0.11767892842E+04  0.12252790911E+04  0.00000000000E+00 0.  1.
         11    1    5    5    0    0 -0.18877403408E+02  0.40931335503E+03  0.58769381637E+03  0.71643408682E+03  0.00000000000E+00 0.  1.
        -11    1    5    5    0    0 -0.18340346397E+01  0.21019272892E+02  0.84199561081E+02  0.86802877845E+02  0.00000000000E+00 0. -1.
          2    1    6    6  503    0 -0.59712227409E+02 -0.98440920793E+01 -0.28088310808E+02  0.66718883796E+02  0.00000000000E+00 0. -1.
         -2    1    6    6    0  503 -0.68899636481E+02 -0.68559661428E+02 -0.19174830263E+03  0.21497673977E+03  0.00000000000E+00 0.  1.
<mgrwt>
<rscale>  0 0.17407421E+04</rscale>
<asrwt>0</asrwt>
<pdfrwt beam="1">  1        2 0.52759387E-01 0.17407421E+04</pdfrwt>
<pdfrwt beam="2">  1       -3 0.33984619E+00 0.17407421E+04</pdfrwt>
<totfact> 0.12724121E+00</totfact>
</mgrwt>
</event>
<event>
12    6  0.8914180E-008  0.1912257E+04  0.7818608E-02  0.8648779E-01
         -1   -1    0    0    0  501 -0.00000000000E+00  0.00000000000E+00  0.68497381756E+03  0.68497381756E+03  0.00000000000E+00 0.  1.
          2   -1    0    0  501    0  0.00000000000E+00 -0.00000000000E+00 -0.13346225452E+04  0.13346225452E+04  0.00000000000E+00 0. -1.
         24    2    1    2    0    0 -0.72311711009E+03 -0.91495087749E+02 -0.99378929403E+02  0.73965130650E+03  0.77059571806E+02 0.  0.
        254    2    1    2    0    0  0.72311711009E+03  0.91495087749E+02 -0.55026979821E+03  0.12799450562E+04  0.89676796896E+03 0.  0.
         23    2    4    4    0    0  0.49693952080E+03 -0.13123174080E+03  0.11696350156E+03  0.53534684693E+03  0.93515392850E+02 0.  0.
         23    2    4    4    0    0  0.22617758929E+03  0.22272682855E+03 -0.66723329977E+03  0.74459820930E+03  0.91992798180E+02 0.  0.
          4    1    3    3  502    0 -0.55912196036E+03 -0.90493177763E+02 -0.51119572148E+02  0.56869991422E+03  0.00000000000E+00 0. -1.
         -3    1    3    3    0  502 -0.16399514973E+03 -0.10019099861E+01 -0.48259357255E+02  0.17095139228E+03  0.00000000000E+00 0.  1.
         11    1    5    5    0    0  0.99630400587E+02 -0.65440691907E+02  0.36544651631E+02  0.12467643098E+03  0.00000000000E+00 0. -1.
        -11    1    5    5    0    0  0.39730912021E+03 -0.65791048890E+02  0.80418849928E+02  0.41067041595E+03  0.00000000000E+00 0.  1.
          4    1    6    6  503    0  0.12219510483E+03  0.17281244928E+03 -0.37809904299E+03  0.43330667267E+03  0.00000000000E+00 0. -1.
         -4    1    6    6    0  503  0.10398248446E+03  0.49914379262E+02 -0.28913425678E+03  0.31129153663E+03  0.00000000000E+00 0.  1.
<mgrwt>
<rscale>  0 0.19122568E+04</rscale>
<asrwt>0</asrwt>
<pdfrwt beam="1">  1        2 0.20532655E+00 0.19122568E+04</pdfrwt>
<pdfrwt beam="2">  1       -1 0.10538059E+00 0.19122568E+04</pdfrwt>
<totfact> 0.14209952E+01</totfact>
</mgrwt>
</event>
<event>
12    6  0.8914180E-008  0.1238019E+04  0.7818608E-02  0.9080214E-01
         -1   -1    0    0    0  501 -0.00000000000E+00  0.00000000000E+00  0.12197536049E+03  0.12197536049E+03  0.00000000000E+00 0.  1.
          2   -1    0    0  501    0  0.00000000000E+00 -0.00000000000E+00 -0.31413966860E+04  0.31413966860E+04  0.00000000000E+00 0. -1.
         24    2    1    2    0    0  0.22440205456E+03 -0.10574417410E+03 -0.80562796858E+03  0.84678345122E+03  0.80421869236E+02 0.  0.
        254    2    1    2    0    0 -0.22440205456E+03  0.10574417410E+03 -0.22137933569E+04  0.24165885953E+04  0.93673971795E+03 0.  0.
         23    2    4    4    0    0  0.19273739915E+03  0.32690712423E+03 -0.48721489269E+03  0.62427334576E+03  0.91229850750E+02 0.  0.
         23    2    4    4    0    0 -0.41713945372E+03 -0.22116295013E+03 -0.17265784642E+04  0.17923152495E+04  0.91664530252E+02 0.  0.
          2    1    3    3  502    0  0.10461048272E+03 -0.65553632076E+02 -0.27700732915E+03  0.30327164749E+03  0.00000000000E+00 0. -1.
         -1    1    3    3    0  502  0.11979157185E+03 -0.40190542022E+02 -0.52862063943E+03  0.54351180372E+03  0.00000000000E+00 0.  1.
         11    1    5    5    0    0 -0.15737792754E+01 -0.20632213364E+01  0.21864960088E+01  0.33932916596E+01  0.00000000000E+00 0. -1.
        -11    1    5    5    0    0  0.19431117843E+03  0.32897034556E+03 -0.48940138870E+03  0.62088005410E+03  0.00000000000E+00 0.  1.
          3    1    6    6  503    0 -0.78650752722E+02 -0.14207444637E+02 -0.20982373094E+03  0.22453015488E+03  0.00000000000E+00 0. -1.
         -3    1    6    6    0  503 -0.33848870100E+03 -0.20695550549E+03 -0.15167547333E+04  0.15677850946E+04  0.00000000000E+00 0.  1.
<mgrwt>
<rscale>  0 0.12380194E+04</rscale>
<asrwt>0</asrwt>
<pdfrwt beam="1">  1        2 0.48329183E+00 0.12380194E+04</pdfrwt>
<pdfrwt beam="2">  1       -1 0.18765439E-01 0.12380194E+04</pdfrwt>
<totfact> 0.36682197E+01</totfact>
</mgrwt>
</event>
<event>
12    6  0.8914180E-008  0.2043100E+04  0.7818608E-02  0.8586731E-01
         -1   -1    0    0    0  501 -0.00000000000E+00  0.00000000000E+00  0.71756781737E+03  0.71756781737E+03  0.00000000000E+00 0.  1.
          2   -1    0    0  501    0  0.00000000000E+00 -0.00000000000E+00 -0.14543072642E+04  0.14543072642E+04  0.00000000000E+00 0. -1.
         24    2    1    2    0    0  0.16780708943E+03  0.34571450881E+03 -0.10661997919E+04  0.11362667427E+04  0.81500756867E+02 0.  0.
        254    2    1    2    0    0 -0.16780708943E+03 -0.34571450881E+03  0.32946034507E+03  0.10356083389E+04  0.90347261816E+03 0.  0.
         23    2    4    4    0    0 -0.98559543806E+01  0.29250947595E+03  0.34648673323E+02  0.30920055368E+03  0.93517476860E+02 0.  0.
         23    2    4    4    0    0 -0.15795113505E+03 -0.63822398476E+03  0.29481167175E+03  0.72640778522E+03  0.92064829554E+02 0.  0.
          2    1    3    3  502    0  0.14657951187E+03  0.29395968101E+03 -0.97927932719E+03  0.10329016643E+04  0.00000000000E+00 0. -1.
         -1    1    3    3    0  502  0.21227577558E+02  0.51754827800E+02 -0.86920464748E+02  0.10336507844E+03  0.00000000000E+00 0.  1.
         11    1    5    5    0    0 -0.33529642741E+02  0.26894275672E+03  0.17341271113E+02  0.27157901800E+03  0.00000000000E+00 0. -1.
        -11    1    5    5    0    0  0.23673688361E+02  0.23566719228E+02  0.17307402210E+02  0.37621535682E+02  0.00000000000E+00 0.  1.
          2    1    6    6  503    0 -0.16603212223E+03 -0.54544364883E+03  0.24241592328E+03  0.61954896459E+03  0.00000000000E+00 0. -1.
         -2    1    6    6    0  503  0.80809871818E+01 -0.92780335931E+02  0.52395748470E+02  0.10685882063E+03  0.00000000000E+00 0.  1.
<mgrwt>
<rscale>  0 0.20430997E+04</rscale>
<asrwt>0</asrwt>
<pdfrwt beam="1">  1        2 0.22373958E+00 0.20430997E+04</pdfrwt>
<pdfrwt beam="2">  1       -1 0.11039505E+00 0.20430997E+04</pdfrwt>
<totfact> 0.10756520E+01</totfact>
</mgrwt>
</event>
<event>
12    6  0.8914180E-008  0.1910851E+04  0.7818608E-02  0.8649474E-01
         -1   -1    0    0    0  501 -0.00000000000E+00  0.00000000000E+00  0.45857958951E+03  0.45857958951E+03  0.00000000000E+00 0.  1.
          2   -1    0    0  501    0  0.00000000000E+00 -0.00000000000E+00 -0.19905777992E+04  0.19905777992E+04  0.00000000000E+00 0. -1.
         24    2    1    2    0    0 -0.64452967765E+03  0.35255514623E+03 -0.70180083181E+03  0.10192089441E+04  0.80924826944E+02 0.  0.
        254    2    1    2    0    0  0.64452967765E+03 -0.35255514623E+03 -0.83019737793E+03  0.14299484447E+04  0.90322269218E+03 0.  0.
         23    2    4    4    0    0  0.53211566515E+03 -0.47034637559E+03 -0.15918123351E+03  0.73327022102E+03  0.89295900224E+02 0.  0.
         23    2    4    4    0    0  0.11241401250E+03  0.11779122937E+03 -0.67101614442E+03  0.69667822368E+03  0.92661736199E+02 0.  0.
          4    1    3    3  502    0 -0.54870444588E+03  0.29225562711E+03 -0.63027746678E+03  0.88529068991E+03  0.00000000000E+00 0. -1.
         -3    1    3    3    0  502 -0.95825231768E+02  0.60299519115E+02 -0.71523365026E+02  0.13391825415E+03  0.00000000000E+00 0.  1.
         11    1    5    5    0    0  0.46567848290E+03 -0.44167925586E+03 -0.15762493911E+03  0.66089532903E+03  0.00000000000E+00 0. -1.
        -11    1    5    5    0    0  0.66437182245E+02 -0.28667119730E+02 -0.15562944004E+01  0.72374891990E+02  0.00000000000E+00 0.  1.
          3    1    6    6  503    0  0.44340467431E+02  0.11018250226E+03 -0.41587846760E+03  0.43250567704E+03  0.00000000000E+00 0. -1.
         -3    1    6    6    0  503  0.68073545072E+02  0.76087271080E+01 -0.25513767682E+03  0.26417254664E+03  0.00000000000E+00 0.  1.
<mgrwt>
<rscale>  0 0.19108515E+04</rscale>
<asrwt>0</asrwt>
<pdfrwt beam="1">  1        2 0.30624274E+00 0.19108515E+04</pdfrwt>
<pdfrwt beam="2">  1       -1 0.70550706E-01 0.19108515E+04</pdfrwt>
<totfact> 0.14628179E+01</totfact>
</mgrwt>
</event>
<event>
12    6  0.8914180E-008  0.2391641E+04  0.7818608E-02  0.8442640E-01
         -1   -1    0    0    0  501 -0.00000000000E+00  0.00000000000E+00  0.10937655446E+04  0.10937655446E+04  0.00000000000E+00 0.  1.
          2   -1    0    0  501    0  0.00000000000E+00 -0.00000000000E+00 -0.13073977919E+04  0.13073977919E+04  0.00000000000E+00 0. -1.
         24    2    1    2    0    0  0.17847521283E+02 -0.28477968908E+03  0.89568447459E+03  0.94338637057E+03  0.79430226147E+02 0.  0.
        254    2    1    2    0    0 -0.17847521283E+02  0.28477968908E+03 -0.11093167219E+04  0.14577769660E+04  0.90172728011E+03 0.  0.
         23    2    4    4    0    0 -0.52715271202E+02 -0.31788074748E+03 -0.35695498343E+03  0.48889045932E+03  0.88147328828E+02 0.  0.
         23    2    4    4    0    0  0.34867749920E+02  0.60266043656E+03 -0.75236173847E+03  0.96888650665E+03  0.90980852275E+02 0.  0.
          2    1    3    3  502    0  0.30028518897E+02 -0.54567948809E+02  0.13795209055E+03  0.15136099984E+03  0.00000000000E+00 0. -1.
         -1    1    3    3    0  502 -0.12180997615E+02 -0.23021174027E+03  0.75773238404E+03  0.79202537073E+03  0.00000000000E+00 0.  1.
         11    1    5    5    0    0 -0.45094253904E+02 -0.21479165090E+03 -0.17952895872E+03  0.28354821821E+03  0.00000000000E+00 0.  1.
        -11    1    5    5    0    0 -0.76210172982E+01 -0.10308909658E+03 -0.17742602471E+03  0.20534224111E+03  0.00000000000E+00 0. -1.
          2    1    6    6  503    0 -0.24067735965E+02  0.25931329081E+03 -0.28650211116E+03  0.38717708920E+03  0.00000000000E+00 0. -1.
         -2    1    6    6    0  503  0.58935485885E+02  0.34334714575E+03 -0.46585962731E+03  0.58170941745E+03  0.00000000000E+00 0.  1.
<mgrwt>
<rscale>  0 0.23916410E+04</rscale>
<asrwt>0</asrwt>
<pdfrwt beam="1">  1        2 0.20113812E+00 0.23916410E+04</pdfrwt>
<pdfrwt beam="2">  1       -1 0.16827162E+00 0.23916410E+04</pdfrwt>
<totfact> 0.42531767E+00</totfact>
</mgrwt>
</event>
<event>
12    6  0.8914180E-008  0.1460899E+04  0.7818608E-02  0.8910879E-01
         -1   -1    0    0    0  501 -0.00000000000E+00  0.00000000000E+00  0.35995712235E+03  0.35995712235E+03  0.00000000000E+00 0.  1.
          2   -1    0    0  501    0  0.00000000000E+00 -0.00000000000E+00 -0.14822773742E+04  0.14822773742E+04  0.00000000000E+00 0. -1.
         24    2    1    2    0    0  0.13265371346E+03 -0.40067285270E+03 -0.15330506251E+03  0.45348265315E+03  0.63311388660E+02 0.  0.
        254    2    1    2    0    0 -0.13265371346E+03  0.40067285270E+03 -0.96901518934E+03  0.13887518434E+04  0.90083600215E+03 0.  0.
         23    2    4    4    0    0 -0.11133100670E+03  0.65734091101E+03 -0.46719260443E+03  0.81890627292E+03  0.88582661105E+02 0.  0.
         23    2    4    4    0    0 -0.21322706754E+02 -0.25666805831E+03 -0.50182258491E+03  0.56984557047E+03  0.81024178373E+02 0.  0.
          2    1    3    3  502    0  0.11559794237E+03 -0.29702553113E+03 -0.91472036869E+02  0.33159340155E+03  0.00000000000E+00 0. -1.
         -1    1    3    3    0  502  0.17055771088E+02 -0.10364732157E+03 -0.61833025640E+02  0.12188925160E+03  0.00000000000E+00 0.  1.
         11    1    5    5    0    0 -0.79281253676E+02  0.22172020099E+03 -0.15213665527E+03  0.28034073301E+03  0.00000000000E+00 0. -1.
        -11    1    5    5    0    0 -0.32049753026E+02  0.43562071003E+03 -0.31505594916E+03  0.53856553990E+03  0.00000000000E+00 0.  1.
          1    1    6    6  503    0  0.24070071931E+02 -0.57847286498E+02 -0.15970782675E+03  0.17155834821E+03  0.00000000000E+00 0. -1.
         -1    1    6    6    0  503 -0.45392778685E+02 -0.19882077181E+03 -0.34211475816E+03  0.39828722226E+03  0.00000000000E+00 0.  1.
<mgrwt>
<rscale>  0 0.14608988E+04</rscale>
<asrwt>0</asrwt>
<pdfrwt beam="1">  1        2 0.22804268E+00 0.14608988E+04</pdfrwt>
<pdfrwt beam="2">  1       -1 0.55378018E-01 0.14608988E+04</pdfrwt>
<totfact> 0.47286551E+01</totfact>
</mgrwt>
</event>
<event>
12    6  0.8914180E-008  0.1384359E+04  0.7818608E-02  0.8965219E-01
          2   -1    0    0  501    0  0.00000000000E+00  0.00000000000E+00  0.11911133859E+04  0.11911133859E+04  0.00000000000E+00 0. -1.
         -1   -1    0    0    0  501 -0.00000000000E+00 -0.00000000000E+00 -0.40223917649E+03  0.40223917649E+03  0.00000000000E+00 0.  1.
         24    2    1    2    0    0  0.18157965344E+03  0.75887071277E+02  0.62787868310E+03  0.66230173834E+03  0.75378602963E+02 0.  0.
        254    2    1    2    0    0 -0.18157965344E+03 -0.75887071277E+02  0.16099552631E+03  0.93105082405E+03  0.89565956666E+03 0.  0.
         23    2    4    4    0    0  0.16368518074E+03 -0.28099373427E+03 -0.19188888320E+03  0.38854297635E+03  0.91618687414E+02 0.  0.
         23    2    4    4    0    0 -0.34526483418E+03  0.20510666299E+03  0.35288440950E+03  0.54250784770E+03  0.92254048266E+02 0.  0.
          2    1    3    3  502    0  0.16485582066E+03  0.90885671011E+02  0.56422078648E+03  0.59479638760E+03  0.00000000000E+00 0. -1.
         -1    1    3    3    0  502  0.16723832773E+02 -0.14998599734E+02  0.63657896614E+02  0.67505350735E+02  0.00000000000E+00 0.  1.
         11    1    5    5    0    0  0.64085321894E+02 -0.19752885946E+03 -0.12512049688E+03  0.24244528773E+03  0.00000000000E+00 0. -1.
        -11    1    5    5    0    0  0.99599858851E+02 -0.83464874812E+02 -0.66768386312E+02  0.14609768862E+03  0.00000000000E+00 0.  1.
          1    1    6    6  503    0 -0.34267375274E+03  0.19346492831E+03  0.31895548488E+03  0.50654375984E+03  0.00000000000E+00 0. -1.
         -1    1    6    6    0  503 -0.25910814468E+01  0.11641734685E+02  0.33928924626E+02  0.35964087863E+02  0.00000000000E+00 0.  1.
<mgrwt>
<rscale>  0 0.13843590E+04</rscale>
<asrwt>0</asrwt>
<pdfrwt beam="1">  1        2 0.18324821E+00 0.13843590E+04</pdfrwt>
<pdfrwt beam="2">  1       -1 0.61882951E-01 0.13843590E+04</pdfrwt>
<totfact> 0.56424200E+01</totfact>
</mgrwt>
</event>
<event>
12    6  0.8914180E-008  0.1637168E+04  0.7818608E-02  0.8798034E-01
          2   -1    0    0  501    0  0.00000000000E+00  0.00000000000E+00  0.26009155235E+04  0.26009155235E+04  0.00000000000E+00 0. -1.
         -1   -1    0    0    0  501 -0.00000000000E+00 -0.00000000000E+00 -0.25763239595E+03  0.25763239595E+03  0.00000000000E+00 0.  1.
         24    2    1    2    0    0  0.11887158750E+03 -0.48214853588E+03  0.37888188693E+03  0.62992582847E+03  0.81592892815E+02 0.  0.
        254    2    1    2    0    0 -0.11887158750E+03  0.48214853588E+03  0.19644012406E+04  0.22286220909E+04  0.92805523828E+03 0.  0.
         23    2    4    4    0    0 -0.44195023388E+03  0.47469281860E+03  0.16213307978E+04  0.17486544815E+04  0.91791386007E+02 0.  0.
         23    2    4    4    0    0  0.32307864637E+03  0.74557172851E+01  0.34307044275E+03  0.47996760942E+03  0.90753390775E+02 0.  0.
          2    1    3    3  502    0  0.80832603432E+02 -0.39464597418E+03  0.26898318130E+03  0.48438755820E+03  0.00000000000E+00 0. -1.
         -1    1    3    3    0  502  0.38038984072E+02 -0.87502561701E+02  0.10989870564E+03  0.14553827027E+03  0.00000000000E+00 0.  1.
         11    1    5    5    0    0 -0.41910831025E+03  0.44649481803E+03  0.14587854295E+04  0.15821075588E+04  0.00000000000E+00 0. -1.
        -11    1    5    5    0    0 -0.22841923626E+02  0.28198000571E+02  0.16254536834E+03  0.16654692276E+03  0.00000000000E+00 0.  1.
          2    1    6    6  503    0  0.14729395099E+03  0.47546437894E+02  0.14433943389E+03  0.21163658458E+03  0.00000000000E+00 0. -1.
         -2    1    6    6    0  503  0.17578469538E+03 -0.40090720609E+02  0.19873100886E+03  0.26833102484E+03  0.00000000000E+00 0.  1.
<mgrwt>
<rscale>  0 0.16371684E+04</rscale>
<asrwt>0</asrwt>
<pdfrwt beam="1">  1        2 0.40014083E+00 0.16371684E+04</pdfrwt>
<pdfrwt beam="2">  1       -1 0.39635755E-01 0.16371684E+04</pdfrwt>
<totfact> 0.20550792E+01</totfact>
</mgrwt>
</event>
<event>
12    6  0.8914180E-008  0.4364579E+04  0.7818608E-02  0.7934784E-01
         -1   -1    0    0    0  501 -0.00000000000E+00  0.00000000000E+00  0.15529303581E+04  0.15529303581E+04  0.00000000000E+00 0.  1.
          2   -1    0    0  501    0  0.00000000000E+00 -0.00000000000E+00 -0.30667100284E+04  0.30667100284E+04  0.00000000000E+00 0. -1.
         24    2    1    2    0    0 -0.58511674215E+03  0.14737248062E+04 -0.21656816611E+04  0.26853003888E+04  0.80216670165E+02 0.  0.
        254    2    1    2    0    0  0.58511674215E+03 -0.14737248062E+04  0.65190199083E+03  0.19343399978E+04  0.89580612597E+03 0.  0.
         23    2    4    4    0    0  0.53687880512E+03 -0.97113567316E+03  0.83184232048E+03  0.13903823527E+04  0.99287931607E+02 0.  0.
         23    2    4    4    0    0  0.48237937024E+02 -0.50258913302E+03 -0.17994032965E+03  0.54395764518E+03  0.92675036148E+02 0.  0.
          4    1    3    3  502    0 -0.52593414665E+03  0.13536825774E+04 -0.20143138893E+04  0.24832486165E+04  0.00000000000E+00 0. -1.
         -3    1    3    3    0  502 -0.59182595501E+02  0.12004222880E+03 -0.15136777185E+03  0.20205177222E+03  0.00000000000E+00 0.  1.
         11    1    5    5    0    0  0.20286000494E+02 -0.10854344380E+02  0.10771041281E+02  0.25403817395E+02  0.00000000000E+00 0.  1.
        -11    1    5    5    0    0  0.51659280463E+03 -0.96028132878E+03  0.82107127920E+03  0.13649785353E+04  0.00000000000E+00 0. -1.
          2    1    6    6  503    0  0.36942197784E+02 -0.38745447975E+03 -0.17867210464E+03  0.42826326113E+03  0.00000000000E+00 0. -1.
         -2    1    6    6    0  503  0.11295739241E+02 -0.11513465326E+03 -0.12682250136E+01  0.11569438406E+03  0.00000000000E+00 0.  1.
<mgrwt>
<rscale>  0 0.43645788E+04</rscale>
<asrwt>0</asrwt>
<pdfrwt beam="1">  1        2 0.47180154E+00 0.43645788E+04</pdfrwt>
<pdfrwt beam="2">  1       -1 0.23891236E+00 0.43645788E+04</pdfrwt>
<totfact> 0.11324207E-01</totfact>
</mgrwt>
</event>
<event>
12    6  0.8914180E-008  0.4262802E+04  0.7818608E-02  0.7953532E-01
         -1   -1    0    0    0  501 -0.00000000000E+00  0.00000000000E+00  0.21004956775E+04  0.21004956775E+04  0.00000000000E+00 0.  1.
          2   -1    0    0  501    0  0.00000000000E+00 -0.00000000000E+00 -0.21627612264E+04  0.21627612264E+04  0.00000000000E+00 0. -1.
         24    2    1    2    0    0  0.53573004393E+03  0.17016277542E+04  0.95038213745E+03  0.20229101510E+04  0.79972357985E+02 0.  0.
        254    2    1    2    0    0 -0.53573004393E+03 -0.17016277542E+04 -0.10126476863E+04  0.22403467530E+04  0.90064118448E+03 0.  0.
         23    2    4    4    0    0 -0.62201223059E+03 -0.15379485421E+04 -0.57742569759E+03  0.17588949332E+04  0.90033418931E+02 0.  0.
         23    2    4    4    0    0  0.86282186661E+02 -0.16367921208E+03 -0.43522198874E+03  0.48145181982E+03  0.90234002000E+02 0.  0.
          4    1    3    3  502    0  0.13384872714E+03  0.32735834592E+03  0.20233878989E+03  0.40745546296E+03  0.00000000000E+00 0. -1.
         -3    1    3    3    0  502  0.40188131679E+03  0.13742694083E+04  0.74804334756E+03  0.16154546880E+04  0.00000000000E+00 0.  1.
         11    1    5    5    0    0 -0.12607494707E+03 -0.30013950129E+03 -0.15142008196E+03  0.35903572765E+03  0.00000000000E+00 0. -1.
        -11    1    5    5    0    0 -0.49593728352E+03 -0.12378090408E+04 -0.42600561563E+03  0.13998592055E+04  0.00000000000E+00 0.  1.
          1    1    6    6  503    0  0.23788170063E+01 -0.99193773821E+02 -0.18927712061E+03  0.21370749150E+03  0.00000000000E+00 0. -1.
         -1    1    6    6    0  503  0.83903369654E+02 -0.64485438262E+02 -0.24594486813E+03  0.26774432832E+03  0.00000000000E+00 0.  1.
<mgrwt>
<rscale>  0 0.42628022E+04</rscale>
<asrwt>0</asrwt>
<pdfrwt beam="1">  1        2 0.33273250E+00 0.42628022E+04</pdfrwt>
<pdfrwt beam="2">  1       -1 0.32315318E+00 0.42628022E+04</pdfrwt>
<totfact> 0.11112496E-01</totfact>
</mgrwt>
</event>
<event>
12    6  0.8914180E-008  0.1652249E+04  0.7818608E-02  0.8789077E-01
          2   -1    0    0  501    0  0.00000000000E+00  0.00000000000E+00  0.30879513148E+03  0.30879513148E+03  0.00000000000E+00 0. -1.
         -1   -1    0    0    0  501 -0.00000000000E+00 -0.00000000000E+00 -0.22101426772E+04  0.22101426772E+04  0.00000000000E+00 0.  1.
         24    2    1    2    0    0 -0.37608319088E+03 -0.15503226584E+03 -0.30272289467E+02  0.41553360236E+03  0.79235050708E+02 0.  0.
        254    2    1    2    0    0  0.37608319088E+03  0.15503226584E+03 -0.18710752563E+04  0.21034042063E+04  0.87058202988E+03 0.  0.
         23    2    4    4    0    0  0.20267915135E+01 -0.29381578898E+02 -0.15876333211E+04  0.15905800614E+04  0.92184512951E+02 0.  0.
         23    2    4    4    0    0  0.37405639937E+03  0.18441384474E+03 -0.28344193518E+03  0.51282414495E+03  0.93394951586E+02 0.  0.
          4    1    3    3  502    0 -0.25717101765E+03 -0.66274781332E+02 -0.28913205209E+02  0.26714275658E+03  0.00000000000E+00 0. -1.
         -3    1    3    3    0  502 -0.11891217324E+03 -0.88757484506E+02 -0.13590842581E+01  0.14839084578E+03  0.00000000000E+00 0.  1.
         11    1    5    5    0    0  0.19331894713E+02  0.10467878992E+02 -0.12461924586E+04  0.12463863537E+04  0.00000000000E+00 0. -1.
        -11    1    5    5    0    0 -0.17305103200E+02 -0.39849457890E+02 -0.34144086246E+03  0.34419370774E+03  0.00000000000E+00 0.  1.
          1    1    6    6  503    0  0.56669750697E+02 -0.62730608885E+01 -0.41536047999E+02  0.70541159760E+02  0.00000000000E+00 0. -1.
         -1    1    6    6    0  503  0.31738664867E+03  0.19068690562E+03 -0.24190588718E+03  0.44228298518E+03  0.00000000000E+00 0.  1.
<mgrwt>
<rscale>  0 0.16522485E+04</rscale>
<asrwt>0</asrwt>
<pdfrwt beam="1">  1        2 0.47506943E-01 0.16522485E+04</pdfrwt>
<pdfrwt beam="2">  1       -1 0.34002195E+00 0.16522485E+04</pdfrwt>
<totfact> 0.21086842E+00</totfact>
</mgrwt>
</event>
<event>
12    6  0.8914180E-008  0.1723589E+04  0.7818608E-02  0.8748024E-01
         -1   -1    0    0    0  501 -0.00000000000E+00  0.00000000000E+00  0.84461962010E+03  0.84461962010E+03  0.00000000000E+00 0.  1.
          2   -1    0    0  501    0  0.00000000000E+00 -0.00000000000E+00 -0.87931876724E+03  0.87931876724E+03  0.00000000000E+00 0. -1.
         24    2    1    2    0    0 -0.31208940116E+03 -0.32773121509E+03  0.41866797996E+03  0.62160335582E+03  0.79374497548E+02 0.  0.
        254    2    1    2    0    0  0.31208940116E+03  0.32773121509E+03 -0.45336712709E+03  0.11023350315E+04  0.89710268428E+03 0.  0.
         23    2    4    4    0    0  0.36440762002E+03 -0.22369773848E+03 -0.13882135685E+03  0.45881428716E+03  0.91682000686E+02 0.  0.
         23    2    4    4    0    0 -0.52318218855E+02  0.55142895357E+03 -0.31454577024E+03  0.64352074437E+03  0.91481254910E+02 0.  0.
          4    1    3    3  502    0 -0.64587185081E+02 -0.85877067432E+02  0.14468296129E+03  0.18022079368E+03  0.00000000000E+00 0. -1.
         -3    1    3    3    0  502 -0.24750221608E+03 -0.24185414766E+03  0.27398501867E+03  0.44138256214E+03  0.00000000000E+00 0.  1.
         11    1    5    5    0    0  0.28371618292E+03 -0.14673278965E+03 -0.13628706296E+03  0.34727445564E+03  0.00000000000E+00 0.  1.
        -11    1    5    5    0    0  0.80691437101E+02 -0.76964948828E+02 -0.25342938974E+01  0.11153983152E+03  0.00000000000E+00 0. -1.
          2    1    6    6  503    0  0.13141530137E+02  0.33455850930E+03 -0.18306208607E+03  0.38159379360E+03  0.00000000000E+00 0. -1.
         -2    1    6    6    0  503 -0.65459748992E+02  0.21687044427E+03 -0.13148368417E+03  0.26192695077E+03  0.00000000000E+00 0.  1.
<mgrwt>
<rscale>  0 0.17235891E+04</rscale>
<asrwt>0</asrwt>
<pdfrwt beam="1">  1        2 0.13527981E+00 0.17235891E+04</pdfrwt>
<pdfrwt beam="2">  1       -1 0.12994148E+00 0.17235891E+04</pdfrwt>
<totfact> 0.16672873E+01</totfact>
</mgrwt>
</event>
<event>
12    6  0.8914180E-008  0.1396175E+04  0.7818608E-02  0.8956592E-01
          2   -1    0    0  501    0  0.00000000000E+00  0.00000000000E+00  0.15850882939E+04  0.15850882939E+04  0.00000000000E+00 0. -1.
         -1   -1    0    0    0  501 -0.00000000000E+00 -0.00000000000E+00 -0.30744406450E+03  0.30744406450E+03  0.00000000000E+00 0.  1.
         24    2    1    2    0    0 -0.53902704929E+02  0.38469432263E+03  0.24099547525E+03  0.46391754127E+03  0.79028112379E+02 0.  0.
        254    2    1    2    0    0  0.53902704929E+02 -0.38469432263E+03  0.10366487542E+04  0.14286148171E+04  0.90299747108E+03 0.  0.
         23    2    4    4    0    0  0.10964665343E+03 -0.19949785448E+03 -0.10526172015E+03  0.26706391596E+03  0.91767766292E+02 0.  0.
         23    2    4    4    0    0 -0.55743948500E+02 -0.18519646815E+03  0.11419104743E+04  0.11615509012E+04  0.88520308843E+02 0.  0.
          2    1    3    3  502    0 -0.25322224054E+02  0.26659800287E+03  0.12353169259E+03  0.29491658014E+03  0.00000000000E+00 0. -1.
         -1    1    3    3    0  502 -0.28580480875E+02  0.11809631976E+03  0.11746378266E+03  0.16900096114E+03  0.00000000000E+00 0.  1.
         11    1    5    5    0    0  0.98662880839E+01 -0.71491151055E+02  0.25559671391E+01  0.72213996481E+02  0.00000000000E+00 0. -1.
        -11    1    5    5    0    0  0.99780365346E+02 -0.12800670343E+03 -0.10781768728E+03  0.19484991948E+03  0.00000000000E+00 0.  1.
          1    1    6    6  503    0 -0.40127176711E+02 -0.34297515139E+02  0.45711607338E+03  0.46015390294E+03  0.00000000000E+00 0. -1.
         -1    1    6    6    0  503 -0.15616771790E+02 -0.15089895301E+03  0.68479440094E+03  0.70139699824E+03  0.00000000000E+00 0.  1.
<mgrwt>
<rscale>  0 0.13961748E+04</rscale>
<asrwt>0</asrwt>
<pdfrwt beam="1">  1        2 0.24385973E+00 0.13961748E+04</pdfrwt>
<pdfrwt beam="2">  1       -1 0.47299088E-01 0.13961748E+04</pdfrwt>
<totfact> 0.56233974E+01</totfact>
</mgrwt>
</event>
<event>
12    6  0.8914180E-008  0.1913669E+04  0.7818608E-02  0.8648082E-01
          2   -1    0    0  501    0  0.00000000000E+00  0.00000000000E+00  0.91939969999E+03  0.91939969999E+03  0.00000000000E+00 0. -1.
         -1   -1    0    0    0  501 -0.00000000000E+00 -0.00000000000E+00 -0.99579308563E+03  0.99579308563E+03  0.00000000000E+00 0.  1.
         24    2    1    2    0    0  0.67988636717E+03 -0.22566513623E+03  0.18812311774E+03  0.74435072507E+03  0.74144915588E+02 0.  0.
        254    2    1    2    0    0 -0.67988636717E+03  0.22566513623E+03 -0.26451650338E+03  0.11708420606E+04  0.88754263235E+03 0.  0.
         23    2    4    4    0    0 -0.34436926069E+03  0.53527337324E+03 -0.16560082173E+02  0.64321302649E+03  0.91329016859E+02 0.  0.
         23    2    4    4    0    0 -0.33551710647E+03 -0.30960823701E+03 -0.24795642121E+03  0.52762903406E+03  0.92092462291E+02 0.  0.
          2    1    3    3  502    0  0.52041893520E+03 -0.14611034557E+03  0.12099411837E+03  0.55391667052E+03  0.00000000000E+00 0. -1.
         -1    1    3    3    0  502  0.15946743196E+03 -0.79554790659E+02  0.67128999368E+02  0.19043405454E+03  0.00000000000E+00 0.  1.
         11    1    5    5    0    0 -0.26377605429E+03  0.33501910621E+03 -0.25542394024E+02  0.42716275848E+03  0.00000000000E+00 0.  1.
        -11    1    5    5    0    0 -0.80593206409E+02  0.20025426703E+03  0.89823118516E+01  0.21605026801E+03  0.00000000000E+00 0. -1.
          3    1    6    6  503    0 -0.21180628646E+02 -0.11762181206E+02  0.68651385825E+01  0.25181303865E+02  0.00000000000E+00 0. -1.
         -3    1    6    6    0  503 -0.31433647783E+03 -0.29784605580E+03 -0.25482155979E+03  0.50244773020E+03  0.00000000000E+00 0.  1.
<mgrwt>
<rscale>  0 0.19136686E+04</rscale>
<asrwt>0</asrwt>
<pdfrwt beam="1">  1        2 0.14144611E+00 0.19136686E+04</pdfrwt>
<pdfrwt beam="2">  1       -1 0.15319894E+00 0.19136686E+04</pdfrwt>
<totfact> 0.10007435E+01</totfact>
</mgrwt>
</event>
<event>
12    6  0.8914180E-008  0.1140562E+04  0.7818608E-02  0.9166535E-01
          2   -1    0    0  501    0  0.00000000000E+00  0.00000000000E+00  0.44844353862E+03  0.44844353862E+03  0.00000000000E+00 0. -1.
         -1   -1    0    0    0  501 -0.00000000000E+00 -0.00000000000E+00 -0.72522044747E+03  0.72522044747E+03  0.00000000000E+00 0.  1.
         24    2    1    2    0    0  0.10170647999E+03 -0.95677409161E+02 -0.20048442038E+03  0.25697739789E+03  0.79655542915E+02 0.  0.
        254    2    1    2    0    0 -0.10170647999E+03  0.95677409161E+02 -0.76292488472E+02  0.91668658820E+03  0.90277094686E+03 0.  0.
         23    2    4    4    0    0  0.24651678480E+02 -0.10575320272E+03  0.37374611964E+03  0.39997368385E+03  0.92202715193E+02 0.  0.
         23    2    4    4    0    0 -0.12635815847E+03  0.20143061188E+03 -0.45003860811E+03  0.51671290436E+03  0.88976407684E+02 0.  0.
          2    1    3    3  502    0  0.74627904014E+02 -0.31772502041E+02 -0.62063039164E+02  0.10213048895E+03  0.00000000000E+00 0. -1.
         -1    1    3    3    0  502  0.27078575979E+02 -0.63904907119E+02 -0.13842138122E+03  0.15484690894E+03  0.00000000000E+00 0.  1.
         11    1    5    5    0    0  0.49833723864E+02 -0.32535990618E+02  0.10963215419E+03  0.12474453877E+03  0.00000000000E+00 0.  1.
        -11    1    5    5    0    0 -0.25182045384E+02 -0.73217212103E+02  0.26411396545E+03  0.27522914508E+03  0.00000000000E+00 0. -1.
          2    1    6    6  503    0 -0.11130272256E+03  0.19660056325E+03 -0.35799253824E+03  0.42331871557E+03  0.00000000000E+00 0. -1.
         -2    1    6    6    0  503 -0.15055435913E+02  0.48300486350E+01 -0.92046069871E+02  0.93394188786E+02  0.00000000000E+00 0.  1.
<mgrwt>
<rscale>  0 0.11405620E+04</rscale>
<asrwt>0</asrwt>
<pdfrwt beam="1">  1        2 0.68991314E-01 0.11405620E+04</pdfrwt>
<pdfrwt beam="2">  1       -1 0.11157238E+00 0.11405620E+04</pdfrwt>
<totfact> 0.58413722E+01</totfact>
</mgrwt>
</event>
<event>
12    6  0.8914180E-008  0.3546219E+04  0.7818608E-02  0.8102923E-01
         -1   -1    0    0    0  501 -0.00000000000E+00  0.00000000000E+00  0.98884766114E+03  0.98884766114E+03  0.00000000000E+00 0.  1.
          2   -1    0    0  501    0  0.00000000000E+00 -0.00000000000E+00 -0.31793751811E+04  0.31793751811E+04  0.00000000000E+00 0. -1.
         24    2    1    2    0    0  0.12463211169E+03  0.15349370600E+04 -0.17493200977E+04  0.23319557527E+04  0.79573152222E+02 0.  0.
        254    2    1    2    0    0 -0.12463211169E+03 -0.15349370600E+04 -0.44120742224E+03  0.18362670896E+04  0.89757890648E+03 0.  0.
         23    2    4    4    0    0  0.36209796108E+03 -0.75202023586E+03 -0.87369783967E+02  0.84432984603E+03  0.92790307561E+02 0.  0.
         23    2    4    4    0    0 -0.48673007277E+03 -0.78291682416E+03 -0.35383763827E+03  0.99193724356E+03  0.94199276036E+02 0.  0.
          4    1    3    3  502    0  0.78271943314E+02  0.65630986129E+03 -0.70446035123E+03  0.96598836308E+03  0.00000000000E+00 0. -1.
         -3    1    3    3    0  502  0.46360168381E+02  0.87862719873E+03 -0.10448597465E+04  0.13659673896E+04  0.00000000000E+00 0.  1.
         11    1    5    5    0    0  0.90896438352E+02 -0.28328785887E+03 -0.13948145194E+02  0.29784009845E+03  0.00000000000E+00 0.  1.
        -11    1    5    5    0    0  0.27120152273E+03 -0.46873237699E+03 -0.73421638773E+02  0.54648974758E+03  0.00000000000E+00 0. -1.
          4    1    6    6  503    0 -0.44220227077E+03 -0.64875867035E+03 -0.29246773480E+03  0.83783532781E+03  0.00000000000E+00 0. -1.
         -4    1    6    6    0  503 -0.44527802001E+02 -0.13415815381E+03 -0.61369903472E+02  0.15410191574E+03  0.00000000000E+00 0.  1.
<mgrwt>
<rscale>  0 0.35462192E+04</rscale>
<asrwt>0</asrwt>
<pdfrwt beam="1">  1        2 0.48913465E+00 0.35462192E+04</pdfrwt>
<pdfrwt beam="2">  1       -1 0.15213041E+00 0.35462192E+04</pdfrwt>
<totfact> 0.41706777E-01</totfact>
</mgrwt>
</event>
<event>
12    6  0.8914180E-008  0.1140424E+04  0.7818608E-02  0.9166664E-01
         -1   -1    0    0    0  501 -0.00000000000E+00  0.00000000000E+00  0.55978787018E+03  0.55978787018E+03  0.00000000000E+00 0.  1.
          2   -1    0    0  501    0  0.00000000000E+00 -0.00000000000E+00 -0.58083006365E+03  0.58083006365E+03  0.00000000000E+00 0. -1.
         24    2    1    2    0    0  0.29821725354E+02  0.10142388941E+03 -0.18140199825E+03  0.22398230518E+03  0.78007995864E+02 0.  0.
        254    2    1    2    0    0 -0.29821725354E+02 -0.10142388941E+03  0.16035980478E+03  0.91663562865E+03  0.89628648772E+03 0.  0.
         23    2    4    4    0    0  0.12437724187E+03 -0.19677117998E+03  0.47836783271E+03  0.53949833552E+03  0.89633002226E+02 0.  0.
         23    2    4    4    0    0 -0.15419896722E+03  0.95347290570E+02 -0.31800802793E+03  0.37713729313E+03  0.90746926828E+02 0.  0.
          4    1    3    3  502    0 -0.13692082375E+01  0.59800963813E+02 -0.15396500820E+03  0.16517643220E+03  0.00000000000E+00 0. -1.
         -3    1    3    3    0  502  0.31190933591E+02  0.41622925601E+02 -0.27436990042E+02  0.58805872976E+02  0.00000000000E+00 0.  1.
         11    1    5    5    0    0  0.13570303398E+03 -0.19551055077E+03  0.45397466509E+03  0.51257456574E+03  0.00000000000E+00 0.  1.
        -11    1    5    5    0    0 -0.11325792108E+02 -0.12606292131E+01  0.24393167618E+02  0.26923769783E+02  0.00000000000E+00 0. -1.
          3    1    6    6  503    0  0.11588313951E+02  0.76827910754E+01 -0.12700284749E+02  0.18831131980E+02  0.00000000000E+00 0. -1.
         -3    1    6    6    0  503 -0.16578728117E+03  0.87664499495E+02 -0.30530774318E+03  0.35830616115E+03  0.00000000000E+00 0.  1.
<mgrwt>
<rscale>  0 0.11404238E+04</rscale>
<asrwt>0</asrwt>
<pdfrwt beam="1">  1        2 0.89358472E-01 0.11404238E+04</pdfrwt>
<pdfrwt beam="2">  1       -1 0.86121210E-01 0.11404238E+04</pdfrwt>
<totfact> 0.77738905E+01</totfact>
</mgrwt>
</event>
<event>
12    6  0.8914180E-008  0.2405275E+04  0.7818608E-02  0.8437531E-01
         -3   -1    0    0    0  501 -0.00000000000E+00  0.00000000000E+00  0.56002008643E+03  0.56002008643E+03  0.00000000000E+00 0.  1.
          2   -1    0    0  501    0  0.00000000000E+00 -0.00000000000E+00 -0.25826518831E+04  0.25826518831E+04  0.00000000000E+00 0. -1.
         24    2    1    2    0    0 -0.65766731855E+03 -0.78393061102E+03 -0.68555821455E+03  0.12336106572E+04  0.68787232032E+02 0.  0.
        254    2    1    2    0    0  0.65766731855E+03  0.78393061102E+03 -0.13370735821E+04  0.19090613123E+04  0.89981988497E+03 0.  0.
         23    2    4    4    0    0  0.46626561311E+01  0.34476893157E+03 -0.97387148099E+03  0.10372335200E+04  0.92414052300E+02 0.  0.
         23    2    4    4    0    0  0.65300466242E+03  0.43916167945E+03 -0.36320210112E+03  0.87182779227E+03  0.94286071527E+02 0.  0.
          4    1    3    3  502    0 -0.39475790759E+02 -0.43942489276E+02 -0.21618436972E+02  0.62901806309E+02  0.00000000000E+00 0. -1.
         -3    1    3    3    0  502 -0.61819152779E+03 -0.73998812174E+03 -0.66393977757E+03  0.11707088509E+04  0.00000000000E+00 0.  1.
         11    1    5    5    0    0 -0.43375689887E+02  0.14628920355E+03 -0.40046120334E+03  0.42854539658E+03  0.00000000000E+00 0. -1.
        -11    1    5    5    0    0  0.48038346018E+02  0.19847972802E+03 -0.57341027765E+03  0.60868812345E+03  0.00000000000E+00 0.  1.
          1    1    6    6  503    0  0.43225886310E+03  0.27426267283E+03 -0.28257921068E+03  0.58473818821E+03  0.00000000000E+00 0. -1.
         -1    1    6    6    0  503  0.22074579932E+03  0.16489900661E+03 -0.80622890437E+02  0.28708960407E+03  0.00000000000E+00 0.  1.
<mgrwt>
<rscale>  0 0.24052750E+04</rscale>
<asrwt>0</asrwt>
<pdfrwt beam="1">  1        2 0.39733106E+00 0.24052750E+04</pdfrwt>
<pdfrwt beam="2">  1       -3 0.86156936E-01 0.24052750E+04</pdfrwt>
<totfact> 0.22072969E+00</totfact>
</mgrwt>
</event>
<event>
12    6  0.8914180E-008  0.2040786E+04  0.7818608E-02  0.8587786E-01
         -1   -1    0    0    0  501 -0.00000000000E+00  0.00000000000E+00  0.13826021446E+04  0.13826021446E+04  0.00000000000E+00 0.  1.
          2   -1    0    0  501    0  0.00000000000E+00 -0.00000000000E+00 -0.75307386599E+03  0.75307386599E+03  0.00000000000E+00 0. -1.
         24    2    1    2    0    0 -0.62110419339E+03  0.45759639231E+03 -0.35624529168E+02  0.77674353582E+03  0.83045385503E+02 0.  0.
        254    2    1    2    0    0  0.62110419339E+03 -0.45759639231E+03  0.66515280780E+03  0.13589324748E+04  0.89950227128E+03 0.  0.
         23    2    4    4    0    0  0.59164552014E+03 -0.69983824430E+03  0.56182402308E+03  0.10785507085E+04  0.88359539742E+02 0.  0.
         23    2    4    4    0    0  0.29458673247E+02  0.24224185199E+03  0.10332878472E+03  0.28038176627E+03  0.91586946793E+02 0.  0.
          2    1    3    3  502    0 -0.21603699966E+03  0.13002190498E+03  0.19446834410E+02  0.25289495916E+03  0.00000000000E+00 0. -1.
         -1    1    3    3    0  502 -0.40506719373E+03  0.32757448733E+03 -0.55071363578E+02  0.52384857666E+03  0.00000000000E+00 0.  1.
         11    1    5    5    0    0  0.35734461089E+03 -0.42468544072E+03  0.28914373164E+03  0.62582504907E+03  0.00000000000E+00 0. -1.
        -11    1    5    5    0    0  0.23430090925E+03 -0.27515280358E+03  0.27268029144E+03  0.45272565946E+03  0.00000000000E+00 0.  1.
          4    1    6    6  503    0  0.60946597606E+01  0.18468631933E+03  0.11433313251E+03  0.21729759919E+03  0.00000000000E+00 0. -1.
         -4    1    6    6    0  503  0.23364013487E+02  0.57555532659E+02 -0.11004347793E+02  0.63084167080E+02  0.00000000000E+00 0.  1.
<mgrwt>
<rscale>  0 0.20407857E+04</rscale>
<asrwt>0</asrwt>
<pdfrwt beam="1">  1        2 0.11585752E+00 0.20407857E+04</pdfrwt>
<pdfrwt beam="2">  1       -1 0.21270802E+00 0.20407857E+04</pdfrwt>
<totfact> 0.48576270E+00</totfact>
</mgrwt>
</event>
<event>
12    6  0.8914180E-008  0.2015701E+04  0.7818608E-02  0.8599315E-01
         -1   -1    0    0    0  501 -0.00000000000E+00  0.00000000000E+00  0.12957372573E+04  0.12957372573E+04  0.00000000000E+00 0.  1.
          2   -1    0    0  501    0  0.00000000000E+00 -0.00000000000E+00 -0.78392648833E+03  0.78392648833E+03  0.00000000000E+00 0. -1.
         24    2    1    2    0    0  0.16266047357E+03  0.77851299386E+03  0.75018231119E+02  0.80281061974E+03  0.79600533289E+02 0.  0.
        254    2    1    2    0    0 -0.16266047357E+03 -0.77851299386E+03  0.43679253781E+03  0.12768531258E+04  0.89834585357E+03 0.  0.
         23    2    4    4    0    0  0.20275877312E+03 -0.65312604349E+02 -0.15360138893E+03  0.27738693397E+03  0.89293158123E+02 0.  0.
         23    2    4    4    0    0 -0.36541924669E+03 -0.71320038951E+03  0.59039392674E+03  0.99946619188E+03  0.90452520849E+02 0.  0.
          2    1    3    3  502    0  0.10646772550E+03  0.60088728797E+03  0.85534332176E+02  0.61621183971E+03  0.00000000000E+00 0. -1.
         -1    1    3    3    0  502  0.56192748066E+02  0.17762570589E+03 -0.10516101057E+02  0.18659878004E+03  0.00000000000E+00 0.  1.
         11    1    5    5    0    0  0.10004210954E+03  0.13182562530E+02 -0.78802487549E+02  0.12803138553E+03  0.00000000000E+00 0.  1.
        -11    1    5    5    0    0  0.10271666358E+03 -0.78495166879E+02 -0.74798901383E+02  0.14935554844E+03  0.00000000000E+00 0. -1.
          2    1    6    6  503    0 -0.36134570138E+03 -0.67643645974E+03  0.54459563667E+03  0.94059630419E+03  0.00000000000E+00 0.  1.
         -2    1    6    6    0  503 -0.40735453115E+01 -0.36763929774E+02  0.45798290069E+02  0.58869887694E+02  0.00000000000E+00 0. -1.
<mgrwt>
<rscale>  0 0.20157011E+04</rscale>
<asrwt>0</asrwt>
<pdfrwt beam="1">  1        2 0.12060408E+00 0.20157011E+04</pdfrwt>
<pdfrwt beam="2">  1       -1 0.19934419E+00 0.20157011E+04</pdfrwt>
<totfact> 0.56985590E+00</totfact>
</mgrwt>
</event>
<event>
12    6  0.8914180E-008  0.1657082E+04  0.7818608E-02  0.8786228E-01
         -1   -1    0    0    0  501 -0.00000000000E+00  0.00000000000E+00  0.77803584071E+03  0.77803584071E+03  0.00000000000E+00 0.  1.
          2   -1    0    0  501    0  0.00000000000E+00 -0.00000000000E+00 -0.88232478465E+03  0.88232478465E+03  0.00000000000E+00 0. -1.
         24    2    1    2    0    0  0.17696721847E+03 -0.47823601689E+03 -0.31600490234E+03  0.60521984931E+03  0.80030515667E+02 0.  0.
        254    2    1    2    0    0 -0.17696721847E+03  0.47823601689E+03  0.21171595840E+03  0.10551407761E+04  0.89915033559E+03 0.  0.
         23    2    4    4    0    0  0.10438156505E+03  0.48269283681E+03 -0.20663774660E+03  0.54285018242E+03  0.89995979908E+02 0.  0.
         23    2    4    4    0    0 -0.28134878352E+03 -0.44568199286E+01  0.41835370500E+03  0.51229059363E+03  0.90801038578E+02 0.  0.
          4    1    3    3  502    0  0.31788554936E+02 -0.37350752785E+02 -0.12454850539E+02  0.50603500476E+02  0.00000000000E+00 0. -1.
         -3    1    3    3    0  502  0.14517866354E+03 -0.44088526410E+03 -0.30355005180E+03  0.55461634883E+03  0.00000000000E+00 0.  1.
         11    1    5    5    0    0  0.11790772533E+02  0.75201089263E+02 -0.69414553597E+02  0.10301750528E+03  0.00000000000E+00 0.  1.
        -11    1    5    5    0    0  0.92590792515E+02  0.40749174755E+03 -0.13722319300E+03  0.43983267714E+03  0.00000000000E+00 0. -1.
          2    1    6    6  503    0 -0.10399705899E+03 -0.47673149892E+01  0.83831965400E+02  0.13366343551E+03  0.00000000000E+00 0. -1.
         -2    1    6    6    0  503 -0.17735172453E+03  0.31049506066E+00  0.33452173960E+03  0.37862715812E+03  0.00000000000E+00 0.  1.
<mgrwt>
<rscale>  0 0.16570821E+04</rscale>
<asrwt>0</asrwt>
<pdfrwt beam="1">  1        2 0.13574227E+00 0.16570821E+04</pdfrwt>
<pdfrwt beam="2">  1       -1 0.11969782E+00 0.16570821E+04</pdfrwt>
<totfact> 0.20466583E+01</totfact>
</mgrwt>
</event>
<event>
12    6  0.8914180E-008  0.1508347E+04  0.7818608E-02  0.8878921E-01
          2   -1    0    0  501    0  0.00000000000E+00  0.00000000000E+00  0.13318967730E+04  0.13318967730E+04  0.00000000000E+00 0. -1.
         -1   -1    0    0    0  501 -0.00000000000E+00 -0.00000000000E+00 -0.42704342526E+03  0.42704342526E+03  0.00000000000E+00 0.  1.
         24    2    1    2    0    0 -0.26656451908E+03  0.16575817788E+02  0.76085357371E+03  0.81051405058E+03  0.81874690743E+02 0.  0.
        254    2    1    2    0    0  0.26656451908E+03 -0.16575817788E+02  0.14399977406E+03  0.94842614772E+03  0.89857933550E+03 0.  0.
         23    2    4    4    0    0  0.15148374082E+03  0.22133397793E+03 -0.30685065284E+03  0.41781585932E+03  0.92069080752E+02 0.  0.
         23    2    4    4    0    0  0.11508077826E+03 -0.23790979572E+03  0.45085042690E+03  0.53061028840E+03  0.91850499760E+02 0.  0.
          4    1    3    3  502    0 -0.19924070031E+03  0.14036442588E+02  0.65727120699E+03  0.68694928336E+03  0.00000000000E+00 0. -1.
         -3    1    3    3    0  502 -0.67323818767E+02  0.25393752002E+01  0.10358236673E+03  0.12356476721E+03  0.00000000000E+00 0.  1.
         11    1    5    5    0    0  0.10457909424E+03  0.13576729831E+03 -0.25521891190E+03  0.30741867093E+03  0.00000000000E+00 0.  1.
        -11    1    5    5    0    0  0.46904646581E+02  0.85566679619E+02 -0.51631740933E+02  0.11039718839E+03  0.00000000000E+00 0. -1.
          4    1    6    6  503    0  0.18162229084E+02 -0.30328638975E+01  0.80672560381E+01  0.20103369089E+02  0.00000000000E+00 0. -1.
         -4    1    6    6    0  503  0.96918549172E+02 -0.23487693182E+03  0.44278317086E+03  0.51050691932E+03  0.00000000000E+00 0.  1.
<mgrwt>
<rscale>  0 0.15083471E+04</rscale>
<asrwt>0</asrwt>
<pdfrwt beam="1">  1        2 0.20490719E+00 0.15083471E+04</pdfrwt>
<pdfrwt beam="2">  1       -1 0.65698989E-01 0.15083471E+04</pdfrwt>
<totfact> 0.40940944E+01</totfact>
</mgrwt>
</event>
<event>
12    6  0.8914180E-008  0.1904842E+04  0.7818608E-02  0.8652450E-01
          2   -1    0    0  501    0  0.00000000000E+00  0.00000000000E+00  0.22019106336E+04  0.22019106336E+04  0.00000000000E+00 0. -1.
         -1   -1    0    0    0  501 -0.00000000000E+00 -0.00000000000E+00 -0.41196284026E+03  0.41196284026E+03  0.00000000000E+00 0.  1.
         24    2    1    2    0    0  0.17436389893E+03 -0.70461645365E+03  0.51121669353E+03  0.89135231325E+03  0.79242176793E+02 0.  0.
        254    2    1    2    0    0 -0.17436389893E+03  0.70461645365E+03  0.12787310998E+04  0.17225211606E+04  0.89723954836E+03 0.  0.
         23    2    4    4    0    0 -0.38159488502E+03  0.64355671292E+03  0.12835456747E+04  0.14884583648E+04  0.90768417275E+02 0.  0.
         23    2    4    4    0    0  0.20723098609E+03  0.61059740733E+02 -0.48145749148E+01  0.23406279583E+03  0.89940195287E+02 0.  0.
          4    1    3    3  502    0  0.90628303571E+02 -0.23612663651E+03  0.15192795143E+03  0.29504470899E+03  0.00000000000E+00 0. -1.
         -3    1    3    3    0  502  0.83735595359E+02 -0.46848981714E+03  0.35928874210E+03  0.59630760426E+03  0.00000000000E+00 0.  1.
         11    1    5    5    0    0 -0.29209890910E+03  0.46687613809E+03  0.10149590992E+04  0.11547454586E+04  0.00000000000E+00 0.  1.
        -11    1    5    5    0    0 -0.89495975915E+02  0.17668057483E+03  0.26858657551E+03  0.33371290621E+03  0.00000000000E+00 0. -1.
          1    1    6    6  503    0 -0.28137416062E+01  0.11910782052E+02 -0.13433173366E+02  0.18172342106E+02  0.00000000000E+00 0. -1.
         -1    1    6    6    0  503  0.21004472769E+03  0.49148958681E+02  0.86185984515E+01  0.21589045373E+03  0.00000000000E+00 0.  1.
<mgrwt>
<rscale>  0 0.19048416E+04</rscale>
<asrwt>0</asrwt>
<pdfrwt beam="1">  1        2 0.33875547E+00 0.19048416E+04</pdfrwt>
<pdfrwt beam="2">  1       -1 0.63378900E-01 0.19048416E+04</pdfrwt>
<totfact> 0.13865501E+01</totfact>
</mgrwt>
</event>
<event>
12    6  0.8914180E-008  0.2746433E+04  0.7818608E-02  0.8320094E-01
          2   -1    0    0  501    0  0.00000000000E+00  0.00000000000E+00  0.25164214114E+04  0.25164214114E+04  0.00000000000E+00 0. -1.
         -1   -1    0    0    0  501 -0.00000000000E+00 -0.00000000000E+00 -0.74936738060E+03  0.74936738060E+03  0.00000000000E+00 0.  1.
         24    2    1    2    0    0 -0.11801430468E+04  0.27884517876E+03  0.59899152030E+03  0.13549731563E+04  0.81664976181E+02 0.  0.
        254    2    1    2    0    0  0.11801430468E+04 -0.27884517876E+03  0.11680625105E+04  0.19108156357E+04  0.90352317096E+03 0.  0.
         23    2    4    4    0    0  0.10269511160E+04 -0.10493191237E+03  0.12723231650E+04  0.16408239003E+04  0.88642736253E+02 0.  0.
         23    2    4    4    0    0  0.15319193075E+03 -0.17391326639E+03 -0.10426065453E+03  0.26999173533E+03  0.91168312417E+02 0.  0.
          4    1    3    3  502    0 -0.55080004862E+03  0.17081334063E+03  0.29519646867E+03  0.64784168283E+03  0.00000000000E+00 0. -1.
         -3    1    3    3    0  502 -0.62934299818E+03  0.10803183813E+03  0.30379505163E+03  0.70713147349E+03  0.00000000000E+00 0.  1.
         11    1    5    5    0    0  0.27578135033E+03 -0.67841362926E+02  0.34574114052E+03  0.44743126842E+03  0.00000000000E+00 0.  1.
        -11    1    5    5    0    0  0.75116976572E+03 -0.37090549443E+02  0.92658202449E+03  0.11933926319E+04  0.00000000000E+00 0. -1.
          1    1    6    6  503    0  0.13415646390E+03 -0.18343423661E+03 -0.90315784617E+02  0.24454655368E+03  0.00000000000E+00 0. -1.
         -1    1    6    6    0  503  0.19035466852E+02  0.95209702193E+01 -0.13944869912E+02  0.25445181647E+02  0.00000000000E+00 0.  1.
<mgrwt>
<rscale>  0 0.27464334E+04</rscale>
<asrwt>0</asrwt>
<pdfrwt beam="1">  1        2 0.38714175E+00 0.27464334E+04</pdfrwt>
<pdfrwt beam="2">  1       -1 0.11528729E+00 0.27464334E+04</pdfrwt>
<totfact> 0.23082127E+00</totfact>
</mgrwt>
</event>
<event>
12    6  0.8914180E-008  0.1716009E+04  0.7818608E-02  0.8752286E-01
         -1   -1    0    0    0  501 -0.00000000000E+00  0.00000000000E+00  0.32354415692E+03  0.32354415692E+03  0.00000000000E+00 0.  1.
          2   -1    0    0  501    0  0.00000000000E+00 -0.00000000000E+00 -0.22753353553E+04  0.22753353553E+04  0.00000000000E+00 0. -1.
         24    2    1    2    0    0 -0.51126391706E+03  0.32351570121E+03 -0.86395041315E+03  0.10577337847E+04  0.79606790331E+02 0.  0.
        254    2    1    2    0    0  0.51126391706E+03 -0.32351570121E+03 -0.10878407853E+04  0.15411457276E+04  0.90866901439E+03 0.  0.
         23    2    4    4    0    0 -0.17004826306E+03  0.10819985003E+03 -0.47712861608E+03  0.52552800596E+03  0.88906408377E+02 0.  0.
         23    2    4    4    0    0  0.68131218012E+03 -0.43171555123E+03 -0.61071216920E+03  0.10156177216E+04  0.89136967154E+02 0.  0.
          4    1    3    3  502    0 -0.84351990795E+02  0.51697936550E+02 -0.94877650477E+02  0.13707553959E+03  0.00000000000E+00 0. -1.
         -3    1    3    3    0  502 -0.42691192626E+03  0.27181776466E+03 -0.76907276267E+03  0.92065824509E+03  0.00000000000E+00 0.  1.
         11    1    5    5    0    0 -0.76900994100E+00  0.32001865973E+01 -0.90866607494E+02  0.90926194949E+02  0.00000000000E+00 0. -1.
        -11    1    5    5    0    0 -0.16927925312E+03  0.10499966343E+03 -0.38626200858E+03  0.43460181101E+03  0.00000000000E+00 0.  1.
          1    1    6    6  503    0  0.18100029636E+03 -0.13570302842E+03 -0.21733642939E+03  0.31370614075E+03  0.00000000000E+00 0. -1.
         -1    1    6    6    0  503  0.50031188376E+03 -0.29601252282E+03 -0.39337573981E+03  0.70191158087E+03  0.00000000000E+00 0.  1.
<mgrwt>
<rscale>  0 0.17160087E+04</rscale>
<asrwt>0</asrwt>
<pdfrwt beam="1">  1        2 0.35005159E+00 0.17160087E+04</pdfrwt>
<pdfrwt beam="2">  1       -1 0.49776024E-01 0.17160087E+04</pdfrwt>
<totfact> 0.20527751E+01</totfact>
</mgrwt>
</event>
<event>
12    6  0.8914180E-008  0.1610351E+04  0.7818608E-02  0.8814214E-01
         -1   -1    0    0    0  501 -0.00000000000E+00  0.00000000000E+00  0.50328972671E+03  0.50328972671E+03  0.00000000000E+00 0.  1.
          2   -1    0    0  501    0  0.00000000000E+00 -0.00000000000E+00 -0.12881391339E+04  0.12881391339E+04  0.00000000000E+00 0. -1.
         24    2    1    2    0    0 -0.11821017242E+03  0.48592568760E+03 -0.52516146589E+03  0.72960998187E+03  0.80241769960E+02 0.  0.
        254    2    1    2    0    0  0.11821017242E+03 -0.48592568760E+03 -0.25968794133E+03  0.10618188788E+04  0.89995782442E+03 0.  0.
         23    2    4    4    0    0  0.20636203841E+03 -0.47798563583E+03 -0.53974960806E+03  0.75542709391E+03  0.91021403251E+02 0.  0.
         23    2    4    4    0    0 -0.88151865997E+02 -0.79400517744E+01  0.28006166674E+03  0.30639178487E+03  0.87221515472E+02 0.  0.
          2    1    3    3  502    0 -0.39157223325E+01 -0.83557469914E+00  0.61140571221E+00  0.40502942372E+01  0.00000000000E+00 0. -1.
         -1    1    3    3    0  502 -0.11429445008E+03  0.48676126230E+03 -0.52577287160E+03  0.72555968763E+03  0.00000000000E+00 0.  1.
         11    1    5    5    0    0  0.48626064381E+01 -0.50547998619E+02 -0.24795098735E+02  0.56511432711E+02  0.00000000000E+00 0.  1.
        -11    1    5    5    0    0  0.20149943197E+03 -0.42743763721E+03 -0.51495450933E+03  0.69891566120E+03  0.00000000000E+00 0. -1.
          1    1    6    6  503    0 -0.56474947208E+02  0.37678345056E+02  0.13621240527E+03  0.15219361583E+03  0.00000000000E+00 0. -1.
         -1    1    6    6    0  503 -0.31676918789E+02 -0.45618396830E+02  0.14384926147E+03  0.15419816905E+03  0.00000000000E+00 0.  1.
<mgrwt>
<rscale>  0 0.16103505E+04</rscale>
<asrwt>0</asrwt>
<pdfrwt beam="1">  1        2 0.19817525E+00 0.16103505E+04</pdfrwt>
<pdfrwt beam="2">  1       -1 0.77429190E-01 0.16103505E+04</pdfrwt>
<totfact> 0.30679275E+01</totfact>
</mgrwt>
</event>
<event>
12    6  0.8914180E-008  0.1751001E+04  0.7818608E-02  0.8732799E-01
          2   -1    0    0  501    0  0.00000000000E+00  0.00000000000E+00  0.16679137693E+04  0.16679137693E+04  0.00000000000E+00 0. -1.
         -1   -1    0    0    0  501 -0.00000000000E+00 -0.00000000000E+00 -0.45955694386E+03  0.45955694386E+03  0.00000000000E+00 0.  1.
         24    2    1    2    0    0 -0.28913403056E+02 -0.20533450586E+03  0.11817961351E+04  0.12024831856E+04  0.79532776095E+02 0.  0.
        254    2    1    2    0    0  0.28913403056E+02  0.20533450586E+03  0.26560690332E+02  0.92498752759E+03  0.90105394497E+03 0.  0.
         23    2    4    4    0    0  0.85669491071E+02 -0.30107090426E+03  0.19563500929E+03  0.38039248598E+03  0.91882726581E+02 0.  0.
         23    2    4    4    0    0 -0.56756088015E+02  0.50640541012E+03 -0.16907431895E+03  0.54459504160E+03  0.91268510918E+02 0.  0.
          2    1    3    3  502    0 -0.21229341111E+02 -0.17703148336E+03  0.80316619273E+03  0.82271912836E+03  0.00000000000E+00 0. -1.
         -1    1    3    3    0  502 -0.76840619453E+01 -0.28303022496E+02  0.37862994240E+03  0.37976405724E+03  0.00000000000E+00 0.  1.
         11    1    5    5    0    0  0.81831263804E+02 -0.14209942497E+03  0.12600039014E+03  0.20679627808E+03  0.00000000000E+00 0.  1.
        -11    1    5    5    0    0  0.38382272669E+01 -0.15897147928E+03  0.69634619150E+02  0.17359620790E+03  0.00000000000E+00 0. -1.
          2    1    6    6  503    0  0.20856699527E+02  0.20701899704E+03 -0.77623513756E+02  0.22207493541E+03  0.00000000000E+00 0. -1.
         -2    1    6    6    0  503 -0.77612787543E+02  0.29938641308E+03 -0.91450805199E+02  0.32252010619E+03  0.00000000000E+00 0.  1.
<mgrwt>
<rscale>  0 0.17510013E+04</rscale>
<asrwt>0</asrwt>
<pdfrwt beam="1">  1        2 0.25660211E+00 0.17510013E+04</pdfrwt>
<pdfrwt beam="2">  1       -1 0.70701069E-01 0.17510013E+04</pdfrwt>
<totfact> 0.22300092E+01</totfact>
</mgrwt>
</event>
<event>
12    6  0.8914180E-008  0.2386510E+04  0.7818608E-02  0.8444571E-01
         -1   -1    0    0    0  501 -0.00000000000E+00  0.00000000000E+00  0.67247413383E+03  0.67247413383E+03  0.00000000000E+00 0.  1.
          2   -1    0    0  501    0  0.00000000000E+00 -0.00000000000E+00 -0.21173425220E+04  0.21173425220E+04  0.00000000000E+00 0. -1.
         24    2    1    2    0    0 -0.86985195465E+03  0.52835431973E+03 -0.50325257007E+03  0.11379212695E+04  0.76164007444E+02 0.  0.
        254    2    1    2    0    0  0.86985195465E+03 -0.52835431973E+03 -0.94161581809E+03  0.16518953864E+04  0.89795172946E+03 0.  0.
         23    2    4    4    0    0 -0.52330726559E+02 -0.40921085888E+03 -0.29757942354E+03  0.51671138746E+03  0.90802602623E+02 0.  0.
         23    2    4    4    0    0  0.92218268121E+03 -0.11914346084E+03 -0.64403639454E+03  0.11351839989E+04  0.96144537527E+02 0.  0.
          2    1    3    3  502    0 -0.73847066981E+03  0.41869755981E+03 -0.40468790679E+03  0.94043547289E+03  0.00000000000E+00 0. -1.
         -1    1    3    3    0  502 -0.13138128484E+03  0.10965675992E+03 -0.98564663274E+02  0.19748579657E+03  0.00000000000E+00 0.  1.
         11    1    5    5    0    0  0.16329067910E+01 -0.53577386235E+02 -0.80075205368E+02  0.96359956492E+02  0.00000000000E+00 0.  1.
        -11    1    5    5    0    0 -0.53963633350E+02 -0.35563347265E+03 -0.21750421818E+03  0.42035143097E+03  0.00000000000E+00 0. -1.
          4    1    6    6  503    0  0.61311248101E+03 -0.81510973711E+02 -0.37219997623E+03  0.72186132706E+03  0.00000000000E+00 0. -1.
         -4    1    6    6    0  503  0.30907020020E+03 -0.37632487132E+02 -0.27183641831E+03  0.41332267184E+03  0.00000000000E+00 0.  1.
<mgrwt>
<rscale>  0 0.23865105E+04</rscale>
<asrwt>0</asrwt>
<pdfrwt beam="1">  1        2 0.32574500E+00 0.23865105E+04</pdfrwt>
<pdfrwt beam="2">  1       -1 0.10345756E+00 0.23865105E+04</pdfrwt>
<totfact> 0.51859905E+00</totfact>
</mgrwt>
</event>
<event>
12    6  0.8914180E-008  0.1596853E+04  0.7818608E-02  0.8822484E-01
         -1   -1    0    0    0  501 -0.00000000000E+00  0.00000000000E+00  0.54111543364E+03  0.54111543364E+03  0.00000000000E+00 0.  1.
          2   -1    0    0  501    0  0.00000000000E+00 -0.00000000000E+00 -0.11780936127E+04  0.11780936127E+04  0.00000000000E+00 0. -1.
         24    2    1    2    0    0 -0.69714455415E+02 -0.29751629224E+03 -0.70582421968E+03  0.77333505242E+03  0.80518474693E+02 0.  0.
        254    2    1    2    0    0  0.69714455415E+02  0.29751629224E+03  0.68846040573E+02  0.94587399396E+03  0.89250310123E+03 0.  0.
         23    2    4    4    0    0 -0.32656941348E+03 -0.40926787461E+02  0.20664639969E+03  0.39900756021E+03  0.90452832181E+02 0.  0.
         23    2    4    4    0    0  0.39628386890E+03  0.33844307970E+03 -0.13780035911E+03  0.54686643375E+03  0.92137584311E+02 0.  0.
          4    1    3    3  502    0  0.13198921853E+02 -0.10991778768E+03 -0.26046100538E+03  0.28301248543E+03  0.00000000000E+00 0. -1.
         -3    1    3    3    0  502 -0.82913377268E+02 -0.18759850457E+03 -0.44536321430E+03  0.49032256699E+03  0.00000000000E+00 0.  1.
         11    1    5    5    0    0 -0.25444156303E+03  0.71790209975E+01  0.15021613650E+03  0.29556206625E+03  0.00000000000E+00 0.  1.
        -11    1    5    5    0    0 -0.72127850450E+02 -0.48105808458E+02  0.56430263189E+02  0.10344549396E+03  0.00000000000E+00 0. -1.
          3    1    6    6  503    0  0.20478087362E+03  0.23335231435E+03 -0.90116468540E+02  0.32327927047E+03  0.00000000000E+00 0. -1.
         -3    1    6    6    0  503  0.19150299528E+03  0.10509076535E+03 -0.47683890574E+02  0.22358716328E+03  0.00000000000E+00 0.  1.
<mgrwt>
<rscale>  0 0.15968527E+04</rscale>
<asrwt>0</asrwt>
<pdfrwt beam="1">  1        2 0.18124517E+00 0.15968527E+04</pdfrwt>
<pdfrwt beam="2">  1       -1 0.83248529E-01 0.15968527E+04</pdfrwt>
<totfact> 0.30587580E+01</totfact>
</mgrwt>
</event>
<event>
12    6  0.8914180E-008  0.1682403E+04  0.7818608E-02  0.8771465E-01
         -1   -1    0    0    0  501 -0.00000000000E+00  0.00000000000E+00  0.54602673956E+03  0.54602673956E+03  0.00000000000E+00 0.  1.
          2   -1    0    0  501    0  0.00000000000E+00 -0.00000000000E+00 -0.12959436890E+04  0.12959436890E+04  0.00000000000E+00 0. -1.
         24    2    1    2    0    0 -0.53195995947E+03  0.72593632644E+02 -0.10891669441E+03  0.55777056955E+03  0.10485193352E+03 0.  0.
        254    2    1    2    0    0  0.53195995947E+03 -0.72593632644E+02 -0.64100025502E+03  0.12841998590E+04  0.97469826969E+03 0.  0.
         23    2    4    4    0    0  0.18107174134E+03 -0.45917015519E+03 -0.70749707957E+02  0.50705590383E+03  0.92064985273E+02 0.  0.
         23    2    4    4    0    0  0.35088821813E+03  0.38657652254E+03 -0.57025054706E+03  0.77714395516E+03  0.78759705566E+02 0.  0.
          4    1    3    3  502    0 -0.24288672503E+03  0.77496576667E+02 -0.80030380838E+02  0.26721628402E+03  0.00000000000E+00 0. -1.
         -3    1    3    3    0  502 -0.28907323443E+03 -0.49029440233E+01 -0.28886313571E+02  0.29055428553E+03  0.00000000000E+00 0.  1.
         11    1    5    5    0    0  0.13389684503E+03 -0.39890485126E+03 -0.33977768930E+02  0.42214681599E+03  0.00000000000E+00 0.  1.
        -11    1    5    5    0    0  0.47174896309E+02 -0.60265303922E+02 -0.36771939027E+02  0.84909087843E+02  0.00000000000E+00 0. -1.
          3    1    6    6  503    0  0.95971649207E+02  0.14713380591E+03 -0.22781078484E+03  0.28767458696E+03  0.00000000000E+00 0. -1.
         -3    1    6    6    0  503  0.25491656892E+03  0.23944271663E+03 -0.34243976222E+03  0.48946936820E+03  0.00000000000E+00 0.  1.
<mgrwt>
<rscale>  0 0.16824029E+04</rscale>
<asrwt>0</asrwt>
<pdfrwt beam="1">  1        2 0.19937595E+00 0.16824029E+04</pdfrwt>
<pdfrwt beam="2">  1       -1 0.84004113E-01 0.16824029E+04</pdfrwt>
<totfact> 0.25361420E+01</totfact>
</mgrwt>
</event>
<event>
12    6  0.8914180E-008  0.3856564E+04  0.7818608E-02  0.8034124E-01
         -1   -1    0    0    0  501 -0.00000000000E+00  0.00000000000E+00  0.11955309460E+04  0.11955309460E+04  0.00000000000E+00 0.  1.
          2   -1    0    0  501    0  0.00000000000E+00 -0.00000000000E+00 -0.31101416213E+04  0.31101416213E+04  0.00000000000E+00 0. -1.
         24    2    1    2    0    0  0.70963996301E+03  0.16755913753E+04 -0.97537024416E+03  0.20661741583E+04  0.80828244033E+02 0.  0.
        254    2    1    2    0    0 -0.70963996301E+03 -0.16755913753E+04 -0.93924043116E+03  0.22394984089E+04  0.90663399553E+03 0.  0.
         23    2    4    4    0    0 -0.76874952908E+02 -0.10872686098E+04 -0.81104930991E+03  0.13612975519E+04  0.85248188506E+02 0.  0.
         23    2    4    4    0    0 -0.63276501010E+03 -0.58832276559E+03 -0.12819112124E+03  0.87820085700E+03  0.91041458406E+02 0.  0.
          2    1    3    3  502    0  0.55291962537E+03  0.12951933884E+04 -0.71623485085E+03  0.15799488558E+04  0.00000000000E+00 0. -1.
         -1    1    3    3    0  502  0.15672033764E+03  0.38039798697E+03 -0.25913539331E+03  0.48622530250E+03  0.00000000000E+00 0.  1.
         11    1    5    5    0    0 -0.41350790064E+02 -0.27543099605E+03 -0.24529579829E+03  0.37113629583E+03  0.00000000000E+00 0. -1.
        -11    1    5    5    0    0 -0.35524162844E+02 -0.81183761370E+03 -0.56575351162E+03  0.99016125609E+03  0.00000000000E+00 0.  1.
          4    1    6    6  503    0 -0.52280551187E+03 -0.43497438093E+03 -0.99495766340E+02  0.68733377832E+03  0.00000000000E+00 0.  1.
         -4    1    6    6    0  503 -0.10995949824E+03 -0.15334838466E+03 -0.28695354905E+02  0.19086707868E+03  0.00000000000E+00 0. -1.
<mgrwt>
<rscale>  0 0.38565635E+04</rscale>
<asrwt>0</asrwt>
<pdfrwt beam="1">  1        2 0.47848332E+00 0.38565635E+04</pdfrwt>
<pdfrwt beam="2">  1       -1 0.18392784E+00 0.38565635E+04</pdfrwt>
<totfact> 0.26183994E-01</totfact>
</mgrwt>
</event>
<event>
12    6  0.8914180E-008  0.1824036E+04  0.7818608E-02  0.8693621E-01
         -1   -1    0    0    0  501 -0.00000000000E+00  0.00000000000E+00  0.49734277334E+03  0.49734277334E+03  0.00000000000E+00 0.  1.
          2   -1    0    0  501    0  0.00000000000E+00 -0.00000000000E+00 -0.16724410302E+04  0.16724410302E+04  0.00000000000E+00 0. -1.
         24    2    1    2    0    0  0.24892372162E+03  0.39595800317E+03  0.13283485682E+03  0.49274600716E+03  0.80048541056E+02 0.  0.
        254    2    1    2    0    0 -0.24892372162E+03 -0.39595800317E+03 -0.13079331137E+04  0.16770377964E+04  0.93969196080E+03 0.  0.
         23    2    4    4    0    0  0.22298073565E+03 -0.23063634489E+03 -0.72264287226E+02  0.34099376045E+03  0.90227963528E+02 0.  0.
         23    2    4    4    0    0 -0.47190445726E+03 -0.16532165828E+03 -0.12356688265E+04  0.13360440360E+04  0.90061921996E+02 0.  0.
          4    1    3    3  502    0  0.61444220753E+01  0.54821960624E+02  0.74352083191E+01  0.55664024397E+02  0.00000000000E+00 0. -1.
         -1    1    3    3    0  502  0.24277929954E+03  0.34113604255E+03  0.12539964850E+03  0.43708198276E+03  0.00000000000E+00 0.  1.
         11    1    5    5    0    0 -0.47377008996E+01 -0.21201281764E+02  0.45960652986E+01  0.22205043897E+02  0.00000000000E+00 0.  1.
        -11    1    5    5    0    0  0.22771843655E+03 -0.20943506313E+03 -0.76860352525E+02  0.31878871655E+03  0.00000000000E+00 0. -1.
          2    1    6    6  503    0 -0.15083337062E+03 -0.98411697919E+02 -0.44036587541E+03  0.47577060881E+03  0.00000000000E+00 0. -1.
         -2    1    6    6    0  503 -0.32107108664E+03 -0.66909960360E+02 -0.79530295109E+03  0.86027342717E+03  0.00000000000E+00 0.  1.
<mgrwt>
<rscale>  0 0.18240356E+04</rscale>
<asrwt>0</asrwt>
<pdfrwt beam="1">  1        2 0.25729862E+00 0.18240356E+04</pdfrwt>
<pdfrwt beam="2">  1       -1 0.76514273E-01 0.18240356E+04</pdfrwt>
<totfact> 0.18694484E+01</totfact>
</mgrwt>
</event>
<event>
12    6  0.8914180E-008  0.5326122E+04  0.7818608E-02  0.7780079E-01
         -1   -1    0    0    0  501 -0.00000000000E+00  0.00000000000E+00  0.22871168016E+04  0.22871168016E+04  0.00000000000E+00 0.  1.
          2   -1    0    0  501    0  0.00000000000E+00 -0.00000000000E+00 -0.31008010291E+04  0.31008010291E+04  0.00000000000E+00 0. -1.
         24    2    1    2    0    0 -0.37380595524E+03  0.24364990549E+04 -0.11853717886E+04  0.27366443244E+04  0.88641663667E+02 0.  0.
        254    2    1    2    0    0  0.37380595524E+03 -0.24364990549E+04  0.37168756119E+03  0.26512735063E+04  0.90268545220E+03 0.  0.
         23    2    4    4    0    0  0.26139510815E+03 -0.23557686556E+04  0.15311760304E+03  0.23773546693E+04  0.10196500312E+03 0.  0.
         23    2    4    4    0    0  0.11241084709E+03 -0.80730399215E+02  0.21856995815E+03  0.27391883700E+03  0.90028366380E+02 0.  0.
          2    1    3    3  502    0 -0.30735289698E+03  0.18008871684E+04 -0.85164933802E+03  0.20156802801E+04  0.00000000000E+00 0. -1.
         -1    1    3    3    0  502 -0.66453058262E+02  0.63561188642E+03 -0.33372245062E+03  0.72096404429E+03  0.00000000000E+00 0.  1.
         11    1    5    5    0    0  0.17949974749E+02 -0.39856021207E+02  0.11044565738E+01  0.43725551388E+02  0.00000000000E+00 0.  1.
        -11    1    5    5    0    0  0.24344513340E+03 -0.23159126344E+04  0.15201314647E+03  0.23336291179E+04  0.00000000000E+00 0. -1.
          1    1    6    6  503    0  0.98005837362E+02 -0.10065776185E+03  0.18767118621E+03  0.23443038053E+03  0.00000000000E+00 0. -1.
         -1    1    6    6    0  503  0.14405009732E+02  0.19927362639E+02  0.30898771940E+02  0.39488456472E+02  0.00000000000E+00 0.  1.
<mgrwt>
<rscale>  0 0.53261221E+04</rscale>
<asrwt>0</asrwt>
<pdfrwt beam="1">  1        2 0.47704632E+00 0.53261221E+04</pdfrwt>
<pdfrwt beam="2">  1       -1 0.35186412E+00 0.53261221E+04</pdfrwt>
<totfact> 0.18298694E-02</totfact>
</mgrwt>
</event>
<event>
12    6  0.8914180E-008  0.1847848E+04  0.7818608E-02  0.8681260E-01
         -1   -1    0    0    0  501 -0.00000000000E+00  0.00000000000E+00  0.61768011186E+03  0.61768011186E+03  0.00000000000E+00 0.  1.
          2   -1    0    0  501    0  0.00000000000E+00 -0.00000000000E+00 -0.13820030862E+04  0.13820030862E+04  0.00000000000E+00 0. -1.
         24    2    1    2    0    0 -0.24764197387E+03 -0.50956206800E+03 -0.73875828145E+03  0.93440531742E+03  0.79808836896E+02 0.  0.
        254    2    1    2    0    0  0.24764197387E+03  0.50956206800E+03 -0.25564692850E+02  0.10652778806E+04  0.90176679968E+03 0.  0.
         23    2    4    4    0    0  0.42112525900E+03  0.57851290738E+03  0.21295045846E+03  0.75180645460E+03  0.88551564909E+02 0.  0.
         23    2    4    4    0    0 -0.17348328513E+03 -0.68950839377E+02 -0.23851515131E+03  0.31347142600E+03  0.80772452263E+02 0.  0.
          2    1    3    3  502    0 -0.18534442967E+03 -0.29670233050E+03 -0.47138943422E+03  0.58702029712E+03  0.00000000000E+00 0. -1.
         -1    1    3    3    0  502 -0.62297544201E+02 -0.21285973750E+03 -0.26736884723E+03  0.34738502031E+03  0.00000000000E+00 0.  1.
         11    1    5    5    0    0  0.31377462195E+03  0.39723019950E+03  0.11324104419E+03  0.51871946066E+03  0.00000000000E+00 0. -1.
        -11    1    5    5    0    0  0.10735063705E+03  0.18128270788E+03  0.99709414274E+02  0.23308699395E+03  0.00000000000E+00 0.  1.
          1    1    6    6  503    0 -0.17643992074E+03 -0.50587313203E+02 -0.22555771985E+03  0.29080303793E+03  0.00000000000E+00 0. -1.
         -1    1    6    6    0  503  0.29566356069E+01 -0.18363526174E+02 -0.12957431464E+02  0.22668388072E+02  0.00000000000E+00 0.  1.
<mgrwt>
<rscale>  0 0.18478483E+04</rscale>
<asrwt>0</asrwt>
<pdfrwt beam="1">  1        2 0.21261586E+00 0.18478483E+04</pdfrwt>
<pdfrwt beam="2">  1       -1 0.95027711E-01 0.18478483E+04</pdfrwt>
<totfact> 0.16997655E+01</totfact>
</mgrwt>
</event>
<event>
12    6  0.8914180E-008  0.2350137E+04  0.7818608E-02  0.8458411E-01
         -1   -1    0    0    0  501 -0.00000000000E+00  0.00000000000E+00  0.12854061679E+04  0.12854061679E+04  0.00000000000E+00 0.  1.
          2   -1    0    0  501    0  0.00000000000E+00 -0.00000000000E+00 -0.10742023336E+04  0.10742023336E+04  0.00000000000E+00 0. -1.
         24    2    1    2    0    0 -0.78641908538E+03 -0.34657844841E+03  0.60911314274E+03  0.10563006848E+04  0.78617538341E+02 0.  0.
        254    2    1    2    0    0  0.78641908538E+03  0.34657844841E+03 -0.39790930845E+03  0.13033078167E+04  0.89538139843E+03 0.  0.
         23    2    4    4    0    0 -0.57676346918E+02 -0.26455625460E+02  0.17871256032E+03  0.21140912820E+03  0.93430076285E+02 0.  0.
         23    2    4    4    0    0  0.84409543230E+03  0.37303407387E+03 -0.57662186877E+03  0.10918986885E+04  0.89991373937E+02 0.  0.
          4    1    3    3  502    0 -0.71447890750E+03 -0.30109883281E+03  0.57176345203E+03  0.96335562565E+03  0.00000000000E+00 0. -1.
         -3    1    3    3    0  502 -0.71940177880E+02 -0.45479615601E+02  0.37349690707E+02  0.92945059172E+02  0.00000000000E+00 0.  1.
         11    1    5    5    0    0 -0.72852120706E+02 -0.45625055016E+02  0.15559667341E+03  0.17776220609E+03  0.00000000000E+00 0.  1.
        -11    1    5    5    0    0  0.15175773787E+02  0.19169429556E+02  0.23115886910E+02  0.33646922106E+02  0.00000000000E+00 0. -1.
          1    1    6    6  503    0  0.24277224185E+03  0.10888539310E+03 -0.21541859224E+03  0.34234421293E+03  0.00000000000E+00 0. -1.
         -1    1    6    6    0  503  0.60132319045E+03  0.26414868077E+03 -0.36120327653E+03  0.74955447561E+03  0.00000000000E+00 0.  1.
<mgrwt>
<rscale>  0 0.23501373E+04</rscale>
<asrwt>0</asrwt>
<pdfrwt beam="1">  1        2 0.16526190E+00 0.23501373E+04</pdfrwt>
<pdfrwt beam="2">  1       -1 0.19775479E+00 0.23501373E+04</pdfrwt>
<totfact> 0.36296978E+00</totfact>
</mgrwt>
</event>
<event>
12    6  0.8914180E-008  0.2099021E+04  0.7818608E-02  0.8561675E-01
         -1   -1    0    0    0  501 -0.00000000000E+00  0.00000000000E+00  0.29976036479E+03  0.29976036479E+03  0.00000000000E+00 0.  1.
          2   -1    0    0  501    0  0.00000000000E+00 -0.00000000000E+00 -0.36745104486E+04  0.36745104486E+04  0.00000000000E+00 0. -1.
         24    2    1    2    0    0 -0.58717480678E+03 -0.10157601873E+03 -0.25217902095E+04  0.25924295226E+04  0.78568615819E+02 0.  0.
        254    2    1    2    0    0  0.58717480678E+03  0.10157601873E+03 -0.85295987425E+03  0.13818412908E+04  0.90931450254E+03 0.  0.
         23    2    4    4    0    0  0.68615760081E+02 -0.27870371044E+03  0.95382598636E+01  0.30209205099E+03  0.93726987175E+02 0.  0.
         23    2    4    4    0    0  0.51855904670E+03  0.38027972917E+03 -0.86249813411E+03  0.10797492398E+04  0.91865293450E+02 0.  0.
          2    1    3    3  502    0 -0.48610176756E+03 -0.61715765355E+02 -0.19682579834E+04  0.20283350939E+04  0.00000000000E+00 0. -1.
         -1    1    3    3    0  502 -0.10107303922E+03 -0.39860253371E+02 -0.55353222613E+03  0.56409442864E+03  0.00000000000E+00 0.  1.
         11    1    5    5    0    0  0.25356388702E+02 -0.13367225411E+03 -0.41708795936E+02  0.14230545185E+03  0.00000000000E+00 0.  1.
        -11    1    5    5    0    0  0.43259371379E+02 -0.14503145633E+03  0.51247055800E+02  0.15978659915E+03  0.00000000000E+00 0. -1.
          3    1    6    6  503    0  0.44932339491E+03  0.31364921252E+03 -0.77916918174E+03  0.95256073586E+03  0.00000000000E+00 0. -1.
         -3    1    6    6    0  503  0.69235651790E+02  0.66630516648E+02 -0.83328952372E+02  0.12718850393E+03  0.00000000000E+00 0.  1.
<mgrwt>
<rscale>  0 0.20990213E+04</rscale>
<asrwt>0</asrwt>
<pdfrwt beam="1">  1        2 0.56530926E+00 0.20990213E+04</pdfrwt>
<pdfrwt beam="2">  1       -1 0.46116982E-01 0.20990213E+04</pdfrwt>
<totfact> 0.30076377E+00</totfact>
</mgrwt>
</event>
<event>
12    6  0.8914180E-008  0.1584098E+04  0.7818608E-02  0.8830377E-01
         -1   -1    0    0    0  501 -0.00000000000E+00  0.00000000000E+00  0.60239916829E+03  0.60239916829E+03  0.00000000000E+00 0.  1.
          2   -1    0    0  501    0  0.00000000000E+00 -0.00000000000E+00 -0.10414049470E+04  0.10414049470E+04  0.00000000000E+00 0. -1.
         24    2    1    2    0    0  0.38073948749E+03 -0.24737139652E+03  0.14179321849E+03  0.48201749071E+03  0.77976787485E+02 0.  0.
        254    2    1    2    0    0 -0.38073948749E+03  0.24737139652E+03 -0.58079899721E+03  0.11617866246E+04  0.89792289244E+03 0.  0.
         23    2    4    4    0    0 -0.25057747606E+03 -0.86292121302E+02  0.16780492365E+03  0.32692636566E+03  0.92124667991E+02 0.  0.
         23    2    4    4    0    0 -0.13016201143E+03  0.33366351782E+03 -0.74860392087E+03  0.83486025893E+03  0.91161007367E+02 0.  0.
          2    1    3    3  502    0  0.28409674632E+03 -0.19953179958E+03  0.75007839617E+02  0.35517612014E+03  0.00000000000E+00 0. -1.
         -1    1    3    3    0  502  0.96642741171E+02 -0.47839596943E+02  0.66785378873E+02  0.12684137057E+03  0.00000000000E+00 0.  1.
         11    1    5    5    0    0 -0.25645596215E+03 -0.85013920713E+02  0.17135914194E+03  0.31993902976E+03  0.00000000000E+00 0.  1.
        -11    1    5    5    0    0  0.58784860852E+01 -0.12782005886E+01 -0.35542182848E+01  0.69873359025E+01  0.00000000000E+00 0. -1.
          4    1    6    6  503    0  0.15415033338E+01  0.62278092177E+01 -0.66969341466E+02  0.67275958087E+02  0.00000000000E+00 0. -1.
         -4    1    6    6    0  503 -0.13170351476E+03  0.32743570860E+03 -0.68163457940E+03  0.76758430084E+03  0.00000000000E+00 0.  1.
<mgrwt>
<rscale>  0 0.15840978E+04</rscale>
<asrwt>0</asrwt>
<pdfrwt beam="1">  1        2 0.16021614E+00 0.15840978E+04</pdfrwt>
<pdfrwt beam="2">  1       -1 0.92676797E-01 0.15840978E+04</pdfrwt>
<totfact> 0.29388846E+01</totfact>
</mgrwt>
</event>
<event>
12    6  0.1397511E-007  0.2506282E+04  0.7818608E-02  0.8400751E-01
         -1   -1    0    0    0  501 -0.00000000000E+00  0.00000000000E+00  0.60368495586E+03  0.60368495586E+03  0.00000000000E+00 0.  1.
          2   -1    0    0  501    0  0.00000000000E+00 -0.00000000000E+00 -0.26012951501E+04  0.26012951501E+04  0.00000000000E+00 0. -1.
         24    2    1    2    0    0  0.66330548898E+03  0.67816502897E+03 -0.21661832842E+03  0.97883164642E+03  0.10632926971E+03 0.  0.
        254    2    1    2    0    0 -0.66330548898E+03 -0.67816502897E+03 -0.17809918658E+04  0.22261484595E+04  0.94017177128E+03 0.  0.
         23    2    4    4    0    0 -0.27168103200E+03  0.17627496058E+03 -0.78429978422E+03  0.85317125638E+03  0.88834657182E+02 0.  0.
         23    2    4    4    0    0 -0.39162445698E+03 -0.85443998956E+03 -0.99669208160E+03  0.13729772031E+04  0.90740750316E+02 0.  0.
          2    1    3    3  502    0  0.18328566660E+03  0.22732411951E+03 -0.25515960309E+02  0.29312276459E+03  0.00000000000E+00 0. -1.
         -1    1    3    3    0  502  0.48001982238E+03  0.45084090947E+03 -0.19110236811E+03  0.68570888183E+03  0.00000000000E+00 0.  1.
         11    1    5    5    0    0 -0.57132799458E+02 -0.15381100372E+01 -0.13081892877E+03  0.14275893906E+03  0.00000000000E+00 0. -1.
        -11    1    5    5    0    0 -0.21454823255E+03  0.17781307062E+03 -0.65348085544E+03  0.71041231732E+03  0.00000000000E+00 0.  1.
          1    1    6    6  503    0 -0.33964590901E+02 -0.15504562784E+03 -0.16410192955E+03  0.22830283272E+03  0.00000000000E+00 0. -1.
         -1    1    6    6    0  503 -0.35765986608E+03 -0.69939436171E+03 -0.83259015205E+03  0.11446743704E+04  0.00000000000E+00 0.  1.
<mgrwt>
<rscale>  0 0.25062823E+04</rscale>
<asrwt>0</asrwt>
<pdfrwt beam="1">  1        2 0.40019925E+00 0.25062823E+04</pdfrwt>
<pdfrwt beam="2">  1       -1 0.92874610E-01 0.25062823E+04</pdfrwt>
<totfact> 0.34687904E+00</totfact>
</mgrwt>
</event>
<event>
12    6  0.8914180E-008  0.1167875E+04  0.7818608E-02  0.9141450E-01
         -1   -1    0    0    0  501 -0.00000000000E+00  0.00000000000E+00  0.22838703056E+03  0.22838703056E+03  0.00000000000E+00 0.  1.
          2   -1    0    0  501    0  0.00000000000E+00 -0.00000000000E+00 -0.14930046686E+04  0.14930046686E+04  0.00000000000E+00 0. -1.
         24    2    1    2    0    0  0.12842210132E+03  0.18035134415E+03 -0.21683947942E+03  0.32010543620E+03  0.80182834839E+02 0.  0.
        254    2    1    2    0    0 -0.12842210132E+03 -0.18035134415E+03 -0.10477781586E+04  0.14012862630E+04  0.90373960720E+03 0.  0.
         23    2    4    4    0    0  0.14833836941E+03  0.11054659369E+03 -0.95816726329E+03  0.98008896105E+03  0.90912298023E+02 0.  0.
         23    2    4    4    0    0 -0.27676047073E+03 -0.29089793784E+03 -0.89610895330E+02  0.42119730190E+03  0.90327660046E+02 0.  0.
          2    1    3    3  502    0  0.14357424563E+02  0.31234397433E+01  0.35953750422E+01  0.15126739160E+02  0.00000000000E+00 0. -1.
         -1    1    3    3    0  502  0.11406467676E+03  0.17722790441E+03 -0.22043485447E+03  0.30497869704E+03  0.00000000000E+00 0.  1.
         11    1    5    5    0    0  0.13174701720E+03  0.76101814514E+02 -0.88019248687E+03  0.89324552988E+03  0.00000000000E+00 0.  1.
        -11    1    5    5    0    0  0.16591352213E+02  0.34444779172E+02 -0.77974776413E+02  0.86843431169E+02  0.00000000000E+00 0. -1.
          2    1    6    6  503    0 -0.81711879844E+02 -0.40581544974E+02 -0.41520354042E+02  0.10023788156E+03  0.00000000000E+00 0. -1.
         -2    1    6    6    0  503 -0.19504859088E+03 -0.25031639286E+03 -0.48090541288E+02  0.32095942034E+03  0.00000000000E+00 0.  1.
<mgrwt>
<rscale>  0 0.11678748E+04</rscale>
<asrwt>0</asrwt>
<pdfrwt beam="1">  1        2 0.22969303E+00 0.11678748E+04</pdfrwt>
<pdfrwt beam="2">  1       -1 0.35136465E-01 0.11678748E+04</pdfrwt>
<totfact> 0.11114578E+02</totfact>
</mgrwt>
</event>
<event>
12    6  0.8914180E-008  0.1701567E+04  0.7818608E-02  0.8760471E-01
         -1   -1    0    0    0  501 -0.00000000000E+00  0.00000000000E+00  0.37838000137E+03  0.37838000137E+03  0.00000000000E+00 0.  1.
          2   -1    0    0  501    0  0.00000000000E+00 -0.00000000000E+00 -0.19129781688E+04  0.19129781688E+04  0.00000000000E+00 0. -1.
         24    2    1    2    0    0 -0.78106845263E+02  0.18497744851E+03 -0.13224545891E+04  0.13400712135E+04  0.81162683762E+02 0.  0.
        254    2    1    2    0    0  0.78106845263E+02 -0.18497744851E+03 -0.21214357833E+03  0.95128695669E+03  0.90533123243E+03 0.  0.
         23    2    4    4    0    0  0.24102068984E+03  0.99712097055E+02  0.25322710522E+03  0.37435419471E+03  0.89351111035E+02 0.  0.
         23    2    4    4    0    0 -0.16291384458E+03 -0.28468954557E+03 -0.46537068356E+03  0.57693276199E+03  0.93233473749E+02 0.  0.
          4    1    3    3  502    0 -0.63476953187E+02  0.17277282262E+03 -0.98312890233E+03  0.10002110829E+04  0.00000000000E+00 0. -1.
         -3    1    3    3    0  502 -0.14629892075E+02  0.12204625891E+02 -0.33932568680E+03  0.33986013058E+03  0.00000000000E+00 0.  1.
         11    1    5    5    0    0  0.27959126212E+02 -0.13804019063E+02  0.13005431439E+02  0.33784684810E+02  0.00000000000E+00 0. -1.
        -11    1    5    5    0    0  0.21306156363E+03  0.11351611612E+03  0.24022167378E+03  0.34056950990E+03  0.00000000000E+00 0.  1.
          4    1    6    6  503    0 -0.67528911276E+02 -0.17838815414E+03 -0.32399045419E+03  0.37596848512E+03  0.00000000000E+00 0.  1.
         -4    1    6    6    0  503 -0.95384933306E+02 -0.10630139143E+03 -0.14138022936E+03  0.20096427686E+03  0.00000000000E+00 0. -1.
<mgrwt>
<rscale>  0 0.17015671E+04</rscale>
<asrwt>0</asrwt>
<pdfrwt beam="1">  1        2 0.29430433E+00 0.17015671E+04</pdfrwt>
<pdfrwt beam="2">  1       -1 0.58212309E-01 0.17015671E+04</pdfrwt>
<totfact> 0.24199849E+01</totfact>
</mgrwt>
</event>
<event>
12    6  0.8914180E-008  0.2035123E+04  0.7818608E-02  0.8590373E-01
         -1   -1    0    0    0  501 -0.00000000000E+00  0.00000000000E+00  0.45904131498E+03  0.45904131498E+03  0.00000000000E+00 0.  1.
          2   -1    0    0  501    0  0.00000000000E+00 -0.00000000000E+00 -0.22556391358E+04  0.22556391358E+04  0.00000000000E+00 0. -1.
         24    2    1    2    0    0  0.61734623790E+03  0.18055423807E+03 -0.13898623688E+04  0.15332522727E+04  0.73681184871E+02 0.  0.
        254    2    1    2    0    0 -0.61734623790E+03 -0.18055423807E+03 -0.40673545200E+03  0.11814281781E+04  0.90367173346E+03 0.  0.
         23    2    4    4    0    0 -0.24668350030E+03 -0.34262542965E+03  0.17675461106E+03  0.46553113698E+03  0.85041828529E+02 0.  0.
         23    2    4    4    0    0 -0.37066273759E+03  0.16207119158E+03 -0.58349006306E+03  0.71589704116E+03  0.91596853994E+02 0.  0.
          4    1    3    3  502    0  0.47700148118E+03  0.16470266967E+03 -0.11278252221E+04  0.12355756205E+04  0.00000000000E+00 0. -1.
         -3    1    3    3    0  502  0.14034475671E+03  0.15851568405E+02 -0.26203714675E+03  0.29767665215E+03  0.00000000000E+00 0.  1.
         11    1    5    5    0    0 -0.16695008167E+03 -0.25850297402E+03  0.89575588802E+02  0.32049945937E+03  0.00000000000E+00 0.  1.
        -11    1    5    5    0    0 -0.79733418629E+02 -0.84122455636E+02  0.87179022259E+02  0.14503167761E+03  0.00000000000E+00 0. -1.
          1    1    6    6  503    0 -0.25467189374E+03  0.83203371496E+02 -0.44063292865E+03  0.51569172216E+03  0.00000000000E+00 0. -1.
         -1    1    6    6    0  503 -0.11599084385E+03  0.78867820087E+02 -0.14285713441E+03  0.20020531900E+03  0.00000000000E+00 0.  1.
<mgrwt>
<rscale>  0 0.20351231E+04</rscale>
<asrwt>0</asrwt>
<pdfrwt beam="1">  1        2 0.34702140E+00 0.20351231E+04</pdfrwt>
<pdfrwt beam="2">  1       -1 0.70621742E-01 0.20351231E+04</pdfrwt>
<totfact> 0.10264385E+01</totfact>
</mgrwt>
</event>
<event>
12    6  0.8914180E-008  0.1564394E+04  0.7818608E-02  0.8842725E-01
         -1   -1    0    0    0  501 -0.00000000000E+00  0.00000000000E+00  0.19380109394E+04  0.19380109394E+04  0.00000000000E+00 0.  1.
          2   -1    0    0  501    0  0.00000000000E+00 -0.00000000000E+00 -0.31570122530E+03  0.31570122530E+03  0.00000000000E+00 0. -1.
         24    2    1    2    0    0  0.96086985388E+02  0.24805946002E+03  0.11910287848E+04  0.12231323865E+04  0.82079621049E+02 0.  0.
        254    2    1    2    0    0 -0.96086985388E+02 -0.24805946002E+03  0.43128092925E+03  0.10305797782E+04  0.89739915019E+03 0.  0.
         23    2    4    4    0    0  0.59744797295E+02  0.31312514872E+03  0.74667653177E+02  0.34136726714E+03  0.96641363186E+02 0.  0.
         23    2    4    4    0    0 -0.15583178268E+03 -0.56118460874E+03  0.35661327607E+03  0.68921251103E+03  0.92893202692E+02 0.  0.
          2    1    3    3  502    0  0.59373721588E+02  0.11047150676E+03  0.39390583574E+03  0.41338964676E+03  0.00000000000E+00 0. -1.
         -1    1    3    3    0  502  0.36713263801E+02  0.13758795326E+03  0.79712294910E+03  0.80974273977E+03  0.00000000000E+00 0.  1.
         11    1    5    5    0    0 -0.25058611500E+02  0.55260224766E+02  0.23874787114E+02  0.65204539039E+02  0.00000000000E+00 0. -1.
        -11    1    5    5    0    0  0.84803408795E+02  0.25786492395E+03  0.50792866063E+02  0.27616272810E+03  0.00000000000E+00 0.  1.
          1    1    6    6  503    0 -0.10747062123E+01 -0.15393280120E+03  0.85699426658E+02  0.17618414800E+03  0.00000000000E+00 0. -1.
         -1    1    6    6    0  503 -0.15475707647E+03 -0.40725180754E+03  0.27091384941E+03  0.51302836302E+03  0.00000000000E+00 0.  1.
<mgrwt>
<rscale>  0 0.15643944E+04</rscale>
<asrwt>0</asrwt>
<pdfrwt beam="1">  1        2 0.48569420E-01 0.15643944E+04</pdfrwt>
<pdfrwt beam="2">  1       -1 0.29815552E+00 0.15643944E+04</pdfrwt>
<totfact> 0.38833004E+00</totfact>
</mgrwt>
</event>
<event>
12    6  0.8914180E-008  0.1523611E+04  0.7818608E-02  0.8868902E-01
          2   -1    0    0  501    0  0.00000000000E+00  0.00000000000E+00  0.22151301448E+04  0.22151301448E+04  0.00000000000E+00 0. -1.
         -1   -1    0    0    0  501 -0.00000000000E+00 -0.00000000000E+00 -0.26199255171E+03  0.26199255171E+03  0.00000000000E+00 0.  1.
         24    2    1    2    0    0  0.45752046703E+03 -0.16533870467E+03  0.53190723504E+03  0.72567258353E+03  0.83746801655E+02 0.  0.
        254    2    1    2    0    0 -0.45752046703E+03  0.16533870467E+03  0.14212303581E+04  0.17514501130E+04  0.90056643433E+03 0.  0.
         23    2    4    4    0    0 -0.10276653286E+03 -0.34954336159E+03  0.68490309119E+03  0.78115687803E+03  0.91500283427E+02 0.  0.
         23    2    4    4    0    0 -0.35475393416E+03  0.51488206626E+03  0.73632726691E+03  0.97029323500E+03  0.91308389160E+02 0.  0.
          2    1    3    3  502    0  0.27630561300E+03 -0.75024098402E+02  0.26067132173E+03  0.38719884438E+03  0.00000000000E+00 0. -1.
         -1    1    3    3    0  502  0.18121485403E+03 -0.90314606270E+02  0.27123591330E+03  0.33847373915E+03  0.00000000000E+00 0.  1.
         11    1    5    5    0    0 -0.11715813069E+03 -0.31186357677E+03  0.63411530579E+03  0.71630101154E+03  0.00000000000E+00 0.  1.
        -11    1    5    5    0    0  0.14391597825E+02 -0.37679784819E+02  0.50787785397E+02  0.64855866484E+02  0.00000000000E+00 0. -1.
          4    1    6    6  503    0 -0.20662054612E+03  0.32873779015E+03  0.39171733515E+03  0.55154605919E+03  0.00000000000E+00 0.  1.
         -4    1    6    6    0  503 -0.14813338805E+03  0.18614427611E+03  0.34460993175E+03  0.41874717581E+03  0.00000000000E+00 0. -1.
<mgrwt>
<rscale>  0 0.15236110E+04</rscale>
<asrwt>0</asrwt>
<pdfrwt beam="1">  1        2 0.34078924E+00 0.15236110E+04</pdfrwt>
<pdfrwt beam="2">  1       -1 0.40306548E-01 0.15236110E+04</pdfrwt>
<totfact> 0.33443162E+01</totfact>
</mgrwt>
</event>
<event>
12    6  0.8914180E-008  0.2233607E+04  0.7818608E-02  0.8504569E-01
          2   -1    0    0  501    0  0.00000000000E+00  0.00000000000E+00  0.34124198941E+04  0.34124198941E+04  0.00000000000E+00 0. -1.
         -1   -1    0    0    0  501 -0.00000000000E+00 -0.00000000000E+00 -0.36550325388E+03  0.36550325388E+03  0.00000000000E+00 0.  1.
         24    2    1    2    0    0  0.82484711642E+03  0.16848062164E+02  0.20101470832E+04  0.21745140809E+04  0.84637871875E+02 0.  0.
        254    2    1    2    0    0 -0.82484711642E+03 -0.16848062164E+02  0.10367695570E+04  0.16034090670E+04  0.90298001044E+03 0.  0.
         23    2    4    4    0    0 -0.34093460218E+03 -0.44647997324E+03  0.49249941797E+03  0.75280728817E+03  0.92641065137E+02 0.  0.
         23    2    4    4    0    0 -0.48391251424E+03  0.42963191107E+03  0.54427013901E+03  0.85060177885E+03  0.92404012447E+02 0.  0.
          2    1    3    3  502    0  0.70610243854E+03  0.30159878020E+02  0.16476156983E+04  0.17927988625E+04  0.00000000000E+00 0. -1.
         -1    1    3    3    0  502  0.11874467788E+03 -0.13311815857E+02  0.36253138489E+03  0.38171521845E+03  0.00000000000E+00 0.  1.
         11    1    5    5    0    0 -0.11622356426E+03 -0.86074033274E+02  0.12671637877E+03  0.19228545640E+03  0.00000000000E+00 0.  1.
        -11    1    5    5    0    0 -0.22471103793E+03 -0.36040593996E+03  0.36578303920E+03  0.56052183177E+03  0.00000000000E+00 0. -1.
          2    1    6    6  503    0 -0.39779456964E+03  0.35881404456E+03  0.49240019190E+03  0.72763039188E+03  0.00000000000E+00 0. -1.
         -2    1    6    6    0  503 -0.86117944596E+02  0.70817866515E+02  0.51869947107E+02  0.12297138697E+03  0.00000000000E+00 0.  1.
<mgrwt>
<rscale>  0 0.22336075E+04</rscale>
<asrwt>0</asrwt>
<pdfrwt beam="1">  1        2 0.52498765E+00 0.22336075E+04</pdfrwt>
<pdfrwt beam="2">  1       -1 0.56231272E-01 0.22336075E+04</pdfrwt>
<totfact> 0.31113808E+00</totfact>
</mgrwt>
</event>
<event>
12    6  0.8914180E-008  0.2131888E+04  0.7818608E-02  0.8547325E-01
          2   -1    0    0  501    0  0.00000000000E+00  0.00000000000E+00  0.89799646631E+03  0.89799646631E+03  0.00000000000E+00 0. -1.
         -1   -1    0    0    0  501 -0.00000000000E+00 -0.00000000000E+00 -0.12653018394E+04  0.12653018394E+04  0.00000000000E+00 0.  1.
         24    2    1    2    0    0  0.30333107316E+03 -0.72406802811E+03  0.23522823694E+03  0.82341260295E+03  0.79948370661E+02 0.  0.
        254    2    1    2    0    0 -0.30333107316E+03  0.72406802811E+03 -0.60253361006E+03  0.13398857028E+04  0.90330653492E+03 0.  0.
         23    2    4    4    0    0  0.11453202597E+03  0.32669621470E+03 -0.66183000598E+03  0.75255066459E+03  0.92008392470E+02 0.  0.
         23    2    4    4    0    0 -0.41786309913E+03  0.39737181340E+03  0.59296395922E+02  0.58733503820E+03  0.94511675608E+02 0.  0.
          4    1    3    3  502    0  0.83453459656E+02 -0.27134674361E+03  0.11253650024E+03  0.30538172683E+03  0.00000000000E+00 0. -1.
         -3    1    3    3    0  502  0.21987761350E+03 -0.45272128449E+03  0.12269173669E+03  0.51803087611E+03  0.00000000000E+00 0.  1.
         11    1    5    5    0    0  0.12578408315E+03  0.29993341381E+03 -0.63282729374E+03  0.71151392958E+03  0.00000000000E+00 0. -1.
        -11    1    5    5    0    0 -0.11252057181E+02  0.26762800895E+02 -0.29002712246E+02  0.41036735009E+02  0.00000000000E+00 0.  1.
          3    1    6    6  503    0 -0.36228149213E+03  0.34628721551E+03  0.18448327939E+02  0.50150080356E+03  0.00000000000E+00 0. -1.
         -3    1    6    6    0  503 -0.55581607000E+02  0.51084597891E+02  0.40848067983E+02  0.85834234640E+02  0.00000000000E+00 0.  1.
<mgrwt>
<rscale>  0 0.21318880E+04</rscale>
<asrwt>0</asrwt>
<pdfrwt beam="1">  1        2 0.13815330E+00 0.21318880E+04</pdfrwt>
<pdfrwt beam="2">  1       -1 0.19466182E+00 0.21318880E+04</pdfrwt>
<totfact> 0.50549196E+00</totfact>
</mgrwt>
</event>
<event>
12    6  0.8914180E-008  0.2181825E+04  0.7818608E-02  0.8526031E-01
         -1   -1    0    0    0  501 -0.00000000000E+00  0.00000000000E+00  0.15142099031E+04  0.15142099031E+04  0.00000000000E+00 0.  1.
          2   -1    0    0  501    0  0.00000000000E+00 -0.00000000000E+00 -0.78594768232E+03  0.78594768232E+03  0.00000000000E+00 0. -1.
         24    2    1    2    0    0 -0.48341963402E+03  0.14367223075E+03  0.11079593002E+04  0.12200322887E+04  0.81047653445E+02 0.  0.
        254    2    1    2    0    0  0.48341963402E+03 -0.14367223075E+03 -0.37969707947E+03  0.10801252967E+04  0.87644995973E+03 0.  0.
         23    2    4    4    0    0  0.47820178147E+01  0.28873280749E+03  0.39872709846E+02  0.30523294401E+03  0.90486547645E+02 0.  0.
         23    2    4    4    0    0  0.47863761620E+03 -0.43240503823E+03 -0.41956978931E+03  0.77489235266E+03  0.91385257977E+02 0.  0.
          4    1    3    3  502    0 -0.22877927706E+03  0.10738693777E+03  0.58423947858E+03  0.63655925125E+03  0.00000000000E+00 0. -1.
         -3    1    3    3    0  502 -0.25464035695E+03  0.36285292975E+02  0.52371982164E+03  0.58347303747E+03  0.00000000000E+00 0.  1.
         11    1    5    5    0    0  0.27411260895E+02  0.24269842105E+03  0.70663852580E+01  0.24434368133E+03  0.00000000000E+00 0. -1.
        -11    1    5    5    0    0 -0.22629243080E+02  0.46034386436E+02  0.32806324588E+02  0.60889262681E+02  0.00000000000E+00 0.  1.
          1    1    6    6  503    0  0.46103128196E+02 -0.83329663124E+02 -0.51745691643E+02  0.10838333723E+03  0.00000000000E+00 0. -1.
         -1    1    6    6    0  503  0.43253448801E+03 -0.34907537511E+03 -0.36782409767E+03  0.66650901543E+03  0.00000000000E+00 0.  1.
<mgrwt>
<rscale>  0 0.21818247E+04</rscale>
<asrwt>0</asrwt>
<pdfrwt beam="1">  1        2 0.12091503E+00 0.21818247E+04</pdfrwt>
<pdfrwt beam="2">  1       -1 0.23295537E+00 0.21818247E+04</pdfrwt>
<totfact> 0.33234479E+00</totfact>
</mgrwt>
</event>
<event>
12    6  0.8914180E-008  0.1625796E+04  0.7818608E-02  0.8804856E-01
          2   -1    0    0  501    0  0.00000000000E+00  0.00000000000E+00  0.86732755660E+03  0.86732755660E+03  0.00000000000E+00 0. -1.
         -1   -1    0    0    0  501 -0.00000000000E+00 -0.00000000000E+00 -0.76188396962E+03  0.76188396962E+03  0.00000000000E+00 0.  1.
         24    2    1    2    0    0  0.31642367475E+03  0.42782073319E+03 -0.13115646224E+03  0.55379264004E+03  0.79559718940E+02 0.  0.
        254    2    1    2    0    0 -0.31642367475E+03 -0.42782073319E+03  0.23660004921E+03  0.10754188862E+04  0.90409716058E+03 0.  0.
         23    2    4    4    0    0 -0.43179562586E+03  0.14030273591E+03  0.10101480955E+03  0.47321144558E+03  0.87136446220E+02 0.  0.
         23    2    4    4    0    0  0.11537195111E+03 -0.56812346910E+03  0.13558523967E+03  0.60220744061E+03  0.90528896279E+02 0.  0.
          2    1    3    3  502    0  0.15437044590E+03  0.23510879854E+03 -0.10669293089E+03  0.30081516455E+03  0.00000000000E+00 0. -1.
         -1    1    3    3    0  502  0.16205322885E+03  0.19271193465E+03 -0.24463531342E+02  0.25297747549E+03  0.00000000000E+00 0.  1.
         11    1    5    5    0    0 -0.28527451801E+03  0.70057743595E+02  0.28035738785E+02  0.29508581923E+03  0.00000000000E+00 0.  1.
        -11    1    5    5    0    0 -0.14652110786E+03  0.70244992310E+02  0.72979070761E+02  0.17812562635E+03  0.00000000000E+00 0. -1.
          1    1    6    6  503    0  0.10246319246E+03 -0.27730011761E+03  0.70164042945E+02  0.30383721622E+03  0.00000000000E+00 0.  1.
         -1    1    6    6    0  503  0.12908758646E+02 -0.29082335149E+03  0.65421196720E+02  0.29837022439E+03  0.00000000000E+00 0. -1.
<mgrwt>
<rscale>  0 0.16257958E+04</rscale>
<asrwt>0</asrwt>
<pdfrwt beam="1">  1        2 0.13343501E+00 0.16257958E+04</pdfrwt>
<pdfrwt beam="2">  1       -1 0.11721292E+00 0.16257958E+04</pdfrwt>
<totfact> 0.22112495E+01</totfact>
</mgrwt>
</event>
<event>
12    6  0.8914180E-008  0.4311776E+04  0.7818608E-02  0.7944444E-01
          2   -1    0    0  501    0  0.00000000000E+00  0.00000000000E+00  0.24999622496E+04  0.24999622496E+04  0.00000000000E+00 0. -1.
         -1   -1    0    0    0  501 -0.00000000000E+00 -0.00000000000E+00 -0.18591694577E+04  0.18591694577E+04  0.00000000000E+00 0.  1.
         24    2    1    2    0    0 -0.28889486587E+03 -0.13352424479E+04  0.18791032251E+04  0.23245821774E+04  0.79503021802E+02 0.  0.
        254    2    1    2    0    0  0.28889486587E+03  0.13352424479E+04 -0.12383104332E+04  0.20345495300E+04  0.86002698944E+03 0.  0.
         23    2    4    4    0    0  0.37696109365E+03  0.20005710928E+03 -0.54592175538E+03  0.69882474813E+03  0.90570152387E+02 0.  0.
         23    2    4    4    0    0 -0.88066227782E+02  0.11351853387E+04 -0.69238867785E+03  0.13357247818E+04  0.91417711773E+02 0.  0.
          2    1    3    3  502    0 -0.20458899394E+03 -0.79039287860E+03  0.11572598088E+04  0.14162725105E+04  0.00000000000E+00 0. -1.
         -1    1    3    3    0  502 -0.84305871928E+02 -0.54484956933E+03  0.72184341637E+03  0.90830966691E+03  0.00000000000E+00 0.  1.
         11    1    5    5    0    0  0.33451407004E+03  0.16173126438E+03 -0.42149799647E+03  0.56188720039E+03  0.00000000000E+00 0. -1.
        -11    1    5    5    0    0  0.42447023613E+02  0.38325844898E+02 -0.12442375890E+03  0.13693754774E+03  0.00000000000E+00 0.  1.
          2    1    6    6  503    0 -0.29892717562E+02  0.85007195911E+02 -0.63898581292E+02  0.11046640490E+03  0.00000000000E+00 0. -1.
         -2    1    6    6    0  503 -0.58173510220E+02  0.10501781427E+04 -0.62849009656E+03  0.12252583769E+04  0.00000000000E+00 0.  1.
<mgrwt>
<rscale>  0 0.43117762E+04</rscale>
<asrwt>0</asrwt>
<pdfrwt beam="1">  1        2 0.38460958E+00 0.43117762E+04</pdfrwt>
<pdfrwt beam="2">  1       -1 0.28602607E+00 0.43117762E+04</pdfrwt>
<totfact> 0.12386948E-01</totfact>
</mgrwt>
</event>
<event>
12    6  0.8914180E-008  0.3049705E+04  0.7818608E-02  0.8229678E-01
          2   -1    0    0  501    0  0.00000000000E+00  0.00000000000E+00  0.19844050327E+04  0.19844050327E+04  0.00000000000E+00 0. -1.
         -1   -1    0    0    0  501 -0.00000000000E+00 -0.00000000000E+00 -0.11717239926E+04  0.11717239926E+04  0.00000000000E+00 0.  1.
         24    2    1    2    0    0 -0.99751346986E+03 -0.73978995529E+03 -0.20331973459E+03  0.12609424249E+04  0.79464355826E+02 0.  0.
        254    2    1    2    0    0  0.99751346986E+03  0.73978995529E+03  0.10160007747E+04  0.18951866004E+04  0.10085397245E+04 0.  0.
         23    2    4    4    0    0  0.10113434799E+04  0.67605101732E+03  0.11787544313E+04  0.16964044183E+04  0.92007222251E+02 0.  0.
         23    2    4    4    0    0 -0.13830010022E+02  0.63738937964E+02 -0.16275365661E+03  0.19878218209E+03  0.93657256998E+02 0.  0.
          4    1    3    3  502    0 -0.12337920134E+02 -0.28753537168E+01  0.40457451519E+01  0.13298871609E+02  0.00000000000E+00 0. -1.
         -3    1    3    3    0  502 -0.98517554973E+03 -0.73691460157E+03 -0.20736547975E+03  0.12476435533E+04  0.00000000000E+00 0.  1.
         11    1    5    5    0    0  0.93601618211E+02  0.79048943807E+02  0.15420949590E+03  0.19695321037E+03  0.00000000000E+00 0.  1.
        -11    1    5    5    0    0  0.91774186167E+03  0.59700207352E+03  0.10245449354E+04  0.14994512080E+04  0.00000000000E+00 0. -1.
          4    1    6    6  503    0  0.45720001349E+01 -0.11185906476E+01  0.11239003451E+02  0.12184811399E+02  0.00000000000E+00 0.  1.
         -4    1    6    6    0  503 -0.18402010157E+02  0.64857528611E+02 -0.17399266006E+03  0.18659737069E+03  0.00000000000E+00 0. -1.
<mgrwt>
<rscale>  0 0.30497049E+04</rscale>
<asrwt>0</asrwt>
<pdfrwt beam="1">  1        2 0.30529308E+00 0.30497049E+04</pdfrwt>
<pdfrwt beam="2">  1       -1 0.18026523E+00 0.30497049E+04</pdfrwt>
<totfact> 0.13696340E+00</totfact>
</mgrwt>
</event>
<event>
12    6  0.8914180E-008  0.1597522E+04  0.7818608E-02  0.8822072E-01
         -3   -1    0    0    0  501 -0.00000000000E+00  0.00000000000E+00  0.23030937007E+03  0.23030937007E+03  0.00000000000E+00 0.  1.
          2   -1    0    0  501    0  0.00000000000E+00 -0.00000000000E+00 -0.27702705645E+04  0.27702705645E+04  0.00000000000E+00 0. -1.
         24    2    1    2    0    0 -0.20620911853E+02 -0.33408029319E+03 -0.16686169400E+04  0.17038110282E+04  0.81576117562E+02 0.  0.
        254    2    1    2    0    0  0.20620911853E+02  0.33408029319E+03 -0.87134425438E+03  0.12967689064E+04  0.90018549340E+03 0.  0.
         23    2    4    4    0    0 -0.41025437123E+03  0.24936255888E+03 -0.31399390056E+03  0.58098528421E+03  0.91985846671E+02 0.  0.
         23    2    4    4    0    0  0.43087528308E+03  0.84717734303E+02 -0.55735035382E+03  0.71578362214E+03  0.94213442528E+02 0.  0.
          4    1    3    3  502    0 -0.27834203719E+01 -0.89211658098E+02 -0.28732215298E+03  0.30086622769E+03  0.00000000000E+00 0. -1.
         -3    1    3    3    0  502 -0.17837491481E+02 -0.24486863509E+03 -0.13812947870E+04  0.14029448005E+04  0.00000000000E+00 0.  1.
         11    1    5    5    0    0 -0.30996329398E+02  0.19668056249E+02  0.16032368503E+01  0.36744730795E+02  0.00000000000E+00 0.  1.
        -11    1    5    5    0    0 -0.37925804183E+03  0.22969450263E+03 -0.31559713742E+03  0.54424055341E+03  0.00000000000E+00 0. -1.
          3    1    6    6  503    0  0.15091667426E+03  0.52994557625E+02 -0.14200199265E+03  0.21388976513E+03  0.00000000000E+00 0. -1.
         -3    1    6    6    0  503  0.27995860882E+03  0.31723176678E+02 -0.41534836117E+03  0.50189385702E+03  0.00000000000E+00 0.  1.
<mgrwt>
<rscale>  0 0.15975222E+04</rscale>
<asrwt>0</asrwt>
<pdfrwt beam="1">  1        2 0.42619547E+00 0.15975222E+04</pdfrwt>
<pdfrwt beam="2">  1       -3 0.35432211E-01 0.15975222E+04</pdfrwt>
<totfact> 0.11847045E+01</totfact>
</mgrwt>
</event>
<event>
12    6  0.8914180E-008  0.2754854E+04  0.7818608E-02  0.8317423E-01
          2   -1    0    0  501    0  0.00000000000E+00  0.00000000000E+00  0.12680749390E+04  0.12680749390E+04  0.00000000000E+00 0. -1.
         -1   -1    0    0    0  501 -0.00000000000E+00 -0.00000000000E+00 -0.14962085190E+04  0.14962085190E+04  0.00000000000E+00 0.  1.
         24    2    1    2    0    0  0.41252411112E+03 -0.21615507598E+03  0.10437058376E+04  0.11457044764E+04  0.80110627205E+02 0.  0.
        254    2    1    2    0    0 -0.41252411112E+03  0.21615507598E+03 -0.12718394176E+04  0.16185789817E+04  0.88618466286E+03 0.  0.
         23    2    4    4    0    0 -0.11642310290E+03  0.53917507402E+02 -0.12590849769E+04  0.12688657164E+04  0.90905393987E+02 0.  0.
         23    2    4    4    0    0 -0.29610100821E+03  0.16223756858E+03 -0.12754440661E+02  0.34971326527E+03  0.90221152898E+02 0.  0.
          4    1    3    3  502    0  0.27086003879E+03 -0.14171989068E+03  0.58800214556E+03  0.66271880251E+03  0.00000000000E+00 0. -1.
         -3    1    3    3    0  502  0.14166407233E+03 -0.74435185298E+02  0.45570369207E+03  0.48298567387E+03  0.00000000000E+00 0.  1.
         11    1    5    5    0    0 -0.10575064421E+02  0.28336479282E+02 -0.60681264851E+03  0.60756594575E+03  0.00000000000E+00 0.  1.
        -11    1    5    5    0    0 -0.10584803848E+03  0.25581028119E+02 -0.65227232842E+03  0.66129977066E+03  0.00000000000E+00 0. -1.
          4    1    6    6  503    0 -0.29094717766E+03  0.17227422647E+03 -0.13603703910E+02  0.33839877372E+03  0.00000000000E+00 0. -1.
         -4    1    6    6    0  503 -0.51538305552E+01 -0.10036657896E+02  0.84926324893E+00  0.11314491557E+02  0.00000000000E+00 0.  1.
<mgrwt>
<rscale>  0 0.27548536E+04</rscale>
<asrwt>0</asrwt>
<pdfrwt beam="1">  1        2 0.19508845E+00 0.27548536E+04</pdfrwt>
<pdfrwt beam="2">  1       -1 0.23018593E+00 0.27548536E+04</pdfrwt>
<totfact> 0.16164342E+00</totfact>
</mgrwt>
</event>
<event>
12    6  0.8914180E-008  0.3124364E+04  0.7818608E-02  0.8209083E-01
         -1   -1    0    0    0  501 -0.00000000000E+00  0.00000000000E+00  0.66210178527E+03  0.66210178527E+03  0.00000000000E+00 0.  1.
          2   -1    0    0  501    0  0.00000000000E+00 -0.00000000000E+00 -0.36858563749E+04  0.36858563749E+04  0.00000000000E+00 0. -1.
         24    2    1    2    0    0  0.11327416048E+04 -0.81585734470E+03 -0.18193636977E+04  0.22944808070E+04  0.76362026732E+02 0.  0.
        254    2    1    2    0    0 -0.11327416048E+04  0.81585734470E+03 -0.12043908920E+04  0.20534773532E+04  0.90414880928E+03 0.  0.
         23    2    4    4    0    0 -0.99123384672E+03  0.35174065856E+03 -0.11440847840E+04  0.15567193109E+04  0.90437770740E+02 0.  0.
         23    2    4    4    0    0 -0.14150775808E+03  0.46411668615E+03 -0.60306108019E+02  0.49675804228E+03  0.87766633447E+02 0.  0.
          2    1    3    3  502    0  0.67167554155E+03 -0.44577478213E+03 -0.10137803262E+04  0.12952272925E+04  0.00000000000E+00 0. -1.
         -3    1    3    3    0  502  0.46106606324E+03 -0.37008256257E+03 -0.80558337151E+03  0.99925351450E+03  0.00000000000E+00 0.  1.
         11    1    5    5    0    0 -0.25322942253E+02 -0.11776213992E+01 -0.14766106139E+02  0.29337281521E+02  0.00000000000E+00 0. -1.
        -11    1    5    5    0    0 -0.96591090446E+03  0.35291827996E+03 -0.11293186778E+04  0.15273820294E+04  0.00000000000E+00 0.  1.
          3    1    6    6  503    0 -0.55418626412E+02  0.85895797202E+02 -0.34964827421E+02  0.10803634244E+03  0.00000000000E+00 0. -1.
         -3    1    6    6    0  503 -0.86089131665E+02  0.37822088894E+03 -0.25341280598E+02  0.38872169984E+03  0.00000000000E+00 0.  1.
<mgrwt>
<rscale>  0 0.31243637E+04</rscale>
<asrwt>0</asrwt>
<pdfrwt beam="1">  1        2 0.56705482E+00 0.31243637E+04</pdfrwt>
<pdfrwt beam="2">  1       -1 0.10186181E+00 0.31243637E+04</pdfrwt>
<totfact> 0.52496346E-01</totfact>
</mgrwt>
</event>
<event>
12    6  0.8914180E-008  0.1398660E+04  0.7818608E-02  0.8954789E-01
         -1   -1    0    0    0  501 -0.00000000000E+00  0.00000000000E+00  0.40877860507E+03  0.40877860507E+03  0.00000000000E+00 0.  1.
          2   -1    0    0  501    0  0.00000000000E+00 -0.00000000000E+00 -0.11964001249E+04  0.11964001249E+04  0.00000000000E+00 0. -1.
         24    2    1    2    0    0 -0.20435123543E+03 -0.12470240652E+03  0.13771628490E+03  0.28756760455E+03  0.80120125128E+02 0.  0.
        254    2    1    2    0    0  0.20435123543E+03  0.12470240652E+03 -0.92533780474E+03  0.13176111254E+04  0.90693930743E+03 0.  0.
         23    2    4    4    0    0  0.43154054721E+03  0.27193138801E+03 -0.23279962932E+03  0.56782044809E+03  0.89724412457E+02 0.  0.
         23    2    4    4    0    0 -0.22718931178E+03 -0.14722898149E+03 -0.69253817542E+03  0.74979067733E+03  0.96361709325E+02 0.  0.
          2    1    3    3  502    0 -0.75399531712E+01 -0.35152067903E+02  0.15096958503E+02  0.38992780457E+02  0.00000000000E+00 0. -1.
         -1    1    3    3    0  502 -0.19681128226E+03 -0.89550338616E+02  0.12261932639E+03  0.24857482410E+03  0.00000000000E+00 0.  1.
         11    1    5    5    0    0  0.28901788090E+03  0.22146755649E+03 -0.18989793523E+03  0.41065854413E+03  0.00000000000E+00 0. -1.
        -11    1    5    5    0    0  0.14252266631E+03  0.50463831515E+02 -0.42901694093E+02  0.15716190397E+03  0.00000000000E+00 0.  1.
          3    1    6    6  503    0 -0.21234105099E+03 -0.15642373765E+03 -0.59687636597E+03  0.65254770238E+03  0.00000000000E+00 0. -1.
         -3    1    6    6    0  503 -0.14848260792E+02  0.91947561596E+01 -0.95661809454E+02  0.97242974951E+02  0.00000000000E+00 0.  1.
<mgrwt>
<rscale>  0 0.13986605E+04</rscale>
<asrwt>0</asrwt>
<pdfrwt beam="1">  1        2 0.18406156E+00 0.13986605E+04</pdfrwt>
<pdfrwt beam="2">  1       -1 0.62889016E-01 0.13986605E+04</pdfrwt>
<totfact> 0.54180440E+01</totfact>
</mgrwt>
</event>
<event>
12    6  0.8914180E-008  0.1360528E+04  0.7818608E-02  0.8982897E-01
          2   -1    0    0  501    0  0.00000000000E+00  0.00000000000E+00  0.55867547100E+03  0.55867547100E+03  0.00000000000E+00 0. -1.
         -1   -1    0    0    0  501 -0.00000000000E+00 -0.00000000000E+00 -0.82831441980E+03  0.82831441980E+03  0.00000000000E+00 0.  1.
         24    2    1    2    0    0 -0.15895071779E+03 -0.28052470922E+03 -0.28383466235E+03  0.43698586192E+03  0.80218980279E+02 0.  0.
        254    2    1    2    0    0  0.15895071779E+03  0.28052470922E+03  0.14195713561E+02  0.95000402887E+03  0.89350248652E+03 0.  0.
         23    2    4    4    0    0 -0.15815358502E+03 -0.13831177009E+03  0.27423571765E+03  0.35705316022E+03  0.90216562707E+02 0.  0.
         23    2    4    4    0    0  0.31710430281E+03  0.41883647931E+03 -0.26004000409E+03  0.59295086865E+03  0.89391239199E+02 0.  0.
          4    1    3    3  502    0 -0.60809849168E+02 -0.44786553105E+02 -0.82173100822E+02  0.11160686177E+03  0.00000000000E+00 0. -1.
         -3    1    3    3    0  502 -0.98140868626E+02 -0.23573815611E+03 -0.20166156153E+03  0.32537900015E+03  0.00000000000E+00 0.  1.
         11    1    5    5    0    0 -0.44204925902E+02 -0.41347625950E+02  0.15280698452E+03  0.16435837723E+03  0.00000000000E+00 0.  1.
        -11    1    5    5    0    0 -0.11394865911E+03 -0.96964144145E+02  0.12142873313E+03  0.19269478300E+03  0.00000000000E+00 0. -1.
          1    1    6    6  503    0  0.81280263789E+02  0.79600567684E+02 -0.21178775079E+02  0.11572066441E+03  0.00000000000E+00 0. -1.
         -1    1    6    6    0  503  0.23582403902E+03  0.33923591163E+03 -0.23886122901E+03  0.47723020425E+03  0.00000000000E+00 0.  1.
<mgrwt>
<rscale>  0 0.13605278E+04</rscale>
<asrwt>0</asrwt>
<pdfrwt beam="1">  1        2 0.85950073E-01 0.13605278E+04</pdfrwt>
<pdfrwt beam="2">  1       -1 0.12743299E+00 0.13605278E+04</pdfrwt>
<totfact> 0.32160369E+01</totfact>
</mgrwt>
</event>
<event>
12    6  0.8914180E-008  0.1739841E+04  0.7818608E-02  0.8738962E-01
          2   -1    0    0  501    0  0.00000000000E+00  0.00000000000E+00  0.12588024964E+04  0.12588024964E+04  0.00000000000E+00 0. -1.
         -1   -1    0    0    0  501 -0.00000000000E+00 -0.00000000000E+00 -0.60117598261E+03  0.60117598261E+03  0.00000000000E+00 0.  1.
         24    2    1    2    0    0 -0.41621989265E+02  0.56634226300E+03 -0.53686703312E+02  0.57637143481E+03  0.82739470022E+02 0.  0.
        254    2    1    2    0    0  0.41621989265E+02 -0.56634226300E+03  0.71131321710E+03  0.12836070442E+04  0.90509922233E+03 0.  0.
         23    2    4    4    0    0 -0.15659929719E+02 -0.18174677563E+02  0.71832623177E+03  0.72463012787E+03  0.92307608920E+02 0.  0.
         23    2    4    4    0    0  0.57281918984E+02 -0.54816758544E+03 -0.70130146710E+01  0.55897691634E+03  0.92935949213E+02 0.  0.
          4    1    3    3  502    0 -0.34635382948E+02  0.83535365376E+02 -0.17933965674E+02  0.92192158806E+02  0.00000000000E+00 0. -1.
         -3    1    3    3    0  502 -0.69866063169E+01  0.48280689762E+03 -0.35752737638E+02  0.48417927600E+03  0.00000000000E+00 0.  1.
         11    1    5    5    0    0 -0.25000231360E+02 -0.22845559473E+02  0.89129388101E+02  0.95346625420E+02  0.00000000000E+00 0. -1.
        -11    1    5    5    0    0  0.93403016416E+01  0.46708819104E+01  0.62919684367E+03  0.62928350245E+03  0.00000000000E+00 0.  1.
          2    1    6    6  503    0  0.61403970635E+02 -0.23853838815E+03  0.25436174879E+02  0.24762473468E+03  0.00000000000E+00 0. -1.
         -2    1    6    6    0  503 -0.41220516515E+01 -0.30962919728E+03 -0.32449189550E+02  0.31135218166E+03  0.00000000000E+00 0.  1.
<mgrwt>
<rscale>  0 0.17398412E+04</rscale>
<asrwt>0</asrwt>
<pdfrwt beam="1">  1        2 0.19366192E+00 0.17398412E+04</pdfrwt>
<pdfrwt beam="2">  1       -1 0.92488613E-01 0.17398412E+04</pdfrwt>
<totfact> 0.21492281E+01</totfact>
</mgrwt>
</event>
<event>
12    6  0.8914180E-008  0.2009632E+04  0.7818608E-02  0.8602131E-01
          2   -1    0    0  501    0  0.00000000000E+00  0.00000000000E+00  0.13587006275E+04  0.13587006275E+04  0.00000000000E+00 0. -1.
         -1   -1    0    0    0  501 -0.00000000000E+00 -0.00000000000E+00 -0.74310342611E+03  0.74310342611E+03  0.00000000000E+00 0.  1.
         24    2    1    2    0    0  0.28362709970E+03  0.38367315934E+03 -0.43139391701E+03  0.64808207251E+03  0.79121654342E+02 0.  0.
        254    2    1    2    0    0 -0.28362709970E+03 -0.38367315934E+03  0.10469911184E+04  0.14537219811E+04  0.88851998931E+03 0.  0.
         23    2    4    4    0    0 -0.33837680855E+03 -0.35683511966E+03  0.11191140909E+03  0.51228812440E+03  0.89915469905E+02 0.  0.
         23    2    4    4    0    0  0.54749708850E+02 -0.26838039685E+02  0.93507970928E+03  0.94143385666E+03  0.90586051805E+02 0.  0.
          4    1    3    3  502    0  0.94442752803E+02  0.18978065164E+03 -0.20753347426E+03  0.29665851114E+03  0.00000000000E+00 0. -1.
         -3    1    3    3    0  502  0.18918434690E+03  0.19389250770E+03 -0.22386044275E+03  0.35142356137E+03  0.00000000000E+00 0.  1.
         11    1    5    5    0    0 -0.19738251410E+03 -0.20974327898E+03  0.11063075731E+03  0.30853081599E+03  0.00000000000E+00 0.  1.
        -11    1    5    5    0    0 -0.14099429446E+03 -0.14709184068E+03  0.12806517737E+01  0.20375730841E+03  0.00000000000E+00 0. -1.
          1    1    6    6  503    0 -0.11833483160E+02 -0.39632915543E+02  0.34327262618E+03  0.34575554255E+03  0.00000000000E+00 0. -1.
         -1    1    6    6    0  503  0.66583192010E+02  0.12794875858E+02  0.59180708310E+03  0.59567831412E+03  0.00000000000E+00 0.  1.
<mgrwt>
<rscale>  0 0.20096319E+04</rscale>
<asrwt>0</asrwt>
<pdfrwt beam="1">  1        2 0.20903087E+00 0.20096319E+04</pdfrwt>
<pdfrwt beam="2">  1       -1 0.11432360E+00 0.20096319E+04</pdfrwt>
<totfact> 0.11258933E+01</totfact>
</mgrwt>
</event>
<event>
12    6  0.8914180E-008  0.1598540E+04  0.7818608E-02  0.8821446E-01
          2   -1    0    0  501    0  0.00000000000E+00  0.00000000000E+00  0.19571489425E+04  0.19571489425E+04  0.00000000000E+00 0. -1.
         -1   -1    0    0    0  501 -0.00000000000E+00 -0.00000000000E+00 -0.32640970069E+03  0.32640970069E+03  0.00000000000E+00 0.  1.
         24    2    1    2    0    0 -0.24433858042E+03  0.18405525797E+02 -0.13424789018E+03  0.29004400518E+03  0.77864778038E+02 0.  0.
        254    2    1    2    0    0  0.24433858042E+03 -0.18405525797E+02  0.17649871320E+04  0.19935146380E+04  0.89380139324E+03 0.  0.
         23    2    4    4    0    0  0.38249879388E+03 -0.35938658790E+03  0.12040383010E+04  0.13166265921E+04  0.91286941579E+02 0.  0.
         23    2    4    4    0    0 -0.13816021346E+03  0.34098106210E+03  0.56094883096E+03  0.67688804593E+03  0.90318915412E+02 0.  0.
          2    1    3    3  502    0 -0.45618432735E+02 -0.27181406131E+02 -0.31375749414E+02  0.61679071780E+02  0.00000000000E+00 0. -1.
         -1    1    3    3    0  502 -0.19872014769E+03  0.45586931928E+02 -0.10287214077E+03  0.22836493340E+03  0.00000000000E+00 0.  1.
         11    1    5    5    0    0  0.35377421627E+03 -0.35805036598E+03  0.11521982976E+04  0.12573452898E+04  0.00000000000E+00 0. -1.
        -11    1    5    5    0    0  0.28724577607E+02 -0.13362219218E+01  0.51840003390E+02  0.59281302273E+02  0.00000000000E+00 0.  1.
          1    1    6    6  503    0 -0.13707337813E+03  0.25460069057E+03  0.46688810212E+03  0.54917676802E+03  0.00000000000E+00 0. -1.
         -1    1    6    6    0  503 -0.10868353228E+01  0.86380371528E+02  0.94060728833E+02  0.12771127791E+03  0.00000000000E+00 0.  1.
<mgrwt>
<rscale>  0 0.15985398E+04</rscale>
<asrwt>0</asrwt>
<pdfrwt beam="1">  1        2 0.30109983E+00 0.15985398E+04</pdfrwt>
<pdfrwt beam="2">  1       -1 0.50216878E-01 0.15985398E+04</pdfrwt>
<totfact> 0.30698535E+01</totfact>
</mgrwt>
</event>
<event>
12    6  0.8914180E-008  0.1445054E+04  0.7818608E-02  0.8921837E-01
          2   -1    0    0  501    0  0.00000000000E+00  0.00000000000E+00  0.56766078462E+03  0.56766078462E+03  0.00000000000E+00 0. -1.
         -1   -1    0    0    0  501 -0.00000000000E+00 -0.00000000000E+00 -0.91964313006E+03  0.91964313006E+03  0.00000000000E+00 0.  1.
         24    2    1    2    0    0 -0.82326157919E+02 -0.20755975244E+03 -0.48413760759E+03  0.53899101524E+03  0.79141925176E+02 0.  0.
        254    2    1    2    0    0  0.82326157919E+02  0.20755975244E+03  0.13215526215E+03  0.94831289944E+03  0.91212592049E+03 0.  0.
         23    2    4    4    0    0  0.35942577348E+03 -0.16751906151E+03  0.22414379941E+03  0.46444346944E+03  0.90651921537E+02 0.  0.
         23    2    4    4    0    0 -0.27709961556E+03  0.37507881395E+03 -0.91988537254E+02  0.48386943001E+03  0.90550652639E+02 0.  0.
          4    1    3    3  502    0 -0.82829010157E+02 -0.11606871800E+03 -0.25320756486E+03  0.29059708038E+03  0.00000000000E+00 0. -1.
         -3    1    3    3    0  502  0.50285223795E+00 -0.91491034436E+02 -0.23093004273E+03  0.24839393486E+03  0.00000000000E+00 0.  1.
         11    1    5    5    0    0  0.14031213182E+03 -0.34808915278E+02  0.43434876088E+02  0.15094947294E+03  0.00000000000E+00 0.  1.
        -11    1    5    5    0    0  0.21911364166E+03 -0.13271014623E+03  0.18070892332E+03  0.31349399650E+03  0.00000000000E+00 0. -1.
          1    1    6    6  503    0 -0.79522009284E+02  0.14102171219E+03 -0.71207331726E+02  0.17686536507E+03  0.00000000000E+00 0. -1.
         -1    1    6    6    0  503 -0.19757760628E+03  0.23405710175E+03 -0.20781205528E+02  0.30700406493E+03  0.00000000000E+00 0.  1.
<mgrwt>
<rscale>  0 0.14450541E+04</rscale>
<asrwt>0</asrwt>
<pdfrwt beam="1">  1        2 0.87332430E-01 0.14450541E+04</pdfrwt>
<pdfrwt beam="2">  1       -1 0.14148356E+00 0.14450541E+04</pdfrwt>
<totfact> 0.23971298E+01</totfact>
</mgrwt>
</event>
<event>
12    6  0.8914180E-008  0.2470675E+04  0.7818608E-02  0.8413508E-01
         -1   -1    0    0    0  501 -0.00000000000E+00  0.00000000000E+00  0.21412501264E+04  0.21412501264E+04  0.00000000000E+00 0.  1.
          2   -1    0    0  501    0  0.00000000000E+00 -0.00000000000E+00 -0.71269509635E+03  0.71269509635E+03  0.00000000000E+00 0. -1.
         24    2    1    2    0    0  0.96348103090E+03  0.11607418412E+03  0.99773352306E+02  0.97884417800E+03  0.80076774683E+02 0.  0.
        254    2    1    2    0    0 -0.96348103090E+03 -0.11607418412E+03  0.13287816777E+04  0.18751010447E+04  0.89920757766E+03 0.  0.
         23    2    4    4    0    0 -0.26884625955E+03 -0.30644270444E+03  0.72705197953E+02  0.42416964941E+03  0.91915196201E+02 0.  0.
         23    2    4    4    0    0 -0.69463477135E+03  0.19036852033E+03  0.12560764798E+04  0.14509313953E+04  0.93360332848E+02 0.  0.
          4    1    3    3  502    0  0.82829613120E+03  0.12181068783E+03  0.68725459035E+02  0.84002113864E+03  0.00000000000E+00 0. -1.
         -3    1    3    3    0  502  0.13518489970E+03 -0.57365037066E+01  0.31047893271E+02  0.13882303936E+03  0.00000000000E+00 0.  1.
         11    1    5    5    0    0 -0.11421563742E+03 -0.14752718652E+03  0.78373928741E+02  0.20236589461E+03  0.00000000000E+00 0. -1.
        -11    1    5    5    0    0 -0.15463062213E+03 -0.15891551793E+03 -0.56687307882E+01  0.22180375481E+03  0.00000000000E+00 0.  1.
          1    1    6    6  503    0 -0.93992315213E+01  0.44886489915E+01  0.52661406957E+02  0.53681629126E+02  0.00000000000E+00 0. -1.
         -1    1    6    6    0  503 -0.68523553983E+03  0.18587987133E+03  0.12034150728E+04  0.13972497662E+04  0.00000000000E+00 0.  1.
<mgrwt>
<rscale>  0 0.24706748E+04</rscale>
<asrwt>0</asrwt>
<pdfrwt beam="1">  1        2 0.10964540E+00 0.24706748E+04</pdfrwt>
<pdfrwt beam="2">  1       -1 0.32942309E+00 0.24706748E+04</pdfrwt>
<totfact> 0.86757648E-01</totfact>
</mgrwt>
</event>
<event>
12    6  0.8914180E-008  0.3713613E+04  0.7818608E-02  0.8064952E-01
          2   -1    0    0  501    0  0.00000000000E+00  0.00000000000E+00  0.25382715515E+04  0.25382715515E+04  0.00000000000E+00 0. -1.
         -1   -1    0    0    0  501 -0.00000000000E+00 -0.00000000000E+00 -0.13582981162E+04  0.13582981162E+04  0.00000000000E+00 0.  1.
         24    2    1    2    0    0  0.51532919214E+03  0.16698491737E+04  0.56112437244E+03  0.18371154310E+04  0.78562754799E+02 0.  0.
        254    2    1    2    0    0 -0.51532919214E+03 -0.16698491737E+04  0.61884906286E+03  0.20594542367E+04  0.89689305460E+03 0.  0.
         23    2    4    4    0    0 -0.20154551459E+03 -0.12204709672E+04  0.79894842694E+03  0.14754258640E+04  0.91612853651E+02 0.  0.
         23    2    4    4    0    0 -0.31378367755E+03 -0.44937820654E+03 -0.18009936408E+03  0.58402837278E+03  0.90842668738E+02 0.  0.
          4    1    3    3  502    0  0.46052125881E+03  0.15215783345E+04  0.48809117165E+03  0.16629832981E+04  0.00000000000E+00 0. -1.
         -3    1    3    3    0  502  0.54807933323E+02  0.14827083919E+03  0.73033200792E+02  0.17413213296E+03  0.00000000000E+00 0.  1.
         11    1    5    5    0    0 -0.20272729430E+03 -0.10220969621E+04  0.67230482991E+03  0.12400702964E+04  0.00000000000E+00 0.  1.
        -11    1    5    5    0    0  0.11817797152E+01 -0.19837400508E+03  0.12664359703E+03  0.23535556752E+03  0.00000000000E+00 0. -1.
          3    1    6    6  503    0 -0.12288132577E+03 -0.12633308198E+03 -0.25003126321E+02  0.17800287680E+03  0.00000000000E+00 0. -1.
         -3    1    6    6    0  503 -0.19090235179E+03 -0.32304512455E+03 -0.15509623776E+03  0.40602549598E+03  0.00000000000E+00 0.  1.
<mgrwt>
<rscale>  0 0.37136125E+04</rscale>
<asrwt>0</asrwt>
<pdfrwt beam="1">  1        2 0.39050332E+00 0.37136125E+04</pdfrwt>
<pdfrwt beam="2">  1       -1 0.20896894E+00 0.37136125E+04</pdfrwt>
<totfact> 0.39646196E-01</totfact>
</mgrwt>
</event>
<event>
12    6  0.8914180E-008  0.2067658E+04  0.7818608E-02  0.8575626E-01
          2   -1    0    0  501    0  0.00000000000E+00  0.00000000000E+00  0.20022308030E+04  0.20022308030E+04  0.00000000000E+00 0. -1.
         -1   -1    0    0    0  501 -0.00000000000E+00 -0.00000000000E+00 -0.53380590887E+03  0.53380590887E+03  0.00000000000E+00 0.  1.
         24    2    1    2    0    0  0.68233847060E+03 -0.48219585655E+03  0.57763429953E+03  0.10194741819E+04  0.86991902277E+02 0.  0.
        254    2    1    2    0    0 -0.68233847060E+03  0.48219585655E+03  0.89079059460E+03  0.15165625300E+04  0.89908586425E+03 0.  0.
         23    2    4    4    0    0 -0.87846234942E+03  0.49229592087E+03  0.71615522542E+03  0.12390003443E+04  0.90510624996E+02 0.  0.
         23    2    4    4    0    0  0.19612387883E+03 -0.10100064323E+02  0.17463536918E+03  0.27756218564E+03  0.89312191699E+02 0.  0.
          2    1    3    3  502    0  0.17228127549E+03 -0.16955373427E+03  0.16039413882E+03  0.29009582289E+03  0.00000000000E+00 0. -1.
         -1    1    3    3    0  502  0.51005719510E+03 -0.31264212228E+03  0.41724016071E+03  0.72937835902E+03  0.00000000000E+00 0.  1.
         11    1    5    5    0    0 -0.43210322604E+03  0.20727508167E+03  0.38124380148E+03  0.61239120960E+03  0.00000000000E+00 0.  1.
        -11    1    5    5    0    0 -0.44635912338E+03  0.28502083920E+03  0.33491142394E+03  0.62660913470E+03  0.00000000000E+00 0. -1.
          2    1    6    6  503    0  0.14959290744E+02  0.18251668623E+02 -0.10386590894E+01  0.23621655314E+02  0.00000000000E+00 0. -1.
         -2    1    6    6    0  503  0.18116458808E+03 -0.28351732947E+02  0.17567402827E+03  0.25394053033E+03  0.00000000000E+00 0.  1.
<mgrwt>
<rscale>  0 0.20676582E+04</rscale>
<asrwt>0</asrwt>
<pdfrwt beam="1">  1        2 0.30803551E+00 0.20676582E+04</pdfrwt>
<pdfrwt beam="2">  1       -1 0.82123987E-01 0.20676582E+04</pdfrwt>
<totfact> 0.10334657E+01</totfact>
</mgrwt>
</event>
<event>
12    6  0.8914180E-008  0.3356680E+04  0.7818608E-02  0.8148621E-01
          2   -1    0    0  501    0  0.00000000000E+00  0.00000000000E+00  0.15223804994E+04  0.15223804994E+04  0.00000000000E+00 0. -1.
         -1   -1    0    0    0  501 -0.00000000000E+00 -0.00000000000E+00 -0.18502771604E+04  0.18502771604E+04  0.00000000000E+00 0.  1.
         24    2    1    2    0    0  0.55708944681E+03  0.66488159401E+03 -0.14509236875E+04  0.16912924246E+04  0.53612804354E+02 0.  0.
        254    2    1    2    0    0 -0.55708944681E+03 -0.66488159401E+03  0.11230270265E+04  0.16813652352E+04  0.90187757815E+03 0.  0.
         23    2    4    4    0    0 -0.23582907513E+03 -0.42779671140E+03  0.11682925365E+04  0.12697469077E+04  0.93404388605E+02 0.  0.
         23    2    4    4    0    0 -0.32126037168E+03 -0.23708488261E+03 -0.45265509942E+02  0.41161832751E+03  0.89236837541E+02 0.  0.
          4    1    3    3  502    0  0.51411016253E+02  0.63984329419E+02 -0.16997416261E+03  0.18875461043E+03  0.00000000000E+00 0. -1.
         -3    1    3    3    0  502  0.50567843055E+03  0.60089726459E+03 -0.12809495249E+04  0.15025378142E+04  0.00000000000E+00 0.  1.
         11    1    5    5    0    0 -0.16377906773E+03 -0.20194977690E+03  0.63188467306E+03  0.68329022785E+03  0.00000000000E+00 0. -1.
        -11    1    5    5    0    0 -0.72050007395E+02 -0.22584693450E+03  0.53640786343E+03  0.58645667984E+03  0.00000000000E+00 0.  1.
          2    1    6    6  503    0 -0.14327450776E+03 -0.10106495705E+03 -0.64415446173E+02  0.18679148756E+03  0.00000000000E+00 0. -1.
         -2    1    6    6    0  503 -0.17798586392E+03 -0.13601992556E+03  0.19149936230E+02  0.22482683995E+03  0.00000000000E+00 0.  1.
<mgrwt>
<rscale>  0 0.33566804E+04</rscale>
<asrwt>0</asrwt>
<pdfrwt beam="1">  1        2 0.23421238E+00 0.33566804E+04</pdfrwt>
<pdfrwt beam="2">  1       -1 0.28465802E+00 0.33566804E+04</pdfrwt>
<totfact> 0.48451765E-01</totfact>
</mgrwt>
</event>
<event>
12    6  0.8914180E-008  0.1926604E+04  0.7818608E-02  0.8641726E-01
          2   -1    0    0  501    0  0.00000000000E+00  0.00000000000E+00  0.19341172497E+04  0.19341172497E+04  0.00000000000E+00 0. -1.
         -1   -1    0    0    0  501 -0.00000000000E+00 -0.00000000000E+00 -0.47977996255E+03  0.47977996255E+03  0.00000000000E+00 0.  1.
         24    2    1    2    0    0  0.58739843562E+03  0.46002113821E+03  0.57520987354E+03  0.94557980591E+03  0.81230542021E+02 0.  0.
        254    2    1    2    0    0 -0.58739843562E+03 -0.46002113821E+03  0.87912741364E+03  0.14683174064E+04  0.90908449920E+03 0.  0.
         23    2    4    4    0    0 -0.53961437538E+03 -0.61431090184E+03  0.96097864829E+03  0.12654449317E+04  0.96484996041E+02 0.  0.
         23    2    4    4    0    0 -0.47784060243E+02  0.15428976364E+03 -0.81851234648E+02  0.20287247467E+03  0.91482068129E+02 0.  0.
          4    1    3    3  502    0  0.44924587527E+03  0.33697105672E+03  0.47288957799E+03  0.73416340312E+03  0.00000000000E+00 0. -1.
         -3    1    3    3    0  502  0.13815256035E+03  0.12305008149E+03  0.10232029555E+03  0.21141640278E+03  0.00000000000E+00 0.  1.
         11    1    5    5    0    0 -0.34546727919E+03 -0.39587988857E+03  0.68669899880E+03  0.86465255573E+03  0.00000000000E+00 0.  1.
        -11    1    5    5    0    0 -0.19414709619E+03 -0.21843101327E+03  0.27427964949E+03  0.40079237597E+03  0.00000000000E+00 0. -1.
          3    1    6    6  503    0 -0.44078744226E+02  0.14017468435E+03 -0.31275293714E+02  0.15023322476E+03  0.00000000000E+00 0. -1.
         -3    1    6    6    0  503 -0.37053160163E+01  0.14115079293E+02 -0.50575940934E+02  0.52639249915E+02  0.00000000000E+00 0.  1.
<mgrwt>
<rscale>  0 0.19266040E+04</rscale>
<asrwt>0</asrwt>
<pdfrwt beam="1">  1        2 0.29755649E+00 0.19266040E+04</pdfrwt>
<pdfrwt beam="2">  1       -1 0.73812303E-01 0.19266040E+04</pdfrwt>
<totfact> 0.14299886E+01</totfact>
</mgrwt>
</event>
<event>
12    6  0.8914180E-008  0.3264523E+04  0.7818608E-02  0.8171982E-01
         -1   -1    0    0    0  501 -0.00000000000E+00  0.00000000000E+00  0.20834499955E+04  0.20834499955E+04  0.00000000000E+00 0.  1.
          2   -1    0    0  501    0  0.00000000000E+00 -0.00000000000E+00 -0.12787814562E+04  0.12787814562E+04  0.00000000000E+00 0. -1.
         24    2    1    2    0    0 -0.66314473117E+02 -0.62475096461E+03 -0.10590028822E+04  0.12341734969E+04  0.83580732206E+02 0.  0.
        254    2    1    2    0    0  0.66314473117E+02  0.62475096461E+03  0.18636714215E+04  0.21280579549E+04  0.81280262982E+03 0.  0.
         23    2    4    4    0    0  0.40218215989E+03  0.47390252285E+03  0.95676343321E+03  0.11447014876E+04  0.92796216156E+02 0.  0.
         23    2    4    4    0    0 -0.33586768677E+03  0.15084844177E+03  0.90690798825E+03  0.98335646727E+03  0.94580585543E+02 0.  0.
          4    1    3    3  502    0 -0.70764421341E+02 -0.61622218679E+03 -0.10182138809E+04  0.11922654461E+04  0.00000000000E+00 0. -1.
         -3    1    3    3    0  502  0.44499482239E+01 -0.85287778197E+01 -0.40789001280E+02  0.41908050726E+02  0.00000000000E+00 0.  1.
         11    1    5    5    0    0  0.81631161555E+02  0.16065729343E+03  0.28084983733E+03  0.33369303798E+03  0.00000000000E+00 0.  1.
        -11    1    5    5    0    0  0.32055099833E+03  0.31324522941E+03  0.67591359588E+03  0.81100844963E+03  0.00000000000E+00 0. -1.
          4    1    6    6  503    0 -0.14652392753E+03  0.39724204454E+02  0.47793487274E+03  0.50146686465E+03  0.00000000000E+00 0.  1.
         -4    1    6    6    0  503 -0.18934375924E+03  0.11112423731E+03  0.42897311552E+03  0.48188960262E+03  0.00000000000E+00 0. -1.
<mgrwt>
<rscale>  0 0.32645228E+04</rscale>
<asrwt>0</asrwt>
<pdfrwt beam="1">  1        2 0.19673561E+00 0.32645228E+04</pdfrwt>
<pdfrwt beam="2">  1       -1 0.32053077E+00 0.32645228E+04</pdfrwt>
<totfact> 0.39396968E-01</totfact>
</mgrwt>
</event>
<event>
12    6  0.8914180E-008  0.1277787E+04  0.7818608E-02  0.9047368E-01
          2   -1    0    0  501    0  0.00000000000E+00  0.00000000000E+00  0.16467662829E+04  0.16467662829E+04  0.00000000000E+00 0. -1.
         -1   -1    0    0    0  501 -0.00000000000E+00 -0.00000000000E+00 -0.24787043671E+03  0.24787043671E+03  0.00000000000E+00 0.  1.
         24    2    1    2    0    0  0.19805594150E+02 -0.29651054739E+03  0.70225590519E+03  0.76686893427E+03  0.81325516856E+02 0.  0.
        254    2    1    2    0    0 -0.19805594150E+02  0.29651054739E+03  0.69663994103E+03  0.11277677854E+04  0.83560888221E+03 0.  0.
         23    2    4    4    0    0  0.32187029243E+02 -0.23773277236E+03  0.47042340773E+03  0.53809080848E+03  0.10339564655E+03 0.  0.
         23    2    4    4    0    0 -0.51992623392E+02  0.53424331975E+03  0.22621653330E+03  0.58967697690E+03  0.91792480950E+02 0.  0.
          2    1    3    3  502    0 -0.23259960387E+02 -0.16640206333E+03  0.33272242231E+03  0.37273969837E+03  0.00000000000E+00 0. -1.
         -1    1    3    3    0  502  0.43065554536E+02 -0.13010848406E+03  0.36953348288E+03  0.39412923589E+03  0.00000000000E+00 0.  1.
         11    1    5    5    0    0  0.26630462014E+02 -0.12939717680E+03  0.35921166367E+03  0.38273467335E+03  0.00000000000E+00 0. -1.
        -11    1    5    5    0    0  0.55565672286E+01 -0.10833559556E+03  0.11121174406E+03  0.15535613513E+03  0.00000000000E+00 0.  1.
          4    1    6    6  503    0 -0.63185517881E+02  0.41357418177E+03  0.14086838763E+03  0.44145205417E+03  0.00000000000E+00 0. -1.
         -4    1    6    6    0  503  0.11192894488E+02  0.12066913798E+03  0.85348145674E+02  0.14822492273E+03  0.00000000000E+00 0.  1.
<mgrwt>
<rscale>  0 0.12777866E+04</rscale>
<asrwt>0</asrwt>
<pdfrwt beam="1">  1        2 0.25334865E+00 0.12777866E+04</pdfrwt>
<pdfrwt beam="2">  1       -1 0.38133914E-01 0.12777866E+04</pdfrwt>
<totfact> 0.78033853E+01</totfact>
</mgrwt>
</event>
<event>
12    6  0.8914180E-008  0.1075810E+04  0.7818608E-02  0.9229096E-01
         -1   -1    0    0    0  501 -0.00000000000E+00  0.00000000000E+00  0.53518085127E+03  0.53518085127E+03  0.00000000000E+00 0.  1.
          2   -1    0    0  501    0  0.00000000000E+00 -0.00000000000E+00 -0.54064253308E+03  0.54064253308E+03  0.00000000000E+00 0. -1.
         24    2    1    2    0    0  0.24746643922E+02  0.37622549521E+02  0.12966699494E+03  0.15897228630E+03  0.80192303985E+02 0.  0.
        254    2    1    2    0    0 -0.24746643922E+02 -0.37622549521E+02 -0.13512867675E+03  0.91685109804E+03  0.90571978232E+03 0.  0.
         23    2    4    4    0    0 -0.38588865556E+03 -0.25180586556E+03 -0.14021623465E+02  0.46983662162E+03  0.90739168369E+02 0.  0.
         23    2    4    4    0    0  0.36114201163E+03  0.21418331604E+03 -0.12110705328E+03  0.44701447642E+03  0.94111520751E+02 0.  0.
          2    1    3    3  502    0  0.80583704223E+01  0.12696696968E+02 -0.87120286696E+01  0.17379381212E+02  0.00000000000E+00 0. -1.
         -3    1    3    3    0  502  0.16688273500E+02  0.24925852554E+02  0.13837902361E+03  0.14159290509E+03  0.00000000000E+00 0.  1.
         11    1    5    5    0    0 -0.22015710833E+03 -0.19568216975E+03 -0.41287001614E+01  0.29458056635E+03  0.00000000000E+00 0. -1.
        -11    1    5    5    0    0 -0.16573154723E+03 -0.56123695804E+02 -0.98929233039E+01  0.17525605527E+03  0.00000000000E+00 0.  1.
          3    1    6    6  503    0  0.35032256171E+03  0.22305495976E+03 -0.11140759184E+03  0.42998960899E+03  0.00000000000E+00 0. -1.
         -3    1    6    6    0  503  0.10819449924E+02 -0.88716437201E+01 -0.96994614363E+01  0.17024867433E+02  0.00000000000E+00 0.  1.
<mgrwt>
<rscale>  0 0.10758095E+04</rscale>
<asrwt>0</asrwt>
<pdfrwt beam="1">  1        2 0.83175774E-01 0.10758095E+04</pdfrwt>
<pdfrwt beam="2">  1       -1 0.82335516E-01 0.10758095E+04</pdfrwt>
<totfact> 0.93718363E+01</totfact>
</mgrwt>
</event>
<event>
12    6  0.8914180E-008  0.1462163E+04  0.7818608E-02  0.8910011E-01
          2   -1    0    0  501    0  0.00000000000E+00  0.00000000000E+00  0.32833310649E+04  0.32833310649E+04  0.00000000000E+00 0. -1.
         -1   -1    0    0    0  501 -0.00000000000E+00 -0.00000000000E+00 -0.16278605083E+03  0.16278605083E+03  0.00000000000E+00 0.  1.
         24    2    1    2    0    0  0.27094001597E+03 -0.17941703760E+03  0.17066937071E+04  0.17392021731E+04  0.80136280055E+02 0.  0.
        254    2    1    2    0    0 -0.27094001597E+03  0.17941703760E+03  0.14138513070E+04  0.17069149427E+04  0.89943545493E+03 0.  0.
         23    2    4    4    0    0 -0.12108875166E+03  0.31830799471E+03  0.89522096928E+02  0.36400360193E+03  0.92206025310E+02 0.  0.
         23    2    4    4    0    0 -0.14985126431E+03 -0.13889095711E+03  0.13243292101E+04  0.13429113407E+04  0.88413308305E+02 0.  0.
          2    1    3    3  502    0  0.11739175936E+03 -0.10079099865E+03  0.62666845680E+03  0.64548664225E+03  0.00000000000E+00 0. -1.
         -1    1    3    3    0  502  0.15354825661E+03 -0.78626038949E+02  0.10800252503E+04  0.10937155309E+04  0.00000000000E+00 0.  1.
         11    1    5    5    0    0 -0.65019351998E+02  0.11487337327E+03 -0.65132895433E+01  0.13215835563E+03  0.00000000000E+00 0.  1.
        -11    1    5    5    0    0 -0.56069399661E+02  0.20343462144E+03  0.96035386471E+02  0.23184524630E+03  0.00000000000E+00 0. -1.
          1    1    6    6  503    0 -0.77362719465E+02 -0.11752122989E+03  0.69801499757E+03  0.71205418802E+03  0.00000000000E+00 0. -1.
         -1    1    6    6    0  503 -0.72488544849E+02 -0.21369727217E+02  0.62631421248E+03  0.63085715272E+03  0.00000000000E+00 0.  1.
<mgrwt>
<rscale>  0 0.14621635E+04</rscale>
<asrwt>0</asrwt>
<pdfrwt beam="1">  1        2 0.50512781E+00 0.14621635E+04</pdfrwt>
<pdfrwt beam="2">  1       -1 0.25044010E-01 0.14621635E+04</pdfrwt>
<totfact> 0.17816476E+01</totfact>
</mgrwt>
</event>
<event>
12    6  0.8914180E-008  0.1584590E+04  0.7818608E-02  0.8830071E-01
         -1   -1    0    0    0  501 -0.00000000000E+00  0.00000000000E+00  0.43104032755E+03  0.43104032755E+03  0.00000000000E+00 0.  1.
          2   -1    0    0  501    0  0.00000000000E+00 -0.00000000000E+00 -0.14563179109E+04  0.14563179109E+04  0.00000000000E+00 0. -1.
         24    2    1    2    0    0 -0.16228450735E+03 -0.25175692336E+03  0.17332472143E+03  0.35468263634E+03  0.77720677287E+02 0.  0.
        254    2    1    2    0    0  0.16228450735E+03  0.25175692336E+03 -0.11986023048E+04  0.15326756022E+04  0.90704421422E+03 0.  0.
         23    2    4    4    0    0 -0.22996031465E+03 -0.22190614310E+03 -0.46299453757E+03  0.56989249079E+03  0.91046288115E+02 0.  0.
         23    2    4    4    0    0  0.39224482200E+03  0.47366306646E+03 -0.73560776724E+03  0.96278311136E+03  0.87291645542E+02 0.  0.
          2    1    3    3  502    0 -0.34450695219E+02 -0.41819557466E+02  0.45453261815E+00  0.54184244828E+02  0.00000000000E+00 0. -1.
         -1    1    3    3    0  502 -0.12783381213E+03 -0.20993736590E+03  0.17287018881E+03  0.30049839151E+03  0.00000000000E+00 0.  1.
         11    1    5    5    0    0 -0.93330359338E+02 -0.53651462049E+02 -0.21560612709E+03  0.24098762913E+03  0.00000000000E+00 0. -1.
        -11    1    5    5    0    0 -0.13662995531E+03 -0.16825468105E+03 -0.24738841047E+03  0.32890486165E+03  0.00000000000E+00 0.  1.
          2    1    6    6  503    0  0.34794130070E+02  0.88421758378E+02 -0.12841933393E+03  0.15975157016E+03  0.00000000000E+00 0. -1.
         -2    1    6    6    0  503  0.35745069193E+03  0.38524130808E+03 -0.60718843331E+03  0.80303154120E+03  0.00000000000E+00 0.  1.
<mgrwt>
<rscale>  0 0.15845905E+04</rscale>
<asrwt>0</asrwt>
<pdfrwt beam="1">  1        2 0.22404891E+00 0.15845905E+04</pdfrwt>
<pdfrwt beam="2">  1       -1 0.66313897E-01 0.15845905E+04</pdfrwt>
<totfact> 0.33880389E+01</totfact>
</mgrwt>
</event>
<event>
12    6  0.8914180E-008  0.1595284E+04  0.7818608E-02  0.8823450E-01
         -1   -1    0    0    0  501 -0.00000000000E+00  0.00000000000E+00  0.55273107534E+03  0.55273107534E+03  0.00000000000E+00 0.  1.
          2   -1    0    0  501    0  0.00000000000E+00 -0.00000000000E+00 -0.11510710622E+04  0.11510710622E+04  0.00000000000E+00 0. -1.
         24    2    1    2    0    0  0.24496820731E+03  0.30207235651E+03  0.20465464901E+03  0.44711478909E+03  0.82285953242E+02 0.  0.
        254    2    1    2    0    0 -0.24496820731E+03 -0.30207235651E+03 -0.80299463582E+03  0.12566873484E+04  0.88498902554E+03 0.  0.
         23    2    4    4    0    0 -0.33906791095E+03  0.72510771807E+01  0.34664683258E+02  0.35392166544E+03  0.95075121061E+02 0.  0.
         23    2    4    4    0    0  0.94099703643E+02 -0.30932343369E+03 -0.83765931908E+03  0.90276568296E+03  0.93685658650E+02 0.  0.
          2    1    3    3  502    0  0.45687571248E+02  0.85600258978E+02  0.18039362384E+02  0.98692335563E+02  0.00000000000E+00 0. -1.
         -1    1    3    3    0  502  0.19928063606E+03  0.21647209753E+03  0.18661528662E+03  0.34842245353E+03  0.00000000000E+00 0.  1.
         11    1    5    5    0    0 -0.26988551065E+03  0.43394135313E+02  0.16917398681E+02  0.27387485868E+03  0.00000000000E+00 0. -1.
        -11    1    5    5    0    0 -0.69182400301E+02 -0.36143058132E+02  0.17747284578E+02  0.80046806760E+02  0.00000000000E+00 0.  1.
          4    1    6    6  503    0  0.77082696266E+02 -0.27188521544E+03 -0.62156494480E+03  0.68279300893E+03  0.00000000000E+00 0. -1.
         -4    1    6    6    0  503  0.17017007378E+02 -0.37438218251E+02 -0.21609437427E+03  0.21997267403E+03  0.00000000000E+00 0.  1.
<mgrwt>
<rscale>  0 0.15952840E+04</rscale>
<asrwt>0</asrwt>
<pdfrwt beam="1">  1        2 0.17708785E+00 0.15952840E+04</pdfrwt>
<pdfrwt beam="2">  1       -1 0.85035550E-01 0.15952840E+04</pdfrwt>
<totfact> 0.30339497E+01</totfact>
</mgrwt>
</event>
<event>
12    6  0.8914180E-008  0.1789510E+04  0.7818608E-02  0.8711898E-01
          2   -1    0    0  501    0  0.00000000000E+00  0.00000000000E+00  0.20013614422E+04  0.20013614422E+04  0.00000000000E+00 0. -1.
         -1   -1    0    0    0  501 -0.00000000000E+00 -0.00000000000E+00 -0.40002110527E+03  0.40002110527E+03  0.00000000000E+00 0.  1.
         24    2    1    2    0    0  0.55429518739E+03  0.24240657158E+03  0.10404160110E+04  0.12058867299E+04  0.75453486543E+02 0.  0.
        254    2    1    2    0    0 -0.55429518739E+03 -0.24240657158E+03  0.56092432589E+03  0.11954958176E+04  0.86519942772E+03 0.  0.
         23    2    4    4    0    0 -0.56759521236E+03 -0.24933364267E+03  0.75503636297E+03  0.98101401162E+03  0.89314002971E+02 0.  0.
         23    2    4    4    0    0  0.13300024963E+02  0.69270710966E+01 -0.19411203707E+03  0.21448180595E+03  0.89989372526E+02 0.  0.
          2    1    3    3  502    0  0.40437042332E+03  0.14584002157E+03  0.69618046205E+03  0.81820045643E+03  0.00000000000E+00 0. -1.
         -1    1    3    3    0  502  0.14992476407E+03  0.96566550006E+02  0.34423554897E+03  0.38768627347E+03  0.00000000000E+00 0.  1.
         11    1    5    5    0    0 -0.45417406885E+03 -0.23567871309E+03  0.60297344108E+03  0.79081951877E+03  0.00000000000E+00 0.  1.
        -11    1    5    5    0    0 -0.11342114351E+03 -0.13654929582E+02  0.15206292189E+03  0.19019449285E+03  0.00000000000E+00 0. -1.
          4    1    6    6  503    0 -0.21793601541E+02  0.45977937218E+01 -0.59408906361E+01  0.23052005483E+02  0.00000000000E+00 0. -1.
         -4    1    6    6    0  503  0.35093626504E+02  0.23292773748E+01 -0.18817114644E+03  0.19142980047E+03  0.00000000000E+00 0.  1.
<mgrwt>
<rscale>  0 0.17895103E+04</rscale>
<asrwt>0</asrwt>
<pdfrwt beam="1">  1        2 0.30790176E+00 0.17895103E+04</pdfrwt>
<pdfrwt beam="2">  1       -1 0.61541709E-01 0.17895103E+04</pdfrwt>
<totfact> 0.19219753E+01</totfact>
</mgrwt>
</event>
<event>
12    6  0.8914180E-008  0.1204216E+04  0.7818608E-02  0.9109174E-01
         -1   -1    0    0    0  501 -0.00000000000E+00  0.00000000000E+00  0.20975536478E+03  0.20975536478E+03  0.00000000000E+00 0.  1.
          2   -1    0    0  501    0  0.00000000000E+00 -0.00000000000E+00 -0.17283663424E+04  0.17283663424E+04  0.00000000000E+00 0. -1.
         24    2    1    2    0    0  0.20864693579E+03  0.12315305639E+03 -0.17785055930E+03  0.31098811062E+03  0.79890953127E+02 0.  0.
        254    2    1    2    0    0 -0.20864693579E+03 -0.12315305639E+03 -0.13407604184E+04  0.16271335966E+04  0.88950830386E+03 0.  0.
         23    2    4    4    0    0 -0.35810291638E+03  0.24343561820E+03 -0.37990362753E+03  0.58369695233E+03  0.94216596325E+02 0.  0.
         23    2    4    4    0    0  0.14945598059E+03 -0.36658867460E+03 -0.96085679083E+03  0.10434366443E+04  0.93754528644E+02 0.  0.
          2    1    3    3  502    0  0.21400231427E+02 -0.94614424124E+01 -0.29923728375E+02  0.37985764669E+02  0.00000000000E+00 0. -1.
         -1    1    3    3    0  502  0.18724670437E+03  0.13261449881E+03 -0.14792683092E+03  0.27300234596E+03  0.00000000000E+00 0.  1.
         11    1    5    5    0    0 -0.10383109584E+03  0.38284227615E+02 -0.13951837392E+03  0.17807850855E+03  0.00000000000E+00 0.  1.
        -11    1    5    5    0    0 -0.25427182054E+03  0.20515139059E+03 -0.24038525361E+03  0.40561844378E+03  0.00000000000E+00 0. -1.
          4    1    6    6  503    0 -0.10453188132E+02 -0.83171144018E+01 -0.19965537323E+02  0.24022202537E+02  0.00000000000E+00 0.  1.
         -4    1    6    6    0  503  0.15990916872E+03 -0.35827156019E+03 -0.94089125350E+03  0.10194144417E+04  0.00000000000E+00 0. -1.
<mgrwt>
<rscale>  0 0.12042161E+04</rscale>
<asrwt>0</asrwt>
<pdfrwt beam="1">  1        2 0.26590254E+00 0.12042161E+04</pdfrwt>
<pdfrwt beam="2">  1       -1 0.32270054E-01 0.12042161E+04</pdfrwt>
<totfact> 0.95335208E+01</totfact>
</mgrwt>
</event>
<event>
12    6  0.8914180E-008  0.3400341E+04  0.7818608E-02  0.8137823E-01
         -1   -1    0    0    0  501 -0.00000000000E+00  0.00000000000E+00  0.18788847528E+04  0.18788847528E+04  0.00000000000E+00 0.  1.
          2   -1    0    0  501    0  0.00000000000E+00 -0.00000000000E+00 -0.15384551328E+04  0.15384551328E+04  0.00000000000E+00 0. -1.
         24    2    1    2    0    0  0.17012960216E+03  0.27625793734E+03 -0.13956402454E+04  0.14351282891E+04  0.80740214621E+02 0.  0.
        254    2    1    2    0    0 -0.17012960216E+03 -0.27625793734E+03  0.17360698653E+04  0.19822115965E+04  0.89997872562E+03 0.  0.
         23    2    4    4    0    0 -0.45439577296E+03  0.13448837239E+02  0.51785633862E+03  0.69496395935E+03  0.90240388039E+02 0.  0.
         23    2    4    4    0    0  0.28426617080E+03 -0.28970677458E+03  0.12182135267E+04  0.12872476372E+04  0.90691849824E+02 0.  0.
          4    1    3    3  502    0  0.13494410116E+03  0.16172719547E+03 -0.78009613422E+03  0.80803191448E+03  0.00000000000E+00 0. -1.
         -3    1    3    3    0  502  0.35185501003E+02  0.11453074187E+03 -0.61554411115E+03  0.62709637464E+03  0.00000000000E+00 0.  1.
         11    1    5    5    0    0 -0.45441041262E+03  0.20386982588E+02  0.51582333108E+03  0.68773407727E+03  0.00000000000E+00 0. -1.
        -11    1    5    5    0    0  0.14639652720E-01 -0.69381453490E+01  0.20330075418E+01  0.72298820785E+01  0.00000000000E+00 0.  1.
          1    1    6    6  503    0  0.10030143000E+03 -0.16039888920E+03  0.49671740847E+03  0.53152268474E+03  0.00000000000E+00 0. -1.
         -1    1    6    6    0  503  0.18396474079E+03 -0.12930788538E+03  0.72149611826E+03  0.75572495244E+03  0.00000000000E+00 0.  1.
<mgrwt>
<rscale>  0 0.34003411E+04</rscale>
<asrwt>0</asrwt>
<pdfrwt beam="1">  1        2 0.23668540E+00 0.34003411E+04</pdfrwt>
<pdfrwt beam="2">  1       -1 0.28905919E+00 0.34003411E+04</pdfrwt>
<totfact> 0.44276729E-01</totfact>
</mgrwt>
</event>
<event>
12    6  0.8914180E-008  0.2155376E+04  0.7818608E-02  0.8537235E-01
         -1   -1    0    0    0  501 -0.00000000000E+00  0.00000000000E+00  0.67721400951E+03  0.67721400951E+03  0.00000000000E+00 0.  1.
          2   -1    0    0  501    0  0.00000000000E+00 -0.00000000000E+00 -0.17149838678E+04  0.17149838678E+04  0.00000000000E+00 0. -1.
         24    2    1    2    0    0  0.41979745617E+03 -0.13751633067E+03  0.42383608494E+03  0.61652343476E+03  0.72962136117E+02 0.  0.
        254    2    1    2    0    0 -0.41979745617E+03  0.13751633067E+03 -0.14616059432E+04  0.17756744425E+04  0.90641444561E+03 0.  0.
         23    2    4    4    0    0  0.13175847068E+03  0.36970838704E+03 -0.59195545032E+03  0.71610368548E+03  0.91370931675E+02 0.  0.
         23    2    4    4    0    0 -0.55155592685E+03 -0.23219205637E+03 -0.86965049291E+03  0.10595707571E+04  0.90945686633E+02 0.  0.
          4    1    3    3  502    0  0.30100552950E+03 -0.10289507527E+03  0.34760797312E+03  0.47119319634E+03  0.00000000000E+00 0. -1.
         -3    1    3    3    0  502  0.11879192666E+03 -0.34621255409E+02  0.76228111820E+02  0.14533023842E+03  0.00000000000E+00 0.  1.
         11    1    5    5    0    0 -0.70551583299E+01  0.90835816152E+02 -0.12157606361E+03  0.15192649538E+03  0.00000000000E+00 0. -1.
        -11    1    5    5    0    0  0.13881362901E+03  0.27887257089E+03 -0.47037938671E+03  0.56417719011E+03  0.00000000000E+00 0.  1.
          1    1    6    6  503    0 -0.28051610943E+03 -0.80078492018E+02 -0.37049676300E+03  0.47156092281E+03  0.00000000000E+00 0. -1.
         -1    1    6    6    0  503 -0.27103981742E+03 -0.15211356435E+03 -0.49915372991E+03  0.58800983425E+03  0.00000000000E+00 0.  1.
<mgrwt>
<rscale>  0 0.21553757E+04</rscale>
<asrwt>0</asrwt>
<pdfrwt beam="1">  1        2 0.26384367E+00 0.21553757E+04</pdfrwt>
<pdfrwt beam="2">  1       -1 0.10418677E+00 0.21553757E+04</pdfrwt>
<totfact> 0.87127334E+00</totfact>
</mgrwt>
</event>
<event>
12    6  0.8914180E-008  0.1468541E+04  0.7818608E-02  0.8905646E-01
          2   -1    0    0  501    0  0.00000000000E+00  0.00000000000E+00  0.19759105588E+04  0.19759105588E+04  0.00000000000E+00 0. -1.
         -1   -1    0    0    0  501 -0.00000000000E+00 -0.00000000000E+00 -0.27286331129E+03  0.27286331129E+03  0.00000000000E+00 0.  1.
         24    2    1    2    0    0  0.22595019373E+03  0.37563236615E+03  0.37126331785E+03  0.58251627970E+03  0.96620910727E+02 0.  0.
        254    2    1    2    0    0 -0.22595019373E+03 -0.37563236615E+03  0.13317839297E+04  0.16662575904E+04  0.90034035658E+03 0.  0.
         23    2    4    4    0    0 -0.10130706857E+03 -0.61513879923E+03  0.11915058254E+04  0.13486850338E+04  0.10298700888E+03 0.  0.
         23    2    4    4    0    0 -0.12464312516E+03  0.23950643308E+03  0.14027810429E+03  0.31757255661E+03  0.90967807652E+02 0.  0.
          4    1    3    3  502    0 -0.93638339791E+01  0.13803164725E+02  0.19895202971E+02  0.25962046230E+02  0.00000000000E+00 0. -1.
         -3    1    3    3    0  502  0.23531402771E+03  0.36182920142E+03  0.35136811488E+03  0.55655423347E+03  0.00000000000E+00 0.  1.
         11    1    5    5    0    0 -0.16009025311E+02 -0.75884374661E+01  0.44773400693E+02  0.48151123395E+02  0.00000000000E+00 0.  1.
        -11    1    5    5    0    0 -0.85298043255E+02 -0.60755036176E+03  0.11467324247E+04  0.13005339104E+04  0.00000000000E+00 0. -1.
          1    1    6    6  503    0 -0.11966692808E+03  0.24282957143E+03  0.14742294455E+03  0.30825297893E+03  0.00000000000E+00 0. -1.
         -1    1    6    6    0  503 -0.49761970863E+01 -0.33231383469E+01 -0.71448402576E+01  0.93195776847E+01  0.00000000000E+00 0.  1.
<mgrwt>
<rscale>  0 0.14685415E+04</rscale>
<asrwt>0</asrwt>
<pdfrwt beam="1">  1        2 0.30398623E+00 0.14685415E+04</pdfrwt>
<pdfrwt beam="2">  1       -1 0.41978972E-01 0.14685415E+04</pdfrwt>
<totfact> 0.42378680E+01</totfact>
</mgrwt>
</event>
<event>
12    6  0.8914180E-008  0.1448000E+04  0.7818608E-02  0.8919788E-01
          2   -1    0    0  501    0  0.00000000000E+00  0.00000000000E+00  0.35679703732E+04  0.35679703732E+04  0.00000000000E+00 0. -1.
         -1   -1    0    0    0  501 -0.00000000000E+00 -0.00000000000E+00 -0.14691160410E+03  0.14691160410E+03  0.00000000000E+00 0.  1.
         24    2    1    2    0    0  0.18835044155E+03 -0.46432822453E+02  0.20941294652E+04  0.21046425118E+04  0.80684507871E+02 0.  0.
        254    2    1    2    0    0 -0.18835044155E+03  0.46432822453E+02  0.13269293039E+04  0.16102394655E+04  0.89134609593E+03 0.  0.
         23    2    4    4    0    0  0.95763610432E+02 -0.31679058169E+03  0.22066190797E+03  0.40837304814E+03  0.92465815791E+02 0.  0.
         23    2    4    4    0    0 -0.28411405198E+03  0.36322340414E+03  0.11062673959E+04  0.12018664173E+04  0.89461153144E+02 0.  0.
          4    1    3    3  502    0  0.14281477146E+03 -0.13874801162E+02  0.17616249571E+04  0.17674589269E+04  0.00000000000E+00 0. -1.
         -3    1    3    3    0  502  0.45535670088E+02 -0.32558021292E+02  0.33250450812E+03  0.33718358490E+03  0.00000000000E+00 0.  1.
         11    1    5    5    0    0  0.33404301459E+02 -0.66723590247E+02  0.97375414845E+02  0.12267785565E+03  0.00000000000E+00 0.  1.
        -11    1    5    5    0    0  0.62359308973E+02 -0.25006699144E+03  0.12328649313E+03  0.28569519249E+03  0.00000000000E+00 0. -1.
          4    1    6    6  503    0 -0.64846180965E+02  0.87670176400E+02  0.17444604138E+03  0.20572435045E+03  0.00000000000E+00 0.  1.
         -4    1    6    6    0  503 -0.21926787102E+03  0.27555322774E+03  0.93182135454E+03  0.99614206685E+03  0.00000000000E+00 0. -1.
<mgrwt>
<rscale>  0 0.14480003E+04</rscale>
<asrwt>0</asrwt>
<pdfrwt beam="1">  1        2 0.54891845E+00 0.14480003E+04</pdfrwt>
<pdfrwt beam="2">  1       -1 0.22601788E-01 0.14480003E+04</pdfrwt>
<totfact> 0.13605959E+01</totfact>
</mgrwt>
</event>
<event>
12    6  0.8914180E-008  0.1509700E+04  0.7818608E-02  0.8878028E-01
          2   -1    0    0  501    0  0.00000000000E+00  0.00000000000E+00  0.24595448770E+04  0.24595448770E+04  0.00000000000E+00 0. -1.
         -1   -1    0    0    0  501 -0.00000000000E+00 -0.00000000000E+00 -0.23166839138E+03  0.23166839138E+03  0.00000000000E+00 0.  1.
         24    2    1    2    0    0 -0.40852184329E+02 -0.26067875769E+03  0.24162787119E+01  0.27808030148E+03  0.87752492814E+02 0.  0.
        254    2    1    2    0    0  0.40852184329E+02  0.26067875769E+03  0.22254602069E+04  0.24131329669E+04  0.89493869495E+03 0.  0.
         23    2    4    4    0    0  0.11655546715E+03  0.27084821798E+03  0.16723603055E+03  0.35144739918E+03  0.92754786271E+02 0.  0.
         23    2    4    4    0    0 -0.75703282819E+02 -0.10169460289E+02  0.20582241763E+04  0.20616855677E+04  0.91794417166E+02 0.  0.
          4    1    3    3  502    0 -0.32066930238E+02 -0.15767097117E+03 -0.40860336869E+02  0.16600599475E+03  0.00000000000E+00 0. -1.
         -3    1    3    3    0  502 -0.87852540914E+01 -0.10300778652E+03  0.43276615581E+02  0.11207430673E+03  0.00000000000E+00 0.  1.
         11    1    5    5    0    0  0.96194619315E+02  0.27177376726E+03  0.16061249258E+03  0.33001629979E+03  0.00000000000E+00 0. -1.
        -11    1    5    5    0    0  0.20360847832E+02 -0.92554928245E+00  0.66235379696E+01  0.21431099392E+02  0.00000000000E+00 0.  1.
          3    1    6    6  503    0 -0.61231972474E+02 -0.40643160603E+02  0.90892074084E+03  0.91188712793E+03  0.00000000000E+00 0. -1.
         -3    1    6    6    0  503 -0.14471310345E+02  0.30473700314E+02  0.11493034355E+04  0.11497984398E+04  0.00000000000E+00 0.  1.
<mgrwt>
<rscale>  0 0.15097004E+04</rscale>
<asrwt>0</asrwt>
<pdfrwt beam="1">  1        2 0.37839150E+00 0.15097004E+04</pdfrwt>
<pdfrwt beam="2">  1       -1 0.35641293E-01 0.15097004E+04</pdfrwt>
<totfact> 0.30415141E+01</totfact>
</mgrwt>
</event>
<event>
12    6  0.8914180E-008  0.1357505E+04  0.7818608E-02  0.8985166E-01
         -1   -1    0    0    0  501 -0.00000000000E+00  0.00000000000E+00  0.16769497194E+03  0.16769497194E+03  0.00000000000E+00 0.  1.
          2   -1    0    0  501    0  0.00000000000E+00 -0.00000000000E+00 -0.27472785333E+04  0.27472785333E+04  0.00000000000E+00 0. -1.
         24    2    1    2    0    0  0.14787432650E+03  0.11576853278E+03 -0.35131291941E+02  0.20745163692E+03  0.80825765497E+02 0.  0.
        254    2    1    2    0    0 -0.14787432650E+03 -0.11576853278E+03 -0.25444522695E+04  0.27075218684E+04  0.90618328524E+03 0.  0.
         23    2    4    4    0    0  0.28431772222E+03  0.16383890421E+03 -0.15152956900E+04  0.15532034780E+04  0.92953009696E+02 0.  0.
         23    2    4    4    0    0 -0.43219204872E+03 -0.27960743699E+03 -0.10291565794E+04  0.11543183904E+04  0.91199756805E+02 0.  0.
          4    1    3    3  502    0  0.29619174887E+02  0.30417794417E+02 -0.44255167435E+02  0.61327461898E+02  0.00000000000E+00 0. -1.
         -3    1    3    3    0  502  0.11825515161E+03  0.85350738364E+02  0.91238754942E+01  0.14612417503E+03  0.00000000000E+00 0.  1.
         11    1    5    5    0    0  0.41328500308E+02  0.66611421817E+02 -0.30275009710E+03  0.31273430856E+03  0.00000000000E+00 0.  1.
        -11    1    5    5    0    0  0.24298922191E+03  0.97227482388E+02 -0.12125455929E+04  0.12404691694E+04  0.00000000000E+00 0. -1.
          3    1    6    6  503    0 -0.13918246270E+03 -0.97499293236E+02 -0.43871107873E+03  0.47047346440E+03  0.00000000000E+00 0. -1.
         -3    1    6    6    0  503 -0.29300958602E+03 -0.18210814375E+03 -0.59044550070E+03  0.68384492600E+03  0.00000000000E+00 0.  1.
<mgrwt>
<rscale>  0 0.13575048E+04</rscale>
<asrwt>0</asrwt>
<pdfrwt beam="1">  1        2 0.42265820E+00 0.13575048E+04</pdfrwt>
<pdfrwt beam="2">  1       -1 0.25799229E-01 0.13575048E+04</pdfrwt>
<totfact> 0.36953469E+01</totfact>
</mgrwt>
</event>
<event>
12    6  0.8914180E-008  0.1936353E+04  0.7818608E-02  0.8636970E-01
          2   -1    0    0  501    0  0.00000000000E+00  0.00000000000E+00  0.17369211872E+04  0.17369211872E+04  0.00000000000E+00 0. -1.
         -1   -1    0    0    0  501 -0.00000000000E+00 -0.00000000000E+00 -0.53967094853E+03  0.53967094853E+03  0.00000000000E+00 0.  1.
         24    2    1    2    0    0  0.27926245185E+03  0.55097432082E+02 -0.35604541761E+03  0.46204917690E+03  0.75484160209E+02 0.  0.
        254    2    1    2    0    0 -0.27926245185E+03 -0.55097432082E+02  0.15532956563E+04  0.18145429588E+04  0.89376479545E+03 0.  0.
         23    2    4    4    0    0  0.15393821033E+03 -0.34840139154E+03  0.82608241547E+03  0.91407175688E+03  0.89635469234E+02 0.  0.
         23    2    4    4    0    0 -0.43320066218E+03  0.29330395946E+03  0.72721324078E+03  0.90047120193E+03  0.91209986229E+02 0.  0.
          2    1    3    3  502    0  0.68302822439E+02 -0.17117298827E+02 -0.10313882434E+03  0.12488352397E+03  0.00000000000E+00 0. -1.
         -1    1    3    3    0  502  0.21095962941E+03  0.72214730910E+02 -0.25290659327E+03  0.33716565294E+03  0.00000000000E+00 0.  1.
         11    1    5    5    0    0  0.73727792148E+02 -0.20652830826E+03  0.37452342910E+03  0.43400176082E+03  0.00000000000E+00 0.  1.
        -11    1    5    5    0    0  0.80210418181E+02 -0.14187308327E+03  0.45155898637E+03  0.48006999606E+03  0.00000000000E+00 0. -1.
          1    1    6    6  503    0 -0.53968518523E+02  0.49479277801E+02  0.57296702573E+02  0.92971565809E+02  0.00000000000E+00 0. -1.
         -1    1    6    6    0  503 -0.37923214366E+03  0.24382468166E+03  0.66991653821E+03  0.80749963612E+03  0.00000000000E+00 0.  1.
<mgrwt>
<rscale>  0 0.19363532E+04</rscale>
<asrwt>0</asrwt>
<pdfrwt beam="1">  1        2 0.26721864E+00 0.19363532E+04</pdfrwt>
<pdfrwt beam="2">  1       -1 0.83026301E-01 0.19363532E+04</pdfrwt>
<totfact> 0.14330459E+01</totfact>
</mgrwt>
</event>
<event>
12    6  0.8914180E-008  0.1781389E+04  0.7818608E-02  0.8716259E-01
         -1   -1    0    0    0  501 -0.00000000000E+00  0.00000000000E+00  0.22816185791E+03  0.22816185791E+03  0.00000000000E+00 0.  1.
          2   -1    0    0  501    0  0.00000000000E+00 -0.00000000000E+00 -0.34770799664E+04  0.34770799664E+04  0.00000000000E+00 0. -1.
         24    2    1    2    0    0  0.29426332443E+03 -0.59098733827E+03 -0.10984122337E+04  0.12841009286E+04  0.80924788551E+02 0.  0.
        254    2    1    2    0    0 -0.29426332443E+03  0.59098733827E+03 -0.21505058747E+04  0.24211408957E+04  0.89520432395E+03 0.  0.
         23    2    4    4    0    0 -0.38346425848E+03  0.77885709375E+03 -0.15435273653E+04  0.17731592332E+04  0.89183679323E+02 0.  0.
         23    2    4    4    0    0  0.89200934049E+02 -0.18786975549E+03 -0.60697850938E+03  0.64798166254E+03  0.90584063000E+02 0.  0.
          2    1    3    3  502    0  0.33123270113E+02 -0.27626102075E+02 -0.90823475286E+02  0.10054479699E+03  0.00000000000E+00 0. -1.
         -1    1    3    3    0  502  0.26114005432E+03 -0.56336123619E+03 -0.10075887585E+04  0.11835561316E+04  0.00000000000E+00 0.  1.
         11    1    5    5    0    0 -0.33322574283E+03  0.67795036289E+03 -0.12758635627E+04  0.14827285392E+04  0.00000000000E+00 0.  1.
        -11    1    5    5    0    0 -0.50238515658E+02  0.10090673086E+03 -0.26766380258E+03  0.29043069397E+03  0.00000000000E+00 0. -1.
          1    1    6    6  503    0  0.45371822178E+02 -0.21671829696E+02 -0.88889397487E+02  0.10212539075E+03  0.00000000000E+00 0. -1.
         -1    1    6    6    0  503  0.43829111871E+02 -0.16619792579E+03 -0.51808911190E+03  0.54585627179E+03  0.00000000000E+00 0.  1.
<mgrwt>
<rscale>  0 0.17813894E+04</rscale>
<asrwt>0</asrwt>
<pdfrwt beam="1">  1        2 0.53493537E+00 0.17813894E+04</pdfrwt>
<pdfrwt beam="2">  1       -1 0.35101825E-01 0.17813894E+04</pdfrwt>
<totfact> 0.70671893E+00</totfact>
</mgrwt>
</event>
<event>
12    6  0.8914180E-008  0.1986608E+04  0.7818608E-02  0.8612908E-01
          2   -1    0    0  501    0  0.00000000000E+00  0.00000000000E+00  0.22237386149E+04  0.22237386149E+04  0.00000000000E+00 0. -1.
         -1   -1    0    0    0  501 -0.00000000000E+00 -0.00000000000E+00 -0.44369102975E+03  0.44369102975E+03  0.00000000000E+00 0.  1.
         24    2    1    2    0    0 -0.34051053149E+03 -0.14387923594E+03  0.16328575840E+04  0.16760732933E+04  0.79681481414E+02 0.  0.
        254    2    1    2    0    0  0.34051053149E+03  0.14387923594E+03  0.14719000124E+03  0.99135635138E+03  0.90800543080E+03 0.  0.
         23    2    4    4    0    0  0.63534038330E+03  0.18618904871E+03  0.12154930617E+03  0.67928824930E+03  0.91293632257E+02 0.  0.
         23    2    4    4    0    0 -0.29482985182E+03 -0.42309812768E+02  0.25640695068E+02  0.31206810208E+03  0.89522585499E+02 0.  0.
          2    1    3    3  502    0 -0.31900879802E+03 -0.14672836550E+03  0.14488810546E+04  0.14908226377E+04  0.00000000000E+00 0. -1.
         -1    1    3    3    0  502 -0.21501733467E+02  0.28491295549E+01  0.18397652931E+03  0.18525065565E+03  0.00000000000E+00 0.  1.
         11    1    5    5    0    0  0.40588285030E+02  0.11637844788E+01 -0.11843293138E+02  0.42296889583E+02  0.00000000000E+00 0. -1.
        -11    1    5    5    0    0  0.59475209827E+03  0.18502526423E+03  0.13339259931E+03  0.63699135972E+03  0.00000000000E+00 0.  1.
          3    1    6    6  503    0 -0.10179913034E+03  0.23448168553E+02  0.27919998530E+02  0.10813142866E+03  0.00000000000E+00 0. -1.
         -3    1    6    6    0  503 -0.19303072148E+03 -0.65757981322E+02 -0.22793034616E+01  0.20393667342E+03  0.00000000000E+00 0.  1.
<mgrwt>
<rscale>  0 0.19866080E+04</rscale>
<asrwt>0</asrwt>
<pdfrwt beam="1">  1        2 0.34211363E+00 0.19866080E+04</pdfrwt>
<pdfrwt beam="2">  1       -1 0.68260160E-01 0.19866080E+04</pdfrwt>
<totfact> 0.11519255E+01</totfact>
</mgrwt>
</event>
<event>
12    6  0.8914180E-008  0.1273516E+04  0.7818608E-02  0.9050835E-01
          2   -1    0    0  501    0  0.00000000000E+00  0.00000000000E+00  0.10987937379E+04  0.10987937379E+04  0.00000000000E+00 0. -1.
         -1   -1    0    0    0  501 -0.00000000000E+00 -0.00000000000E+00 -0.36900505234E+03  0.36900505234E+03  0.00000000000E+00 0.  1.
         24    2    1    2    0    0 -0.47065052567E+02 -0.17143952770E+03 -0.12061266955E+03  0.22910778972E+03  0.79601083072E+02 0.  0.
        254    2    1    2    0    0  0.47065052567E+02  0.17143952770E+03  0.85040135516E+03  0.12386910006E+04  0.88293051777E+03 0.  0.
         23    2    4    4    0    0  0.12861452155E+03 -0.16275982747E+03 -0.82221678231E+02  0.24043253178E+03  0.89526204959E+02 0.  0.
         23    2    4    4    0    0 -0.81549468979E+02  0.33419935517E+03  0.93262303339E+03  0.99825846879E+03  0.91622722190E+02 0.  0.
          4    1    3    3  502    0 -0.51511201335E+02 -0.14541107364E+03 -0.64719869251E+02  0.16729149912E+03  0.00000000000E+00 0. -1.
         -3    1    3    3    0  502  0.44461487683E+01 -0.26028454054E+02 -0.55892800296E+02  0.61816290606E+02  0.00000000000E+00 0.  1.
         11    1    5    5    0    0  0.53437080695E+02 -0.59027822220E+02 -0.79174350368E+02  0.11228705689E+03  0.00000000000E+00 0.  1.
        -11    1    5    5    0    0  0.75177440851E+02 -0.10373200525E+03 -0.30473278636E+01  0.12814547489E+03  0.00000000000E+00 0. -1.
          4    1    6    6  503    0 -0.38016175072E+01  0.13184429059E+03  0.45522065696E+03  0.47394431717E+03  0.00000000000E+00 0.  1.
         -4    1    6    6    0  503 -0.77747851471E+02  0.20235506458E+03  0.47740237643E+03  0.52431415162E+03  0.00000000000E+00 0. -1.
<mgrwt>
<rscale>  0 0.12735155E+04</rscale>
<asrwt>0</asrwt>
<pdfrwt beam="1">  1        2 0.16904519E+00 0.12735155E+04</pdfrwt>
<pdfrwt beam="2">  1       -1 0.56770009E-01 0.12735155E+04</pdfrwt>
<totfact> 0.76753814E+01</totfact>
</mgrwt>
</event>
<event>
12    6  0.8914180E-008  0.1639518E+04  0.7818608E-02  0.8796632E-01
          2   -1    0    0  501    0  0.00000000000E+00  0.00000000000E+00  0.23102699036E+04  0.23102699036E+04  0.00000000000E+00 0. -1.
         -1   -1    0    0    0  501 -0.00000000000E+00 -0.00000000000E+00 -0.29087712765E+03  0.29087712765E+03  0.00000000000E+00 0.  1.
         24    2    1    2    0    0  0.55150979069E+03 -0.10449702093E+03  0.53204186533E+03  0.77712920925E+03  0.76017003261E+02 0.  0.
        254    2    1    2    0    0 -0.55150979069E+03  0.10449702093E+03  0.14873509106E+04  0.18240178220E+04  0.89428496970E+03 0.  0.
         23    2    4    4    0    0 -0.40269104055E+03 -0.20899703545E+03  0.13706388679E+04  0.14466913475E+04  0.91788417910E+02 0.  0.
         23    2    4    4    0    0 -0.14881875014E+03  0.31349405638E+03  0.11671204269E+03  0.37732647450E+03  0.91258006078E+02 0.  0.
          2    1    3    3  502    0  0.11299279467E+03 -0.53336228265E+02  0.11583683742E+03  0.17038279783E+03  0.00000000000E+00 0. -1.
         -1    1    3    3    0  502  0.43851699603E+03 -0.51160792661E+02  0.41620502792E+03  0.60674641142E+03  0.00000000000E+00 0.  1.
         11    1    5    5    0    0 -0.28057056712E+03 -0.16843923793E+03  0.10877685886E+04  0.11359278684E+04  0.00000000000E+00 0. -1.
        -11    1    5    5    0    0 -0.12212047343E+03 -0.40557797518E+02  0.28287027938E+03  0.31076347907E+03  0.00000000000E+00 0.  1.
          4    1    6    6  503    0 -0.44655306971E+02  0.30851066962E+02  0.37143499098E+02  0.65768718238E+02  0.00000000000E+00 0.  1.
         -4    1    6    6    0  503 -0.10416344317E+03  0.28264298942E+03  0.79568543588E+02  0.31155775626E+03  0.00000000000E+00 0. -1.
<mgrwt>
<rscale>  0 0.16395178E+04</rscale>
<asrwt>0</asrwt>
<pdfrwt beam="1">  1        2 0.35542613E+00 0.16395178E+04</pdfrwt>
<pdfrwt beam="2">  1       -1 0.44750329E-01 0.16395178E+04</pdfrwt>
<totfact> 0.24126064E+01</totfact>
</mgrwt>
</event>
<event>
12    6  0.8914180E-008  0.3224723E+04  0.7818608E-02  0.8182318E-01
          2   -1    0    0  501    0  0.00000000000E+00  0.00000000000E+00  0.30151184770E+04  0.30151184770E+04  0.00000000000E+00 0. -1.
         -1   -1    0    0    0  501 -0.00000000000E+00 -0.00000000000E+00 -0.86222473512E+03  0.86222473512E+03  0.00000000000E+00 0.  1.
         24    2    1    2    0    0 -0.21300839331E+03  0.25980562552E+03  0.27316277787E+04  0.27533318399E+04  0.78577099417E+02 0.  0.
        254    2    1    2    0    0  0.21300839331E+03 -0.25980562552E+03 -0.57873403676E+03  0.11240113723E+04  0.90310405880E+03 0.  0.
         23    2    4    4    0    0 -0.17447896948E+03 -0.84080571679E+02 -0.64891475268E+03  0.68299273553E+03  0.88748336365E+02 0.  0.
         23    2    4    4    0    0  0.38748736279E+03 -0.17572505384E+03  0.70180715924E+02  0.44101863675E+03  0.92446493718E+02 0.  0.
          4    1    3    3  502    0 -0.18627699228E+03  0.25709284159E+03  0.25604584828E+04  0.25800665668E+04  0.00000000000E+00 0. -1.
         -3    1    3    3    0  502 -0.26731401032E+02  0.27127839375E+01  0.17116929586E+03  0.17326527305E+03  0.00000000000E+00 0.  1.
         11    1    5    5    0    0 -0.74208419811E+02 -0.54781319931E+02 -0.43822798636E+03  0.44782993492E+03  0.00000000000E+00 0.  1.
        -11    1    5    5    0    0 -0.10027054967E+03 -0.29299251748E+02 -0.21068676632E+03  0.23516280060E+03  0.00000000000E+00 0. -1.
          3    1    6    6  503    0  0.18235434074E+03 -0.10451911104E+03 -0.77247081989E+01  0.21032598812E+03  0.00000000000E+00 0. -1.
         -3    1    6    6    0  503  0.20513302205E+03 -0.71205942805E+02  0.77905424123E+02  0.23069264863E+03  0.00000000000E+00 0.  1.
<mgrwt>
<rscale>  0 0.32247231E+04</rscale>
<asrwt>0</asrwt>
<pdfrwt beam="1">  1        2 0.46386438E+00 0.32247231E+04</pdfrwt>
<pdfrwt beam="2">  1       -1 0.13264996E+00 0.32247231E+04</pdfrwt>
<totfact> 0.78282568E-01</totfact>
</mgrwt>
</event>
<event>
12    6  0.8914180E-008  0.2129079E+04  0.7818608E-02  0.8548541E-01
          2   -1    0    0  501    0  0.00000000000E+00  0.00000000000E+00  0.22238466271E+04  0.22238466271E+04  0.00000000000E+00 0. -1.
         -1   -1    0    0    0  501 -0.00000000000E+00 -0.00000000000E+00 -0.50958762233E+03  0.50958762233E+03  0.00000000000E+00 0.  1.
         24    2    1    2    0    0  0.18000840963E+03  0.53825951526E+03  0.15520248338E+04  0.16545832844E+04  0.82087922652E+02 0.  0.
        254    2    1    2    0    0 -0.18000840963E+03 -0.53825951526E+03  0.16223417103E+03  0.10788509651E+04  0.90303551716E+03 0.  0.
         23    2    4    4    0    0  0.31206800117E+03 -0.63792207889E+02 -0.87626342447E+02  0.34535132868E+03  0.10066420012E+03 0.  0.
         23    2    4    4    0    0 -0.49207641081E+03 -0.47446730737E+03  0.24986051347E+03  0.73349963638E+03  0.91285379646E+02 0.  0.
          4    1    3    3  502    0  0.14215485698E+03  0.33959054172E+03  0.91732822289E+03  0.98844362909E+03  0.00000000000E+00 0. -1.
         -3    1    3    3    0  502  0.37853552650E+02  0.19866897354E+03  0.63469661088E+03  0.66613965530E+03  0.00000000000E+00 0.  1.
         11    1    5    5    0    0  0.25209004762E+01 -0.25548293063E+00 -0.22584918465E+02  0.22726608916E+02  0.00000000000E+00 0.  1.
        -11    1    5    5    0    0  0.30954710070E+03 -0.63536724958E+02 -0.65041423982E+02  0.32262471976E+03  0.00000000000E+00 0. -1.
          3    1    6    6  503    0 -0.30990409577E+03 -0.32492503083E+03  0.12169726952E+03  0.46521720695E+03  0.00000000000E+00 0. -1.
         -3    1    6    6    0  503 -0.18217231504E+03 -0.14954227654E+03  0.12816324395E+03  0.26828242943E+03  0.00000000000E+00 0.  1.
<mgrwt>
<rscale>  0 0.21290793E+04</rscale>
<asrwt>0</asrwt>
<pdfrwt beam="1">  1        2 0.34213024E+00 0.21290793E+04</pdfrwt>
<pdfrwt beam="2">  1       -1 0.78398097E-01 0.21290793E+04</pdfrwt>
<totfact> 0.85310659E+00</totfact>
</mgrwt>
</event>
<event>
12    6  0.8914180E-008  0.1319222E+04  0.7818608E-02  0.9014459E-01
         -1   -1    0    0    0  501 -0.00000000000E+00  0.00000000000E+00  0.53024518344E+03  0.53024518344E+03  0.00000000000E+00 0.  1.
          2   -1    0    0  501    0  0.00000000000E+00 -0.00000000000E+00 -0.82053904105E+03  0.82053904105E+03  0.00000000000E+00 0. -1.
         24    2    1    2    0    0 -0.48730550202E+01  0.24983507752E+03 -0.32380808186E+03  0.41677353409E+03  0.80044938735E+02 0.  0.
        254    2    1    2    0    0  0.48730550202E+01 -0.24983507752E+03  0.33514224244E+02  0.93401069041E+03  0.89933945423E+03 0.  0.
         23    2    4    4    0    0  0.43705382310E+03 -0.55166163866E+02  0.44800661216E+02  0.45164006921E+03  0.88951126772E+02 0.  0.
         23    2    4    4    0    0 -0.43218076808E+03 -0.19466891365E+03 -0.11286436973E+02  0.48237062119E+03  0.88757142191E+02 0.  0.
          4    1    3    3  502    0  0.31217819973E+02  0.18905396810E+03 -0.24126178920E+03  0.30809609875E+03  0.00000000000E+00 0. -1.
         -3    1    3    3    0  502 -0.36090874993E+02  0.60781109415E+02 -0.82546292659E+02  0.10867743534E+03  0.00000000000E+00 0.  1.
         11    1    5    5    0    0  0.49054777885E+02  0.62422838299E+01 -0.20297847640E+02  0.53454092075E+02  0.00000000000E+00 0.  1.
        -11    1    5    5    0    0  0.38799904521E+03 -0.61408447696E+02  0.65098508856E+02  0.39818597714E+03  0.00000000000E+00 0. -1.
          3    1    6    6  503    0 -0.83958515932E+02 -0.46229545909E+02 -0.37508844705E+02  0.10292286793E+03  0.00000000000E+00 0.  1.
         -3    1    6    6    0  503 -0.34822225215E+03 -0.14843936774E+03  0.26222407732E+02  0.37944775326E+03  0.00000000000E+00 0. -1.
<mgrwt>
<rscale>  0 0.13192223E+04</rscale>
<asrwt>0</asrwt>
<pdfrwt beam="1">  1        2 0.12623678E+00 0.13192223E+04</pdfrwt>
<pdfrwt beam="2">  1       -1 0.81576182E-01 0.13192223E+04</pdfrwt>
<totfact> 0.55689741E+01</totfact>
</mgrwt>
</event>
<event>
12    6  0.8914180E-008  0.1647049E+04  0.7818608E-02  0.8792154E-01
          2   -1    0    0  501    0  0.00000000000E+00  0.00000000000E+00  0.12988795398E+04  0.12988795398E+04  0.00000000000E+00 0. -1.
         -1   -1    0    0    0  501 -0.00000000000E+00 -0.00000000000E+00 -0.52213663202E+03  0.52213663202E+03  0.00000000000E+00 0.  1.
         24    2    1    2    0    0  0.17055232395E+03 -0.20110445404E+03 -0.28273858926E+03  0.39427502100E+03  0.77334246576E+02 0.  0.
        254    2    1    2    0    0 -0.17055232395E+03  0.20110445404E+03  0.10594814970E+04  0.14267411508E+04  0.91845422978E+03 0.  0.
         23    2    4    4    0    0  0.25213781846E+03  0.39756220258E+03  0.51620663808E+03  0.70459113078E+03  0.91379340998E+02 0.  0.
         23    2    4    4    0    0 -0.42269014241E+03 -0.19645774854E+03  0.54327485895E+03  0.72215002002E+03  0.95343985652E+02 0.  0.
          2    1    3    3  502    0  0.20073985629E+02 -0.35618866174E+02 -0.90637924417E+02  0.99432901341E+02  0.00000000000E+00 0. -1.
         -1    1    3    3    0  502  0.15047833832E+03 -0.16548558786E+03 -0.19210066484E+03  0.29484211966E+03  0.00000000000E+00 0.  1.
         11    1    5    5    0    0  0.23078376673E+03  0.30616273017E+03  0.38572156482E+03  0.54385465880E+03  0.00000000000E+00 0. -1.
        -11    1    5    5    0    0  0.21354051732E+02  0.91399472403E+02  0.13048507325E+03  0.16073647197E+03  0.00000000000E+00 0.  1.
          2    1    6    6  503    0 -0.28739915410E+03 -0.94058618757E+02  0.38994533351E+03  0.49345988760E+03  0.00000000000E+00 0. -1.
         -2    1    6    6    0  503 -0.13529098831E+03 -0.10239912978E+03  0.15332952544E+03  0.22869013243E+03  0.00000000000E+00 0.  1.
<mgrwt>
<rscale>  0 0.16470490E+04</rscale>
<asrwt>0</asrwt>
<pdfrwt beam="1">  1        2 0.19982762E+00 0.16470490E+04</pdfrwt>
<pdfrwt beam="2">  1       -1 0.80328713E-01 0.16470490E+04</pdfrwt>
<totfact> 0.27887557E+01</totfact>
</mgrwt>
</event>
<event>
12    6  0.8914180E-008  0.2915313E+04  0.7818608E-02  0.8268336E-01
          2   -1    0    0  501    0  0.00000000000E+00  0.00000000000E+00  0.19054716419E+04  0.19054716419E+04  0.00000000000E+00 0. -1.
         -1   -1    0    0    0  501 -0.00000000000E+00 -0.00000000000E+00 -0.11150849720E+04  0.11150849720E+04  0.00000000000E+00 0.  1.
         24    2    1    2    0    0  0.11127808219E+04  0.64876644670E+03  0.62361254396E+03  0.14333436873E+04  0.80015380426E+02 0.  0.
        254    2    1    2    0    0 -0.11127808219E+04 -0.64876644670E+03  0.16677412588E+03  0.15872129266E+04  0.91227857880E+03 0.  0.
         23    2    4    4    0    0 -0.45437986916E+03 -0.57039416813E+03  0.44850059712E+03  0.86100797488E+03  0.91495216552E+02 0.  0.
         23    2    4    4    0    0 -0.65840095271E+03 -0.78372278572E+02 -0.28172647124E+03  0.72620495170E+03  0.91486603927E+02 0.  0.
          4    1    3    3  502    0  0.69052412309E+03  0.44603157855E+03  0.38786730827E+03  0.90896027551E+03  0.00000000000E+00 0. -1.
         -3    1    3    3    0  502  0.42225669878E+03  0.20273486816E+03  0.23574523569E+03  0.52438341181E+03  0.00000000000E+00 0.  1.
         11    1    5    5    0    0 -0.39951119432E+03 -0.50530829759E+03  0.35882242194E+03  0.73735961409E+03  0.00000000000E+00 0.  1.
        -11    1    5    5    0    0 -0.54868674843E+02 -0.65085870537E+02  0.89678175178E+02  0.12364836079E+03  0.00000000000E+00 0. -1.
          3    1    6    6  503    0 -0.88131917642E+02 -0.33233085249E+02 -0.16362637404E+02  0.95600255048E+02  0.00000000000E+00 0. -1.
         -3    1    6    6    0  503 -0.57026903507E+03 -0.45139193322E+02 -0.26536383383E+03  0.63060469665E+03  0.00000000000E+00 0.  1.
<mgrwt>
<rscale>  0 0.29153132E+04</rscale>
<asrwt>0</asrwt>
<pdfrwt beam="1">  1        2 0.29314948E+00 0.29153132E+04</pdfrwt>
<pdfrwt beam="2">  1       -1 0.17155153E+00 0.29153132E+04</pdfrwt>
<totfact> 0.17726318E+00</totfact>
</mgrwt>
</event>
<event>
12    6  0.8914180E-008  0.1609035E+04  0.7818608E-02  0.8815017E-01
          2   -1    0    0  501    0  0.00000000000E+00  0.00000000000E+00  0.10109391705E+04  0.10109391705E+04  0.00000000000E+00 0. -1.
         -1   -1    0    0    0  501 -0.00000000000E+00 -0.00000000000E+00 -0.64024452029E+03  0.64024452029E+03  0.00000000000E+00 0.  1.
         24    2    1    2    0    0 -0.35399937040E+03 -0.75616819585E+02 -0.28959288725E+03  0.47466530664E+03  0.10202771849E+03 0.  0.
        254    2    1    2    0    0  0.35399937040E+03  0.75616819585E+02  0.66028753742E+03  0.11765183841E+04  0.90398142592E+03 0.  0.
         23    2    4    4    0    0  0.10666496767E+03 -0.30216967774E+03 -0.42581914121E+02  0.33618864406E+03  0.92334476266E+02 0.  0.
         23    2    4    4    0    0  0.24733440272E+03  0.37778649733E+03  0.70286945154E+03  0.84032974004E+03  0.90728505812E+02 0.  0.
          4    1    3    3  502    0 -0.23156355628E+02  0.27834249963E+01  0.60563937915E+01  0.24096559224E+02  0.00000000000E+00 0. -1.
         -3    1    3    3    0  502 -0.33084301477E+03 -0.78400244581E+02 -0.29564928104E+03  0.45056874742E+03  0.00000000000E+00 0.  1.
         11    1    5    5    0    0  0.11084980287E+03 -0.30724368337E+03 -0.43625429097E+02  0.32952926704E+03  0.00000000000E+00 0.  1.
        -11    1    5    5    0    0 -0.41848352009E+01  0.50740056309E+01  0.10435149756E+01  0.66593770208E+01  0.00000000000E+00 0. -1.
          2    1    6    6  503    0  0.16770668259E+03  0.27410743556E+03  0.42103091252E+03  0.52964841821E+03  0.00000000000E+00 0.  1.
         -2    1    6    6    0  503  0.79627720134E+02  0.10367906177E+03  0.28183853901E+03  0.31068132183E+03  0.00000000000E+00 0. -1.
<mgrwt>
<rscale>  0 0.16090348E+04</rscale>
<asrwt>0</asrwt>
<pdfrwt beam="1">  1        2 0.15552910E+00 0.16090348E+04</pdfrwt>
<pdfrwt beam="2">  1       -1 0.98499157E-01 0.16090348E+04</pdfrwt>
<totfact> 0.26739093E+01</totfact>
</mgrwt>
</event>
<event>
12    6  0.8914180E-008  0.2067573E+04  0.7818608E-02  0.8575664E-01
         -1   -1    0    0    0  501 -0.00000000000E+00  0.00000000000E+00  0.46474427523E+03  0.46474427523E+03  0.00000000000E+00 0.  1.
          2   -1    0    0  501    0  0.00000000000E+00 -0.00000000000E+00 -0.22995756758E+04  0.22995756758E+04  0.00000000000E+00 0. -1.
         24    2    1    2    0    0 -0.60845313281E+03 -0.13181995632E+03 -0.14946757079E+04  0.16209898946E+04  0.77207840932E+02 0.  0.
        254    2    1    2    0    0  0.60845313281E+03  0.13181995632E+03 -0.34015569268E+03  0.11433300565E+04  0.89660805659E+03 0.  0.
         23    2    4    4    0    0 -0.75904223882E+02  0.11623643247E+03 -0.41691142423E+03  0.44839717624E+03  0.89289039438E+02 0.  0.
         23    2    4    4    0    0  0.68435735669E+03  0.15583523853E+02  0.76755731559E+02  0.69493288027E+03  0.91937086497E+02 0.  0.
          2    1    3    3  502    0 -0.51617087968E+03 -0.84416187263E+02 -0.12719358165E+04  0.13752742239E+04  0.00000000000E+00 0. -1.
         -1    1    3    3    0  502 -0.92282253127E+02 -0.47403769060E+02 -0.22273989141E+03  0.24571567062E+03  0.00000000000E+00 0.  1.
         11    1    5    5    0    0 -0.34614573510E+01 -0.56483108431E+00  0.41720999346E+01  0.54504255807E+01  0.00000000000E+00 0. -1.
        -11    1    5    5    0    0 -0.72442766531E+02  0.11680126355E+03 -0.42108352417E+03  0.44294675066E+03  0.00000000000E+00 0.  1.
          3    1    6    6  503    0  0.18631134058E+02 -0.27060269701E+01 -0.13078972055E+02  0.22923813999E+02  0.00000000000E+00 0. -1.
         -3    1    6    6    0  503  0.66572622264E+03  0.18289550823E+02  0.89834703614E+02  0.67200906627E+03  0.00000000000E+00 0.  1.
<mgrwt>
<rscale>  0 0.20675731E+04</rscale>
<asrwt>0</asrwt>
<pdfrwt beam="1">  1        2 0.35378088E+00 0.20675731E+04</pdfrwt>
<pdfrwt beam="2">  1       -1 0.71499119E-01 0.20675731E+04</pdfrwt>
<totfact> 0.94231136E+00</totfact>
</mgrwt>
</event>
<event>
12    6  0.8914180E-008  0.1114373E+04  0.7818608E-02  0.9191295E-01
          2   -1    0    0  501    0  0.00000000000E+00  0.00000000000E+00  0.11834580446E+04  0.11834580446E+04  0.00000000000E+00 0. -1.
         -1   -1    0    0    0  501 -0.00000000000E+00 -0.00000000000E+00 -0.26233023330E+03  0.26233023330E+03  0.00000000000E+00 0.  1.
         24    2    1    2    0    0  0.16856698974E+03 -0.31934637080E+02  0.24019003083E+03  0.30590995249E+03  0.80342996259E+02 0.  0.
        254    2    1    2    0    0 -0.16856698974E+03  0.31934637080E+02  0.68093778045E+03  0.11398783254E+04  0.89789291386E+03 0.  0.
         23    2    4    4    0    0 -0.18780824372E+03 -0.41137430233E+03  0.34370496060E+03  0.57528100861E+03  0.91183254497E+02 0.  0.
         23    2    4    4    0    0  0.19241253973E+02  0.44330893941E+03  0.33723281985E+03  0.56459731677E+03  0.90283518467E+02 0.  0.
          4    1    3    3  502    0  0.15696843416E+03 -0.37506871052E+01  0.21579405113E+03  0.26687118518E+03  0.00000000000E+00 0. -1.
         -3    1    3    3    0  502  0.11598555586E+02 -0.28183949975E+02  0.24395979695E+02  0.39038767310E+02  0.00000000000E+00 0.  1.
         11    1    5    5    0    0 -0.17724892020E+03 -0.35708939151E+03  0.33189110036E+03  0.51873087024E+03  0.00000000000E+00 0. -1.
        -11    1    5    5    0    0 -0.10559323518E+02 -0.54284910826E+02  0.11813860242E+02  0.56550138376E+02  0.00000000000E+00 0.  1.
          3    1    6    6  503    0 -0.19001158475E+02  0.26311411177E+03  0.15753853811E+03  0.30725961470E+03  0.00000000000E+00 0. -1.
         -3    1    6    6    0  503  0.38242412448E+02  0.18019482764E+03  0.17969428174E+03  0.25733770207E+03  0.00000000000E+00 0.  1.
<mgrwt>
<rscale>  0 0.11143731E+04</rscale>
<asrwt>0</asrwt>
<pdfrwt beam="1">  1        2 0.18207047E+00 0.11143731E+04</pdfrwt>
<pdfrwt beam="2">  1       -1 0.40358498E-01 0.11143731E+04</pdfrwt>
<totfact> 0.13120825E+02</totfact>
</mgrwt>
</event>
<event>
12    6  0.8914180E-008  0.1742339E+04  0.7818608E-02  0.8737579E-01
         -1   -1    0    0    0  501 -0.00000000000E+00  0.00000000000E+00  0.76593423771E+03  0.76593423771E+03  0.00000000000E+00 0.  1.
          2   -1    0    0  501    0  0.00000000000E+00 -0.00000000000E+00 -0.99086296008E+03  0.99086296008E+03  0.00000000000E+00 0. -1.
         24    2    1    2    0    0  0.14209095944E+03  0.20860236277E+03 -0.66870093419E+03  0.71919483533E+03  0.79846635965E+02 0.  0.
        254    2    1    2    0    0 -0.14209095944E+03 -0.20860236277E+03  0.44377221182E+03  0.10376023625E+04  0.90331616839E+03 0.  0.
         23    2    4    4    0    0  0.95001819460E+02  0.49435625974E+01  0.63912631804E+03  0.65267698320E+03  0.91951125476E+02 0.  0.
         23    2    4    4    0    0 -0.23709277890E+03 -0.21354592536E+03 -0.19535410622E+03  0.38492537925E+03  0.90495705603E+02 0.  0.
          4    1    3    3  502    0  0.14744763987E+03  0.19086955531E+03 -0.64792369161E+03  0.69135888206E+03  0.00000000000E+00 0. -1.
         -3    1    3    3    0  502 -0.53566804319E+01  0.17732807456E+02 -0.20777242578E+02  0.27835953274E+02  0.00000000000E+00 0.  1.
         11    1    5    5    0    0  0.43519469994E+02  0.47527135206E+02  0.35495077909E+03  0.36075314056E+03  0.00000000000E+00 0.  1.
        -11    1    5    5    0    0  0.51482349466E+02 -0.42583572608E+02  0.28417553895E+03  0.29192384264E+03  0.00000000000E+00 0. -1.
          1    1    6    6  503    0 -0.15894655865E+03 -0.88728276418E+02 -0.84996849784E+02  0.20090092089E+03  0.00000000000E+00 0. -1.
         -1    1    6    6    0  503 -0.78146220249E+02 -0.12481764894E+03 -0.11035725644E+03  0.18402445836E+03  0.00000000000E+00 0.  1.
<mgrwt>
<rscale>  0 0.17423385E+04</rscale>
<asrwt>0</asrwt>
<pdfrwt beam="1">  1        2 0.15244046E+00 0.17423385E+04</pdfrwt>
<pdfrwt beam="2">  1       -1 0.11783604E+00 0.17423385E+04</pdfrwt>
<totfact> 0.17883699E+01</totfact>
</mgrwt>
</event>
<event>
12    6  0.8914180E-008  0.2414489E+04  0.7818608E-02  0.8434099E-01
          2   -1    0    0  501    0  0.00000000000E+00  0.00000000000E+00  0.13643812591E+04  0.13643812591E+04  0.00000000000E+00 0. -1.
         -1   -1    0    0    0  501 -0.00000000000E+00 -0.00000000000E+00 -0.10682053270E+04  0.10682053270E+04  0.00000000000E+00 0.  1.
         24    2    1    2    0    0 -0.84363999895E+03 -0.65895883249E+03 -0.43010845909E+02  0.10743761546E+04  0.80492222593E+02 0.  0.
        254    2    1    2    0    0  0.84363999895E+03  0.65895883249E+03  0.33918677798E+03  0.13582104316E+04  0.76402402797E+03 0.  0.
         23    2    4    4    0    0  0.89245873559E+03  0.75497242971E+03  0.31635775057E+03  0.12144325937E+04  0.91095192125E+02 0.  0.
         23    2    4    4    0    0 -0.48818736637E+02 -0.96013597219E+02  0.22829027412E+02  0.14377783784E+03  0.92460922892E+02 0.  0.
          2    1    3    3  502    0 -0.30053705635E+03 -0.25703719322E+03  0.18773619649E+02  0.39590793088E+03  0.00000000000E+00 0. -1.
         -1    1    3    3    0  502 -0.54310294260E+03 -0.40192163927E+03 -0.61784465558E+02  0.67846822369E+03  0.00000000000E+00 0.  1.
         11    1    5    5    0    0  0.43661883393E+02  0.29108154740E+02 -0.37872395638E+01  0.52611670923E+02  0.00000000000E+00 0. -1.
        -11    1    5    5    0    0  0.84879685220E+03  0.72586427497E+03  0.32014499013E+03  0.11618209228E+04  0.00000000000E+00 0.  1.
          2    1    6    6  503    0 -0.11496022111E+02 -0.43229803692E+02  0.55550695697E+02  0.71322186198E+02  0.00000000000E+00 0. -1.
         -2    1    6    6    0  503 -0.37322714527E+02 -0.52783793528E+02 -0.32721668285E+02  0.72455651637E+02  0.00000000000E+00 0.  1.
<mgrwt>
<rscale>  0 0.24144890E+04</rscale>
<asrwt>0</asrwt>
<pdfrwt beam="1">  1        2 0.20990481E+00 0.24144890E+04</pdfrwt>
<pdfrwt beam="2">  1       -1 0.16433928E+00 0.24144890E+04</pdfrwt>
<totfact> 0.42078559E+00</totfact>
</mgrwt>
</event>
<event>
12    6  0.8914180E-008  0.2481915E+04  0.7818608E-02  0.8409457E-01
         -1   -1    0    0    0  501 -0.00000000000E+00  0.00000000000E+00  0.58261134923E+03  0.58261134923E+03  0.00000000000E+00 0.  1.
          2   -1    0    0  501    0  0.00000000000E+00 -0.00000000000E+00 -0.26432305643E+04  0.26432305643E+04  0.00000000000E+00 0. -1.
         24    2    1    2    0    0  0.85284293611E+03 -0.29711541131E+03 -0.16324755580E+04  0.18674006977E+04  0.81180521805E+02 0.  0.
        254    2    1    2    0    0 -0.85284293611E+03  0.29711541131E+03 -0.42814365709E+03  0.13584412158E+04  0.92002005652E+03 0.  0.
         23    2    4    4    0    0 -0.52949011233E+03  0.46751898546E+03 -0.61147631919E+03  0.93913952999E+03  0.95634653966E+02 0.  0.
         23    2    4    4    0    0 -0.32335282378E+03 -0.17040357415E+03  0.18333266210E+03  0.41930168582E+03  0.92782606199E+02 0.  0.
          2    1    3    3  502    0  0.27515825956E+03 -0.10485047349E+03 -0.61075164813E+03  0.67802895608E+03  0.00000000000E+00 0. -1.
         -1    1    3    3    0  502  0.57768467654E+03 -0.19226493782E+03 -0.10217239099E+04  0.11893717416E+04  0.00000000000E+00 0.  1.
         11    1    5    5    0    0 -0.33405993724E+02  0.53147541407E+02 -0.29462142177E+02  0.69344353742E+02  0.00000000000E+00 0. -1.
        -11    1    5    5    0    0 -0.49608411860E+03  0.41437144405E+03 -0.58201417701E+03  0.86979517624E+03  0.00000000000E+00 0.  1.
          4    1    6    6  503    0 -0.26862472532E+03 -0.10402046868E+03  0.16267890614E+03  0.33082310599E+03  0.00000000000E+00 0.  1.
         -4    1    6    6    0  503 -0.54728098458E+02 -0.66383105472E+02  0.20653755956E+02  0.88478579827E+02  0.00000000000E+00 0. -1.
<mgrwt>
<rscale>  0 0.24819155E+04</rscale>
<asrwt>0</asrwt>
<pdfrwt beam="1">  1        2 0.40665086E+00 0.24819155E+04</pdfrwt>
<pdfrwt beam="2">  1       -1 0.89632515E-01 0.24819155E+04</pdfrwt>
<totfact> 0.35531650E+00</totfact>
</mgrwt>
</event>
<event>
12    6  0.8914180E-008  0.3206564E+04  0.7818608E-02  0.8187086E-01
          2   -1    0    0  501    0  0.00000000000E+00  0.00000000000E+00  0.25000469297E+04  0.25000469297E+04  0.00000000000E+00 0. -1.
         -1   -1    0    0    0  501 -0.00000000000E+00 -0.00000000000E+00 -0.10281857640E+04  0.10281857640E+04  0.00000000000E+00 0.  1.
         24    2    1    2    0    0 -0.83759698013E+03 -0.38211221560E+03 -0.59708991119E+03  0.11001343339E+04  0.78744803772E+02 0.  0.
        254    2    1    2    0    0  0.83759698013E+03  0.38211221560E+03  0.20689510769E+04  0.24280983598E+04  0.87608483617E+03 0.  0.
         23    2    4    4    0    0  0.93053308100E+03  0.11693746134E+03  0.17854242625E+04  0.20188193465E+04  0.91244570452E+02 0.  0.
         23    2    4    4    0    0 -0.92936100867E+02  0.26517475427E+03  0.28352681431E+03  0.40927901338E+03  0.90371938201E+02 0.  0.
          4    1    3    3  502    0 -0.27835881280E+03 -0.12340726067E+03 -0.15424235417E+03  0.34132636064E+03  0.00000000000E+00 0. -1.
         -3    1    3    3    0  502 -0.55923816734E+03 -0.25870495494E+03 -0.44284755701E+03  0.75880797325E+03  0.00000000000E+00 0.  1.
         11    1    5    5    0    0  0.15951816526E+03  0.19158746636E+02  0.23746676688E+03  0.28671164607E+03  0.00000000000E+00 0. -1.
        -11    1    5    5    0    0  0.77101491574E+03  0.97778714703E+02  0.15479574957E+04  0.17321077004E+04  0.00000000000E+00 0.  1.
          3    1    6    6  503    0 -0.66332580056E+02  0.73034917789E+02  0.71076629094E+02  0.12159768746E+03  0.00000000000E+00 0. -1.
         -3    1    6    6    0  503 -0.26603520811E+02  0.19213983648E+03  0.21245018521E+03  0.28768132591E+03  0.00000000000E+00 0.  1.
<mgrwt>
<rscale>  0 0.32065637E+04</rscale>
<asrwt>0</asrwt>
<pdfrwt beam="1">  1        2 0.38462260E+00 0.32065637E+04</pdfrwt>
<pdfrwt beam="2">  1       -1 0.15818243E+00 0.32065637E+04</pdfrwt>
<totfact> 0.10042279E+00</totfact>
</mgrwt>
</event>
<event>
12    6  0.8914180E-008  0.1657489E+04  0.7818608E-02  0.8785988E-01
          2   -1    0    0  501    0  0.00000000000E+00  0.00000000000E+00  0.57989037160E+03  0.57989037160E+03  0.00000000000E+00 0. -1.
         -1   -1    0    0    0  501 -0.00000000000E+00 -0.00000000000E+00 -0.11843924915E+04  0.11843924915E+04  0.00000000000E+00 0.  1.
         24    2    1    2    0    0 -0.54870673940E+03 -0.13729295933E+03 -0.33693224313E+03  0.66360958240E+03  0.83221985360E+02 0.  0.
        254    2    1    2    0    0  0.54870673940E+03  0.13729295933E+03 -0.26756987673E+03  0.11006732807E+04  0.90551620045E+03 0.  0.
         23    2    4    4    0    0  0.50888281593E+03  0.17403053928E+03  0.23055042701E+03  0.59251732935E+03  0.93139343120E+02 0.  0.
         23    2    4    4    0    0  0.39823923470E+02 -0.36737579947E+02 -0.49812030373E+03  0.50815595131E+03  0.84634739902E+02 0.  0.
          2    1    3    3  502    0 -0.29894451081E+03 -0.88947062163E+02 -0.23058524684E+03  0.38787750189E+03  0.00000000000E+00 0. -1.
         -1    1    3    3    0  502 -0.24976222859E+03 -0.48345897168E+02 -0.10634699629E+03  0.27573208051E+03  0.00000000000E+00 0.  1.
         11    1    5    5    0    0  0.73481770551E+02  0.62205188826E+02  0.42378936098E+02  0.10519044797E+03  0.00000000000E+00 0.  1.
        -11    1    5    5    0    0  0.43540104538E+03  0.11182535045E+03  0.18817149091E+03  0.48732688138E+03  0.00000000000E+00 0. -1.
          2    1    6    6  503    0  0.19184870068E+02 -0.50661000369E+02 -0.45616167320E+03  0.45936703005E+03  0.00000000000E+00 0. -1.
         -2    1    6    6    0  503  0.20639053403E+02  0.13923420422E+02 -0.41958630532E+02  0.48788921260E+02  0.00000000000E+00 0.  1.
<mgrwt>
<rscale>  0 0.16574894E+04</rscale>
<asrwt>0</asrwt>
<pdfrwt beam="1">  1        2 0.89213904E-01 0.16574894E+04</pdfrwt>
<pdfrwt beam="2">  1       -1 0.18221423E+00 0.16574894E+04</pdfrwt>
<totfact> 0.11309147E+01</totfact>
</mgrwt>
</event>
<event>
12    6  0.8914180E-008  0.1941786E+04  0.7818608E-02  0.8634332E-01
          2   -1    0    0  501    0  0.00000000000E+00  0.00000000000E+00  0.20747240826E+04  0.20747240826E+04  0.00000000000E+00 0. -1.
         -1   -1    0    0    0  501 -0.00000000000E+00 -0.00000000000E+00 -0.45434155015E+03  0.45434155015E+03  0.00000000000E+00 0.  1.
         24    2    1    2    0    0  0.49190348700E+03  0.57870965697E+03  0.61282060565E+03  0.97924446339E+03  0.80602213182E+02 0.  0.
        254    2    1    2    0    0 -0.49190348700E+03 -0.57870965697E+03  0.10075619268E+04  0.15498211694E+04  0.89993928299E+03 0.  0.
         23    2    4    4    0    0 -0.36040949457E+03 -0.11197275533E+03  0.98187784673E+03  0.10558688939E+04  0.91335171180E+02 0.  0.
         23    2    4    4    0    0 -0.13149399243E+03 -0.46673690164E+03  0.25684080072E+02  0.49395227546E+03  0.90527195173E+02 0.  0.
          4    1    3    3  502    0  0.20595837843E+03  0.21641377422E+03  0.19572802418E+03  0.35715995683E+03  0.00000000000E+00 0. -1.
         -3    1    3    3    0  502  0.28594510857E+03  0.36229588275E+03  0.41709258147E+03  0.62208450655E+03  0.00000000000E+00 0.  1.
         11    1    5    5    0    0 -0.27067699265E+03 -0.85847217712E+02  0.61694686086E+03  0.67916066454E+03  0.00000000000E+00 0.  1.
        -11    1    5    5    0    0 -0.89732501919E+02 -0.26125537618E+02  0.36493098587E+03  0.37670822936E+03  0.00000000000E+00 0. -1.
          1    1    6    6  503    0 -0.32536723494E+02 -0.63909306303E+02  0.33320304538E+02  0.79077686501E+02  0.00000000000E+00 0. -1.
         -1    1    6    6    0  503 -0.98957268940E+02 -0.40282759534E+03 -0.76362244659E+01  0.41487458896E+03  0.00000000000E+00 0.  1.
<mgrwt>
<rscale>  0 0.19417861E+04</rscale>
<asrwt>0</asrwt>
<pdfrwt beam="1">  1        2 0.31918831E+00 0.19417861E+04</pdfrwt>
<pdfrwt beam="2">  1       -1 0.69898701E-01 0.19417861E+04</pdfrwt>
<totfact> 0.13350205E+01</totfact>
</mgrwt>
</event>
<event>
12    6  0.8914180E-008  0.1514599E+04  0.7818608E-02  0.8874802E-01
          2   -1    0    0  501    0  0.00000000000E+00  0.00000000000E+00  0.79602013784E+03  0.79602013784E+03  0.00000000000E+00 0. -1.
         -1   -1    0    0    0  501 -0.00000000000E+00 -0.00000000000E+00 -0.72046222722E+03  0.72046222722E+03  0.00000000000E+00 0.  1.
         24    2    1    2    0    0  0.39326635162E+03  0.22347284137E+03 -0.15869577572E+03  0.48508777393E+03  0.74345578455E+02 0.  0.
        254    2    1    2    0    0 -0.39326635162E+03 -0.22347284137E+03  0.23425368634E+03  0.10313945911E+04  0.89682856716E+03 0.  0.
         23    2    4    4    0    0  0.23301746837E+03  0.71524659752E+02  0.20722048221E+03  0.33254161040E+03  0.90723077994E+02 0.  0.
         23    2    4    4    0    0 -0.62628382000E+03 -0.29499750112E+03  0.27033204131E+02  0.69885298072E+03  0.91704665510E+02 0.  0.
          4    1    3    3  502    0  0.52334296466E+02  0.26084779964E+02  0.45551214845E+01  0.58651883722E+02  0.00000000000E+00 0. -1.
         -3    1    3    3    0  502  0.34093205516E+03  0.19738806141E+03 -0.16325089721E+03  0.42643589021E+03  0.00000000000E+00 0.  1.
         11    1    5    5    0    0  0.66577085631E+02  0.63419351087E+02  0.91095159668E+02  0.12943280318E+03  0.00000000000E+00 0. -1.
        -11    1    5    5    0    0  0.16644038274E+03  0.81053086642E+01  0.11612532254E+03  0.20310880723E+03  0.00000000000E+00 0.  1.
          3    1    6    6  503    0 -0.14484403198E+03 -0.10917911077E+03 -0.84466246405E+01  0.18157978218E+03  0.00000000000E+00 0. -1.
         -3    1    6    6    0  503 -0.48143978802E+03 -0.18581839036E+03  0.35479828771E+02  0.51727319854E+03  0.00000000000E+00 0.  1.
<mgrwt>
<rscale>  0 0.15145989E+04</rscale>
<asrwt>0</asrwt>
<pdfrwt beam="1">  1        2 0.12246464E+00 0.15145989E+04</pdfrwt>
<pdfrwt beam="2">  1       -1 0.11084034E+00 0.15145989E+04</pdfrwt>
<totfact> 0.28648889E+01</totfact>
</mgrwt>
</event>
<event>
12    6  0.8914180E-008  0.1910233E+04  0.7818608E-02  0.8649780E-01
          2   -1    0    0  501    0  0.00000000000E+00  0.00000000000E+00  0.85626647327E+03  0.85626647327E+03  0.00000000000E+00 0. -1.
         -1   -1    0    0    0  501 -0.00000000000E+00 -0.00000000000E+00 -0.10653778455E+04  0.10653778455E+04  0.00000000000E+00 0.  1.
         24    2    1    2    0    0 -0.68831455319E+03 -0.23302684301E+03  0.43256433515E+02  0.73226856089E+03  0.79168759818E+02 0.  0.
        254    2    1    2    0    0  0.68831455319E+03  0.23302684301E+03 -0.25236780578E+03  0.11893757579E+04  0.90710900692E+03 0.  0.
         23    2    4    4    0    0  0.56164145347E+03  0.47815649151E+03  0.80818506444E+02  0.74709939139E+03  0.86897163416E+02 0.  0.
         23    2    4    4    0    0  0.12667309972E+03 -0.24512964850E+03 -0.33318631222E+03  0.44227636652E+03  0.91981775175E+02 0.  0.
          4    1    3    3  502    0 -0.51014692593E+03 -0.15572652652E+03  0.41765272119E+00  0.53338617486E+03  0.00000000000E+00 0. -1.
         -1    1    3    3    0  502 -0.17816762726E+03 -0.77300316495E+02  0.42838780793E+02  0.19888238603E+03  0.00000000000E+00 0.  1.
         11    1    5    5    0    0  0.17901056299E+03  0.11802531789E+03 -0.61105814185E+01  0.21450430423E+03  0.00000000000E+00 0. -1.
        -11    1    5    5    0    0  0.38263089047E+03  0.36013117362E+03  0.86929087862E+02  0.53259508717E+03  0.00000000000E+00 0.  1.
          2    1    6    6  503    0  0.53446818297E+02 -0.19345914024E+03 -0.21782679506E+03  0.29619506069E+03  0.00000000000E+00 0. -1.
         -2    1    6    6    0  503  0.73226281424E+02 -0.51670508263E+02 -0.11535951716E+03  0.14608130583E+03  0.00000000000E+00 0.  1.
<mgrwt>
<rscale>  0 0.19102328E+04</rscale>
<asrwt>0</asrwt>
<pdfrwt beam="1">  1        2 0.13173330E+00 0.19102328E+04</pdfrwt>
<pdfrwt beam="2">  1       -1 0.16390428E+00 0.19102328E+04</pdfrwt>
<totfact> 0.91637439E+00</totfact>
</mgrwt>
</event>
<event>
12    6  0.8914180E-008  0.3433079E+04  0.7818608E-02  0.8129835E-01
          2   -1    0    0  501    0  0.00000000000E+00  0.00000000000E+00  0.28535927727E+04  0.28535927727E+04  0.00000000000E+00 0. -1.
         -1   -1    0    0    0  501 -0.00000000000E+00 -0.00000000000E+00 -0.10325606774E+04  0.10325606774E+04  0.00000000000E+00 0.  1.
         24    2    1    2    0    0 -0.89292537050E+03  0.12571249465E+04  0.13221918776E+04  0.20326935441E+04  0.77284116160E+02 0.  0.
        254    2    1    2    0    0  0.89292537050E+03 -0.12571249465E+04  0.49884021775E+03  0.18534599060E+04  0.89932931227E+03 0.  0.
         23    2    4    4    0    0  0.85481073155E+03 -0.11799351269E+04  0.13284323367E+03  0.14659098266E+04  0.91082405094E+02 0.  0.
         23    2    4    4    0    0  0.38114638951E+02 -0.77189819584E+02  0.36599698408E+03  0.38755007938E+03  0.93969557452E+02 0.  0.
          2    1    3    3  502    0 -0.50424952184E+03  0.64950083845E+03  0.68297801234E+03  0.10689143487E+04  0.00000000000E+00 0. -1.
         -1    1    3    3    0  502 -0.38867584866E+03  0.60762410808E+03  0.63921386526E+03  0.96377919546E+03  0.00000000000E+00 0.  1.
         11    1    5    5    0    0  0.56494657346E+03 -0.72709015176E+03  0.52499961581E+02  0.92226946475E+03  0.00000000000E+00 0. -1.
        -11    1    5    5    0    0  0.28986415809E+03 -0.45284497518E+03  0.80343272092E+02  0.54364036188E+03  0.00000000000E+00 0.  1.
          4    1    6    6  503    0  0.85533171755E+01 -0.79327181635E+02  0.15351566780E+03  0.17301162169E+03  0.00000000000E+00 0. -1.
         -4    1    6    6    0  503  0.29561321776E+02  0.21373620510E+01  0.21248131628E+03  0.21453845769E+03  0.00000000000E+00 0.  1.
<mgrwt>
<rscale>  0 0.34330789E+04</rscale>
<asrwt>0</asrwt>
<pdfrwt beam="1">  1        2 0.43901427E+00 0.34330789E+04</pdfrwt>
<pdfrwt beam="2">  1       -1 0.15885549E+00 0.34330789E+04</pdfrwt>
<totfact> 0.59991075E-01</totfact>
</mgrwt>
</event>
<event>
12    6  0.8914180E-008  0.2016062E+04  0.7818608E-02  0.8599148E-01
         -1   -1    0    0    0  501 -0.00000000000E+00  0.00000000000E+00  0.73996854936E+03  0.73996854936E+03  0.00000000000E+00 0.  1.
          2   -1    0    0  501    0  0.00000000000E+00 -0.00000000000E+00 -0.13732019354E+04  0.13732019354E+04  0.00000000000E+00 0. -1.
         24    2    1    2    0    0  0.23635967191E+03 -0.44166608395E+03  0.40480478531E+03  0.64904266342E+03  0.80340777375E+02 0.  0.
        254    2    1    2    0    0 -0.23635967191E+03  0.44166608395E+03 -0.10380381714E+04  0.14641278214E+04  0.90289102769E+03 0.  0.
         23    2    4    4    0    0  0.94807569593E+02  0.29937120429E+03 -0.10429361063E+04  0.10929854755E+04  0.91049077981E+02 0.  0.
         23    2    4    4    0    0 -0.33116724150E+03  0.14229487966E+03  0.48979349285E+01  0.37114234588E+03  0.88335024297E+02 0.  0.
          4    1    3    3  502    0  0.15577913870E+01 -0.54382162932E+02  0.45562082476E+02  0.70963016556E+02  0.00000000000E+00 0. -1.
         -3    1    3    3    0  502  0.23480188052E+03 -0.38728392102E+03  0.35924270283E+03  0.57807964686E+03  0.00000000000E+00 0.  1.
         11    1    5    5    0    0  0.10334495844E+03  0.28494647330E+03 -0.91363657339E+03  0.96260400026E+03  0.00000000000E+00 0.  1.
        -11    1    5    5    0    0 -0.85373888502E+01  0.14424730988E+02 -0.12929953292E+03  0.13038147524E+03  0.00000000000E+00 0. -1.
          1    1    6    6  503    0 -0.11409553034E+03  0.94257325127E+02 -0.99159955865E+01  0.14832585868E+03  0.00000000000E+00 0. -1.
         -1    1    6    6    0  503 -0.21707171116E+03  0.48037554530E+02  0.14813930515E+02  0.22281648720E+03  0.00000000000E+00 0.  1.
<mgrwt>
<rscale>  0 0.20160617E+04</rscale>
<asrwt>0</asrwt>
<pdfrwt beam="1">  1        2 0.21126183E+00 0.20160617E+04</pdfrwt>
<pdfrwt beam="2">  1       -1 0.11384132E+00 0.20160617E+04</pdfrwt>
<totfact> 0.11150511E+01</totfact>
</mgrwt>
</event>
<event>
12    6  0.8914180E-008  0.2448350E+04  0.7818608E-02  0.8421621E-01
         -1   -1    0    0    0  501 -0.00000000000E+00  0.00000000000E+00  0.39018673333E+03  0.39018673333E+03  0.00000000000E+00 0.  1.
          2   -1    0    0  501    0  0.00000000000E+00 -0.00000000000E+00 -0.38407360157E+04  0.38407360157E+04  0.00000000000E+00 0. -1.
         24    2    1    2    0    0 -0.11310450806E+03 -0.50320127085E+03 -0.30821353868E+04  0.31258314703E+04  0.72523717609E+02 0.  0.
        254    2    1    2    0    0  0.11310450806E+03  0.50320127085E+03 -0.36841389562E+03  0.11050912787E+04  0.90525896136E+03 0.  0.
         23    2    4    4    0    0  0.33162474400E+03  0.43390041141E+03 -0.56401767390E+03  0.79016104443E+03  0.89409181846E+02 0.  0.
         23    2    4    4    0    0 -0.21852023594E+03  0.69300859442E+02  0.19560377829E+03  0.31493023431E+03  0.91468638171E+02 0.  0.
          2    1    3    3  502    0 -0.60396733069E+02 -0.26588998390E+03 -0.14104588882E+04  0.14365721437E+04  0.00000000000E+00 0. -1.
         -1    1    3    3    0  502 -0.52707774989E+02 -0.23731128695E+03 -0.16716764986E+04  0.16892593266E+04  0.00000000000E+00 0.  1.
         11    1    5    5    0    0  0.24858220707E+03  0.26892676570E+03 -0.40936586955E+03  0.54926781640E+03  0.00000000000E+00 0. -1.
        -11    1    5    5    0    0  0.83042536927E+02  0.16497364571E+03 -0.15465180436E+03  0.24089322802E+03  0.00000000000E+00 0.  1.
          3    1    6    6  503    0 -0.13625817687E+03  0.57683920067E+02  0.68424171951E+02  0.16302022177E+03  0.00000000000E+00 0. -1.
         -3    1    6    6    0  503 -0.82262059067E+02  0.11616939375E+02  0.12717960633E+03  0.15191001254E+03  0.00000000000E+00 0.  1.
<mgrwt>
<rscale>  0 0.24483498E+04</rscale>
<asrwt>0</asrwt>
<pdfrwt beam="1">  1        2 0.59088246E+00 0.24483498E+04</pdfrwt>
<pdfrwt beam="2">  1       -1 0.60028728E-01 0.24483498E+04</pdfrwt>
<totfact> 0.13143788E+00</totfact>
</mgrwt>
</event>
<event>
12    6  0.8914180E-008  0.1425286E+04  0.7818608E-02  0.8935716E-01
         -1   -1    0    0    0  501 -0.00000000000E+00  0.00000000000E+00  0.51093749167E+03  0.51093749167E+03  0.00000000000E+00 0.  1.
          2   -1    0    0  501    0  0.00000000000E+00 -0.00000000000E+00 -0.99397619868E+03  0.99397619868E+03  0.00000000000E+00 0. -1.
         24    2    1    2    0    0  0.17295158977E+03  0.25500564720E+03 -0.44597300075E+03  0.54806791273E+03  0.80909746349E+02 0.  0.
        254    2    1    2    0    0 -0.17295158977E+03 -0.25500564720E+03 -0.37065706257E+02  0.95684577763E+03  0.90511869005E+03 0.  0.
         23    2    4    4    0    0 -0.33704557302E+03 -0.52306622599E+03 -0.13670423781E+02  0.62876671899E+03  0.89234025789E+02 0.  0.
         23    2    4    4    0    0  0.16409398325E+03  0.26806057879E+03 -0.23395282476E+02  0.32807905863E+03  0.91132981026E+02 0.  0.
          2    1    3    3  502    0  0.14077739009E+03  0.22484170850E+03 -0.42036365695E+03  0.49706908124E+03  0.00000000000E+00 0. -1.
         -1    1    3    3    0  502  0.32174199682E+02  0.30163938709E+02 -0.25609343805E+02  0.50998831494E+02  0.00000000000E+00 0.  1.
         11    1    5    5    0    0 -0.20220762274E+03 -0.24768117855E+03  0.19615355643E+02  0.32034146013E+03  0.00000000000E+00 0. -1.
        -11    1    5    5    0    0 -0.13483795028E+03 -0.27538504744E+03 -0.33285779424E+02  0.30842525886E+03  0.00000000000E+00 0.  1.
          1    1    6    6  503    0  0.39657919562E+02  0.62635928216E+02 -0.45346176506E+02  0.86903888354E+02  0.00000000000E+00 0. -1.
         -1    1    6    6    0  503  0.12443606369E+03  0.20542465057E+03  0.21950894030E+02  0.24117517028E+03  0.00000000000E+00 0.  1.
<mgrwt>
<rscale>  0 0.14252855E+04</rscale>
<asrwt>0</asrwt>
<pdfrwt beam="1">  1        2 0.15291941E+00 0.14252855E+04</pdfrwt>
<pdfrwt beam="2">  1       -1 0.78605769E-01 0.14252855E+04</pdfrwt>
<totfact> 0.45629156E+01</totfact>
</mgrwt>
</event>
<event>
12    6  0.8914180E-008  0.1743359E+04  0.7818608E-02  0.8737014E-01
         -1   -1    0    0    0  501 -0.00000000000E+00  0.00000000000E+00  0.77992109878E+03  0.77992109878E+03  0.00000000000E+00 0.  1.
          2   -1    0    0  501    0  0.00000000000E+00 -0.00000000000E+00 -0.97423316841E+03  0.97423316841E+03  0.00000000000E+00 0. -1.
         24    2    1    2    0    0  0.43341947038E+03 -0.26243044957E+03 -0.45792338475E+03  0.68690258932E+03  0.73614962765E+02 0.  0.
        254    2    1    2    0    0 -0.43341947038E+03  0.26243044957E+03  0.26361131512E+03  0.10672516779E+04  0.90156144565E+03 0.  0.
         23    2    4    4    0    0 -0.57665211649E+03 -0.65620109180E+02  0.35552883981E+03  0.68643668372E+03  0.89223890529E+02 0.  0.
         23    2    4    4    0    0  0.14323264611E+03  0.32805055875E+03 -0.91917524682E+02  0.38081499415E+03  0.91861136582E+02 0.  0.
          2    1    3    3  502    0  0.31333810469E+03 -0.22208453818E+03 -0.32296937407E+03  0.50180825674E+03  0.00000000000E+00 0. -1.
         -1    1    3    3    0  502  0.12008136569E+03 -0.40345911392E+02 -0.13495401068E+03  0.18509433258E+03  0.00000000000E+00 0.  1.
         11    1    5    5    0    0 -0.56546447437E+03 -0.51589954962E+02  0.35223466411E+03  0.66819222820E+03  0.00000000000E+00 0. -1.
        -11    1    5    5    0    0 -0.11187642117E+02 -0.14030154218E+02  0.32941756926E+01  0.18244455514E+02  0.00000000000E+00 0.  1.
          2    1    6    6  503    0  0.81836017520E+01 -0.47886039962E+01  0.16740910693E+01  0.96283252322E+01  0.00000000000E+00 0.  1.
         -2    1    6    6    0  503  0.13504904436E+03  0.33283916275E+03 -0.93591615751E+02  0.37118666892E+03  0.00000000000E+00 0. -1.
<mgrwt>
<rscale>  0 0.17433588E+04</rscale>
<asrwt>0</asrwt>
<pdfrwt beam="1">  1        2 0.14988202E+00 0.17433588E+04</pdfrwt>
<pdfrwt beam="2">  1       -1 0.11998786E+00 0.17433588E+04</pdfrwt>
<totfact> 0.17540416E+01</totfact>
</mgrwt>
</event>
<event>
12    6  0.8914180E-008  0.1524732E+04  0.7818608E-02  0.8868171E-01
         -1   -1    0    0    0  501 -0.00000000000E+00  0.00000000000E+00  0.32143491208E+03  0.32143491208E+03  0.00000000000E+00 0.  1.
          2   -1    0    0  501    0  0.00000000000E+00 -0.00000000000E+00 -0.18081476473E+04  0.18081476473E+04  0.00000000000E+00 0. -1.
         24    2    1    2    0    0  0.13092392111E+03  0.11064113554E+03  0.15914671538E+03  0.24712137525E+03  0.79741852877E+02 0.  0.
        254    2    1    2    0    0 -0.13092392111E+03 -0.11064113554E+03 -0.16458594506E+04  0.18824611841E+04  0.89745431339E+03 0.  0.
         23    2    4    4    0    0  0.24622537325E+03 -0.34490764664E+03 -0.10282621699E+04  0.11157861951E+04  0.89819396801E+02 0.  0.
         23    2    4    4    0    0 -0.37714929436E+03  0.23426651110E+03 -0.61759728067E+03  0.76667498898E+03  0.96134016695E+02 0.  0.
          4    1    3    3  502    0  0.19433555604E+02  0.63065862862E+02  0.73023931941E+02  0.98424899177E+02  0.00000000000E+00 0. -1.
         -3    1    3    3    0  502  0.11149036551E+03  0.47575272675E+02  0.86122783435E+02  0.14869647608E+03  0.00000000000E+00 0.  1.
         11    1    5    5    0    0  0.81271169995E+01 -0.62097951245E+02 -0.17540050719E+03  0.18624592211E+03  0.00000000000E+00 0. -1.
        -11    1    5    5    0    0  0.23809825625E+03 -0.28280969539E+03 -0.85286166270E+03  0.92954027301E+03  0.00000000000E+00 0.  1.
          4    1    6    6  503    0 -0.69468855781E+01  0.30662557404E+02 -0.50666176050E+02  0.59628122906E+02  0.00000000000E+00 0. -1.
         -4    1    6    6    0  503 -0.37020240879E+03  0.20360395370E+03 -0.56693110462E+03  0.70704686607E+03  0.00000000000E+00 0.  1.
<mgrwt>
<rscale>  0 0.15247318E+04</rscale>
<asrwt>0</asrwt>
<pdfrwt beam="1">  1        2 0.27817656E+00 0.15247318E+04</pdfrwt>
<pdfrwt beam="2">  1       -1 0.49451524E-01 0.15247318E+04</pdfrwt>
<totfact> 0.38456419E+01</totfact>
</mgrwt>
</event>
<event>
12    6  0.8914180E-008  0.1964346E+04  0.7818608E-02  0.8623474E-01
         -1   -1    0    0    0  501 -0.00000000000E+00  0.00000000000E+00  0.64272489805E+03  0.64272489805E+03  0.00000000000E+00 0.  1.
          2   -1    0    0  501    0  0.00000000000E+00 -0.00000000000E+00 -0.15008976540E+04  0.15008976540E+04  0.00000000000E+00 0. -1.
         24    2    1    2    0    0 -0.28606278918E+03  0.26631764517E+03  0.38942221466E+03  0.55783497936E+03  0.82299425539E+02 0.  0.
        254    2    1    2    0    0  0.28606278918E+03 -0.26631764517E+03 -0.12475949706E+04  0.15857875727E+04  0.89748092321E+03 0.  0.
         23    2    4    4    0    0 -0.27751371790E+03  0.89858456887E+02 -0.36537803745E+03  0.47628837609E+03  0.90890599375E+02 0.  0.
         23    2    4    4    0    0  0.56357650708E+03 -0.35617610206E+03 -0.88221693316E+03  0.11094991966E+04  0.90564093814E+02 0.  0.
          4    1    3    3  502    0 -0.70795527135E+02  0.76423324588E+02  0.15732169806E+03  0.18868663939E+03  0.00000000000E+00 0. -1.
         -1    1    3    3    0  502 -0.21526726204E+03  0.18989432059E+03  0.23210051661E+03  0.36914833997E+03  0.00000000000E+00 0.  1.
         11    1    5    5    0    0 -0.23100314097E+02  0.76781628522E+01 -0.10217215529E+01  0.24364371757E+02  0.00000000000E+00 0. -1.
        -11    1    5    5    0    0 -0.25441340380E+03  0.82180294035E+02 -0.36435631589E+03  0.45192400433E+03  0.00000000000E+00 0.  1.
          2    1    6    6  503    0  0.17884533073E+03 -0.16284352878E+03 -0.33500081929E+03  0.41319392071E+03  0.00000000000E+00 0.  1.
         -2    1    6    6    0  503  0.38473117635E+03 -0.19333257328E+03 -0.54721611388E+03  0.69630527589E+03  0.00000000000E+00 0. -1.
<mgrwt>
<rscale>  0 0.19643465E+04</rscale>
<asrwt>0</asrwt>
<pdfrwt beam="1">  1        2 0.23090733E+00 0.19643465E+04</pdfrwt>
<pdfrwt beam="2">  1       -1 0.98880756E-01 0.19643465E+04</pdfrwt>
<totfact> 0.13163642E+01</totfact>
</mgrwt>
</event>
<event>
12    6  0.8914180E-008  0.2212960E+04  0.7818608E-02  0.8513053E-01
         -1   -1    0    0    0  501 -0.00000000000E+00  0.00000000000E+00  0.66370612730E+03  0.66370612730E+03  0.00000000000E+00 0.  1.
          2   -1    0    0  501    0  0.00000000000E+00 -0.00000000000E+00 -0.18446384611E+04  0.18446384611E+04  0.00000000000E+00 0. -1.
         24    2    1    2    0    0 -0.33068488444E+03 -0.11305019084E+03 -0.14580547431E+04  0.15014527929E+04  0.79397839902E+02 0.  0.
        254    2    1    2    0    0  0.33068488444E+03  0.11305019084E+03  0.27712240930E+03  0.10068917955E+04  0.90271890401E+03 0.  0.
         23    2    4    4    0    0  0.58282151534E+03 -0.11233572033E+03  0.81286057400E+02  0.60588547890E+03  0.90496174518E+02 0.  0.
         23    2    4    4    0    0 -0.25213663090E+03  0.22538591117E+03  0.19583635190E+03  0.40100631660E+03  0.89902723149E+02 0.  0.
          4    1    3    3  502    0 -0.25264194546E+03 -0.89487274446E+02 -0.12405319090E+04  0.12691553657E+04  0.00000000000E+00 0. -1.
         -3    1    3    3    0  502 -0.78042938980E+02 -0.23562916397E+02 -0.21752283404E+03  0.23229742720E+03  0.00000000000E+00 0.  1.
         11    1    5    5    0    0  0.25529723686E+03 -0.26515972724E+02  0.74393124957E+02  0.26723419129E+03  0.00000000000E+00 0. -1.
        -11    1    5    5    0    0  0.32752427849E+03 -0.85819747607E+02  0.68929324430E+01  0.33865128760E+03  0.00000000000E+00 0.  1.
          1    1    6    6  503    0 -0.18473710905E+03  0.10864091609E+03  0.10678566898E+03  0.23944483124E+03  0.00000000000E+00 0. -1.
         -1    1    6    6    0  503 -0.67399521855E+02  0.11674499508E+03  0.89050682916E+02  0.16156148536E+03  0.00000000000E+00 0.  1.
<mgrwt>
<rscale>  0 0.22129599E+04</rscale>
<asrwt>0</asrwt>
<pdfrwt beam="1">  1        2 0.28379053E+00 0.22129599E+04</pdfrwt>
<pdfrwt beam="2">  1       -1 0.10210864E+00 0.22129599E+04</pdfrwt>
<totfact> 0.76956869E+00</totfact>
</mgrwt>
</event>
<event>
12    6  0.8914180E-008  0.1908816E+04  0.7818608E-02  0.8650481E-01
          2   -1    0    0  501    0  0.00000000000E+00  0.00000000000E+00  0.12718602882E+04  0.12718602882E+04  0.00000000000E+00 0. -1.
         -1   -1    0    0    0  501 -0.00000000000E+00 -0.00000000000E+00 -0.71619077447E+03  0.71619077447E+03  0.00000000000E+00 0.  1.
         24    2    1    2    0    0  0.64159066920E+03  0.99929030401E+02 -0.14697015018E+03  0.67053682174E+03  0.79968783533E+02 0.  0.
        254    2    1    2    0    0 -0.64159066920E+03 -0.99929030401E+02  0.70263966390E+03  0.13175142409E+04  0.90582386799E+03 0.  0.
         23    2    4    4    0    0 -0.43146570634E+03  0.29224643396E+03  0.63247878256E+02  0.53294852056E+03  0.91995638785E+02 0.  0.
         23    2    4    4    0    0 -0.21012496286E+03 -0.39217546436E+03  0.63939178565E+03  0.78456572036E+03  0.93634497630E+02 0.  0.
          4    1    3    3  502    0  0.21221461994E+03  0.61493631691E+02 -0.23976604036E+02  0.22224173594E+03  0.00000000000E+00 0. -1.
         -3    1    3    3    0  502  0.42937604926E+03  0.38435398710E+02 -0.12299354614E+03  0.44829508579E+03  0.00000000000E+00 0.  1.
         11    1    5    5    0    0 -0.24132390493E+03  0.19245346355E+03 -0.14662480607E+01  0.30867088072E+03  0.00000000000E+00 0. -1.
        -11    1    5    5    0    0 -0.19014180141E+03  0.99792970410E+02  0.64714126317E+02  0.22427763984E+03  0.00000000000E+00 0.  1.
          2    1    6    6  503    0 -0.11371677140E+03 -0.12346405949E+03  0.20826594941E+03  0.26748753946E+03  0.00000000000E+00 0. -1.
         -2    1    6    6    0  503 -0.96408191454E+02 -0.26871140487E+03  0.43112583624E+03  0.51707818090E+03  0.00000000000E+00 0.  1.
<mgrwt>
<rscale>  0 0.19088160E+04</rscale>
<asrwt>0</asrwt>
<pdfrwt beam="1">  1        2 0.19567081E+00 0.19088160E+04</pdfrwt>
<pdfrwt beam="2">  1       -1 0.11018320E+00 0.19088160E+04</pdfrwt>
<totfact> 0.13927803E+01</totfact>
</mgrwt>
</event>
<event>
12    6  0.8914180E-008  0.2363420E+04  0.7818608E-02  0.8453327E-01
          2   -1    0    0  501    0  0.00000000000E+00  0.00000000000E+00  0.25103620592E+04  0.25103620592E+04  0.00000000000E+00 0. -1.
         -1   -1    0    0    0  501 -0.00000000000E+00 -0.00000000000E+00 -0.55626999863E+03  0.55626999863E+03  0.00000000000E+00 0.  1.
         24    2    1    2    0    0 -0.86037420706E+03  0.51649155000E+03  0.73816408038E+03  0.12484454518E+04  0.81991091708E+02 0.  0.
        254    2    1    2    0    0  0.86037420706E+03 -0.51649155000E+03  0.12159279802E+04  0.18181866060E+04  0.90571208667E+03 0.  0.
         23    2    4    4    0    0 -0.64626259261E+02 -0.64292980075E+02  0.60346077676E+03  0.61704472311E+03  0.90934814857E+02 0.  0.
         23    2    4    4    0    0  0.92500046632E+03 -0.45219856993E+03  0.61246720339E+03  0.12011418829E+04  0.86696818158E+02 0.  0.
          2    1    3    3  502    0 -0.41591335022E+03  0.26526123026E+03  0.31472871219E+03  0.58515091852E+03  0.00000000000E+00 0. -1.
         -1    1    3    3    0  502 -0.44446085685E+03  0.25123031974E+03  0.42343536819E+03  0.66329453327E+03  0.00000000000E+00 0.  1.
         11    1    5    5    0    0 -0.71981453396E+02 -0.59291779058E+02  0.31667465725E+03  0.33012071010E+03  0.00000000000E+00 0. -1.
        -11    1    5    5    0    0  0.73551941354E+01 -0.50012010168E+01  0.28678611951E+03  0.28692401300E+03  0.00000000000E+00 0.  1.
          1    1    6    6  503    0  0.19914800731E+03 -0.62177616348E+02  0.14080291348E+03  0.25169712997E+03  0.00000000000E+00 0. -1.
         -1    1    6    6    0  503  0.72585245901E+03 -0.39002095358E+03  0.47166428992E+03  0.94944475293E+03  0.00000000000E+00 0.  1.
<mgrwt>
<rscale>  0 0.23634205E+04</rscale>
<asrwt>0</asrwt>
<pdfrwt beam="1">  1        2 0.38620954E+00 0.23634205E+04</pdfrwt>
<pdfrwt beam="2">  1       -1 0.85580001E-01 0.23634205E+04</pdfrwt>
<totfact> 0.47518069E+00</totfact>
</mgrwt>
</event>
<event>
12    6  0.8914180E-008  0.1275213E+04  0.7818608E-02  0.9049456E-01
          2   -1    0    0  501    0  0.00000000000E+00  0.00000000000E+00  0.17998977096E+04  0.17998977096E+04  0.00000000000E+00 0. -1.
         -1   -1    0    0    0  501 -0.00000000000E+00 -0.00000000000E+00 -0.22586955176E+03  0.22586955176E+03  0.00000000000E+00 0.  1.
         24    2    1    2    0    0  0.28837926438E+03 -0.51535772228E+02  0.57075289262E+03  0.64649178064E+03  0.79838725315E+02 0.  0.
        254    2    1    2    0    0 -0.28837926438E+03  0.51535772228E+02  0.10032752652E+04  0.13792754807E+04  0.90001169877E+03 0.  0.
         23    2    4    4    0    0  0.22803632311E+03 -0.20214322575E+03  0.16354231066E+03  0.35721264988E+03  0.89399896454E+02 0.  0.
         23    2    4    4    0    0 -0.51641558749E+03  0.25367899798E+03  0.83973295454E+03  0.10220628308E+04  0.91776370344E+02 0.  0.
          4    1    3    3  502    0  0.54361406216E+02  0.91097413020E+01  0.16739944179E+03  0.17624052595E+03  0.00000000000E+00 0. -1.
         -3    1    3    3    0  502  0.23401785816E+03 -0.60645513530E+02  0.40335345083E+03  0.47025125470E+03  0.00000000000E+00 0.  1.
         11    1    5    5    0    0  0.41146616367E+02 -0.82856588047E+02  0.72495984344E+02  0.11753265915E+03  0.00000000000E+00 0.  1.
        -11    1    5    5    0    0  0.18688970675E+03 -0.11928663770E+03  0.91046326313E+02  0.23967999073E+03  0.00000000000E+00 0. -1.
          1    1    6    6  503    0 -0.37992992605E+03  0.22900389133E+03  0.62493289138E+03  0.76637500590E+03  0.00000000000E+00 0. -1.
         -1    1    6    6    0  503 -0.13648566144E+03  0.24675106653E+02  0.21480006317E+03  0.25568782490E+03  0.00000000000E+00 0.  1.
<mgrwt>
<rscale>  0 0.12752131E+04</rscale>
<asrwt>0</asrwt>
<pdfrwt beam="1">  1        2 0.27690733E+00 0.12752131E+04</pdfrwt>
<pdfrwt beam="2">  1       -1 0.34749163E-01 0.12752131E+04</pdfrwt>
<totfact> 0.75887118E+01</totfact>
</mgrwt>
</event>
<event>
12    6  0.8914180E-008  0.2159642E+04  0.7818608E-02  0.8535416E-01
         -1   -1    0    0    0  501 -0.00000000000E+00  0.00000000000E+00  0.10592102507E+04  0.10592102507E+04  0.00000000000E+00 0.  1.
          2   -1    0    0  501    0  0.00000000000E+00 -0.00000000000E+00 -0.11008331404E+04  0.11008331404E+04  0.00000000000E+00 0. -1.
         24    2    1    2    0    0 -0.26791499606E+03 -0.54239952010E+03  0.63531853866E+03  0.88077031782E+03  0.78428455712E+02 0.  0.
        254    2    1    2    0    0  0.26791499606E+03  0.54239952010E+03 -0.67694142839E+03  0.12792730733E+04  0.90128475746E+03 0.  0.
         23    2    4    4    0    0 -0.21453892592E+03 -0.10715596862E+03 -0.77204399148E+02  0.26787286744E+03  0.91027476701E+02 0.  0.
         23    2    4    4    0    0  0.48245392198E+03  0.64955548872E+03 -0.59973702925E+03  0.10114002058E+04  0.92529737710E+02 0.  0.
          2    1    3    3  502    0 -0.68651294997E+02 -0.15977203886E+03  0.23417367797E+03  0.29168033215E+03  0.00000000000E+00 0. -1.
         -1    1    3    3    0  502 -0.19926370107E+03 -0.38262748124E+03  0.40114486068E+03  0.58908998567E+03  0.00000000000E+00 0.  1.
         11    1    5    5    0    0 -0.15952380199E+02  0.16005113303E+02 -0.10093453195E+02  0.24749139041E+02  0.00000000000E+00 0. -1.
        -11    1    5    5    0    0 -0.19858654572E+03 -0.12316108193E+03 -0.67110945953E+02  0.24312372840E+03  0.00000000000E+00 0.  1.
          3    1    6    6  503    0  0.55347801750E+02  0.33473111604E+02 -0.51139479085E+02  0.82456501746E+02  0.00000000000E+00 0. -1.
         -3    1    6    6    0  503  0.42710612023E+03  0.61608237712E+03 -0.54859755016E+03  0.92894370410E+03  0.00000000000E+00 0.  1.
<mgrwt>
<rscale>  0 0.21596423E+04</rscale>
<asrwt>0</asrwt>
<pdfrwt beam="1">  1        2 0.16935894E+00 0.21596423E+04</pdfrwt>
<pdfrwt beam="2">  1       -1 0.16295542E+00 0.21596423E+04</pdfrwt>
<totfact> 0.63171798E+00</totfact>
</mgrwt>
</event>
<event>
12    6  0.8914180E-008  0.1102380E+04  0.7818608E-02  0.9202875E-01
          2   -1    0    0  501    0  0.00000000000E+00  0.00000000000E+00  0.53751896130E+03  0.53751896130E+03  0.00000000000E+00 0. -1.
         -3   -1    0    0    0  501 -0.00000000000E+00 -0.00000000000E+00 -0.56520875465E+03  0.56520875465E+03  0.00000000000E+00 0.  1.
         24    2    1    2    0    0  0.81604867580E+02  0.34413117793E+02  0.13708435511E+03  0.18186689191E+03  0.80248544342E+02 0.  0.
        254    2    1    2    0    0 -0.81604867580E+02 -0.34413117793E+02 -0.16477414846E+03  0.92086082404E+03  0.90165986944E+03 0.  0.
         23    2    4    4    0    0  0.29684435031E+03 -0.29831337620E+03 -0.12792458229E+03  0.44891142099E+03  0.89718038395E+02 0.  0.
         23    2    4    4    0    0 -0.37844921789E+03  0.26390025841E+03 -0.36849566165E+02  0.47194940304E+03  0.92256119566E+02 0.  0.
          2    1    3    3  502    0  0.23784208762E+02  0.50881836196E+02  0.87312051428E+02  0.10381735965E+03  0.00000000000E+00 0. -1.
         -1    1    3    3    0  502  0.57820658817E+02 -0.16468718402E+02  0.49772303684E+02  0.78049532259E+02  0.00000000000E+00 0.  1.
         11    1    5    5    0    0  0.16973035494E+03 -0.21181103839E+03 -0.48049124849E+02  0.27564656314E+03  0.00000000000E+00 0. -1.
        -11    1    5    5    0    0  0.12711399537E+03 -0.86502337810E+02 -0.79875457445E+02  0.17326485786E+03  0.00000000000E+00 0.  1.
          3    1    6    6  503    0 -0.16399577859E+03  0.16345511512E+03 -0.40774166161E+02  0.23510576913E+03  0.00000000000E+00 0. -1.
         -3    1    6    6    0  503 -0.21445343930E+03  0.10044514329E+03  0.39245999958E+01  0.23684363391E+03  0.00000000000E+00 0.  1.
<mgrwt>
<rscale>  0 0.11023800E+04</rscale>
<asrwt>0</asrwt>
<pdfrwt beam="1">  1        2 0.82695225E-01 0.11023800E+04</pdfrwt>
<pdfrwt beam="2">  1       -3 0.86955192E-01 0.11023800E+04</pdfrwt>
<totfact> 0.42703006E+01</totfact>
</mgrwt>
</event>
<event>
12    6  0.8914180E-008  0.1776228E+04  0.7818608E-02  0.8719045E-01
          2   -1    0    0  501    0  0.00000000000E+00  0.00000000000E+00  0.12762789290E+04  0.12762789290E+04  0.00000000000E+00 0. -1.
         -1   -1    0    0    0  501 -0.00000000000E+00 -0.00000000000E+00 -0.61800447966E+03  0.61800447966E+03  0.00000000000E+00 0.  1.
         24    2    1    2    0    0  0.34276444069E+03 -0.44550805795E+03  0.64376060389E+03  0.85834805978E+03  0.79804668434E+02 0.  0.
        254    2    1    2    0    0 -0.34276444069E+03  0.44550805795E+03  0.14513845414E+02  0.10359353489E+04  0.87004971340E+03 0.  0.
         23    2    4    4    0    0  0.35084900435E+02  0.55709657998E+03  0.18761871172E+03  0.59607274261E+03  0.92273418898E+02 0.  0.
         23    2    4    4    0    0 -0.37784934113E+03 -0.11158852202E+03 -0.17310486631E+03  0.43986260624E+03  0.91058743634E+02 0.  0.
          4    1    3    3  502    0  0.18462052303E+03 -0.25033902993E+03  0.29626458232E+03  0.42956614178E+03  0.00000000000E+00 0. -1.
         -3    1    3    3    0  502  0.15814391767E+03 -0.19516902802E+03  0.34749602157E+03  0.42878191800E+03  0.00000000000E+00 0.  1.
         11    1    5    5    0    0  0.43684928512E+02  0.23643854343E+03  0.11798499477E+03  0.26782833455E+03  0.00000000000E+00 0.  1.
        -11    1    5    5    0    0 -0.86000280767E+01  0.32065803655E+03  0.69633716953E+02  0.32824440806E+03  0.00000000000E+00 0. -1.
          3    1    6    6  503    0 -0.17603796798E+03 -0.77226876599E+02 -0.42010694587E+02  0.19676954820E+03  0.00000000000E+00 0. -1.
         -3    1    6    6    0  503 -0.20181137315E+03 -0.34361645425E+02 -0.13109417172E+03  0.24309305804E+03  0.00000000000E+00 0.  1.
<mgrwt>
<rscale>  0 0.17762276E+04</rscale>
<asrwt>0</asrwt>
<pdfrwt beam="1">  1        2 0.19635060E+00 0.17762276E+04</pdfrwt>
<pdfrwt beam="2">  1       -1 0.95077612E-01 0.17762276E+04</pdfrwt>
<totfact> 0.19673119E+01</totfact>
</mgrwt>
</event>
<event>
12    6  0.8914180E-008  0.1639710E+04  0.7818608E-02  0.8796517E-01
         -1   -1    0    0    0  501 -0.00000000000E+00  0.00000000000E+00  0.39907167910E+03  0.39907167910E+03  0.00000000000E+00 0.  1.
          2   -1    0    0  501    0  0.00000000000E+00 -0.00000000000E+00 -0.16843150590E+04  0.16843150590E+04  0.00000000000E+00 0. -1.
         24    2    1    2    0    0 -0.36037111897E+03  0.39319250433E+03 -0.73398392866E+03  0.91080672580E+03  0.79804732842E+02 0.  0.
        254    2    1    2    0    0  0.36037111897E+03 -0.39319250433E+03 -0.55125945123E+03  0.11725800123E+04  0.88689864912E+03 0.  0.
         23    2    4    4    0    0  0.25671597091E+03 -0.66969477093E+03 -0.35085943160E+03  0.80291415758E+03  0.84703174525E+02 0.  0.
         23    2    4    4    0    0  0.10365514806E+03  0.27650226660E+03 -0.20040001962E+03  0.36966585471E+03  0.96409455523E+02 0.  0.
          4    1    3    3  502    0 -0.25987897356E+03  0.24195927176E+03 -0.44190093984E+03  0.56688430100E+03  0.00000000000E+00 0. -1.
         -3    1    3    3    0  502 -0.10049214541E+03  0.15123323257E+03 -0.29208298882E+03  0.34392242480E+03  0.00000000000E+00 0.  1.
         11    1    5    5    0    0  0.21903797864E+02 -0.14297991911E+03 -0.54873018795E+02  0.15470643756E+03  0.00000000000E+00 0.  1.
        -11    1    5    5    0    0  0.23481217304E+03 -0.52671485182E+03 -0.29598641281E+03  0.64820772003E+03  0.00000000000E+00 0. -1.
          4    1    6    6  503    0 -0.10265395129E+02  0.12467750821E+02 -0.33472341428E+02  0.37164778869E+02  0.00000000000E+00 0.  1.
         -4    1    6    6    0  503  0.11392054319E+03  0.26403451578E+03 -0.16692767820E+03  0.33250107584E+03  0.00000000000E+00 0. -1.
<mgrwt>
<rscale>  0 0.16397103E+04</rscale>
<asrwt>0</asrwt>
<pdfrwt beam="1">  1        2 0.25912539E+00 0.16397103E+04</pdfrwt>
<pdfrwt beam="2">  1       -1 0.61395644E-01 0.16397103E+04</pdfrwt>
<totfact> 0.29321397E+01</totfact>
</mgrwt>
</event>
<event>
12    6  0.1004410E-007  0.2822773E+04  0.7818608E-02  0.8296233E-01
         -1   -1    0    0    0  501 -0.00000000000E+00  0.00000000000E+00  0.10846452591E+04  0.10846452591E+04  0.00000000000E+00 0.  1.
          2   -1    0    0  501    0  0.00000000000E+00 -0.00000000000E+00 -0.18365555153E+04  0.18365555153E+04  0.00000000000E+00 0. -1.
         24    2    1    2    0    0  0.13228294741E+03 -0.61755309529E+03 -0.14730072696E+04  0.16048475892E+04  0.83155062990E+02 0.  0.
        254    2    1    2    0    0 -0.13228294741E+03  0.61755309529E+03  0.72109701346E+03  0.13163531852E+04  0.90218302009E+03 0.  0.
         23    2    4    4    0    0 -0.47394681515E+03  0.20674037266E+03  0.19077631268E+03  0.55827555418E+03  0.88931589660E+02 0.  0.
         23    2    4    4    0    0  0.34166386774E+03  0.41081272263E+03  0.53032070078E+03  0.75807763104E+03  0.89108683157E+02 0.  0.
          2    1    3    3  502    0  0.12315988600E+03 -0.48615878994E+03 -0.10904000650E+04  0.12002045777E+04  0.00000000000E+00 0. -1.
         -1    1    3    3    0  502  0.91230614093E+01 -0.13139430535E+03 -0.38260720467E+03  0.40464301154E+03  0.00000000000E+00 0.  1.
         11    1    5    5    0    0 -0.41479954508E+03  0.21066665881E+03  0.17353620973E+03  0.49654196179E+03  0.00000000000E+00 0.  1.
        -11    1    5    5    0    0 -0.59147270071E+02 -0.39262861507E+01  0.17240102951E+02  0.61733592391E+02  0.00000000000E+00 0. -1.
          3    1    6    6  503    0  0.28950975226E+02  0.85055943567E+02  0.97495918738E+02  0.13258252778E+03  0.00000000000E+00 0. -1.
         -3    1    6    6    0  503  0.31271289251E+03  0.32575677906E+03  0.43282478204E+03  0.62549510326E+03  0.00000000000E+00 0.  1.
<mgrwt>
<rscale>  0 0.28227726E+04</rscale>
<asrwt>0</asrwt>
<pdfrwt beam="1">  1        2 0.28254700E+00 0.28227726E+04</pdfrwt>
<pdfrwt beam="2">  1       -1 0.16686850E+00 0.28227726E+04</pdfrwt>
<totfact> 0.21124649E+00</totfact>
</mgrwt>
</event>
<event>
12    6  0.8914180E-008  0.1987016E+04  0.7818608E-02  0.8612715E-01
         -1   -1    0    0    0  501 -0.00000000000E+00  0.00000000000E+00  0.46437178809E+03  0.46437178809E+03  0.00000000000E+00 0.  1.
          2   -1    0    0  501    0  0.00000000000E+00 -0.00000000000E+00 -0.21255775813E+04  0.21255775813E+04  0.00000000000E+00 0. -1.
         24    2    1    2    0    0  0.58098877442E+03  0.17068098877E+03 -0.13515543036E+04  0.14830846144E+04  0.78491922135E+02 0.  0.
        254    2    1    2    0    0 -0.58098877442E+03 -0.17068098877E+03 -0.30965148960E+03  0.11068647550E+04  0.87326146427E+03 0.  0.
         23    2    4    4    0    0 -0.49654784335E+03 -0.47349663300E+03 -0.60162621912E+02  0.69482519070E+03  0.91671600641E+02 0.  0.
         23    2    4    4    0    0 -0.84440931071E+02  0.30281564423E+03 -0.24948886769E+03  0.41203956432E+03  0.93296957246E+02 0.  0.
          2    1    3    3  502    0  0.33935435411E+03  0.11251053345E+03 -0.70658381310E+03  0.79188426094E+03  0.00000000000E+00 0. -1.
         -3    1    3    3    0  502  0.24163442031E+03  0.58170455315E+02 -0.64497049050E+03  0.69120035342E+03  0.00000000000E+00 0.  1.
         11    1    5    5    0    0 -0.35221462912E+03 -0.27571610995E+03 -0.34038148390E+02  0.44859014011E+03  0.00000000000E+00 0. -1.
        -11    1    5    5    0    0 -0.14433321423E+03 -0.19778052305E+03 -0.26124473522E+02  0.24623505060E+03  0.00000000000E+00 0.  1.
          1    1    6    6  503    0 -0.41148934402E+02  0.27038830145E+03 -0.21498460555E+03  0.34788137201E+03  0.00000000000E+00 0. -1.
         -1    1    6    6    0  503 -0.43291996669E+02  0.32427342784E+02 -0.34504262139E+02  0.64158192317E+02  0.00000000000E+00 0.  1.
<mgrwt>
<rscale>  0 0.19870161E+04</rscale>
<asrwt>0</asrwt>
<pdfrwt beam="1">  1        2 0.32701194E+00 0.19870161E+04</pdfrwt>
<pdfrwt beam="2">  1       -1 0.71441813E-01 0.19870161E+04</pdfrwt>
<totfact> 0.11908931E+01</totfact>
</mgrwt>
</event>
<event>
12    6  0.8914180E-008  0.1642792E+04  0.7818608E-02  0.8794682E-01
          2   -1    0    0  501    0  0.00000000000E+00  0.00000000000E+00  0.72842357615E+03  0.72842357615E+03  0.00000000000E+00 0. -1.
         -1   -1    0    0    0  501 -0.00000000000E+00 -0.00000000000E+00 -0.92623469519E+03  0.92623469519E+03  0.00000000000E+00 0.  1.
         24    2    1    2    0    0  0.11006759247E+03  0.50165522135E+03 -0.33312996043E+03  0.61748493268E+03  0.80865539796E+02 0.  0.
        254    2    1    2    0    0 -0.11006759247E+03 -0.50165522135E+03  0.13531884139E+03  0.10371733387E+04  0.89086727944E+03 0.  0.
         23    2    4    4    0    0  0.52592686204E+02 -0.72688030996E+03  0.76320315851E+02  0.73846334735E+03  0.91555169793E+02 0.  0.
         23    2    4    4    0    0 -0.16266027867E+03  0.22522508861E+03  0.58998525537E+02  0.29870999132E+03  0.92531757263E+02 0.  0.
          4    1    3    3  502    0 -0.16710688770E+01  0.90068892190E+00 -0.12119625379E+02  0.12267397078E+02  0.00000000000E+00 0. -1.
         -3    1    3    3    0  502  0.11173866134E+03  0.50075453243E+03 -0.32101033505E+03  0.60521753560E+03  0.00000000000E+00 0.  1.
         11    1    5    5    0    0  0.26946738556E+02 -0.44414112604E+03  0.91064558209E+02  0.45418082338E+03  0.00000000000E+00 0.  1.
        -11    1    5    5    0    0  0.25645947648E+02 -0.28273918391E+03 -0.14744242359E+02  0.28428252397E+03  0.00000000000E+00 0. -1.
          4    1    6    6  503    0 -0.59608398579E+01  0.72378085938E+02  0.26360815847E+01  0.72670956110E+02  0.00000000000E+00 0. -1.
         -4    1    6    6    0  503 -0.15669943881E+03  0.15284700267E+03  0.56362443952E+02  0.22603903521E+03  0.00000000000E+00 0.  1.
<mgrwt>
<rscale>  0 0.16427918E+04</rscale>
<asrwt>0</asrwt>
<pdfrwt beam="1">  1        2 0.11206517E+00 0.16427918E+04</pdfrwt>
<pdfrwt beam="2">  1       -1 0.14249765E+00 0.16427918E+04</pdfrwt>
<totfact> 0.17008124E+01</totfact>
</mgrwt>
</event>
<event>
12    6  0.8914180E-008  0.2478117E+04  0.7818608E-02  0.8410823E-01
          2   -1    0    0  501    0  0.00000000000E+00  0.00000000000E+00  0.22002501057E+04  0.22002501057E+04  0.00000000000E+00 0. -1.
         -1   -1    0    0    0  501 -0.00000000000E+00 -0.00000000000E+00 -0.69776863083E+03  0.69776863083E+03  0.00000000000E+00 0.  1.
         24    2    1    2    0    0  0.54645347881E+03  0.48039480595E+03 -0.27115580893E+03  0.78061448335E+03  0.80267831734E+02 0.  0.
        254    2    1    2    0    0 -0.54645347881E+03 -0.48039480595E+03  0.17736372838E+04  0.21174042532E+04  0.89901111384E+03 0.  0.
         23    2    4    4    0    0 -0.50532054739E+03 -0.46587545576E+03  0.18595845833E+04  0.19849274300E+04  0.97433485685E+02 0.  0.
         23    2    4    4    0    0 -0.41132931420E+02 -0.14519350183E+02 -0.85947299529E+02  0.13247682313E+03  0.90886967121E+02 0.  0.
          2    1    3    3  502    0  0.41952488027E+03  0.39577212728E+03 -0.18651520876E+03  0.60615561121E+03  0.00000000000E+00 0. -1.
         -1    1    3    3    0  502  0.12692859853E+03  0.84622678667E+02 -0.84640600167E+02  0.17445887214E+03  0.00000000000E+00 0.  1.
         11    1    5    5    0    0 -0.36188740697E+03 -0.36943769026E+03  0.14826855525E+04  0.15702876010E+04  0.00000000000E+00 0.  1.
        -11    1    5    5    0    0 -0.14343314042E+03 -0.96437765509E+02  0.37689903080E+03  0.41463982902E+03  0.00000000000E+00 0. -1.
          2    1    6    6  503    0 -0.17676530920E+02  0.10582359634E+02 -0.94788818895E+02  0.97001887963E+02  0.00000000000E+00 0.  1.
         -2    1    6    6    0  503 -0.23456400501E+02 -0.25101709817E+02  0.88415193660E+01  0.35474935164E+02  0.00000000000E+00 0. -1.
<mgrwt>
<rscale>  0 0.24781166E+04</rscale>
<asrwt>0</asrwt>
<pdfrwt beam="1">  1        2 0.33850001E+00 0.24781166E+04</pdfrwt>
<pdfrwt beam="2">  1       -1 0.10734902E+00 0.24781166E+04</pdfrwt>
<totfact> 0.42410869E+00</totfact>
</mgrwt>
</event>
<event>
12    6  0.8914180E-008  0.1521981E+04  0.7818608E-02  0.8869966E-01
          2   -1    0    0  501    0  0.00000000000E+00  0.00000000000E+00  0.17206330795E+04  0.17206330795E+04  0.00000000000E+00 0. -1.
         -1   -1    0    0    0  501 -0.00000000000E+00 -0.00000000000E+00 -0.33656610762E+03  0.33656610762E+03  0.00000000000E+00 0.  1.
         24    2    1    2    0    0  0.47989638157E+03  0.88501020161E+02  0.50477409479E+03  0.70662887673E+03  0.79965711719E+02 0.  0.
        254    2    1    2    0    0 -0.47989638157E+03 -0.88501020161E+02  0.87929287712E+03  0.13505703104E+04  0.90152716653E+03 0.  0.
         23    2    4    4    0    0 -0.42829503543E+03  0.51333353209E+02  0.10295198108E+04  0.11201271744E+04  0.93285022900E+02 0.  0.
         23    2    4    4    0    0 -0.51601346138E+02 -0.13983437337E+03 -0.15022693368E+03  0.23044313601E+03  0.91211602505E+02 0.  0.
          2    1    3    3  502    0  0.44810499212E+03  0.98600557875E+02  0.45112172994E+03  0.64345238301E+03  0.00000000000E+00 0. -1.
         -1    1    3    3    0  502  0.31791389443E+02 -0.10099537714E+02  0.53652364855E+02  0.63176493724E+02  0.00000000000E+00 0.  1.
         11    1    5    5    0    0 -0.30034237332E+03  0.98824395635E+01  0.61804957758E+03  0.68723248190E+03  0.00000000000E+00 0. -1.
        -11    1    5    5    0    0 -0.12795266211E+03  0.41450913646E+02  0.41147023321E+03  0.43289469251E+03  0.00000000000E+00 0.  1.
          2    1    6    6  503    0  0.22601956315E+02 -0.46263877415E+02 -0.68668540778E+02  0.85828685620E+02  0.00000000000E+00 0. -1.
         -2    1    6    6    0  503 -0.74203302453E+02 -0.93570495955E+02 -0.81558392897E+02  0.14461445039E+03  0.00000000000E+00 0.  1.
<mgrwt>
<rscale>  0 0.15219813E+04</rscale>
<asrwt>0</asrwt>
<pdfrwt beam="1">  1        2 0.26471278E+00 0.15219813E+04</pdfrwt>
<pdfrwt beam="2">  1       -1 0.51779402E-01 0.15219813E+04</pdfrwt>
<totfact> 0.39399992E+01</totfact>
</mgrwt>
</event>
<event>
12    6  0.8914180E-008  0.2047052E+04  0.7818608E-02  0.8584933E-01
          2   -1    0    0  501    0  0.00000000000E+00  0.00000000000E+00  0.87254940502E+03  0.87254940502E+03  0.00000000000E+00 0. -1.
         -1   -1    0    0    0  501 -0.00000000000E+00 -0.00000000000E+00 -0.12006260027E+04  0.12006260027E+04  0.00000000000E+00 0.  1.
         24    2    1    2    0    0 -0.13356075669E+03  0.63296975672E+03  0.35645341455E+03  0.74289650916E+03  0.79668048338E+02 0.  0.
        254    2    1    2    0    0  0.13356075669E+03 -0.63296975672E+03 -0.68453001220E+03  0.13302788985E+04  0.93945272453E+03 0.  0.
         23    2    4    4    0    0 -0.10781894606E+03 -0.14000164702E+03 -0.74460712305E+03  0.77062135913E+03  0.90510359343E+02 0.  0.
         23    2    4    4    0    0  0.24137970275E+03 -0.49296810971E+03  0.60077110846E+02  0.55965753941E+03  0.91244638670E+02 0.  0.
          2    1    3    3  502    0 -0.12452462256E+03  0.59333819945E+03  0.30918139406E+03  0.68055105245E+03  0.00000000000E+00 0. -1.
         -1    1    3    3    0  502 -0.90361341334E+01  0.39631557269E+02  0.47272020490E+02  0.62345456714E+02  0.00000000000E+00 0.  1.
         11    1    5    5    0    0 -0.11086946025E+03 -0.12482092389E+03 -0.53501769151E+03  0.56046073055E+03  0.00000000000E+00 0.  1.
        -11    1    5    5    0    0  0.30505141942E+01 -0.15180723131E+02 -0.20958943154E+03  0.21016062858E+03  0.00000000000E+00 0. -1.
          2    1    6    6  503    0  0.21232883468E+02 -0.80429767916E+02 -0.19224620447E+02  0.85377801205E+02  0.00000000000E+00 0. -1.
         -2    1    6    6    0  503  0.22014681928E+03 -0.41253834179E+03  0.79301731293E+02  0.47427973821E+03  0.00000000000E+00 0.  1.
<mgrwt>
<rscale>  0 0.20470520E+04</rscale>
<asrwt>0</asrwt>
<pdfrwt beam="1">  1        2 0.13423837E+00 0.20470520E+04</pdfrwt>
<pdfrwt beam="2">  1       -1 0.18471169E+00 0.20470520E+04</pdfrwt>
<totfact> 0.62258666E+00</totfact>
</mgrwt>
</event>
<event>
12    6  0.8914180E-008  0.1293405E+04  0.7818608E-02  0.9034812E-01
         -1   -1    0    0    0  501 -0.00000000000E+00  0.00000000000E+00  0.18292526271E+04  0.18292526271E+04  0.00000000000E+00 0.  1.
          2   -1    0    0  501    0  0.00000000000E+00 -0.00000000000E+00 -0.22863111075E+03  0.22863111075E+03  0.00000000000E+00 0. -1.
         24    2    1    2    0    0 -0.95069837235E+02 -0.24595993571E+03  0.72210152830E+03  0.77281151807E+03  0.79198872237E+02 0.  0.
        254    2    1    2    0    0  0.95069837235E+02  0.24595993571E+03  0.87851998804E+03  0.12850722198E+04  0.90004370823E+03 0.  0.
         23    2    4    4    0    0 -0.37645854285E+03  0.18089998458E+03  0.26229829146E+03  0.50110948425E+03  0.88681918108E+02 0.  0.
         23    2    4    4    0    0  0.47152838009E+03  0.65059951127E+02  0.61622169658E+03  0.78396273552E+03  0.91085569026E+02 0.  0.
          4    1    3    3  502    0 -0.86574932137E+02 -0.11443165949E+03  0.38269695216E+03  0.40871356812E+03  0.00000000000E+00 0. -1.
         -1    1    3    3    0  502 -0.84949050974E+01 -0.13152827621E+03  0.33940457614E+03  0.36409794996E+03  0.00000000000E+00 0.  1.
         11    1    5    5    0    0  0.32373445597E+01 -0.33072301396E+01  0.51175295591E+01  0.68998028800E+01  0.00000000000E+00 0.  1.
        -11    1    5    5    0    0 -0.37969588741E+03  0.18420721472E+03  0.25718076190E+03  0.49420968137E+03  0.00000000000E+00 0. -1.
          1    1    6    6  503    0  0.37538701691E+03  0.22001729639E+02  0.44141035915E+03  0.57986428906E+03  0.00000000000E+00 0. -1.
         -1    1    6    6    0  503  0.96141363179E+02  0.43058221488E+02  0.17481133743E+03  0.20409844646E+03  0.00000000000E+00 0.  1.
<mgrwt>
<rscale>  0 0.12934049E+04</rscale>
<asrwt>0</asrwt>
<pdfrwt beam="1">  1        2 0.35174018E-01 0.12934049E+04</pdfrwt>
<pdfrwt beam="2">  1       -1 0.28142347E+00 0.12934049E+04</pdfrwt>
<totfact> 0.73149763E+00</totfact>
</mgrwt>
</event>
<event>
12    6  0.8914180E-008  0.2150496E+04  0.7818608E-02  0.8539320E-01
         -1   -1    0    0    0  501 -0.00000000000E+00  0.00000000000E+00  0.60040963825E+03  0.60040963825E+03  0.00000000000E+00 0.  1.
          2   -1    0    0  501    0  0.00000000000E+00 -0.00000000000E+00 -0.19256159770E+04  0.19256159770E+04  0.00000000000E+00 0. -1.
         24    2    1    2    0    0 -0.45023138511E+03  0.50044323913E+01  0.34792687189E+03  0.57445191908E+03  0.78794382249E+02 0.  0.
        254    2    1    2    0    0  0.45023138511E+03 -0.50044323913E+01 -0.16731332106E+04  0.19515736962E+04  0.89807115893E+03 0.  0.
         23    2    4    4    0    0  0.46580683380E+03 -0.47676246263E+02 -0.17581846893E+04  0.18217198956E+04  0.90559071154E+02 0.  0.
         23    2    4    4    0    0 -0.15575448693E+02  0.42671813872E+02  0.85051478676E+02  0.12985380056E+03  0.86975727620E+02 0.  0.
          2    1    3    3  502    0 -0.19053262697E+03 -0.17853889102E+02  0.10585848351E+03  0.21869490581E+03  0.00000000000E+00 0. -1.
         -1    1    3    3    0  502 -0.25969875814E+03  0.22858321493E+02  0.24206838838E+03  0.35575701328E+03  0.00000000000E+00 0.  1.
         11    1    5    5    0    0  0.35656093600E+03 -0.21297616956E-01 -0.13708401060E+04  0.14164527164E+04  0.00000000000E+00 0. -1.
        -11    1    5    5    0    0  0.10924589780E+03 -0.47654948646E+02 -0.38734458333E+03  0.40526717922E+03  0.00000000000E+00 0.  1.
          2    1    6    6  503    0 -0.13580200240E+01  0.13846761529E+02  0.95151716726E+02  0.96163538927E+02  0.00000000000E+00 0. -1.
         -2    1    6    6    0  503 -0.14217428669E+02  0.28825052343E+02 -0.10100238050E+02  0.33690261637E+02  0.00000000000E+00 0.  1.
<mgrwt>
<rscale>  0 0.21504961E+04</rscale>
<asrwt>0</asrwt>
<pdfrwt beam="1">  1        2 0.29624861E+00 0.21504961E+04</pdfrwt>
<pdfrwt beam="2">  1       -1 0.92370713E-01 0.21504961E+04</pdfrwt>
<totfact> 0.87538676E+00</totfact>
</mgrwt>
</event>
<event>
12    6  0.8914180E-008  0.1636011E+04  0.7818608E-02  0.8798725E-01
          2   -1    0    0  501    0  0.00000000000E+00  0.00000000000E+00  0.11131993941E+04  0.11131993941E+04  0.00000000000E+00 0. -1.
         -1   -1    0    0    0  501 -0.00000000000E+00 -0.00000000000E+00 -0.60109001193E+03  0.60109001193E+03  0.00000000000E+00 0.  1.
         24    2    1    2    0    0  0.45109932267E+03  0.12368737969E+03  0.50021489147E+03  0.68942987259E+03  0.79432013538E+02 0.  0.
        254    2    1    2    0    0 -0.45109932267E+03 -0.12368737969E+03  0.11894490689E+02  0.10248595334E+04  0.91181490311E+03 0.  0.
         23    2    4    4    0    0 -0.37412455717E+03 -0.10653799068E+03  0.43130407678E+03  0.58857542285E+03  0.95280081885E+02 0.  0.
         23    2    4    4    0    0 -0.76974765495E+02 -0.17149389014E+02 -0.41940958609E+03  0.43628411057E+03  0.90665363643E+02 0.  0.
          4    1    3    3  502    0  0.25634862799E+03  0.89029418067E+02  0.23785327284E+03  0.36085320527E+03  0.00000000000E+00 0. -1.
         -3    1    3    3    0  502  0.19475069468E+03  0.34657961624E+02  0.26236161862E+03  0.32857666732E+03  0.00000000000E+00 0.  1.
         11    1    5    5    0    0 -0.34265209530E+02 -0.31340492390E+02  0.22321713771E+02  0.51522712982E+02  0.00000000000E+00 0. -1.
        -11    1    5    5    0    0 -0.33985934764E+03 -0.75197498287E+02  0.40898236301E+03  0.53705270987E+03  0.00000000000E+00 0.  1.
          4    1    6    6  503    0  0.72927630961E+01 -0.26731817631E+02 -0.18376103001E+03  0.18583834539E+03  0.00000000000E+00 0. -1.
         -4    1    6    6    0  503 -0.84267528591E+02  0.95824286174E+01 -0.23564855608E+03  0.25044576518E+03  0.00000000000E+00 0.  1.
<mgrwt>
<rscale>  0 0.16360110E+04</rscale>
<asrwt>0</asrwt>
<pdfrwt beam="1">  1        2 0.17126145E+00 0.16360110E+04</pdfrwt>
<pdfrwt beam="2">  1       -1 0.92475386E-01 0.16360110E+04</pdfrwt>
<totfact> 0.26527934E+01</totfact>
</mgrwt>
</event>
<event>
12    6  0.8914180E-008  0.2083106E+04  0.7818608E-02  0.8568722E-01
         -1   -1    0    0    0  501 -0.00000000000E+00  0.00000000000E+00  0.29607721507E+03  0.29607721507E+03  0.00000000000E+00 0.  1.
          2   -1    0    0  501    0  0.00000000000E+00 -0.00000000000E+00 -0.36640202044E+04  0.36640202044E+04  0.00000000000E+00 0. -1.
         24    2    1    2    0    0 -0.12822186544E+03 -0.72661890185E+03 -0.59269062437E+03  0.94969527312E+03  0.78886375710E+02 0.  0.
        254    2    1    2    0    0  0.12822186544E+03  0.72661890185E+03 -0.27752523649E+04  0.30104021463E+04  0.90337119627E+03 0.  0.
         23    2    4    4    0    0  0.12418465173E+03  0.12631360424E+03 -0.20707017312E+04  0.20802539999E+04  0.90962024212E+02 0.  0.
         23    2    4    4    0    0  0.40372137120E+01  0.60030529761E+03 -0.70455063367E+03  0.93014814644E+03  0.91658221093E+02 0.  0.
          2    1    3    3  502    0 -0.60911096111E+02 -0.26005897641E+03 -0.17046916247E+03  0.31686048696E+03  0.00000000000E+00 0. -1.
         -1    1    3    3    0  502 -0.67310769327E+02 -0.46655992544E+03 -0.42222146190E+03  0.63283478616E+03  0.00000000000E+00 0.  1.
         11    1    5    5    0    0 -0.34170574805E+01  0.25902125371E+02 -0.12025916057E+03  0.12306446312E+03  0.00000000000E+00 0. -1.
        -11    1    5    5    0    0  0.12760170921E+03  0.10041147887E+03 -0.19504425707E+04  0.19571895368E+04  0.00000000000E+00 0.  1.
          2    1    6    6  503    0 -0.34873344743E+02  0.25237413060E+03 -0.25637066363E+03  0.36143432203E+03  0.00000000000E+00 0. -1.
         -2    1    6    6    0  503  0.38910558455E+02  0.34793116701E+03 -0.44817997003E+03  0.56871382441E+03  0.00000000000E+00 0.  1.
<mgrwt>
<rscale>  0 0.20831062E+04</rscale>
<asrwt>0</asrwt>
<pdfrwt beam="1">  1        2 0.56369542E+00 0.20831062E+04</pdfrwt>
<pdfrwt beam="2">  1       -1 0.45550341E-01 0.20831062E+04</pdfrwt>
<totfact> 0.31377033E+00</totfact>
</mgrwt>
</event>
<event>
12    6  0.8914180E-008  0.1784589E+04  0.7818608E-02  0.8714538E-01
          2   -1    0    0  501    0  0.00000000000E+00  0.00000000000E+00  0.76942710885E+03  0.76942710885E+03  0.00000000000E+00 0. -1.
         -1   -1    0    0    0  501 -0.00000000000E+00 -0.00000000000E+00 -0.10347824623E+04  0.10347824623E+04  0.00000000000E+00 0.  1.
         24    2    1    2    0    0  0.22554232482E+03  0.14691087378E+03  0.51330807725E+03  0.58510086140E+03  0.80035559120E+02 0.  0.
        254    2    1    2    0    0 -0.22554232482E+03 -0.14691087378E+03 -0.77866343069E+03  0.12191087098E+04  0.89858620220E+03 0.  0.
         23    2    4    4    0    0  0.66593537655E+02 -0.42241464898E+03 -0.13923094860E+03  0.45868372430E+03  0.90203475337E+02 0.  0.
         23    2    4    4    0    0 -0.29213586247E+03  0.27550377520E+03 -0.63943248209E+03  0.76042498545E+03  0.90147473925E+02 0.  0.
          4    1    3    3  502    0  0.14282730231E+03  0.55253267703E+02  0.33357007108E+03  0.36704434909E+03  0.00000000000E+00 0. -1.
         -3    1    3    3    0  502  0.82715022504E+02  0.91657606076E+02  0.17973800616E+03  0.21805651231E+03  0.00000000000E+00 0.  1.
         11    1    5    5    0    0  0.69489164313E+02 -0.39031501385E+03 -0.15119515006E+03  0.42430475768E+03  0.00000000000E+00 0. -1.
        -11    1    5    5    0    0 -0.28956266578E+01 -0.32099635130E+02  0.11964201458E+02  0.34378966619E+02  0.00000000000E+00 0.  1.
          3    1    6    6  503    0 -0.43764310514E+02  0.59240008336E+02 -0.64754026124E+02  0.98070267470E+02  0.00000000000E+00 0. -1.
         -3    1    6    6    0  503 -0.24837155196E+03  0.21626376686E+03 -0.57467845597E+03  0.66235471798E+03  0.00000000000E+00 0.  1.
<mgrwt>
<rscale>  0 0.17845892E+04</rscale>
<asrwt>0</asrwt>
<pdfrwt beam="1">  1        2 0.11837340E+00 0.17845892E+04</pdfrwt>
<pdfrwt beam="2">  1       -1 0.15919730E+00 0.17845892E+04</pdfrwt>
<totfact> 0.11599133E+01</totfact>
</mgrwt>
</event>
<event>
12    6  0.8914180E-008  0.1942444E+04  0.7818608E-02  0.8634013E-01
         -1   -1    0    0    0  501 -0.00000000000E+00  0.00000000000E+00  0.21251822515E+03  0.21251822515E+03  0.00000000000E+00 0.  1.
          2   -1    0    0  501    0  0.00000000000E+00 -0.00000000000E+00 -0.44385449625E+04  0.44385449625E+04  0.00000000000E+00 0. -1.
         24    2    1    2    0    0  0.43330947398E+03 -0.36177972409E+03 -0.28632913010E+04  0.29194364462E+04  0.77655780400E+02 0.  0.
        254    2    1    2    0    0 -0.43330947398E+03  0.36177972409E+03 -0.13627354364E+04  0.17316267415E+04  0.90710618626E+03 0.  0.
         23    2    4    4    0    0 -0.38147514045E+03 -0.26999381577E+02 -0.99910923104E+02  0.40627676089E+03  0.93948733371E+02 0.  0.
         23    2    4    4    0    0 -0.51834333532E+02  0.38877910567E+03 -0.12628245133E+04  0.13253499806E+04  0.89391434083E+02 0.  0.
          2    1    3    3  502    0  0.33634912064E+03 -0.29255494536E+03 -0.20890365344E+04  0.21360694673E+04  0.00000000000E+00 0. -1.
         -1    1    3    3    0  502  0.96960353338E+02 -0.69224778733E+02 -0.77425476652E+03  0.78336697888E+03  0.00000000000E+00 0.  1.
         11    1    5    5    0    0 -0.21419862272E+03  0.31242462945E+02 -0.48353815433E+02  0.22179998407E+03  0.00000000000E+00 0. -1.
        -11    1    5    5    0    0 -0.16727651772E+03 -0.58241844521E+02 -0.51557107671E+02  0.18447677682E+03  0.00000000000E+00 0.  1.
          1    1    6    6  503    0 -0.25578805444E+02  0.35420571388E+03 -0.11730921942E+04  0.12256676789E+04  0.00000000000E+00 0. -1.
         -1    1    6    6    0  503 -0.26255528088E+02  0.34573391787E+02 -0.89732319142E+02  0.99682301706E+02  0.00000000000E+00 0.  1.
<mgrwt>
<rscale>  0 0.19424435E+04</rscale>
<asrwt>0</asrwt>
<pdfrwt beam="1">  1        2 0.68285303E+00 0.19424435E+04</pdfrwt>
<pdfrwt beam="2">  1       -1 0.32695114E-01 0.19424435E+04</pdfrwt>
<totfact> 0.13369109E+00</totfact>
</mgrwt>
</event>
<event>
12    6  0.8914180E-008  0.3824027E+04  0.7818608E-02  0.8041018E-01
          2   -1    0    0  501    0  0.00000000000E+00  0.00000000000E+00  0.31587803714E+04  0.31587803714E+04  0.00000000000E+00 0. -1.
         -1   -1    0    0    0  501 -0.00000000000E+00 -0.00000000000E+00 -0.11573441787E+04  0.11573441787E+04  0.00000000000E+00 0.  1.
         24    2    1    2    0    0 -0.21660363067E+03 -0.14151275610E+04  0.21884491351E+04  0.26163370397E+04  0.80042126315E+02 0.  0.
        254    2    1    2    0    0  0.21660363067E+03  0.14151275610E+04 -0.18701294231E+03  0.16997875104E+04  0.89710679028E+03 0.  0.
         23    2    4    4    0    0  0.43722973743E+03  0.11739615964E+04  0.92916034439E+02  0.12594868296E+04  0.91203133200E+02 0.  0.
         23    2    4    4    0    0 -0.22062610676E+03  0.24116596458E+03 -0.27992897675E+03  0.44030068072E+03  0.93099709786E+02 0.  0.
          4    1    3    3  502    0 -0.64447802454E+02 -0.60970711660E+03  0.88661266057E+03  0.10779509716E+04  0.00000000000E+00 0. -1.
         -3    1    3    3    0  502 -0.15215582822E+03 -0.80542044436E+03  0.13018364745E+04  0.15383860681E+04  0.00000000000E+00 0.  1.
         11    1    5    5    0    0  0.19301772210E+03  0.52629880195E+03  0.86990575220E+02  0.56728619775E+03  0.00000000000E+00 0. -1.
        -11    1    5    5    0    0  0.24421201533E+03  0.64766279443E+03  0.59254592191E+01  0.69220063188E+03  0.00000000000E+00 0.  1.
          1    1    6    6  503    0 -0.13463780063E+03  0.17946651820E+03 -0.23625431858E+03  0.32580925641E+03  0.00000000000E+00 0. -1.
         -1    1    6    6    0  503 -0.85988306127E+02  0.61699446383E+02 -0.43674658167E+02  0.11449142431E+03  0.00000000000E+00 0.  1.
<mgrwt>
<rscale>  0 0.38240272E+04</rscale>
<asrwt>0</asrwt>
<pdfrwt beam="1">  1        2 0.48596621E+00 0.38240272E+04</pdfrwt>
<pdfrwt beam="2">  1       -1 0.17805295E+00 0.38240272E+04</pdfrwt>
<totfact> 0.26910809E-01</totfact>
</mgrwt>
</event>
<event>
12    6  0.8914180E-008  0.1176980E+04  0.7818608E-02  0.9133248E-01
          2   -1    0    0  501    0  0.00000000000E+00  0.00000000000E+00  0.13762936884E+03  0.13762936884E+03  0.00000000000E+00 0. -1.
         -1   -1    0    0    0  501 -0.00000000000E+00 -0.00000000000E+00 -0.25163270150E+04  0.25163270150E+04  0.00000000000E+00 0.  1.
         24    2    1    2    0    0  0.72637417400E+02 -0.88928884982E+02 -0.57923502296E+02  0.15123388400E+03  0.79573956541E+02 0.  0.
        254    2    1    2    0    0 -0.72637417400E+02  0.88928884982E+02 -0.23207741439E+04  0.25027224999E+04  0.92975413063E+03 0.  0.
         23    2    4    4    0    0 -0.46484406601E+03  0.72737333504E+02 -0.16679271801E+04  0.17354173388E+04  0.91222454720E+02 0.  0.
         23    2    4    4    0    0  0.39220664861E+03  0.16191551478E+02 -0.65284696381E+03  0.76730516110E+03  0.91977337189E+02 0.  0.
          2    1    3    3  502    0  0.50557677001E+02 -0.85311579627E+02 -0.73956635025E+02  0.12370823815E+03  0.00000000000E+00 0. -1.
         -1    1    3    3    0  502  0.22079740398E+02 -0.36173053558E+01  0.16033132729E+02  0.27525645845E+02  0.00000000000E+00 0.  1.
         11    1    5    5    0    0 -0.26018335665E+03  0.52211758744E+02 -0.10946628186E+04  0.11263694479E+04  0.00000000000E+00 0. -1.
        -11    1    5    5    0    0 -0.20466070935E+03  0.20525574760E+02 -0.57326436148E+03  0.60904789082E+03  0.00000000000E+00 0.  1.
          2    1    6    6  503    0  0.33807016009E+03  0.35819638445E+02 -0.50627376620E+03  0.60982588170E+03  0.00000000000E+00 0. -1.
         -2    1    6    6    0  503  0.54136488512E+02 -0.19628086967E+02 -0.14657319761E+03  0.15747927941E+03  0.00000000000E+00 0.  1.
<mgrwt>
<rscale>  0 0.11769800E+04</rscale>
<asrwt>0</asrwt>
<pdfrwt beam="1">  1        2 0.21173750E-01 0.11769800E+04</pdfrwt>
<pdfrwt beam="2">  1       -1 0.38712722E+00 0.11769800E+04</pdfrwt>
<totfact> 0.26857936E+00</totfact>
</mgrwt>
</event>
<event>
12    6  0.8914180E-008  0.1327062E+04  0.7818608E-02  0.9008376E-01
         -1   -1    0    0    0  501 -0.00000000000E+00  0.00000000000E+00  0.18893184834E+03  0.18893184834E+03  0.00000000000E+00 0.  1.
          2   -1    0    0  501    0  0.00000000000E+00 -0.00000000000E+00 -0.23303274282E+04  0.23303274282E+04  0.00000000000E+00 0. -1.
         24    2    1    2    0    0  0.25128488379E+03  0.23242441342E+03 -0.43219640268E+03  0.55698115945E+03  0.79177526620E+02 0.  0.
        254    2    1    2    0    0 -0.25128488379E+03 -0.23242441342E+03 -0.17091991772E+04  0.19622781171E+04  0.90111507631E+03 0.  0.
         23    2    4    4    0    0 -0.38032664310E+03  0.23269252071E+03 -0.10080448917E+04  0.11059486663E+04  0.90408982691E+02 0.  0.
         23    2    4    4    0    0  0.12904175932E+03 -0.46511693414E+03 -0.70115428547E+03  0.85632945078E+03  0.93259091616E+02 0.  0.
          2    1    3    3  502    0  0.29299708391E+02  0.32869494168E+02 -0.20787231654E+02  0.48692767004E+02  0.00000000000E+00 0. -1.
         -1    1    3    3    0  502  0.22198517539E+03  0.19955491925E+03 -0.41140917102E+03  0.50828839245E+03  0.00000000000E+00 0.  1.
         11    1    5    5    0    0 -0.13794365075E+03  0.44790108586E+02 -0.38755769935E+03  0.41380620456E+03  0.00000000000E+00 0.  1.
        -11    1    5    5    0    0 -0.24238299235E+03  0.18790241213E+03 -0.62048719239E+03  0.69214246177E+03  0.00000000000E+00 0. -1.
          1    1    6    6  503    0  0.10901735124E+03 -0.37545875958E+03 -0.62399319138E+03  0.73635695550E+03  0.00000000000E+00 0. -1.
         -1    1    6    6    0  503  0.20024408079E+02 -0.89658174554E+02 -0.77161094093E+02  0.11997249528E+03  0.00000000000E+00 0.  1.
<mgrwt>
<rscale>  0 0.13270615E+04</rscale>
<asrwt>0</asrwt>
<pdfrwt beam="1">  1        2 0.35851194E+00 0.13270615E+04</pdfrwt>
<pdfrwt beam="2">  1       -1 0.29066436E-01 0.13270615E+04</pdfrwt>
<totfact> 0.52520696E+01</totfact>
</mgrwt>
</event>
<event>
12    6  0.8914180E-008  0.1263394E+04  0.7818608E-02  0.9059108E-01
         -1   -1    0    0    0  501 -0.00000000000E+00  0.00000000000E+00  0.15811352663E+03  0.15811352663E+03  0.00000000000E+00 0.  1.
          2   -1    0    0  501    0  0.00000000000E+00 -0.00000000000E+00 -0.25237638941E+04  0.25237638941E+04  0.00000000000E+00 0. -1.
         24    2    1    2    0    0  0.28491062268E+03 -0.13192537626E+03 -0.12047885389E+04  0.12476573908E+04  0.80964026603E+02 0.  0.
        254    2    1    2    0    0 -0.28491062268E+03  0.13192537626E+03 -0.11608618286E+04  0.14342200299E+04  0.78154241172E+03 0.  0.
         23    2    4    4    0    0 -0.94461835569E+02  0.12749517140E+03  0.61656359264E+02  0.19374906109E+03  0.92515592886E+02 0.  0.
         23    2    4    4    0    0 -0.19044878712E+03  0.44302048575E+01 -0.12225181879E+04  0.12404709688E+04  0.89034474382E+02 0.  0.
          4    1    3    3  502    0  0.94517823672E+02 -0.47899975587E+02 -0.56570031150E+03  0.57553876419E+03  0.00000000000E+00 0. -1.
         -3    1    3    3    0  502  0.19039279901E+03 -0.84025400669E+02 -0.63908822739E+03  0.67211862663E+03  0.00000000000E+00 0.  1.
         11    1    5    5    0    0 -0.82702039879E+02  0.12106362665E+03  0.17562952697E+02  0.14766342271E+03  0.00000000000E+00 0. -1.
        -11    1    5    5    0    0 -0.11759795690E+02  0.64315447459E+01  0.44093406567E+02  0.46085638383E+02  0.00000000000E+00 0.  1.
          4    1    6    6  503    0 -0.10564373493E+03 -0.38135254872E+02 -0.76650899490E+03  0.77469409166E+03  0.00000000000E+00 0. -1.
         -4    1    6    6    0  503 -0.84805052190E+02  0.42565459730E+02 -0.45600919297E+03  0.46577687717E+03  0.00000000000E+00 0.  1.
<mgrwt>
<rscale>  0 0.12633942E+04</rscale>
<asrwt>0</asrwt>
<pdfrwt beam="1">  1        2 0.38827140E+00 0.12633942E+04</pdfrwt>
<pdfrwt beam="2">  1       -1 0.24325156E-01 0.12633942E+04</pdfrwt>
<totfact> 0.55713422E+01</totfact>
</mgrwt>
</event>
<event>
12    6  0.8914180E-008  0.1368261E+04  0.7818608E-02  0.8977119E-01
         -1   -1    0    0    0  501 -0.00000000000E+00  0.00000000000E+00  0.13293111244E+03  0.13293111244E+03  0.00000000000E+00 0.  1.
          2   -1    0    0  501    0  0.00000000000E+00 -0.00000000000E+00 -0.35208810933E+04  0.35208810933E+04  0.00000000000E+00 0. -1.
         24    2    1    2    0    0 -0.11215759873E+03 -0.17896994106E+03 -0.18095173191E+04  0.18236926557E+04  0.83020523204E+02 0.  0.
        254    2    1    2    0    0  0.11215759873E+03  0.17896994106E+03 -0.15784326617E+04  0.18301195501E+04  0.90181945716E+03 0.  0.
         23    2    4    4    0    0 -0.15364574428E+03  0.17740936221E+03 -0.27024147236E+02  0.25345780133E+03  0.91812068849E+02 0.  0.
         23    2    4    4    0    0  0.26580334300E+03  0.15605788499E+01 -0.15514085145E+04  0.15766617488E+04  0.91323812082E+02 0.  0.
          2    1    3    3  502    0 -0.11932210901E+03 -0.15652212164E+03 -0.14349322214E+04  0.14483671565E+04  0.00000000000E+00 0. -1.
         -1    1    3    3    0  502  0.71645102834E+01 -0.22447819418E+02 -0.37458509780E+03  0.37532549913E+03  0.00000000000E+00 0.  1.
         11    1    5    5    0    0 -0.25049950881E+02  0.60951002929E+02  0.27782479242E+02  0.71514970111E+02  0.00000000000E+00 0.  1.
        -11    1    5    5    0    0 -0.12859579340E+03  0.11645835928E+03 -0.54806626477E+02  0.18194283121E+03  0.00000000000E+00 0. -1.
          1    1    6    6  503    0  0.23984787405E+03  0.29065623884E+02 -0.12763349930E+04  0.12990007034E+04  0.00000000000E+00 0. -1.
         -1    1    6    6    0  503  0.25955468952E+02 -0.27505045034E+02 -0.27507352151E+03  0.27766104536E+03  0.00000000000E+00 0.  1.
<mgrwt>
<rscale>  0 0.13682611E+04</rscale>
<asrwt>0</asrwt>
<pdfrwt beam="1">  1        2 0.54167402E+00 0.13682611E+04</pdfrwt>
<pdfrwt beam="2">  1       -1 0.20450940E-01 0.13682611E+04</pdfrwt>
<totfact> 0.17529897E+01</totfact>
</mgrwt>
</event>
<event>
12    6  0.8914180E-008  0.1809538E+04  0.7818608E-02  0.8701243E-01
          2   -1    0    0  501    0  0.00000000000E+00  0.00000000000E+00  0.88705730453E+03  0.88705730453E+03  0.00000000000E+00 0. -1.
         -1   -1    0    0    0  501 -0.00000000000E+00 -0.00000000000E+00 -0.92283473752E+03  0.92283473752E+03  0.00000000000E+00 0.  1.
         24    2    1    2    0    0  0.51059128890E+03  0.25668680391E+03 -0.37598521817E+03  0.68883213519E+03  0.80828501064E+02 0.  0.
        254    2    1    2    0    0 -0.51059128890E+03 -0.25668680391E+03  0.34020778518E+03  0.11210599069E+04  0.90246462429E+03 0.  0.
         23    2    4    4    0    0 -0.39636456911E+02 -0.32093687145E+03 -0.20341772893E+03  0.39286688374E+03  0.91619275953E+02 0.  0.
         23    2    4    4    0    0 -0.47095483199E+03  0.64250067541E+02  0.54362551410E+03  0.72819302313E+03  0.93860824587E+02 0.  0.
          2    1    3    3  502    0  0.26047660650E+02  0.11033863039E+02 -0.43554910019E+02  0.51935122467E+02  0.00000000000E+00 0. -1.
         -1    1    3    3    0  502  0.48454362825E+03  0.24565294087E+03 -0.33243030815E+03  0.63689701272E+03  0.00000000000E+00 0.  1.
         11    1    5    5    0    0 -0.68322957905E+01 -0.27671439876E+03 -0.19134591634E+03  0.33649784316E+03  0.00000000000E+00 0. -1.
        -11    1    5    5    0    0 -0.32804161120E+02 -0.44222472686E+02 -0.12071812587E+02  0.56369040584E+02  0.00000000000E+00 0.  1.
          3    1    6    6  503    0 -0.19918254069E+03 -0.44801132594E+01  0.27788167435E+03  0.34192394019E+03  0.00000000000E+00 0. -1.
         -3    1    6    6    0  503 -0.27177229130E+03  0.68730180800E+02  0.26574383975E+03  0.38626908294E+03  0.00000000000E+00 0.  1.
<mgrwt>
<rscale>  0 0.18095384E+04</rscale>
<asrwt>0</asrwt>
<pdfrwt beam="1">  1        2 0.13647035E+00 0.18095384E+04</pdfrwt>
<pdfrwt beam="2">  1       -1 0.14197458E+00 0.18095384E+04</pdfrwt>
<totfact> 0.13015714E+01</totfact>
</mgrwt>
</event>
<event>
12    6  0.8914180E-008  0.1556465E+04  0.7818608E-02  0.8847749E-01
          2   -1    0    0  501    0  0.00000000000E+00  0.00000000000E+00  0.98550600578E+03  0.98550600578E+03  0.00000000000E+00 0. -1.
         -1   -1    0    0    0  501 -0.00000000000E+00 -0.00000000000E+00 -0.61455327300E+03  0.61455327300E+03  0.00000000000E+00 0.  1.
         24    2    1    2    0    0 -0.33114383263E+02  0.22676836230E+03 -0.33356854978E+03  0.41289340714E+03  0.81807919777E+02 0.  0.
        254    2    1    2    0    0  0.33114383263E+02 -0.22676836230E+03  0.70452128256E+03  0.11871658716E+04  0.92762714314E+03 0.  0.
         23    2    4    4    0    0  0.37990136047E+02  0.21267100121E+03  0.70102189513E+03  0.73922294616E+03  0.91360065080E+02 0.  0.
         23    2    4    4    0    0 -0.48757527841E+01 -0.43943936351E+03  0.34993874343E+01  0.44794292548E+03  0.86659630766E+02 0.  0.
          4    1    3    3  502    0 -0.18188232207E+02  0.32075946611E+01 -0.35343913000E+02  0.39878473397E+02  0.00000000000E+00 0. -1.
         -3    1    3    3    0  502 -0.14926151056E+02  0.22356076764E+03 -0.29822463678E+03  0.37301493374E+03  0.00000000000E+00 0.  1.
         11    1    5    5    0    0  0.27431166187E+02  0.13115102014E+02  0.15082575419E+03  0.15385994575E+03  0.00000000000E+00 0. -1.
        -11    1    5    5    0    0  0.10558969859E+02  0.19955589919E+03  0.55019614094E+03  0.58536300041E+03  0.00000000000E+00 0.  1.
          2    1    6    6  503    0 -0.16414702847E+02 -0.24565761196E+03 -0.38851391490E+02  0.24925195165E+03  0.00000000000E+00 0. -1.
         -2    1    6    6    0  503  0.11538950063E+02 -0.19378175155E+03  0.42350778924E+02  0.19869097382E+03  0.00000000000E+00 0.  1.
<mgrwt>
<rscale>  0 0.15564652E+04</rscale>
<asrwt>0</asrwt>
<pdfrwt beam="1">  1        2 0.15161631E+00 0.15564652E+04</pdfrwt>
<pdfrwt beam="2">  1       -1 0.94546657E-01 0.15564652E+04</pdfrwt>
<totfact> 0.30586429E+01</totfact>
</mgrwt>
</event>
<event>
12    6  0.8914180E-008  0.1421253E+04  0.7818608E-02  0.8938577E-01
          2   -1    0    0  501    0  0.00000000000E+00  0.00000000000E+00  0.20289734254E+04  0.20289734254E+04  0.00000000000E+00 0. -1.
         -1   -1    0    0    0  501 -0.00000000000E+00 -0.00000000000E+00 -0.24888926970E+03  0.24888926970E+03  0.00000000000E+00 0.  1.
         24    2    1    2    0    0 -0.41716468396E+03 -0.50461953267E+02  0.55950178455E+03  0.70446912938E+03  0.81619391475E+02 0.  0.
        254    2    1    2    0    0  0.41716468396E+03  0.50461953267E+02  0.12205823712E+04  0.15733935657E+04  0.89954055253E+03 0.  0.
         23    2    4    4    0    0  0.39068942623E+03 -0.21438501039E+02  0.13441403844E+04  0.14032912774E+04  0.97031949130E+02 0.  0.
         23    2    4    4    0    0  0.26475257726E+02  0.71900454306E+02 -0.12355801322E+03  0.17010228836E+03  0.88303970882E+02 0.  0.
          4    1    3    3  502    0 -0.22561060667E+02 -0.70521483276E+01  0.71975214552E+02  0.75757281922E+02  0.00000000000E+00 0. -1.
         -3    1    3    3    0  502 -0.39460362329E+03 -0.43409804939E+02  0.48752657000E+03  0.62871184745E+03  0.00000000000E+00 0.  1.
         11    1    5    5    0    0  0.21048763317E+03 -0.11702796850E+02  0.88958104480E+03  0.91421902979E+03  0.00000000000E+00 0. -1.
        -11    1    5    5    0    0  0.18020179306E+03 -0.97357041892E+01  0.45455933959E+03  0.48907224759E+03  0.00000000000E+00 0.  1.
          4    1    6    6  503    0 -0.68344573135E+01 -0.11815906548E+02 -0.55589659276E+02  0.57241031374E+02  0.00000000000E+00 0. -1.
         -4    1    6    6    0  503  0.33309715039E+02  0.83716360854E+02 -0.67968353942E+02  0.11286125698E+03  0.00000000000E+00 0.  1.
<mgrwt>
<rscale>  0 0.14212526E+04</rscale>
<asrwt>0</asrwt>
<pdfrwt beam="1">  1        2 0.31214975E+00 0.14212526E+04</pdfrwt>
<pdfrwt beam="2">  1       -1 0.38290658E-01 0.14212526E+04</pdfrwt>
<totfact> 0.47040679E+01</totfact>
</mgrwt>
</event>
<event>
12    6  0.8914180E-008  0.3179248E+04  0.7818608E-02  0.8194319E-01
          2   -1    0    0  501    0  0.00000000000E+00  0.00000000000E+00  0.21294568837E+04  0.21294568837E+04  0.00000000000E+00 0. -1.
         -1   -1    0    0    0  501 -0.00000000000E+00 -0.00000000000E+00 -0.11866428468E+04  0.11866428468E+04  0.00000000000E+00 0.  1.
         24    2    1    2    0    0 -0.23129200709E+03 -0.14280019011E+04  0.65978722889E+03  0.15920656646E+04  0.81660706837E+02 0.  0.
        254    2    1    2    0    0  0.23129200709E+03  0.14280019011E+04  0.28302680801E+03  0.17240340659E+04  0.89414979970E+03 0.  0.
         23    2    4    4    0    0 -0.63701139462E+01 -0.35133708466E+02 -0.14844977133E+03  0.17685610857E+03  0.89251289660E+02 0.  0.
         23    2    4    4    0    0  0.23766212103E+03  0.14631356096E+04  0.43147657934E+03  0.15471779573E+04  0.10167840202E+03 0.  0.
          2    1    3    3  502    0 -0.66995658646E+01 -0.57683646892E+02  0.98982634211E+01  0.58908937524E+02  0.00000000000E+00 0. -1.
         -1    1    3    3    0  502 -0.22459244122E+03 -0.13703182542E+04  0.64988896547E+03  0.15331567271E+04  0.00000000000E+00 0.  1.
         11    1    5    5    0    0 -0.23185106181E+02  0.23021316675E+02 -0.74058941348E+02  0.80946012648E+02  0.00000000000E+00 0.  1.
        -11    1    5    5    0    0  0.16814992234E+02 -0.58155025142E+02 -0.74390829986E+02  0.95910095918E+02  0.00000000000E+00 0. -1.
          4    1    6    6  503    0  0.10707554480E+03  0.55583907348E+03  0.11647533712E+03  0.57791759971E+03  0.00000000000E+00 0. -1.
         -4    1    6    6    0  503  0.13058657623E+03  0.90729653609E+03  0.31500124222E+03  0.96926035764E+03  0.00000000000E+00 0.  1.
<mgrwt>
<rscale>  0 0.31792482E+04</rscale>
<asrwt>0</asrwt>
<pdfrwt beam="1">  1        2 0.32760875E+00 0.31792482E+04</pdfrwt>
<pdfrwt beam="2">  1       -1 0.18256044E+00 0.31792482E+04</pdfrwt>
<totfact> 0.10825116E+00</totfact>
</mgrwt>
</event>
<event>
12    6  0.8914180E-008  0.1558521E+04  0.7818608E-02  0.8846443E-01
          2   -1    0    0  501    0  0.00000000000E+00  0.00000000000E+00  0.12304071242E+04  0.12304071242E+04  0.00000000000E+00 0. -1.
         -1   -1    0    0    0  501 -0.00000000000E+00 -0.00000000000E+00 -0.49353342795E+03  0.49353342795E+03  0.00000000000E+00 0.  1.
         24    2    1    2    0    0  0.24883673725E+03 -0.45366421977E+03  0.27775614870E+03  0.59388225312E+03  0.88412139045E+02 0.  0.
        254    2    1    2    0    0 -0.24883673725E+03  0.45366421977E+03  0.45911754750E+03  0.11300582990E+04  0.89359492533E+03 0.  0.
         23    2    4    4    0    0 -0.14888460004E+03  0.40984806231E+03  0.71273655276E+03  0.84036769277E+03  0.89902208530E+02 0.  0.
         23    2    4    4    0    0 -0.99952137210E+02  0.43816157451E+02 -0.25361900526E+03  0.28969060621E+03  0.87679884304E+02 0.  0.
          4    1    3    3  502    0  0.22569598504E+02 -0.43362901051E+02  0.59447419626E+02  0.76965730454E+02  0.00000000000E+00 0. -1.
         -3    1    3    3    0  502  0.22626713875E+03 -0.41030131871E+03  0.21830872907E+03  0.51691652267E+03  0.00000000000E+00 0.  1.
         11    1    5    5    0    0 -0.13662758234E+02  0.11427241999E+03  0.13432261877E+03  0.17688251142E+03  0.00000000000E+00 0. -1.
        -11    1    5    5    0    0 -0.13522184181E+03  0.29557564232E+03  0.57841393399E+03  0.66348518135E+03  0.00000000000E+00 0.  1.
          1    1    6    6  503    0 -0.79402418279E+01 -0.24221099646E+02 -0.42765833278E+02  0.49785797214E+02  0.00000000000E+00 0. -1.
         -1    1    6    6    0  503 -0.92011895382E+02  0.68037257097E+02 -0.21085317198E+03  0.23990480900E+03  0.00000000000E+00 0.  1.
<mgrwt>
<rscale>  0 0.15585212E+04</rscale>
<asrwt>0</asrwt>
<pdfrwt beam="1">  1        2 0.18929340E+00 0.15585212E+04</pdfrwt>
<pdfrwt beam="2">  1       -1 0.75928220E-01 0.15585212E+04</pdfrwt>
<totfact> 0.34719423E+01</totfact>
</mgrwt>
</event>
<event>
12    6  0.8914180E-008  0.1526459E+04  0.7818608E-02  0.8867046E-01
         -1   -1    0    0    0  501 -0.00000000000E+00  0.00000000000E+00  0.19143266132E+04  0.19143266132E+04  0.00000000000E+00 0.  1.
          2   -1    0    0  501    0  0.00000000000E+00 -0.00000000000E+00 -0.30429463377E+03  0.30429463377E+03  0.00000000000E+00 0. -1.
         24    2    1    2    0    0  0.26706854352E+03  0.20334817431E+03  0.10503233549E+04  0.11057252028E+04  0.82298161419E+02 0.  0.
        254    2    1    2    0    0 -0.26706854352E+03 -0.20334817431E+03  0.55970862457E+03  0.11128960442E+04  0.90143650570E+03 0.  0.
         23    2    4    4    0    0 -0.33663474169E+02  0.20435716199E+03  0.59085841387E+03  0.63332958094E+03  0.95381411698E+02 0.  0.
         23    2    4    4    0    0 -0.23340506935E+03 -0.40770533631E+03 -0.31149789298E+02  0.47956646325E+03  0.91170804806E+02 0.  0.
          4    1    3    3  502    0  0.11675026470E+03  0.59809944634E+02  0.51567962082E+03  0.53210273925E+03  0.00000000000E+00 0. -1.
         -3    1    3    3    0  502  0.15031827882E+03  0.14353822968E+03  0.53464373406E+03  0.57362246355E+03  0.00000000000E+00 0.  1.
         11    1    5    5    0    0 -0.67050851486E+02  0.14709637256E+03  0.41143727611E+03  0.44205632184E+03  0.00000000000E+00 0. -1.
        -11    1    5    5    0    0  0.33387377317E+02  0.57260789432E+02  0.17942113777E+03  0.19127325910E+03  0.00000000000E+00 0.  1.
          1    1    6    6  503    0 -0.17883545291E+03 -0.37344367629E+03 -0.29632000526E+02  0.41511486848E+03  0.00000000000E+00 0. -1.
         -1    1    6    6    0  503 -0.54569616438E+02 -0.34261660015E+02 -0.15177887717E+01  0.64451594767E+02  0.00000000000E+00 0.  1.
<mgrwt>
<rscale>  0 0.15264591E+04</rscale>
<asrwt>0</asrwt>
<pdfrwt beam="1">  1        2 0.46814560E-01 0.15264591E+04</pdfrwt>
<pdfrwt beam="2">  1       -1 0.29451178E+00 0.15264591E+04</pdfrwt>
<totfact> 0.42856127E+00</totfact>
</mgrwt>
</event>
<event>
12    6  0.8914180E-008  0.4141159E+04  0.7818608E-02  0.7976660E-01
         -1   -1    0    0    0  501 -0.00000000000E+00  0.00000000000E+00  0.16124198320E+04  0.16124198320E+04  0.00000000000E+00 0.  1.
          2   -1    0    0  501    0  0.00000000000E+00 -0.00000000000E+00 -0.26589219293E+04  0.26589219293E+04  0.00000000000E+00 0. -1.
         24    2    1    2    0    0  0.24714939094E+02 -0.19722425180E+04 -0.47168744916E+03  0.20296690327E+04  0.81950926614E+02 0.  0.
        254    2    1    2    0    0 -0.24714939094E+02  0.19722425180E+04 -0.57481464810E+03  0.22416727287E+04  0.89684634392E+03 0.  0.
         23    2    4    4    0    0  0.22588061873E+03  0.17754596869E+04 -0.63752158711E+03  0.19020773824E+04  0.90473425383E+02 0.  0.
         23    2    4    4    0    0 -0.25059555782E+03  0.19678283109E+03  0.62706939014E+02  0.33959534627E+03  0.99354027565E+02 0.  0.
          4    1    3    3  502    0  0.18770808795E+02 -0.25236154800E+03 -0.37533515052E+02  0.25582700976E+03  0.00000000000E+00 0. -1.
         -3    1    3    3    0  502  0.59441302991E+01 -0.17198809700E+04 -0.43415393411E+03  0.17738420229E+04  0.00000000000E+00 0.  1.
         11    1    5    5    0    0  0.23109177792E+03  0.17575326429E+04 -0.62507261544E+03  0.18796383097E+04  0.00000000000E+00 0. -1.
        -11    1    5    5    0    0 -0.52111591889E+01  0.17927044061E+02 -0.12448971671E+02  0.22439072720E+02  0.00000000000E+00 0.  1.
          3    1    6    6  503    0 -0.24050893028E+03  0.14532062379E+03  0.47461272117E+02  0.28498280929E+03  0.00000000000E+00 0. -1.
         -3    1    6    6    0  503 -0.10086627548E+02  0.51462207307E+02  0.15245666897E+02  0.54612536980E+02  0.00000000000E+00 0.  1.
<mgrwt>
<rscale>  0 0.41411585E+04</rscale>
<asrwt>0</asrwt>
<pdfrwt beam="1">  1        2 0.40906491E+00 0.41411585E+04</pdfrwt>
<pdfrwt beam="2">  1       -1 0.24806459E+00 0.41411585E+04</pdfrwt>
<totfact> 0.17870310E-01</totfact>
</mgrwt>
</event>
<event>
12    6  0.8914180E-008  0.1372306E+04  0.7818608E-02  0.8974112E-01
         -1   -1    0    0    0  501 -0.00000000000E+00  0.00000000000E+00  0.63908288513E+03  0.63908288513E+03  0.00000000000E+00 0.  1.
          2   -1    0    0  501    0  0.00000000000E+00 -0.00000000000E+00 -0.73669021950E+03  0.73669021950E+03  0.00000000000E+00 0. -1.
         24    2    1    2    0    0  0.33267938553E+03 -0.17389726660E+03 -0.10559920595E+03  0.39900238613E+03  0.84474131862E+02 0.  0.
        254    2    1    2    0    0 -0.33267938553E+03  0.17389726660E+03  0.79918715854E+01  0.97677071849E+03  0.90172131704E+03 0.  0.
         23    2    4    4    0    0 -0.57273471547E+03 -0.84193414123E+02 -0.10308266086E+03  0.59518253648E+03  0.92209714662E+02 0.  0.
         23    2    4    4    0    0  0.24005532994E+03  0.25809068072E+03  0.11107453245E+03  0.38158818201E+03  0.95050660093E+02 0.  0.
          2    1    3    3  502    0  0.19431830394E+03 -0.11588141341E+03 -0.10389060984E+03  0.24896056723E+03  0.00000000000E+00 0. -1.
         -1    1    3    3    0  502  0.13836108159E+03 -0.58015853188E+02 -0.17085961123E+01  0.15004181891E+03  0.00000000000E+00 0.  1.
         11    1    5    5    0    0 -0.87592380529E+02 -0.28686449274E+02  0.13493288078E+02  0.93152596967E+02  0.00000000000E+00 0.  1.
        -11    1    5    5    0    0 -0.48514233494E+03 -0.55506964849E+02 -0.11657594894E+03  0.50202993951E+03  0.00000000000E+00 0. -1.
          1    1    6    6  503    0  0.79921346846E+02  0.73932817047E+02  0.80997950761E+02  0.13569875145E+03  0.00000000000E+00 0. -1.
         -1    1    6    6    0  503  0.16013398309E+03  0.18415786367E+03  0.30076581687E+02  0.24588943056E+03  0.00000000000E+00 0.  1.
<mgrwt>
<rscale>  0 0.13723062E+04</rscale>
<asrwt>0</asrwt>
<pdfrwt beam="1">  1        2 0.11333696E+00 0.13723062E+04</pdfrwt>
<pdfrwt beam="2">  1       -1 0.98320444E-01 0.13723062E+04</pdfrwt>
<totfact> 0.42366885E+01</totfact>
</mgrwt>
</event>
<event>
12    6  0.8914180E-008  0.2892493E+04  0.7818608E-02  0.8275114E-01
          2   -1    0    0  501    0  0.00000000000E+00  0.00000000000E+00  0.29692626748E+04  0.29692626748E+04  0.00000000000E+00 0. -1.
         -1   -1    0    0    0  501 -0.00000000000E+00 -0.00000000000E+00 -0.70442722796E+03  0.70442722796E+03  0.00000000000E+00 0.  1.
         24    2    1    2    0    0  0.10439757364E+04  0.77718018619E+03  0.90795139577E+03  0.15889022660E+04  0.79625962198E+02 0.  0.
        254    2    1    2    0    0 -0.10439757364E+04 -0.77718018619E+03  0.13568840511E+04  0.20847876367E+04  0.90072791801E+03 0.  0.
         23    2    4    4    0    0 -0.23974685500E+03  0.17973226028E+03  0.39955216341E+03  0.50769747697E+03  0.91282840499E+02 0.  0.
         23    2    4    4    0    0 -0.80422888140E+03 -0.95691244647E+03  0.95733188764E+03  0.15770901598E+04  0.90903823044E+02 0.  0.
          2    1    3    3  502    0  0.56138496055E+03  0.45241058492E+03  0.46792881441E+03  0.85952648978E+03  0.00000000000E+00 0. -1.
         -1    1    3    3    0  502  0.48259077584E+03  0.32476960127E+03  0.44002258136E+03  0.72937577622E+03  0.00000000000E+00 0.  1.
         11    1    5    5    0    0 -0.60630413399E+02  0.26210043551E+02  0.38638548954E+02  0.76524184917E+02  0.00000000000E+00 0. -1.
        -11    1    5    5    0    0 -0.17911644160E+03  0.15352221673E+03  0.36091361446E+03  0.43117329206E+03  0.00000000000E+00 0.  1.
          1    1    6    6  503    0 -0.57700284966E+03 -0.73998913026E+03  0.74109662798E+03  0.11957175308E+04  0.00000000000E+00 0. -1.
         -1    1    6    6    0  503 -0.22722603173E+03 -0.21692331621E+03  0.21623525966E+03  0.38137262898E+03  0.00000000000E+00 0.  1.
<mgrwt>
<rscale>  0 0.28924934E+04</rscale>
<asrwt>0</asrwt>
<pdfrwt beam="1">  1        2 0.45680964E+00 0.28924934E+04</pdfrwt>
<pdfrwt beam="2">  1       -1 0.10837342E+00 0.28924934E+04</pdfrwt>
<totfact> 0.14112080E+00</totfact>
</mgrwt>
</event>
<event>
12    6  0.8914180E-008  0.2536240E+04  0.7818608E-02  0.8390187E-01
          2   -1    0    0  501    0  0.00000000000E+00  0.00000000000E+00  0.20527897656E+04  0.20527897656E+04  0.00000000000E+00 0. -1.
         -1   -1    0    0    0  501 -0.00000000000E+00 -0.00000000000E+00 -0.78338698582E+03  0.78338698582E+03  0.00000000000E+00 0.  1.
         24    2    1    2    0    0 -0.90688334446E+02  0.26412552639E+03 -0.63138677084E+03  0.69530465150E+03  0.82538695787E+02 0.  0.
        254    2    1    2    0    0  0.90688334446E+02 -0.26412552639E+03  0.19007895506E+04  0.21408720999E+04  0.94464054791E+03 0.  0.
         23    2    4    4    0    0 -0.19804846881E+03 -0.44269299208E+03  0.16125411318E+04  0.16864387778E+04  0.92663737873E+02 0.  0.
         23    2    4    4    0    0  0.28873680326E+03  0.17856746569E+03  0.28824841879E+03  0.45443332208E+03  0.90372628166E+02 0.  0.
          4    1    3    3  502    0 -0.40951257119E+02  0.16456057223E+03 -0.28673114551E+03  0.33312450705E+03  0.00000000000E+00 0. -1.
         -3    1    3    3    0  502 -0.49737077327E+02  0.99564954161E+02 -0.34465562533E+03  0.36218014445E+03  0.00000000000E+00 0.  1.
         11    1    5    5    0    0 -0.10463532149E+03 -0.13738016984E+03  0.63594841696E+03  0.65897818674E+03  0.00000000000E+00 0.  1.
        -11    1    5    5    0    0 -0.93413147324E+02 -0.30531282224E+03  0.97659271483E+03  0.10274605911E+04  0.00000000000E+00 0. -1.
          4    1    6    6  503    0  0.22405062737E+03  0.17537696659E+03  0.21476254557E+03  0.35648101634E+03  0.00000000000E+00 0. -1.
         -4    1    6    6    0  503  0.64686175887E+02  0.31904991026E+01  0.73485873221E+02  0.97952305733E+02  0.00000000000E+00 0.  1.
<mgrwt>
<rscale>  0 0.25362404E+04</rscale>
<asrwt>0</asrwt>
<pdfrwt beam="1">  1        2 0.31581381E+00 0.25362404E+04</pdfrwt>
<pdfrwt beam="2">  1       -1 0.12052108E+00 0.25362404E+04</pdfrwt>
<totfact> 0.38689899E+00</totfact>
</mgrwt>
</event>
<event>
12    6  0.8914180E-008  0.1868678E+04  0.7818608E-02  0.8670606E-01
         -1   -1    0    0    0  501 -0.00000000000E+00  0.00000000000E+00  0.59656810693E+03  0.59656810693E+03  0.00000000000E+00 0.  1.
          2   -1    0    0  501    0  0.00000000000E+00 -0.00000000000E+00 -0.14633523488E+04  0.14633523488E+04  0.00000000000E+00 0. -1.
         24    2    1    2    0    0  0.55739088164E+03  0.43369602903E+03 -0.39177397684E+03  0.81153866838E+03  0.79569597256E+02 0.  0.
        254    2    1    2    0    0 -0.55739088164E+03 -0.43369602903E+03 -0.47501026502E+03  0.12483817873E+04  0.91326091263E+03 0.  0.
         23    2    4    4    0    0 -0.36255169602E+03 -0.67575013339E+03 -0.50804676229E+03  0.92467929299E+03  0.94012271273E+02 0.  0.
         23    2    4    4    0    0 -0.19483918562E+03  0.24205410436E+03  0.33036497267E+02  0.32370249435E+03  0.84494952554E+02 0.  0.
          2    1    3    3  502    0  0.31903737357E+03  0.22126414007E+03 -0.17668995337E+03  0.42657004704E+03  0.00000000000E+00 0. -1.
         -1    1    3    3    0  502  0.23835350808E+03  0.21243188896E+03 -0.21508402347E+03  0.38496862133E+03  0.00000000000E+00 0.  1.
         11    1    5    5    0    0  0.36391459117E+01 -0.30127735121E+02 -0.21153404841E+02  0.36991760473E+02  0.00000000000E+00 0.  1.
        -11    1    5    5    0    0 -0.36619084193E+03 -0.64562239827E+03 -0.48689335745E+03  0.88768753252E+03  0.00000000000E+00 0. -1.
          1    1    6    6  503    0 -0.65988963209E+02  0.14850693381E+03  0.99800454819E+01  0.16281417003E+03  0.00000000000E+00 0. -1.
         -1    1    6    6    0  503 -0.12885022241E+03  0.93547170544E+02  0.23056451785E+02  0.16088832432E+03  0.00000000000E+00 0.  1.
<mgrwt>
<rscale>  0 0.18686780E+04</rscale>
<asrwt>0</asrwt>
<pdfrwt beam="1">  1        2 0.22513113E+00 0.18686780E+04</pdfrwt>
<pdfrwt beam="2">  1       -1 0.91779708E-01 0.18686780E+04</pdfrwt>
<totfact> 0.16477788E+01</totfact>
</mgrwt>
</event>
<event>
12    6  0.8914180E-008  0.1359307E+04  0.7818608E-02  0.8983812E-01
          2   -1    0    0  501    0  0.00000000000E+00  0.00000000000E+00  0.18805750740E+04  0.18805750740E+04  0.00000000000E+00 0. -1.
         -1   -1    0    0    0  501 -0.00000000000E+00 -0.00000000000E+00 -0.24563189274E+03  0.24563189274E+03  0.00000000000E+00 0.  1.
         24    2    1    2    0    0  0.11011950631E+02 -0.27176992013E+03  0.59935188437E+02  0.29009029727E+03  0.81117206630E+02 0.  0.
        254    2    1    2    0    0 -0.11011950631E+02  0.27176992013E+03  0.15750079929E+04  0.18361166695E+04  0.90371128905E+03 0.  0.
         23    2    4    4    0    0  0.14221451002E+03 -0.28654468896E+03  0.78453551073E+03  0.85210555091E+03  0.90857452404E+02 0.  0.
         23    2    4    4    0    0 -0.15322646066E+03  0.55831460909E+03  0.79047248213E+03  0.98401111860E+03  0.90761145689E+02 0.  0.
          2    1    3    3  502    0  0.82890935765E-01 -0.39092563408E+02 -0.19885486779E+02  0.43859639410E+02  0.00000000000E+00 0. -1.
         -1    1    3    3    0  502  0.10929059695E+02 -0.23267735672E+03  0.79820675216E+02  0.24623065786E+03  0.00000000000E+00 0.  1.
         11    1    5    5    0    0  0.87996676515E+02 -0.96890059895E+02  0.38278159347E+03  0.40454029105E+03  0.00000000000E+00 0. -1.
        -11    1    5    5    0    0  0.54217833510E+02 -0.18965462907E+03  0.40175391726E+03  0.44756525986E+03  0.00000000000E+00 0.  1.
          1    1    6    6  503    0 -0.12105892805E+03  0.51085202023E+03  0.67541796517E+03  0.85546155864E+03  0.00000000000E+00 0. -1.
         -1    1    6    6    0  503 -0.32167532602E+02  0.47462588860E+02  0.11505451695E+03  0.12854955996E+03  0.00000000000E+00 0.  1.
<mgrwt>
<rscale>  0 0.13593075E+04</rscale>
<asrwt>0</asrwt>
<pdfrwt beam="1">  1        2 0.28931923E+00 0.13593075E+04</pdfrwt>
<pdfrwt beam="2">  1       -1 0.37789523E-01 0.13593075E+04</pdfrwt>
<totfact> 0.58502999E+01</totfact>
</mgrwt>
</event>
<event>
12    6  0.8914180E-008  0.2919975E+04  0.7818608E-02  0.8266959E-01
          2   -1    0    0  501    0  0.00000000000E+00  0.00000000000E+00  0.37683681066E+04  0.37683681066E+04  0.00000000000E+00 0. -1.
         -1   -1    0    0    0  501 -0.00000000000E+00 -0.00000000000E+00 -0.56564643152E+03  0.56564643152E+03  0.00000000000E+00 0.  1.
         24    2    1    2    0    0  0.79714005615E+03 -0.65084698304E+03  0.22846902852E+03  0.10570698388E+04  0.78514219760E+02 0.  0.
        254    2    1    2    0    0 -0.79714005615E+03  0.65084698304E+03  0.29742526466E+04  0.32769446993E+04  0.91277253041E+03 0.  0.
         23    2    4    4    0    0 -0.74405094178E+03  0.55195983173E+02  0.13764935921E+04  0.15684907868E+04  0.93650086356E+02 0.  0.
         23    2    4    4    0    0 -0.53089114370E+02  0.59565099986E+03  0.15977590545E+04  0.17084539125E+04  0.91445105545E+02 0.  0.
          2    1    3    3  502    0  0.66646636414E+03 -0.56470347501E+03  0.16958401225E+03  0.88984614762E+03  0.00000000000E+00 0. -1.
         -1    1    3    3    0  502  0.13067369201E+03 -0.86143508032E+02  0.58885016274E+02  0.16722369120E+03  0.00000000000E+00 0.  1.
         11    1    5    5    0    0 -0.71544312569E+03  0.36487088552E+02  0.13315687031E+04  0.15120401400E+04  0.00000000000E+00 0. -1.
        -11    1    5    5    0    0 -0.28607816086E+02  0.18708894621E+02  0.44924889021E+02  0.56450646876E+02  0.00000000000E+00 0.  1.
          4    1    6    6  503    0 -0.17889018668E+02  0.48516274949E+03  0.12112681387E+04  0.13049419199E+04  0.00000000000E+00 0. -1.
         -4    1    6    6    0  503 -0.35200095702E+02  0.11048825038E+03  0.38649091577E+03  0.40351199261E+03  0.00000000000E+00 0.  1.
<mgrwt>
<rscale>  0 0.29199753E+04</rscale>
<asrwt>0</asrwt>
<pdfrwt beam="1">  1        2 0.57974892E+00 0.29199753E+04</pdfrwt>
<pdfrwt beam="2">  1       -1 0.87022530E-01 0.29199753E+04</pdfrwt>
<totfact> 0.66063061E-01</totfact>
</mgrwt>
</event>
<event>
12    6  0.8914180E-008  0.2057274E+04  0.7818608E-02  0.8580302E-01
         -1   -1    0    0    0  501 -0.00000000000E+00  0.00000000000E+00  0.36884529533E+03  0.36884529533E+03  0.00000000000E+00 0.  1.
          2   -1    0    0  501    0  0.00000000000E+00 -0.00000000000E+00 -0.28686669733E+04  0.28686669733E+04  0.00000000000E+00 0. -1.
         24    2    1    2    0    0 -0.97130129886E+02 -0.25055554401E+03  0.22299091681E+03  0.35869693077E+03  0.82013391599E+02 0.  0.
        254    2    1    2    0    0  0.97130129886E+02  0.25055554401E+03 -0.27228125948E+04  0.28788153378E+04  0.89535299207E+03 0.  0.
         23    2    4    4    0    0  0.45572128130E+03  0.98283628571E+02 -0.19681513781E+04  0.20247193681E+04  0.92342377336E+02 0.  0.
         23    2    4    4    0    0 -0.35859115142E+03  0.15227191544E+03 -0.75466121666E+03  0.85409596971E+03  0.90509797507E+02 0.  0.
          2    1    3    3  502    0 -0.60303613134E+02 -0.69232003602E+02  0.46173602382E+02  0.10276963383E+03  0.00000000000E+00 0. -1.
         -1    1    3    3    0  502 -0.36826516752E+02 -0.18132354041E+03  0.17681731443E+03  0.25592729695E+03  0.00000000000E+00 0.  1.
         11    1    5    5    0    0  0.31017019007E+03  0.10959322397E+03 -0.13961276080E+04  0.14343599685E+04  0.00000000000E+00 0.  1.
        -11    1    5    5    0    0  0.14555109123E+03 -0.11309595402E+02 -0.57202377013E+03  0.59035939960E+03  0.00000000000E+00 0. -1.
          1    1    6    6  503    0 -0.12461551369E+02  0.30117079903E+02 -0.71289513860E+02  0.78387011366E+02  0.00000000000E+00 0. -1.
         -1    1    6    6    0  503 -0.34612960005E+03  0.12215483554E+03 -0.68337170280E+03  0.77570895835E+03  0.00000000000E+00 0.  1.
<mgrwt>
<rscale>  0 0.20572742E+04</rscale>
<asrwt>0</asrwt>
<pdfrwt beam="1">  1        2 0.44133338E+00 0.20572742E+04</pdfrwt>
<pdfrwt beam="2">  1       -1 0.56745430E-01 0.20572742E+04</pdfrwt>
<totfact> 0.69589744E+00</totfact>
</mgrwt>
</event>
<event>
12    6  0.8914180E-008  0.1919841E+04  0.7818608E-02  0.8645043E-01
         -1   -1    0    0    0  501 -0.00000000000E+00  0.00000000000E+00  0.35188874077E+03  0.35188874077E+03  0.00000000000E+00 0.  1.
          2   -1    0    0  501    0  0.00000000000E+00 -0.00000000000E+00 -0.26185750104E+04  0.26185750104E+04  0.00000000000E+00 0. -1.
         24    2    1    2    0    0 -0.14934474173E+03 -0.55776619695E+03 -0.14444430778E+03  0.60087130582E+03  0.82311516591E+02 0.  0.
        254    2    1    2    0    0  0.14934474173E+03  0.55776619695E+03 -0.21222419618E+04  0.23695924453E+04  0.88184490141E+03 0.  0.
         23    2    4    4    0    0  0.43140816590E+03  0.61547415313E+02 -0.64983637987E+03  0.78780135063E+03  0.91883390865E+02 0.  0.
         23    2    4    4    0    0 -0.28206342417E+03  0.49621878163E+03 -0.14724055819E+04  0.15817910947E+04  0.91060501973E+02 0.  0.
          2    1    3    3  502    0 -0.72839726689E+02 -0.22872301586E+03 -0.10039936998E+03  0.26019200076E+03  0.00000000000E+00 0. -1.
         -1    1    3    3    0  502 -0.76505015044E+02 -0.32904318109E+03 -0.44044937805E+02  0.34067930506E+03  0.00000000000E+00 0.  1.
         11    1    5    5    0    0  0.57321408961E+02 -0.79766149205E+01 -0.45314106097E+02  0.73503323205E+02  0.00000000000E+00 0.  1.
        -11    1    5    5    0    0  0.37408675694E+03  0.69524030234E+02 -0.60452227377E+03  0.71429802743E+03  0.00000000000E+00 0. -1.
          2    1    6    6  503    0 -0.27927399752E+03  0.49937276801E+03 -0.14465414397E+04  0.15555864694E+04  0.00000000000E+00 0. -1.
         -2    1    6    6    0  503 -0.27894266531E+01 -0.31539863754E+01 -0.25864142237E+02  0.26204625255E+02  0.00000000000E+00 0.  1.
<mgrwt>
<rscale>  0 0.19198407E+04</rscale>
<asrwt>0</asrwt>
<pdfrwt beam="1">  1        2 0.40285769E+00 0.19198407E+04</pdfrwt>
<pdfrwt beam="2">  1       -1 0.54136729E-01 0.19198407E+04</pdfrwt>
<totfact> 0.10896145E+01</totfact>
</mgrwt>
</event>
<event>
12    6  0.8914180E-008  0.1947231E+04  0.7818608E-02  0.8631697E-01
          2   -1    0    0  501    0  0.00000000000E+00  0.00000000000E+00  0.21238599320E+04  0.21238599320E+04  0.00000000000E+00 0. -1.
         -1   -1    0    0    0  501 -0.00000000000E+00 -0.00000000000E+00 -0.44632289299E+03  0.44632289299E+03  0.00000000000E+00 0.  1.
         24    2    1    2    0    0  0.49483970848E+03 -0.50388641522E+02  0.14257348811E+04  0.15120512197E+04  0.78572179613E+02 0.  0.
        254    2    1    2    0    0 -0.49483970848E+03  0.50388641522E+02  0.25180215785E+03  0.10581316053E+04  0.89935133016E+03 0.  0.
         23    2    4    4    0    0 -0.29017351918E+03 -0.23217302353E+03 -0.23809430164E+03  0.45086486476E+03  0.92115393477E+02 0.  0.
         23    2    4    4    0    0 -0.20466618930E+03  0.28256166506E+03  0.48989645948E+03  0.60726674050E+03  0.83934554848E+02 0.  0.
          4    1    3    3  502    0  0.33133346425E+03 -0.78081396821E+01  0.10217140722E+04  0.10741240510E+04  0.00000000000E+00 0. -1.
         -3    1    3    3    0  502  0.16350624423E+03 -0.42580501840E+02  0.40402080893E+03  0.43792716870E+03  0.00000000000E+00 0.  1.
         11    1    5    5    0    0  0.16588097269E+01 -0.23081477564E+02 -0.81611070362E+01  0.24537928280E+02  0.00000000000E+00 0.  1.
        -11    1    5    5    0    0 -0.29183232890E+03 -0.20909154597E+03 -0.22993319460E+03  0.42632693648E+03  0.00000000000E+00 0. -1.
          2    1    6    6  503    0 -0.10315972731E+03  0.20020329139E+03  0.34620850450E+03  0.41301769431E+03  0.00000000000E+00 0. -1.
         -2    1    6    6    0  503 -0.10150646199E+03  0.82358373669E+02  0.14368795498E+03  0.19424904619E+03  0.00000000000E+00 0.  1.
<mgrwt>
<rscale>  0 0.19472312E+04</rscale>
<asrwt>0</asrwt>
<pdfrwt beam="1">  1        2 0.32674768E+00 0.19472312E+04</pdfrwt>
<pdfrwt beam="2">  1       -1 0.68665062E-01 0.19472312E+04</pdfrwt>
<totfact> 0.12992377E+01</totfact>
</mgrwt>
</event>
<event>
12    6  0.8914180E-008  0.2449886E+04  0.7818608E-02  0.8421060E-01
          2   -1    0    0  501    0  0.00000000000E+00  0.00000000000E+00  0.12787342815E+04  0.12787342815E+04  0.00000000000E+00 0. -1.
         -1   -1    0    0    0  501 -0.00000000000E+00 -0.00000000000E+00 -0.11734141269E+04  0.11734141269E+04  0.00000000000E+00 0.  1.
         24    2    1    2    0    0 -0.10190189882E+04  0.18260427047E+03  0.27257619400E+03  0.10734124110E+04  0.78564653479E+02 0.  0.
        254    2    1    2    0    0  0.10190189882E+04 -0.18260427047E+03 -0.16725603941E+03  0.13787359973E+04  0.89509460373E+03 0.  0.
         23    2    4    4    0    0  0.43509150940E+03 -0.26643968728E+03 -0.47757360242E+03  0.70453364580E+03  0.89422501819E+02 0.  0.
         23    2    4    4    0    0  0.58392747879E+03  0.83835416817E+02  0.31031756301E+03  0.67420235149E+03  0.10125286781E+03 0.  0.
          2    1    3    3  502    0 -0.27354570364E+03  0.39687921184E+02  0.38420982715E+02  0.27906729472E+03  0.00000000000E+00 0. -1.
         -1    1    3    3    0  502 -0.74547328455E+03  0.14291634928E+03  0.23415521129E+03  0.79434511633E+03  0.00000000000E+00 0.  1.
         11    1    5    5    0    0  0.49580385034E+02 -0.82521126453E+01 -0.24061866008E+02  0.55725087161E+02  0.00000000000E+00 0. -1.
        -11    1    5    5    0    0  0.38551112436E+03 -0.25818757464E+03 -0.45351173641E+03  0.64880855864E+03  0.00000000000E+00 0.  1.
          1    1    6    6  503    0  0.11617428268E+03  0.49002507670E+02  0.96194704301E+02  0.15859108061E+03  0.00000000000E+00 0. -1.
         -1    1    6    6    0  503  0.46775319611E+03  0.34832909146E+02  0.21412285871E+03  0.51561127088E+03  0.00000000000E+00 0.  1.
<mgrwt>
<rscale>  0 0.24498856E+04</rscale>
<asrwt>0</asrwt>
<pdfrwt beam="1">  1        2 0.19672835E+00 0.24498856E+04</pdfrwt>
<pdfrwt beam="2">  1       -1 0.18052525E+00 0.24498856E+04</pdfrwt>
<totfact> 0.35819811E+00</totfact>
</mgrwt>
</event>
<event>
12    6  0.8914180E-008  0.1783124E+04  0.7818608E-02  0.8715326E-01
          2   -1    0    0  501    0  0.00000000000E+00  0.00000000000E+00  0.15754766621E+04  0.15754766621E+04  0.00000000000E+00 0. -1.
         -1   -1    0    0    0  501 -0.00000000000E+00 -0.00000000000E+00 -0.50453470743E+03  0.50453470743E+03  0.00000000000E+00 0.  1.
         24    2    1    2    0    0 -0.13867322182E+03  0.97272144646E+02 -0.34560252015E+03  0.39314999651E+03  0.80210256510E+02 0.  0.
        254    2    1    2    0    0  0.13867322182E+03 -0.97272144646E+02  0.14165444749E+04  0.16868613731E+04  0.90011716465E+03 0.  0.
         23    2    4    4    0    0 -0.14781106610E+03 -0.94305939650E+02 -0.39022752957E+02  0.20066813208E+03  0.89460619659E+02 0.  0.
         23    2    4    4    0    0  0.28648428792E+03 -0.29662049966E+01  0.14555672278E+04  0.14861932410E+04  0.89511726911E+02 0.  0.
          2    1    3    3  502    0 -0.53997973996E+02  0.59412436060E+01 -0.56588308726E+02  0.78443076531E+02  0.00000000000E+00 0. -1.
         -1    1    3    3    0  502 -0.84675247828E+02  0.91330901040E+02 -0.28901421142E+03  0.31470691998E+03  0.00000000000E+00 0.  1.
         11    1    5    5    0    0  0.29092467911E+01 -0.48976632967E+01 -0.24129071795E+02  0.24792396583E+02  0.00000000000E+00 0. -1.
        -11    1    5    5    0    0 -0.15072031289E+03 -0.89408276353E+02 -0.14893681162E+02  0.17587573550E+03  0.00000000000E+00 0.  1.
          4    1    6    6  503    0  0.24740435896E+03  0.27041499734E+02  0.11444432724E+04  0.11711919413E+04  0.00000000000E+00 0.  1.
         -4    1    6    6    0  503  0.39079928956E+02 -0.30007704730E+02  0.31112395541E+03  0.31500129972E+03  0.00000000000E+00 0. -1.
<mgrwt>
<rscale>  0 0.17831238E+04</rscale>
<asrwt>0</asrwt>
<pdfrwt beam="1">  1        2 0.24238102E+00 0.17831238E+04</pdfrwt>
<pdfrwt beam="2">  1       -1 0.77620725E-01 0.17831238E+04</pdfrwt>
<totfact> 0.20618766E+01</totfact>
</mgrwt>
</event>
<event>
12    6  0.8914180E-008  0.3197425E+04  0.7818608E-02  0.8189497E-01
          2   -1    0    0  501    0  0.00000000000E+00  0.00000000000E+00  0.23886920569E+04  0.23886920569E+04  0.00000000000E+00 0. -1.
         -1   -1    0    0    0  501 -0.00000000000E+00 -0.00000000000E+00 -0.10699922873E+04  0.10699922873E+04  0.00000000000E+00 0.  1.
         24    2    1    2    0    0  0.66257193732E+03 -0.53701366489E+03  0.19011660913E+04  0.20851838546E+04  0.78574502223E+02 0.  0.
        254    2    1    2    0    0 -0.66257193732E+03  0.53701366489E+03 -0.58246632168E+03  0.13735004895E+04  0.90545642106E+03 0.  0.
         23    2    4    4    0    0 -0.22386681467E+03 -0.43818239294E+02 -0.59077341507E+03  0.64008026314E+03  0.93022182879E+02 0.  0.
         23    2    4    4    0    0 -0.43870512265E+03  0.58083190419E+03  0.83070933915E+01  0.73342022639E+03  0.89489301652E+02 0.  0.
          4    1    3    3  502    0  0.50224476078E+03 -0.40884331190E+03  0.13576337914E+04  0.15041848839E+04  0.00000000000E+00 0. -1.
         -3    1    3    3    0  502  0.16032717654E+03 -0.12817035299E+03  0.54353229988E+03  0.58099897068E+03  0.00000000000E+00 0.  1.
         11    1    5    5    0    0 -0.82319571340E+01 -0.55627123864E+01 -0.12494690568E+03  0.12534128660E+03  0.00000000000E+00 0. -1.
        -11    1    5    5    0    0 -0.21563485754E+03 -0.38255526907E+02 -0.46582650939E+03  0.51473897654E+03  0.00000000000E+00 0.  1.
          1    1    6    6  503    0  0.28011375302E+01 -0.10057037131E+01  0.29644308549E+00  0.29909346239E+01  0.00000000000E+00 0. -1.
         -1    1    6    6    0  503 -0.44150626018E+03  0.58183760790E+03  0.80106503060E+01  0.73042929176E+03  0.00000000000E+00 0.  1.
<mgrwt>
<rscale>  0 0.31974253E+04</rscale>
<asrwt>0</asrwt>
<pdfrwt beam="1">  1        2 0.36749108E+00 0.31974253E+04</pdfrwt>
<pdfrwt beam="2">  1       -1 0.16461420E+00 0.31974253E+04</pdfrwt>
<totfact> 0.10420174E+00</totfact>
</mgrwt>
</event>
<event>
12    6  0.8914180E-008  0.2759251E+04  0.7818608E-02  0.8316032E-01
         -1   -1    0    0    0  501 -0.00000000000E+00  0.00000000000E+00  0.15920866724E+04  0.15920866724E+04  0.00000000000E+00 0.  1.
          2   -1    0    0  501    0  0.00000000000E+00 -0.00000000000E+00 -0.11955166871E+04  0.11955166871E+04  0.00000000000E+00 0. -1.
         24    2    1    2    0    0  0.10620067014E+04  0.45518676707E+03 -0.25066900251E+03  0.11850489245E+04  0.80329185811E+02 0.  0.
        254    2    1    2    0    0 -0.10620067014E+04 -0.45518676707E+03  0.64723898784E+03  0.16025544349E+04  0.90233540486E+03 0.  0.
         23    2    4    4    0    0 -0.97722223047E+03  0.10341703905E+02  0.47769927376E+03  0.10917024638E+04  0.92452337199E+02 0.  0.
         23    2    4    4    0    0 -0.84784470887E+02 -0.46552847097E+03  0.16953971408E+03  0.51085197117E+03  0.91218737138E+02 0.  0.
          2    1    3    3  502    0  0.87972929733E+03  0.39129304433E+03 -0.23608596152E+03  0.99134780191E+03  0.00000000000E+00 0. -1.
         -1    1    3    3    0  502  0.18227740403E+03  0.63893722736E+02 -0.14583040991E+02  0.19370112263E+03  0.00000000000E+00 0.  1.
         11    1    5    5    0    0 -0.52270867077E+03  0.48866330101E+02  0.23805764192E+03  0.57644055513E+03  0.00000000000E+00 0.  1.
        -11    1    5    5    0    0 -0.45451355970E+03 -0.38524626196E+02  0.23964163184E+03  0.51526190863E+03  0.00000000000E+00 0. -1.
          4    1    6    6  503    0 -0.97368353739E+02 -0.45464493742E+03  0.16024186743E+03  0.49179271194E+03  0.00000000000E+00 0.  1.
         -4    1    6    6    0  503  0.12583882852E+02 -0.10883533549E+02  0.92978466518E+01  0.19059259233E+02  0.00000000000E+00 0. -1.
<mgrwt>
<rscale>  0 0.27592508E+04</rscale>
<asrwt>0</asrwt>
<pdfrwt beam="1">  1        2 0.18392564E+00 0.27592508E+04</pdfrwt>
<pdfrwt beam="2">  1       -1 0.24493641E+00 0.27592508E+04</pdfrwt>
<totfact> 0.14265910E+00</totfact>
</mgrwt>
</event>
<event>
12    6  0.8914180E-008  0.2314457E+04  0.7818608E-02  0.8472243E-01
         -1   -1    0    0    0  501 -0.00000000000E+00  0.00000000000E+00  0.38260840860E+03  0.38260840860E+03  0.00000000000E+00 0.  1.
          2   -1    0    0  501    0  0.00000000000E+00 -0.00000000000E+00 -0.35001255916E+04  0.35001255916E+04  0.00000000000E+00 0. -1.
         24    2    1    2    0    0  0.25988910056E+02 -0.47894104150E+03  0.10314361528E+03  0.49713999625E+03  0.80309562422E+02 0.  0.
        254    2    1    2    0    0 -0.25988910056E+02  0.47894104150E+03 -0.32206607983E+04  0.33855940039E+04  0.92710885951E+03 0.  0.
         23    2    4    4    0    0  0.15172168313E+03 -0.89677861291E+02 -0.13098405302E+03  0.23777826139E+03  0.91214535617E+02 0.  0.
         23    2    4    4    0    0 -0.17771059319E+03  0.56861890279E+03 -0.30896767452E+04  0.31478157426E+04  0.87937747325E+02 0.  0.
          4    1    3    3  502    0  0.23891847819E+02 -0.78135503649E+02 -0.54205870938E+01  0.81886263116E+02  0.00000000000E+00 0. -1.
         -1    1    3    3    0  502  0.20970622369E+01 -0.40080553785E+03  0.10856420237E+03  0.41525373313E+03  0.00000000000E+00 0.  1.
         11    1    5    5    0    0  0.12474776733E+03 -0.63670425986E+02 -0.14126219136E+03  0.19892444623E+03  0.00000000000E+00 0.  1.
        -11    1    5    5    0    0  0.26973915798E+02 -0.26007435305E+02  0.10278138346E+02  0.38853815159E+02  0.00000000000E+00 0. -1.
          4    1    6    6  503    0 -0.33663575097E+02  0.25330274275E+03 -0.13038645513E+04  0.13286678607E+04  0.00000000000E+00 0. -1.
         -4    1    6    6    0  503 -0.14404701809E+03  0.31531616004E+03 -0.17858121939E+04  0.18191478819E+04  0.00000000000E+00 0.  1.
<mgrwt>
<rscale>  0 0.23144567E+04</rscale>
<asrwt>0</asrwt>
<pdfrwt beam="1">  1        2 0.53848087E+00 0.23144567E+04</pdfrwt>
<pdfrwt beam="2">  1       -1 0.58862831E-01 0.23144567E+04</pdfrwt>
<totfact> 0.24557072E+00</totfact>
</mgrwt>
</event>
<event>
12    6  0.1166936E-007  0.1817796E+04  0.7818608E-02  0.8696893E-01
          2   -1    0    0  501    0  0.00000000000E+00  0.00000000000E+00  0.13905390370E+04  0.13905390370E+04  0.00000000000E+00 0. -1.
         -3   -1    0    0    0  501 -0.00000000000E+00 -0.00000000000E+00 -0.59408301501E+03  0.59408301501E+03  0.00000000000E+00 0.  1.
         24    2    1    2    0    0  0.37437771533E+02  0.93044562456E+01  0.10522805295E+04  0.10560592402E+04  0.80490038541E+02 0.  0.
        254    2    1    2    0    0 -0.37437771533E+02 -0.93044562456E+01 -0.25582450753E+03  0.92856281184E+03  0.89179288920E+03 0.  0.
         23    2    4    4    0    0 -0.36723434891E+02  0.18402158682E+03  0.28101974476E+03  0.35051467423E+03  0.93144429900E+02 0.  0.
         23    2    4    4    0    0 -0.71433664253E+00 -0.19332604307E+03 -0.53684425228E+03  0.57804813761E+03  0.92533393837E+02 0.  0.
          2    1    3    3  502    0  0.36220502464E+02 -0.69622421974E+01  0.10110010997E+04  0.10116736733E+04  0.00000000000E+00 0. -1.
         -1    1    3    3    0  502  0.12172690688E+01  0.16266698443E+02  0.41279429847E+02  0.44385566919E+02  0.00000000000E+00 0.  1.
         11    1    5    5    0    0 -0.52417467616E+02  0.15567569934E+03  0.27046329025E+03  0.31643783852E+03  0.00000000000E+00 0. -1.
        -11    1    5    5    0    0  0.15694032725E+02  0.28345887476E+02  0.10556454509E+02  0.34076835707E+02  0.00000000000E+00 0.  1.
          3    1    6    6  503    0  0.24337503000E+02 -0.14798637335E+03 -0.47081609381E+03  0.49412556597E+03  0.00000000000E+00 0. -1.
         -3    1    6    6    0  503 -0.25051839642E+02 -0.45339669714E+02 -0.66028158471E+02  0.83922571638E+02  0.00000000000E+00 0.  1.
<mgrwt>
<rscale>  0 0.18177961E+04</rscale>
<asrwt>0</asrwt>
<pdfrwt beam="1">  1        2 0.21392908E+00 0.18177961E+04</pdfrwt>
<pdfrwt beam="2">  1       -3 0.91397388E-01 0.18177961E+04</pdfrwt>
<totfact> 0.94595335E+00</totfact>
</mgrwt>
</event>
<event>
12    6  0.8914180E-008  0.1348236E+04  0.7818608E-02  0.8992165E-01
          2   -1    0    0  501    0  0.00000000000E+00  0.00000000000E+00  0.58962553335E+03  0.58962553335E+03  0.00000000000E+00 0. -1.
         -1   -1    0    0    0  501 -0.00000000000E+00 -0.00000000000E+00 -0.77071757473E+03  0.77071757473E+03  0.00000000000E+00 0.  1.
         24    2    1    2    0    0 -0.12655108628E+03 -0.31497798355E+03  0.83979388373E+02  0.35887038015E+03  0.80679021544E+02 0.  0.
        254    2    1    2    0    0  0.12655108628E+03  0.31497798355E+03 -0.26507142975E+03  0.10014727279E+04  0.90413409091E+03 0.  0.
         23    2    4    4    0    0 -0.31707144658E+02 -0.10474391795E+03  0.26476825270E+03  0.30079805361E+03  0.91654841940E+02 0.  0.
         23    2    4    4    0    0  0.15825823094E+03  0.41972190150E+03 -0.52983968245E+03  0.70067467431E+03  0.94882916629E+02 0.  0.
          4    1    3    3  502    0 -0.11900074653E+03 -0.29624871682E+03  0.98376843257E+02  0.33406957835E+03  0.00000000000E+00 0. -1.
         -3    1    3    3    0  502 -0.75503397580E+01 -0.18729266731E+02 -0.14397454884E+02  0.24800801799E+02  0.00000000000E+00 0.  1.
         11    1    5    5    0    0 -0.20494035921E+02  0.13132234676E+02  0.45034497584E+02  0.51191474569E+02  0.00000000000E+00 0.  1.
        -11    1    5    5    0    0 -0.11213108737E+02 -0.11787615263E+03  0.21973375511E+03  0.24960657905E+03  0.00000000000E+00 0. -1.
          2    1    6    6  503    0  0.15549974204E+03  0.41071498555E+03 -0.48262227115E+03  0.65252680078E+03  0.00000000000E+00 0. -1.
         -2    1    6    6    0  503  0.27584889000E+01  0.90069159540E+01 -0.47217411299E+02  0.48147873533E+02  0.00000000000E+00 0.  1.
<mgrwt>
<rscale>  0 0.13482355E+04</rscale>
<asrwt>0</asrwt>
<pdfrwt beam="1">  1        2 0.90711621E-01 0.13482355E+04</pdfrwt>
<pdfrwt beam="2">  1       -1 0.11857193E+00 0.13482355E+04</pdfrwt>
<totfact> 0.36066365E+01</totfact>
</mgrwt>
</event>
<event>
12    6  0.8914180E-008  0.2585379E+04  0.7818608E-02  0.8373185E-01
          2   -1    0    0  501    0  0.00000000000E+00  0.00000000000E+00  0.15006763881E+04  0.15006763881E+04  0.00000000000E+00 0. -1.
         -1   -1    0    0    0  501 -0.00000000000E+00 -0.00000000000E+00 -0.11135286236E+04  0.11135286236E+04  0.00000000000E+00 0.  1.
         24    2    1    2    0    0 -0.60831477760E+02  0.11341464259E+04  0.14947199837E+03  0.11483685715E+04  0.80124363876E+02 0.  0.
        254    2    1    2    0    0  0.60831477760E+02 -0.11341464259E+04  0.23767576606E+03  0.14658364402E+04  0.89565513203E+03 0.  0.
         23    2    4    4    0    0 -0.84468489886E+02 -0.54595724368E+03  0.54397389334E+03  0.78066156646E+03  0.91217580575E+02 0.  0.
         23    2    4    4    0    0  0.14529996765E+03 -0.58818918222E+03 -0.30629812728E+03  0.68517487372E+03  0.92560629442E+02 0.  0.
          2    1    3    3  502    0  0.16083916195E+02  0.22425630067E+03  0.14347326179E+02  0.22528965027E+03  0.00000000000E+00 0. -1.
         -1    1    3    3    0  502 -0.76915393955E+02  0.90989012522E+03  0.13512467219E+03  0.92307892124E+03  0.00000000000E+00 0.  1.
         11    1    5    5    0    0 -0.38193619589E+02 -0.59382371426E+02  0.80650608762E+02  0.10718926862E+03  0.00000000000E+00 0.  1.
        -11    1    5    5    0    0 -0.46274870297E+02 -0.48657487225E+03  0.46332328458E+03  0.67347229784E+03  0.00000000000E+00 0. -1.
          1    1    6    6  503    0  0.14380675130E+03 -0.48780245636E+03 -0.28342725246E+03  0.58220496871E+03  0.00000000000E+00 0. -1.
         -1    1    6    6    0  503  0.14932163513E+01 -0.10038672585E+03 -0.22870874825E+02  0.10296990501E+03  0.00000000000E+00 0.  1.
<mgrwt>
<rscale>  0 0.25853790E+04</rscale>
<asrwt>0</asrwt>
<pdfrwt beam="1">  1        2 0.23087329E+00 0.25853790E+04</pdfrwt>
<pdfrwt beam="2">  1       -1 0.17131209E+00 0.25853790E+04</pdfrwt>
<totfact> 0.30788232E+00</totfact>
</mgrwt>
</event>
<event>
12    6  0.8914180E-008  0.2629486E+04  0.7818608E-02  0.8358254E-01
          2   -1    0    0  501    0  0.00000000000E+00  0.00000000000E+00  0.18615123920E+04  0.18615123920E+04  0.00000000000E+00 0. -1.
         -1   -1    0    0    0  501 -0.00000000000E+00 -0.00000000000E+00 -0.92857217821E+03  0.92857217821E+03  0.00000000000E+00 0.  1.
         24    2    1    2    0    0 -0.11032180154E+04  0.11535637660E+03  0.48364596831E+02  0.11130721340E+04  0.78697892561E+02 0.  0.
        254    2    1    2    0    0  0.11032180154E+04 -0.11535637660E+03  0.88457561695E+03  0.16770124362E+04  0.89414741840E+03 0.  0.
         23    2    4    4    0    0  0.10703314516E+04 -0.36169195357E+03  0.83511637399E+03  0.14078912064E+04  0.91147163382E+02 0.  0.
         23    2    4    4    0    0  0.32886563748E+02  0.24633557696E+03  0.49459242961E+02  0.26912122973E+03  0.90649197597E+02 0.  0.
          4    1    3    3  502    0 -0.96113840458E+02  0.24129179277E+02 -0.13203078565E+02  0.99972040610E+02  0.00000000000E+00 0. -1.
         -3    1    3    3    0  502 -0.10071041749E+04  0.91227197326E+02  0.61567675397E+02  0.10131000934E+04  0.00000000000E+00 0.  1.
         11    1    5    5    0    0  0.94887202672E+03 -0.31432350808E+03  0.70122072457E+03  0.12210110136E+04  0.00000000000E+00 0.  1.
        -11    1    5    5    0    0  0.12145942491E+03 -0.47368445488E+02  0.13389564941E+03  0.18688019280E+03  0.00000000000E+00 0. -1.
          3    1    6    6  503    0 -0.18570971629E+01 -0.40096630197E+01  0.13037235848E+02  0.13765744657E+02  0.00000000000E+00 0. -1.
         -3    1    6    6    0  503  0.34743660911E+02  0.25034523998E+03  0.36422007113E+02  0.25535548507E+03  0.00000000000E+00 0.  1.
<mgrwt>
<rscale>  0 0.26294856E+04</rscale>
<asrwt>0</asrwt>
<pdfrwt beam="1">  1        2 0.28638652E+00 0.26294856E+04</pdfrwt>
<pdfrwt beam="2">  1       -1 0.14285726E+00 0.26294856E+04</pdfrwt>
<totfact> 0.31836989E+00</totfact>
</mgrwt>
</event>
<event>
12    6  0.8914180E-008  0.1976628E+04  0.7818608E-02  0.8617626E-01
         -1   -1    0    0    0  501 -0.00000000000E+00  0.00000000000E+00  0.41214854817E+03  0.41214854817E+03  0.00000000000E+00 0.  1.
          2   -1    0    0  501    0  0.00000000000E+00 -0.00000000000E+00 -0.23699332317E+04  0.23699332317E+04  0.00000000000E+00 0. -1.
         24    2    1    2    0    0  0.65737048208E+03 -0.28010375462E+03 -0.12010717231E+04  0.13998469142E+04  0.80025216178E+02 0.  0.
        254    2    1    2    0    0 -0.65737048208E+03  0.28010375462E+03 -0.75671296048E+03  0.13822348657E+04  0.90959587468E+03 0.  0.
         23    2    4    4    0    0 -0.22435616123E+03 -0.30924413428E+03 -0.12652695410E+03  0.41269528482E+03  0.91327467565E+02 0.  0.
         23    2    4    4    0    0 -0.43301432086E+03  0.58934788890E+03 -0.63018600638E+03  0.96953958084E+03  0.89667496750E+02 0.  0.
          2    1    3    3  502    0  0.36519692662E+03 -0.18757957763E+03 -0.63563346611E+03  0.75669333048E+03  0.00000000000E+00 0. -1.
         -1    1    3    3    0  502  0.29217355546E+03 -0.92524176982E+02 -0.56543825695E+03  0.64315358373E+03  0.00000000000E+00 0.  1.
         11    1    5    5    0    0 -0.21322385246E+03 -0.26671224726E+03 -0.13628729912E+03  0.36766025349E+03  0.00000000000E+00 0.  1.
        -11    1    5    5    0    0 -0.11132308767E+02 -0.42531887018E+02  0.97603450172E+01  0.45035031328E+02  0.00000000000E+00 0. -1.
          1    1    6    6  503    0 -0.37072450978E+03  0.45277697176E+03 -0.52578193042E+03  0.78669580313E+03  0.00000000000E+00 0. -1.
         -1    1    6    6    0  503 -0.62289811082E+02  0.13657091714E+03 -0.10440407596E+03  0.18284377771E+03  0.00000000000E+00 0.  1.
<mgrwt>
<rscale>  0 0.19766280E+04</rscale>
<asrwt>0</asrwt>
<pdfrwt beam="1">  1        2 0.36460510E+00 0.19766280E+04</pdfrwt>
<pdfrwt beam="2">  1       -1 0.63407471E-01 0.19766280E+04</pdfrwt>
<totfact> 0.11060043E+01</totfact>
</mgrwt>
</event>
<event>
12    6  0.8914180E-008  0.2875707E+04  0.7818608E-02  0.8280142E-01
          2   -1    0    0  501    0  0.00000000000E+00  0.00000000000E+00  0.26264137461E+04  0.26264137461E+04  0.00000000000E+00 0. -1.
         -1   -1    0    0    0  501 -0.00000000000E+00 -0.00000000000E+00 -0.78716568197E+03  0.78716568197E+03  0.00000000000E+00 0.  1.
         24    2    1    2    0    0  0.97560526052E+03  0.26692871850E+03 -0.13151164383E+03  0.10232344267E+04  0.81589302979E+02 0.  0.
        254    2    1    2    0    0 -0.97560526052E+03 -0.26692871850E+03  0.19707597080E+04  0.23903450014E+04  0.89821981389E+03 0.  0.
         23    2    4    4    0    0 -0.11080238286E+04 -0.14325802059E+03  0.18160300658E+04  0.21342952302E+04  0.94927679825E+02 0.  0.
         23    2    4    4    0    0  0.13241856808E+03 -0.12367069792E+03  0.15472964215E+03  0.25604977123E+03  0.93760889978E+02 0.  0.
          4    1    3    3  502    0  0.30137099618E+02  0.15468851345E+02 -0.17927550643E+02  0.38326586169E+02  0.00000000000E+00 0. -1.
         -1    1    3    3    0  502  0.94546816091E+03  0.25145986716E+03 -0.11358409318E+03  0.98490784051E+03  0.00000000000E+00 0.  1.
         11    1    5    5    0    0 -0.55302043915E+03 -0.10498538867E+03  0.84878236617E+03  0.10184719157E+04  0.00000000000E+00 0. -1.
        -11    1    5    5    0    0 -0.55500338945E+03 -0.38272631919E+02  0.96724769965E+03  0.11158233145E+04  0.00000000000E+00 0.  1.
          2    1    6    6  503    0  0.93525015793E+02 -0.36160013743E+02  0.11444192820E+03  0.15215594009E+03  0.00000000000E+00 0. -1.
         -2    1    6    6    0  503  0.38893552287E+02 -0.87510684172E+02  0.40287713953E+02  0.10389383114E+03  0.00000000000E+00 0.  1.
<mgrwt>
<rscale>  0 0.28757071E+04</rscale>
<asrwt>0</asrwt>
<pdfrwt beam="1">  1        2 0.40406365E+00 0.28757071E+04</pdfrwt>
<pdfrwt beam="2">  1       -1 0.12110241E+00 0.28757071E+04</pdfrwt>
<totfact> 0.17464659E+00</totfact>
</mgrwt>
</event>
<event>
12    6  0.8914180E-008  0.2561394E+04  0.7818608E-02  0.8381434E-01
         -1   -1    0    0    0  501 -0.00000000000E+00  0.00000000000E+00  0.62178234555E+03  0.62178234555E+03  0.00000000000E+00 0.  1.
          2   -1    0    0  501    0  0.00000000000E+00 -0.00000000000E+00 -0.26378770844E+04  0.26378770844E+04  0.00000000000E+00 0. -1.
         24    2    1    2    0    0  0.70666782719E+03 -0.86144267823E+03 -0.76273739859E+03  0.13526257950E+04  0.79782807182E+02 0.  0.
        254    2    1    2    0    0 -0.70666782719E+03  0.86144267823E+03 -0.12533573402E+04  0.19070336349E+04  0.90797012970E+03 0.  0.
         23    2    4    4    0    0 -0.51781032452E+03  0.78735859547E+03 -0.13631390426E+04  0.16597113303E+04  0.91828975046E+02 0.  0.
         23    2    4    4    0    0 -0.18885750267E+03  0.74084082757E+02  0.10978170232E+03  0.24732230456E+03  0.89222713101E+02 0.  0.
          2    1    3    3  502    0  0.14493405393E+03 -0.13105762017E+03 -0.12280899269E+03  0.23079000949E+03  0.00000000000E+00 0. -1.
         -1    1    3    3    0  502  0.56173377326E+03 -0.73038505805E+03 -0.63992840591E+03  0.11218357856E+04  0.00000000000E+00 0.  1.
         11    1    5    5    0    0 -0.13484134731E+03  0.23984181989E+03 -0.33463569403E+03  0.43322896398E+03  0.00000000000E+00 0.  1.
        -11    1    5    5    0    0 -0.38296897721E+03  0.54751677558E+03 -0.10285033485E+04  0.12264823664E+04  0.00000000000E+00 0. -1.
          3    1    6    6  503    0 -0.19296168481E+03  0.78298057602E+02  0.11632026650E+03  0.23852715155E+03  0.00000000000E+00 0. -1.
         -3    1    6    6    0  503  0.41041821366E+01 -0.42139748450E+01 -0.65385641726E+01  0.87951530085E+01  0.00000000000E+00 0.  1.
<mgrwt>
<rscale>  0 0.25613945E+04</rscale>
<asrwt>0</asrwt>
<pdfrwt beam="1">  1        2 0.40582725E+00 0.25613945E+04</pdfrwt>
<pdfrwt beam="2">  1       -1 0.95658821E-01 0.25613945E+04</pdfrwt>
<totfact> 0.30747045E+00</totfact>
</mgrwt>
</event>
<event>
12    6  0.8914180E-008  0.2454177E+04  0.7818608E-02  0.8419494E-01
         -1   -1    0    0    0  501 -0.00000000000E+00  0.00000000000E+00  0.12635911367E+04  0.12635911367E+04  0.00000000000E+00 0.  1.
          2   -1    0    0  501    0  0.00000000000E+00 -0.00000000000E+00 -0.11916406082E+04  0.11916406082E+04  0.00000000000E+00 0. -1.
         24    2    1    2    0    0 -0.75006674667E+03  0.17551222564E+03  0.75610711466E+03  0.10819634716E+04  0.74446754248E+02 0.  0.
        254    2    1    2    0    0  0.75006674667E+03 -0.17551222564E+03 -0.68415658610E+03  0.13732682733E+04  0.90795971844E+03 0.  0.
         23    2    4    4    0    0  0.34067025037E+03 -0.27607812169E+03  0.11729887648E+03  0.46300754437E+03  0.91332420057E+02 0.  0.
         23    2    4    4    0    0  0.40939649630E+03  0.10056589605E+03 -0.80145546258E+03  0.91026072892E+03  0.92329548257E+02 0.  0.
          4    1    3    3  502    0 -0.26954416544E+02 -0.74986800657E+01  0.29040541505E+02  0.40325225664E+02  0.00000000000E+00 0. -1.
         -3    1    3    3    0  502 -0.72311233013E+03  0.18301090571E+03  0.72706657316E+03  0.10416382459E+04  0.00000000000E+00 0.  1.
         11    1    5    5    0    0  0.10280910654E+03 -0.71082161128E+02 -0.72517126707E+01  0.12519973385E+03  0.00000000000E+00 0.  1.
        -11    1    5    5    0    0  0.23786114382E+03 -0.20499596057E+03  0.12455058915E+03  0.33780781052E+03  0.00000000000E+00 0. -1.
          1    1    6    6  503    0  0.29727646079E+03  0.49307791971E+02 -0.48935073172E+03  0.57469008267E+03  0.00000000000E+00 0. -1.
         -1    1    6    6    0  503  0.11212003552E+03  0.51258104082E+02 -0.31210473086E+03  0.33557064625E+03  0.00000000000E+00 0.  1.
<mgrwt>
<rscale>  0 0.24541773E+04</rscale>
<asrwt>0</asrwt>
<pdfrwt beam="1">  1        2 0.18332933E+00 0.24541773E+04</pdfrwt>
<pdfrwt beam="2">  1       -1 0.19439864E+00 0.24541773E+04</pdfrwt>
<totfact> 0.32180657E+00</totfact>
</mgrwt>
</event>
<event>
12    6  0.8914180E-008  0.2238314E+04  0.7818608E-02  0.8502648E-01
         -1   -1    0    0    0  501 -0.00000000000E+00  0.00000000000E+00  0.48782438660E+03  0.48782438660E+03  0.00000000000E+00 0.  1.
          2   -1    0    0  501    0  0.00000000000E+00 -0.00000000000E+00 -0.25675473912E+04  0.25675473912E+04  0.00000000000E+00 0. -1.
         24    2    1    2    0    0  0.48797433472E+03 -0.78333569688E+03 -0.58413447648E+03  0.10955708720E+04  0.85607730523E+02 0.  0.
        254    2    1    2    0    0 -0.48797433472E+03  0.78333569688E+03 -0.14955885282E+04  0.19598009059E+04  0.86735274238E+03 0.  0.
         23    2    4    4    0    0 -0.13627335121E+03  0.87321950932E+02  0.77922161046E+02  0.20131066295E+03  0.90876677260E+02 0.  0.
         23    2    4    4    0    0 -0.35170098351E+03  0.69601374595E+03 -0.15735106892E+04  0.17584902429E+04  0.90682573010E+02 0.  0.
          2    1    3    3  502    0  0.29718869181E+03 -0.51860064315E+03 -0.33651091228E+03  0.68593537575E+03  0.00000000000E+00 0. -1.
         -1    1    3    3    0  502  0.19078564291E+03 -0.26473505374E+03 -0.24762356419E+03  0.40963549622E+03  0.00000000000E+00 0.  1.
         11    1    5    5    0    0 -0.83501637673E+02  0.79163144173E+02  0.90573321176E+02  0.14643378503E+03  0.00000000000E+00 0.  1.
        -11    1    5    5    0    0 -0.52771713535E+02  0.81588067582E+01 -0.12651160130E+02  0.54876877916E+02  0.00000000000E+00 0. -1.
          1    1    6    6  503    0 -0.46761017585E+02  0.16692331413E+03 -0.31123065653E+03  0.35625062404E+03  0.00000000000E+00 0. -1.
         -1    1    6    6    0  503 -0.30493996592E+03  0.52909043182E+03 -0.12622800327E+04  0.14022396189E+04  0.00000000000E+00 0.  1.
<mgrwt>
<rscale>  0 0.22383139E+04</rscale>
<asrwt>0</asrwt>
<pdfrwt beam="1">  1        2 0.39500730E+00 0.22383139E+04</pdfrwt>
<pdfrwt beam="2">  1       -1 0.75049905E-01 0.22383139E+04</pdfrwt>
<totfact> 0.58864664E+00</totfact>
</mgrwt>
</event>
<event>
12    6  0.8914180E-008  0.1479147E+04  0.7818608E-02  0.8898439E-01
          2   -1    0    0  501    0  0.00000000000E+00  0.00000000000E+00  0.16687253122E+04  0.16687253122E+04  0.00000000000E+00 0. -1.
         -1   -1    0    0    0  501 -0.00000000000E+00 -0.00000000000E+00 -0.32777659113E+03  0.32777659113E+03  0.00000000000E+00 0.  1.
         24    2    1    2    0    0  0.46269008661E+03  0.86269640433E+02  0.79224650431E+03  0.92515642045E+03  0.82068944156E+02 0.  0.
        254    2    1    2    0    0 -0.46269008661E+03 -0.86269640433E+02  0.54870221680E+03  0.10713454829E+04  0.79068480063E+03 0.  0.
         23    2    4    4    0    0 -0.52881022933E+03  0.22877835412E+03  0.33444382887E+03  0.67418777414E+03  0.10342478514E+03 0.  0.
         23    2    4    4    0    0  0.66120142712E+02 -0.31504799456E+03  0.21425838793E+03  0.39715770878E+03  0.90556483445E+02 0.  0.
          2    1    3    3  502    0  0.45990365150E+03  0.84305768805E+02  0.79390928942E+03  0.92136354993E+03  0.00000000000E+00 0. -1.
         -1    1    3    3    0  502  0.27864351148E+01  0.19638716274E+01 -0.16627851117E+01  0.37928705153E+01  0.00000000000E+00 0.  1.
         11    1    5    5    0    0 -0.13600803066E+03  0.11023272049E+03  0.97796831311E+02  0.20053343184E+03  0.00000000000E+00 0. -1.
        -11    1    5    5    0    0 -0.39280219867E+03  0.11854563363E+03  0.23664699756E+03  0.47365434230E+03  0.00000000000E+00 0.  1.
          2    1    6    6  503    0  0.26577759757E+01 -0.39923581437E+01 -0.82071635358E+01  0.95057998079E+01  0.00000000000E+00 0. -1.
         -2    1    6    6    0  503  0.63462366737E+02 -0.31105563641E+03  0.22246555147E+03  0.38765190897E+03  0.00000000000E+00 0.  1.
<mgrwt>
<rscale>  0 0.14791472E+04</rscale>
<asrwt>0</asrwt>
<pdfrwt beam="1">  1        2 0.25672696E+00 0.14791472E+04</pdfrwt>
<pdfrwt beam="2">  1       -1 0.50427169E-01 0.14791472E+04</pdfrwt>
<totfact> 0.44444015E+01</totfact>
</mgrwt>
</event>
<event>
12    6  0.8914180E-008  0.2547433E+04  0.7818608E-02  0.8386279E-01
          2   -1    0    0  501    0  0.00000000000E+00  0.00000000000E+00  0.20927806192E+04  0.20927806192E+04  0.00000000000E+00 0. -1.
         -1   -1    0    0    0  501 -0.00000000000E+00 -0.00000000000E+00 -0.77521471504E+03  0.77521471504E+03  0.00000000000E+00 0.  1.
         24    2    1    2    0    0  0.49278682811E+02 -0.61711074658E+03 -0.46403942738E+03  0.77767575027E+03  0.78695109579E+02 0.  0.
        254    2    1    2    0    0 -0.49278682811E+02  0.61711074658E+03  0.17816053315E+04  0.20903195839E+04  0.90114612777E+03 0.  0.
         23    2    4    4    0    0  0.26377315062E+03 -0.91107213872E+02  0.32311960743E+03  0.43658220591E+03  0.91219199761E+02 0.  0.
         23    2    4    4    0    0 -0.31305183343E+03  0.70821796046E+03  0.14584857241E+04  0.16537373780E+04  0.89958758417E+02 0.  0.
          2    1    3    3  502    0  0.38538967301E+01 -0.21189486692E+03 -0.11609359818E+03  0.24164438890E+03  0.00000000000E+00 0. -1.
         -1    1    3    3    0  502  0.45424786081E+02 -0.40521587966E+03 -0.34794582919E+03  0.53603136137E+03  0.00000000000E+00 0.  1.
         11    1    5    5    0    0  0.79497711510E+02 -0.72129945675E+01  0.15115040682E+03  0.17093378515E+03  0.00000000000E+00 0. -1.
        -11    1    5    5    0    0  0.18427543911E+03 -0.83894219305E+02  0.17196920061E+03  0.26564842076E+03  0.00000000000E+00 0.  1.
          2    1    6    6  503    0  0.56353000191E+01  0.77922672252E+01  0.24596145191E+02  0.26409210383E+02  0.00000000000E+00 0. -1.
         -2    1    6    6    0  503 -0.31868713345E+03  0.70042569323E+03  0.14338895789E+04  0.16273281676E+04  0.00000000000E+00 0.  1.
<mgrwt>
<rscale>  0 0.25474335E+04</rscale>
<asrwt>0</asrwt>
<pdfrwt beam="1">  1        2 0.32196625E+00 0.25474335E+04</pdfrwt>
<pdfrwt beam="2">  1       -1 0.11926380E+00 0.25474335E+04</pdfrwt>
<totfact> 0.37670713E+00</totfact>
</mgrwt>
</event>
<event>
12    6  0.8914180E-008  0.1295978E+04  0.7818608E-02  0.9032761E-01
         -1   -1    0    0    0  501 -0.00000000000E+00  0.00000000000E+00  0.20586262848E+03  0.20586262848E+03  0.00000000000E+00 0.  1.
          2   -1    0    0  501    0  0.00000000000E+00 -0.00000000000E+00 -0.20396583462E+04  0.20396583462E+04  0.00000000000E+00 0. -1.
         24    2    1    2    0    0  0.19865600372E+03 -0.10282693585E+03 -0.86204133010E+03  0.89390157359E+03  0.76858193532E+02 0.  0.
        254    2    1    2    0    0 -0.19865600372E+03  0.10282693585E+03 -0.97175438767E+03  0.13516194011E+04  0.91243127359E+03 0.  0.
         23    2    4    4    0    0  0.30950764495E+03 -0.15960449295E+03 -0.38994721116E+03  0.53086721932E+03  0.92155306973E+02 0.  0.
         23    2    4    4    0    0 -0.50816364868E+03  0.26243142880E+03 -0.58180717651E+03  0.82075218182E+03  0.89632609336E+02 0.  0.
          2    1    3    3  502    0  0.20143049819E+03 -0.87055591664E+02 -0.82175297626E+03  0.85054739764E+03  0.00000000000E+00 0. -1.
         -1    1    3    3    0  502 -0.27744944654E+01 -0.15771344190E+02 -0.40288353837E+02  0.43354175947E+02  0.00000000000E+00 0.  1.
         11    1    5    5    0    0  0.43433210631E+02  0.68349556270E+01 -0.70193816581E+02  0.82827122915E+02  0.00000000000E+00 0. -1.
        -11    1    5    5    0    0  0.26607443432E+03 -0.16643944858E+03 -0.31975339458E+03  0.44804009640E+03  0.00000000000E+00 0.  1.
          1    1    6    6  503    0 -0.26727318867E+03  0.10875986457E+03 -0.24056331482E+03  0.37567855137E+03  0.00000000000E+00 0. -1.
         -1    1    6    6    0  503 -0.24089046001E+03  0.15367156423E+03 -0.34124386170E+03  0.44507363045E+03  0.00000000000E+00 0.  1.
<mgrwt>
<rscale>  0 0.12959775E+04</rscale>
<asrwt>0</asrwt>
<pdfrwt beam="1">  1        2 0.31379359E+00 0.12959775E+04</pdfrwt>
<pdfrwt beam="2">  1       -1 0.31671174E-01 0.12959775E+04</pdfrwt>
<totfact> 0.65836662E+01</totfact>
</mgrwt>
</event>
<event>
12    6  0.8914180E-008  0.1677471E+04  0.7818608E-02  0.8774319E-01
         -1   -1    0    0    0  501 -0.00000000000E+00  0.00000000000E+00  0.20679641154E+03  0.20679641154E+03  0.00000000000E+00 0.  1.
          2   -1    0    0  501    0  0.00000000000E+00 -0.00000000000E+00 -0.34017849920E+04  0.34017849920E+04  0.00000000000E+00 0. -1.
         24    2    1    2    0    0  0.51371135840E+03  0.24679293703E+03 -0.15966595784E+04  0.16972625378E+04  0.81069103106E+02 0.  0.
        254    2    1    2    0    0 -0.51371135840E+03 -0.24679293703E+03 -0.15983290021E+04  0.19113188658E+04  0.87958973056E+03 0.  0.
         23    2    4    4    0    0 -0.22097744680E+03 -0.55153362402E+03 -0.10836485257E+04  0.12392980734E+04  0.92440343485E+02 0.  0.
         23    2    4    4    0    0 -0.29273391160E+03  0.30474068699E+03 -0.51468047646E+03  0.67202079238E+03  0.90310150254E+02 0.  0.
          2    1    3    3  502    0  0.40567765182E+03  0.16849485145E+03 -0.11475862427E+04  0.12287876369E+04  0.00000000000E+00 0. -1.
         -1    1    3    3    0  502  0.10803370658E+03  0.78298085581E+02 -0.44907333562E+03  0.46847490085E+03  0.00000000000E+00 0.  1.
         11    1    5    5    0    0 -0.18664484068E+03 -0.42624310349E+03 -0.76806445502E+03  0.89802142897E+03  0.00000000000E+00 0. -1.
        -11    1    5    5    0    0 -0.34332606118E+02 -0.12529052053E+03 -0.31558407066E+03  0.34127664443E+03  0.00000000000E+00 0.  1.
          4    1    6    6  503    0  0.19970227987E+01  0.27162174876E+02 -0.31635255828E+02  0.41743996639E+02  0.00000000000E+00 0. -1.
         -4    1    6    6    0  503 -0.29473093440E+03  0.27757851211E+03 -0.48304522063E+03  0.63027679574E+03  0.00000000000E+00 0.  1.
<mgrwt>
<rscale>  0 0.16774706E+04</rscale>
<asrwt>0</asrwt>
<pdfrwt beam="1">  1        2 0.52335152E+00 0.16774706E+04</pdfrwt>
<pdfrwt beam="2">  1       -1 0.31814833E-01 0.16774706E+04</pdfrwt>
<totfact> 0.95793847E+00</totfact>
</mgrwt>
</event>
<event>
12    6  0.8914180E-008  0.1605486E+04  0.7818608E-02  0.8817185E-01
          2   -1    0    0  501    0  0.00000000000E+00  0.00000000000E+00  0.87272713212E+03  0.87272713212E+03  0.00000000000E+00 0. -1.
         -1   -1    0    0    0  501 -0.00000000000E+00 -0.00000000000E+00 -0.73837117132E+03  0.73837117132E+03  0.00000000000E+00 0.  1.
         24    2    1    2    0    0  0.44364435897E+03  0.79543328417E+02 -0.26258246282E+03  0.52881467315E+03  0.86878941167E+02 0.  0.
        254    2    1    2    0    0 -0.44364435897E+03 -0.79543328417E+02  0.39693842361E+03  0.10822836303E+04  0.90035009074E+03 0.  0.
         23    2    4    4    0    0 -0.65553305587E+03 -0.24329678335E+03  0.18887725201E+03  0.73041053185E+03  0.94382289560E+02 0.  0.
         23    2    4    4    0    0  0.21188869689E+03  0.16375345493E+03  0.20806117160E+03  0.35187309844E+03  0.93878711136E+02 0.  0.
          2    1    3    3  502    0  0.60176215336E+02  0.35198020316E+02 -0.64320963522E+02  0.94853908062E+02  0.00000000000E+00 0. -1.
         -1    1    3    3    0  502  0.38346814364E+03  0.44345308101E+02 -0.19826149930E+03  0.43396076509E+03  0.00000000000E+00 0.  1.
         11    1    5    5    0    0 -0.30622474514E+03 -0.11412443875E+03  0.13713476707E+03  0.35440644237E+03  0.00000000000E+00 0.  1.
        -11    1    5    5    0    0 -0.34930831073E+03 -0.12917234460E+03  0.51742484940E+02  0.37600408948E+03  0.00000000000E+00 0. -1.
          1    1    6    6  503    0  0.91439981235E+02  0.38878336000E+02  0.12453288500E+03  0.15931489141E+03  0.00000000000E+00 0. -1.
         -1    1    6    6    0  503  0.12044871566E+03  0.12487511893E+03  0.83528286596E+02  0.19255820703E+03  0.00000000000E+00 0.  1.
<mgrwt>
<rscale>  0 0.16054863E+04</rscale>
<asrwt>0</asrwt>
<pdfrwt beam="1">  1        2 0.13426571E+00 0.16054863E+04</pdfrwt>
<pdfrwt beam="2">  1       -1 0.11359557E+00 0.16054863E+04</pdfrwt>
<totfact> 0.23677914E+01</totfact>
</mgrwt>
</event>
<event>
12    6  0.8914180E-008  0.1443358E+04  0.7818608E-02  0.8923018E-01
          2   -1    0    0  501    0  0.00000000000E+00  0.00000000000E+00  0.37921261886E+03  0.37921261886E+03  0.00000000000E+00 0. -1.
         -1   -1    0    0    0  501 -0.00000000000E+00 -0.00000000000E+00 -0.13734260111E+04  0.13734260111E+04  0.00000000000E+00 0.  1.
         24    2    1    2    0    0  0.43044293793E+03  0.25897511103E+02 -0.37729710176E+03  0.57820284863E+03  0.77547580712E+02 0.  0.
        254    2    1    2    0    0 -0.43044293793E+03 -0.25897511103E+02 -0.61691629046E+03  0.11744357813E+04  0.90153307821E+03 0.  0.
         23    2    4    4    0    0  0.10113824590E+03 -0.14460108026E+03  0.13407405854E+03  0.24196142567E+03  0.97113650652E+02 0.  0.
         23    2    4    4    0    0 -0.53158118382E+03  0.11870356916E+03 -0.75099034900E+03  0.93247435565E+03  0.94089464518E+02 0.  0.
          2    1    3    3  502    0  0.43018268116E+03  0.19990523662E+02 -0.36484730937E+03  0.56442033925E+03  0.00000000000E+00 0. -1.
         -1    1    3    3    0  502  0.26025676519E+00  0.59069874410E+01 -0.12449792383E+02  0.13782509372E+02  0.00000000000E+00 0.  1.
         11    1    5    5    0    0  0.21295793359E+02 -0.10736991674E+03  0.97452309847E+02  0.14655634592E+03  0.00000000000E+00 0.  1.
        -11    1    5    5    0    0  0.79842452538E+02 -0.37231163524E+02  0.36621748691E+02  0.95405079748E+02  0.00000000000E+00 0. -1.
          2    1    6    6  503    0 -0.15179849866E+03  0.14843284223E+02 -0.27765495409E+03  0.31678917407E+03  0.00000000000E+00 0. -1.
         -2    1    6    6    0  503 -0.37978268517E+03  0.10386028493E+03 -0.47333539491E+03  0.61568518158E+03  0.00000000000E+00 0.  1.
<mgrwt>
<rscale>  0 0.14433579E+04</rscale>
<asrwt>0</asrwt>
<pdfrwt beam="1">  1        2 0.58340403E-01 0.14433579E+04</pdfrwt>
<pdfrwt beam="2">  1       -1 0.21129631E+00 0.14433579E+04</pdfrwt>
<totfact> 0.11812641E+01</totfact>
</mgrwt>
</event>
<event>
12    6  0.8914180E-008  0.2077192E+04  0.7818608E-02  0.8571357E-01
         -1   -1    0    0    0  501 -0.00000000000E+00  0.00000000000E+00  0.14988585325E+04  0.14988585325E+04  0.00000000000E+00 0.  1.
          2   -1    0    0  501    0  0.00000000000E+00 -0.00000000000E+00 -0.71966892274E+03  0.71966892274E+03  0.00000000000E+00 0. -1.
         24    2    1    2    0    0 -0.57976936321E+03  0.33870541818E+03  0.85998201773E+03  0.10940371821E+04  0.80587903248E+02 0.  0.
        254    2    1    2    0    0  0.57976936321E+03 -0.33870541818E+03 -0.80792407922E+02  0.11244902732E+04  0.89838582275E+03 0.  0.
         23    2    4    4    0    0  0.62677161371E+03 -0.57819998702E+03 -0.10210321332E+03  0.86340649176E+03  0.88813417289E+02 0.  0.
         23    2    4    4    0    0 -0.47002250507E+02  0.23949456884E+03  0.21310805397E+02  0.26108378144E+03  0.90242619905E+02 0.  0.
          4    1    3    3  502    0 -0.43438208193E+03  0.21361129894E+03  0.63298421717E+03  0.79686046415E+03  0.00000000000E+00 0. -1.
         -3    1    3    3    0  502 -0.14538728128E+03  0.12509411923E+03  0.22699780055E+03  0.29717671793E+03  0.00000000000E+00 0.  1.
         11    1    5    5    0    0  0.28591372642E+03 -0.30742040216E+03 -0.19233315414E+02  0.42026644292E+03  0.00000000000E+00 0. -1.
        -11    1    5    5    0    0  0.34085788729E+03 -0.27077958485E+03 -0.82869897906E+02  0.44314004883E+03  0.00000000000E+00 0.  1.
          1    1    6    6  503    0  0.50165852066E+01  0.18379116656E+03  0.11200663274E+02  0.18420047201E+03  0.00000000000E+00 0. -1.
         -1    1    6    6    0  503 -0.52018835713E+02  0.55703402286E+02  0.10110142123E+02  0.76883309431E+02  0.00000000000E+00 0.  1.
<mgrwt>
<rscale>  0 0.20771922E+04</rscale>
<asrwt>0</asrwt>
<pdfrwt beam="1">  1        2 0.11071830E+00 0.20771922E+04</pdfrwt>
<pdfrwt beam="2">  1       -1 0.23059362E+00 0.20771922E+04</pdfrwt>
<totfact> 0.38982850E+00</totfact>
</mgrwt>
</event>
<event>
12    6  0.8914180E-008  0.1587346E+04  0.7818608E-02  0.8828360E-01
          2   -1    0    0  501    0  0.00000000000E+00  0.00000000000E+00  0.25157808779E+04  0.25157808779E+04  0.00000000000E+00 0. -1.
         -1   -1    0    0    0  501 -0.00000000000E+00 -0.00000000000E+00 -0.25038630693E+03  0.25038630693E+03  0.00000000000E+00 0.  1.
         24    2    1    2    0    0 -0.41343058852E+03  0.33252341168E+03  0.68295183630E+03  0.86829974999E+03  0.77618131193E+02 0.  0.
        254    2    1    2    0    0  0.41343058852E+03 -0.33252341168E+03  0.15824427346E+04  0.18978674348E+04  0.90348166601E+03 0.  0.
         23    2    4    4    0    0  0.22883179549E+02  0.22000033208E+03  0.87733795392E+02  0.25444180929E+03  0.90108986449E+02 0.  0.
         23    2    4    4    0    0  0.39054740897E+03 -0.55252374376E+03  0.14947089393E+04  0.16434256255E+04  0.94250768804E+02 0.  0.
          4    1    3    3  502    0 -0.47308064221E+01  0.21826633653E+02  0.36477774129E+02  0.42771608240E+02  0.00000000000E+00 0. -1.
         -3    1    3    3    0  502 -0.40869978210E+03  0.31069677803E+03  0.64647406217E+03  0.82552814175E+03  0.00000000000E+00 0.  1.
         11    1    5    5    0    0  0.28340564269E+02  0.27883820595E+02  0.40023914386E+02  0.56414614745E+02  0.00000000000E+00 0. -1.
        -11    1    5    5    0    0 -0.54573847205E+01  0.19211651149E+03  0.47709881006E+02  0.19802719455E+03  0.00000000000E+00 0.  1.
          4    1    6    6  503    0  0.50013703539E+02 -0.13679051080E+03  0.33058161739E+03  0.36124398977E+03  0.00000000000E+00 0. -1.
         -4    1    6    6    0  503  0.34053370544E+03 -0.41573323296E+03  0.11641273219E+04  0.12821816357E+04  0.00000000000E+00 0.  1.
<mgrwt>
<rscale>  0 0.15873463E+04</rscale>
<asrwt>0</asrwt>
<pdfrwt beam="1">  1        2 0.38704319E+00 0.15873463E+04</pdfrwt>
<pdfrwt beam="2">  1       -1 0.38520972E-01 0.15873463E+04</pdfrwt>
<totfact> 0.24366654E+01</totfact>
</mgrwt>
</event>
<event>
12    6  0.8914180E-008  0.1600912E+04  0.7818608E-02  0.8819988E-01
          2   -1    0    0  501    0  0.00000000000E+00  0.00000000000E+00  0.18649167076E+04  0.18649167076E+04  0.00000000000E+00 0. -1.
         -1   -1    0    0    0  501 -0.00000000000E+00 -0.00000000000E+00 -0.34357023987E+03  0.34357023987E+03  0.00000000000E+00 0.  1.
         24    2    1    2    0    0  0.64805975524E+02 -0.33326222705E+03  0.11329258228E+04  0.11853983646E+04  0.79905170647E+02 0.  0.
        254    2    1    2    0    0 -0.64805975524E+02  0.33326222705E+03  0.38842064489E+03  0.10230885829E+04  0.88350219273E+03 0.  0.
         23    2    4    4    0    0  0.11527583800E+03  0.51409966362E+03  0.49783416656E+03  0.73022872980E+03  0.88363779180E+02 0.  0.
         23    2    4    4    0    0 -0.18008181352E+03 -0.18083743657E+03 -0.10941352167E+03  0.29285985306E+03  0.93080270653E+02 0.  0.
          2    1    3    3  502    0  0.73359937351E+02 -0.28694075912E+03  0.89115140553E+03  0.93907800913E+03  0.00000000000E+00 0. -1.
         -1    1    3    3    0  502 -0.85539618270E+01 -0.46321467937E+02  0.24177441728E+03  0.24632035545E+03  0.00000000000E+00 0.  1.
         11    1    5    5    0    0  0.47536834540E+02  0.16618484816E+03  0.22051193114E+03  0.28018327247E+03  0.00000000000E+00 0. -1.
        -11    1    5    5    0    0  0.67739003455E+02  0.34791481547E+03  0.27732223542E+03  0.45004545734E+03  0.00000000000E+00 0.  1.
          4    1    6    6  503    0 -0.69121526975E+02 -0.75997601446E+02 -0.94317030166E+02  0.13946011292E+03  0.00000000000E+00 0. -1.
         -4    1    6    6    0  503 -0.11096028654E+03 -0.10483983513E+03 -0.15096491504E+02  0.15339974014E+03  0.00000000000E+00 0.  1.
<mgrwt>
<rscale>  0 0.16009121E+04</rscale>
<asrwt>0</asrwt>
<pdfrwt beam="1">  1        2 0.28691026E+00 0.16009121E+04</pdfrwt>
<pdfrwt beam="2">  1       -1 0.52856961E-01 0.16009121E+04</pdfrwt>
<totfact> 0.31300363E+01</totfact>
</mgrwt>
</event>
<event>
12    6  0.8914180E-008  0.2142877E+04  0.7818608E-02  0.8542587E-01
          2   -1    0    0  501    0  0.00000000000E+00  0.00000000000E+00  0.24450751280E+04  0.24450751280E+04  0.00000000000E+00 0. -1.
         -1   -1    0    0    0  501 -0.00000000000E+00 -0.00000000000E+00 -0.46950723142E+03  0.46950723142E+03  0.00000000000E+00 0.  1.
         24    2    1    2    0    0  0.51741451622E+03 -0.37421073349E+03  0.14892412329E+04  0.16224884621E+04  0.82933136611E+02 0.  0.
        254    2    1    2    0    0 -0.51741451622E+03  0.37421073349E+03  0.48632666365E+03  0.12920938973E+04  0.10125421280E+04 0.  0.
         23    2    4    4    0    0  0.20152845369E+03  0.38330020972E+03  0.32742384088E+03  0.54989343595E+03  0.87427975504E+02 0.  0.
         23    2    4    4    0    0 -0.71894296992E+03 -0.90894762310E+01  0.15890282277E+03  0.74220046138E+03  0.93004329023E+02 0.  0.
          4    1    3    3  502    0  0.12583307907E+03 -0.49751695651E+02  0.30340063408E+03  0.33220647159E+03  0.00000000000E+00 0. -1.
         -3    1    3    3    0  502  0.39158143715E+03 -0.32445903784E+03  0.11858405989E+04  0.12902819905E+04  0.00000000000E+00 0.  1.
         11    1    5    5    0    0  0.12507566711E+03  0.14657137651E+03  0.15357506379E+03  0.24639884564E+03  0.00000000000E+00 0.  1.
        -11    1    5    5    0    0  0.76452786583E+02  0.23672883320E+03  0.17384877709E+03  0.30349459030E+03  0.00000000000E+00 0. -1.
          2    1    6    6  503    0 -0.14334092580E+03 -0.39139204956E+02  0.30555949660E+02  0.15169760853E+03  0.00000000000E+00 0. -1.
         -2    1    6    6    0  503 -0.57560204411E+03  0.30049728725E+02  0.12834687311E+03  0.59050285285E+03  0.00000000000E+00 0.  1.
<mgrwt>
<rscale>  0 0.21428770E+04</rscale>
<asrwt>0</asrwt>
<pdfrwt beam="1">  1        2 0.37616540E+00 0.21428770E+04</pdfrwt>
<pdfrwt beam="2">  1       -1 0.72231883E-01 0.21428770E+04</pdfrwt>
<totfact> 0.75701168E+00</totfact>
</mgrwt>
</event>
<event>
12    6  0.8914180E-008  0.1695436E+04  0.7818608E-02  0.8763971E-01
          2   -1    0    0  501    0  0.00000000000E+00  0.00000000000E+00  0.24994811770E+04  0.24994811770E+04  0.00000000000E+00 0. -1.
         -1   -1    0    0    0  501 -0.00000000000E+00 -0.00000000000E+00 -0.28751011496E+03  0.28751011496E+03  0.00000000000E+00 0.  1.
         24    2    1    2    0    0 -0.16931529440E+03 -0.14922498178E+03 -0.12727929748E+03  0.27127163240E+03  0.80327547422E+02 0.  0.
        254    2    1    2    0    0  0.16931529440E+03  0.14922498178E+03  0.23392503595E+04  0.25157196595E+04  0.89767332410E+03 0.  0.
         23    2    4    4    0    0 -0.20628387524E+03 -0.27032423513E+03  0.78854241035E+03  0.86334961151E+03  0.89135792412E+02 0.  0.
         23    2    4    4    0    0  0.37559916964E+03  0.41954921692E+03  0.15507079491E+04  0.16523700480E+04  0.92386959987E+02 0.  0.
          2    1    3    3  502    0 -0.16245565104E+03 -0.13435741133E+03 -0.87499928224E+02  0.22825422225E+03  0.00000000000E+00 0. -1.
         -1    1    3    3    0  502 -0.68596433570E+01 -0.14867570452E+02 -0.39779369256E+02  0.43017410156E+02  0.00000000000E+00 0.  1.
         11    1    5    5    0    0 -0.13390169728E+03 -0.22647071929E+03  0.64684103623E+03  0.69829934654E+03  0.00000000000E+00 0. -1.
        -11    1    5    5    0    0 -0.72382177965E+02 -0.43853515839E+02  0.14170137413E+03  0.16505026497E+03  0.00000000000E+00 0.  1.
          4    1    6    6  503    0  0.12882887487E+03  0.12511110919E+03  0.62017470296E+03  0.64565186504E+03  0.00000000000E+00 0.  1.
         -4    1    6    6    0  503  0.24677029477E+03  0.29443810773E+03  0.93053324618E+03  0.10067181830E+04  0.00000000000E+00 0. -1.
<mgrwt>
<rscale>  0 0.16954364E+04</rscale>
<asrwt>0</asrwt>
<pdfrwt beam="1">  1        2 0.38453555E+00 0.16954364E+04</pdfrwt>
<pdfrwt beam="2">  1       -1 0.44232327E-01 0.16954364E+04</pdfrwt>
<totfact> 0.19127698E+01</totfact>
</mgrwt>
</event>
<event>
12    6  0.8914180E-008  0.1580275E+04  0.7818608E-02  0.8832758E-01
          2   -1    0    0  501    0  0.00000000000E+00  0.00000000000E+00  0.16291508565E+04  0.16291508565E+04  0.00000000000E+00 0. -1.
         -1   -1    0    0    0  501 -0.00000000000E+00 -0.00000000000E+00 -0.38321623809E+03  0.38321623809E+03  0.00000000000E+00 0.  1.
         24    2    1    2    0    0  0.81366344619E+02  0.52341276814E+03  0.40124294159E+03  0.66945373485E+03  0.81184955717E+02 0.  0.
        254    2    1    2    0    0 -0.81366344619E+02 -0.52341276814E+03  0.84469167681E+03  0.13429133597E+04  0.89962817597E+03 0.  0.
         23    2    4    4    0    0  0.18989648010E+03 -0.64276641488E+03  0.76813713603E+03  0.10233879497E+04  0.89882692956E+02 0.  0.
         23    2    4    4    0    0 -0.27126282471E+03  0.11935364674E+03  0.76554540781E+02  0.31952541009E+03  0.91690113513E+02 0.  0.
          4    1    3    3  502    0  0.81876704074E+02  0.33582158575E+03  0.22783382952E+03  0.41399056270E+03  0.00000000000E+00 0. -1.
         -3    1    3    3    0  502 -0.51035945448E+00  0.18759118239E+03  0.17340911207E+03  0.25546317215E+03  0.00000000000E+00 0.  1.
         11    1    5    5    0    0 -0.79377393846E+01 -0.29526591727E+02  0.49416251504E+02  0.58110181881E+02  0.00000000000E+00 0.  1.
        -11    1    5    5    0    0  0.19783421948E+03 -0.61323982315E+03  0.71872088452E+03  0.96527776777E+03  0.00000000000E+00 0. -1.
          2    1    6    6  503    0 -0.14915333256E+03  0.97659184442E+02  0.80110827147E+02  0.19545275016E+03  0.00000000000E+00 0. -1.
         -2    1    6    6    0  503 -0.12210949215E+03  0.21694462297E+02 -0.35562863662E+01  0.12407265993E+03  0.00000000000E+00 0.  1.
<mgrwt>
<rscale>  0 0.15802747E+04</rscale>
<asrwt>0</asrwt>
<pdfrwt beam="1">  1        2 0.25063859E+00 0.15802747E+04</pdfrwt>
<pdfrwt beam="2">  1       -1 0.58956345E-01 0.15802747E+04</pdfrwt>
<totfact> 0.34268477E+01</totfact>
</mgrwt>
</event>
<event>
12    6  0.8914180E-008  0.1127675E+04  0.7818608E-02  0.9178630E-01
         -1   -1    0    0    0  501 -0.00000000000E+00  0.00000000000E+00  0.23522801455E+03  0.23522801455E+03  0.00000000000E+00 0.  1.
          2   -1    0    0  501    0  0.00000000000E+00 -0.00000000000E+00 -0.13515090353E+04  0.13515090353E+04  0.00000000000E+00 0. -1.
         24    2    1    2    0    0  0.61570612145E+02 -0.12758513156E+02 -0.46016676507E+03  0.47220635481E+03  0.85274086949E+02 0.  0.
        254    2    1    2    0    0 -0.61570612145E+02  0.12758513156E+02 -0.65611425564E+03  0.11145306950E+04  0.89874302984E+03 0.  0.
         23    2    4    4    0    0 -0.17348684654E+03  0.36395582136E+03 -0.60194914321E+03  0.73075508363E+03  0.95387082055E+02 0.  0.
         23    2    4    4    0    0  0.11191623439E+03 -0.35119730820E+03 -0.54165112426E+02  0.38377561136E+03  0.92114426999E+02 0.  0.
          2    1    3    3  502    0  0.83009950183E+02 -0.68951669153E+01 -0.37948120881E+03  0.38851535747E+03  0.00000000000E+00 0. -1.
         -3    1    3    3    0  502 -0.21439338037E+02 -0.58633462409E+01 -0.80685556264E+02  0.83690997331E+02  0.00000000000E+00 0.  1.
         11    1    5    5    0    0 -0.52237355808E+02  0.56915354772E+02 -0.17316814520E+03  0.18961884258E+03  0.00000000000E+00 0.  1.
        -11    1    5    5    0    0 -0.12124949073E+03  0.30704046659E+03 -0.42878099801E+03  0.54113624105E+03  0.00000000000E+00 0. -1.
          2    1    6    6  503    0  0.33304337343E+01  0.33248377256E+01 -0.91306083640E+01  0.10272017516E+02  0.00000000000E+00 0.  1.
         -2    1    6    6    0  503  0.10858580066E+03 -0.35452214593E+03 -0.45034504062E+02  0.37350359384E+03  0.00000000000E+00 0. -1.
<mgrwt>
<rscale>  0 0.11276751E+04</rscale>
<asrwt>0</asrwt>
<pdfrwt beam="1">  1        2 0.20792447E+00 0.11276751E+04</pdfrwt>
<pdfrwt beam="2">  1       -1 0.36188925E-01 0.11276751E+04</pdfrwt>
<totfact> 0.12726442E+02</totfact>
</mgrwt>
</event>
<event>
12    6  0.1102964E-007  0.2746243E+04  0.7818608E-02  0.8320155E-01
         -1   -1    0    0    0  501 -0.00000000000E+00  0.00000000000E+00  0.72760086174E+03  0.72760086174E+03  0.00000000000E+00 0.  1.
          2   -1    0    0  501    0  0.00000000000E+00 -0.00000000000E+00 -0.25913426476E+04  0.25913426476E+04  0.00000000000E+00 0. -1.
         24    2    1    2    0    0 -0.11031096342E+04 -0.12857144878E+03 -0.30636120842E+03  0.11548703044E+04  0.80540346058E+02 0.  0.
        254    2    1    2    0    0  0.11031096342E+04  0.12857144878E+03 -0.15573805774E+04  0.21640732050E+04  0.10121250372E+04 0.  0.
         23    2    4    4    0    0  0.11032927458E+04  0.40178741417E+03 -0.10321203925E+04  0.15658933077E+04  0.89784950679E+02 0.  0.
         23    2    4    4    0    0 -0.18311163568E+00 -0.27321596539E+03 -0.52526018491E+03  0.59817989723E+03  0.85287339721E+02 0.  0.
          4    1    3    3  502    0 -0.43707897865E+02  0.86259839039E+01 -0.44207117599E+01  0.44769751246E+02  0.00000000000E+00 0. -1.
         -3    1    3    3    0  502 -0.10594017363E+04 -0.13719743268E+03 -0.30194049666E+03  0.11101005531E+04  0.00000000000E+00 0.  1.
         11    1    5    5    0    0  0.19884751774E+03  0.48051546368E+02 -0.14714537393E+03  0.25199414178E+03  0.00000000000E+00 0.  1.
        -11    1    5    5    0    0  0.90444522809E+03  0.35373586780E+03 -0.88497501858E+03  0.13138991660E+04  0.00000000000E+00 0. -1.
          2    1    6    6  503    0  0.22029428150E+02 -0.21606185665E+03 -0.34393176184E+03  0.40676415575E+03  0.00000000000E+00 0. -1.
         -2    1    6    6    0  503 -0.22212539786E+02 -0.57154108746E+02 -0.18132842308E+03  0.19141574148E+03  0.00000000000E+00 0.  1.
<mgrwt>
<rscale>  0 0.27462434E+04</rscale>
<asrwt>0</asrwt>
<pdfrwt beam="1">  1        2 0.39866810E+00 0.27462434E+04</pdfrwt>
<pdfrwt beam="2">  1       -1 0.11193859E+00 0.27462434E+04</pdfrwt>
<totfact> 0.22393203E+00</totfact>
</mgrwt>
</event>
<event>
12    6  0.8914180E-008  0.1878003E+04  0.7818608E-02  0.8665884E-01
          2   -1    0    0  501    0  0.00000000000E+00  0.00000000000E+00  0.94393342972E+03  0.94393342972E+03  0.00000000000E+00 0. -1.
         -1   -1    0    0    0  501 -0.00000000000E+00 -0.00000000000E+00 -0.93409549328E+03  0.93409549328E+03  0.00000000000E+00 0.  1.
         24    2    1    2    0    0 -0.45699583799E+03 -0.99108103614E+02 -0.54681441633E+03  0.72338356801E+03  0.74901057535E+02 0.  0.
        254    2    1    2    0    0  0.45699583799E+03  0.99108103614E+02  0.55665235277E+03  0.11546453550E+04  0.89703759220E+03 0.  0.
         23    2    4    4    0    0  0.45102084605E+03  0.43001673185E+02  0.77935609492E+03  0.90625228569E+03  0.92888832299E+02 0.  0.
         23    2    4    4    0    0  0.59749919422E+01  0.56106430430E+02 -0.22270374214E+03  0.24839306931E+03  0.94437958739E+02 0.  0.
          4    1    3    3  502    0 -0.19077692380E+02 -0.17642475215E+02 -0.48392086415E+02  0.54927309290E+02  0.00000000000E+00 0. -1.
         -3    1    3    3    0  502 -0.43791814561E+03 -0.81465628399E+02 -0.49842232992E+03  0.66845625872E+03  0.00000000000E+00 0.  1.
         11    1    5    5    0    0  0.33592971368E+02 -0.20455605600E+02  0.83877433045E+02  0.92640937496E+02  0.00000000000E+00 0. -1.
        -11    1    5    5    0    0  0.41742787468E+03  0.63457278784E+02  0.69547866187E+03  0.81361134819E+03  0.00000000000E+00 0.  1.
          1    1    6    6  503    0 -0.28326082810E+02  0.62560607337E+02 -0.18336149009E+03  0.19579998111E+03  0.00000000000E+00 0.  1.
         -1    1    6    6    0  503  0.34301074752E+02 -0.64541769072E+01 -0.39342252056E+02  0.52593088192E+02  0.00000000000E+00 0. -1.
<mgrwt>
<rscale>  0 0.18780032E+04</rscale>
<asrwt>0</asrwt>
<pdfrwt beam="1">  1        2 0.14522053E+00 0.18780032E+04</pdfrwt>
<pdfrwt beam="2">  1       -1 0.14370700E+00 0.18780032E+04</pdfrwt>
<totfact> 0.11477997E+01</totfact>
</mgrwt>
</event>
<event>
12    6  0.8914180E-008  0.1579011E+04  0.7818608E-02  0.8833547E-01
          2   -1    0    0  501    0  0.00000000000E+00  0.00000000000E+00  0.11093102391E+04  0.11093102391E+04  0.00000000000E+00 0. -1.
         -1   -1    0    0    0  501 -0.00000000000E+00 -0.00000000000E+00 -0.56189769836E+03  0.56189769836E+03  0.00000000000E+00 0.  1.
         24    2    1    2    0    0 -0.38941985652E+03  0.33764325563E+03  0.31660549931E+03  0.61064274826E+03  0.83634508918E+02 0.  0.
        254    2    1    2    0    0  0.38941985652E+03 -0.33764325563E+03  0.23080704139E+03  0.10605651892E+04  0.89770587464E+03 0.  0.
         23    2    4    4    0    0 -0.10581032918E+03  0.33877975065E+02 -0.23920581553E+03  0.27805057631E+03  0.88029301059E+02 0.  0.
         23    2    4    4    0    0  0.49523018570E+03 -0.37152123070E+03  0.47001285693E+03  0.78251461285E+03  0.90200177144E+02 0.  0.
          4    1    3    3  502    0 -0.95654763029E+02  0.79112442632E+02  0.36457110353E+02  0.12937439146E+03  0.00000000000E+00 0. -1.
         -3    1    3    3    0  502 -0.29376509349E+03  0.25853081300E+03  0.28014838896E+03  0.48126835681E+03  0.00000000000E+00 0.  1.
         11    1    5    5    0    0 -0.11931065629E+03  0.32804009601E+02 -0.23143325400E+03  0.26243568128E+03  0.00000000000E+00 0.  1.
        -11    1    5    5    0    0  0.13500327114E+02  0.10739654640E+01 -0.77725615343E+01  0.15614895031E+02  0.00000000000E+00 0. -1.
          4    1    6    6  503    0  0.44521279274E+03 -0.32492879390E+03  0.44926693119E+03  0.71107941004E+03  0.00000000000E+00 0.  1.
         -4    1    6    6    0  503  0.50017392968E+02 -0.46592436793E+02  0.20745925735E+02  0.71435202808E+02  0.00000000000E+00 0. -1.
<mgrwt>
<rscale>  0 0.15790109E+04</rscale>
<asrwt>0</asrwt>
<pdfrwt beam="1">  1        2 0.17066311E+00 0.15790109E+04</pdfrwt>
<pdfrwt beam="2">  1       -1 0.86445800E-01 0.15790109E+04</pdfrwt>
<totfact> 0.31087944E+01</totfact>
</mgrwt>
</event>
<event>
12    6  0.8914180E-008  0.1590064E+04  0.7818608E-02  0.8826676E-01
          2   -1    0    0  501    0  0.00000000000E+00  0.00000000000E+00  0.15254435576E+04  0.15254435576E+04  0.00000000000E+00 0. -1.
         -1   -1    0    0    0  501 -0.00000000000E+00 -0.00000000000E+00 -0.41435521283E+03  0.41435521283E+03  0.00000000000E+00 0.  1.
         24    2    1    2    0    0 -0.33451477029E+03 -0.35352710756E+03  0.10140767895E+03  0.50313319315E+03  0.77317173881E+02 0.  0.
        254    2    1    2    0    0  0.33451477029E+03  0.35352710756E+03  0.10096806659E+04  0.14366655773E+04  0.89870539482E+03 0.  0.
         23    2    4    4    0    0  0.29474615579E+03  0.40232662947E+03  0.11497080938E+04  0.12565572686E+04  0.91462862294E+02 0.  0.
         23    2    4    4    0    0  0.39768614504E+02 -0.48799521913E+02 -0.14002742795E+03  0.18010830870E+03  0.94172109719E+02 0.  0.
          2    1    3    3  502    0 -0.77674372541E+02 -0.98475891941E+02 -0.60099472894E+01  0.12556643226E+03  0.00000000000E+00 0. -1.
         -1    1    3    3    0  502 -0.25684039775E+03 -0.25505121562E+03  0.10741762623E+03  0.37756676089E+03  0.00000000000E+00 0.  1.
         11    1    5    5    0    0  0.24211599163E+03  0.37724098144E+03  0.10343642110E+04  0.11273154982E+04  0.00000000000E+00 0.  1.
        -11    1    5    5    0    0  0.52630164159E+02  0.25085648035E+02  0.11534388283E+03  0.12924177043E+03  0.00000000000E+00 0. -1.
          3    1    6    6  503    0  0.69895876830E+02 -0.43900873561E+02 -0.10701062620E+03  0.13514434660E+03  0.00000000000E+00 0. -1.
         -3    1    6    6    0  503 -0.30127262326E+02 -0.48986483514E+01 -0.33016801740E+02  0.44963962104E+02  0.00000000000E+00 0.  1.
<mgrwt>
<rscale>  0 0.15900635E+04</rscale>
<asrwt>0</asrwt>
<pdfrwt beam="1">  1        2 0.23468362E+00 0.15900635E+04</pdfrwt>
<pdfrwt beam="2">  1       -1 0.63746956E-01 0.15900635E+04</pdfrwt>
<totfact> 0.33513761E+01</totfact>
</mgrwt>
</event>
<event>
12    6  0.8914180E-008  0.1240144E+04  0.7818608E-02  0.9078426E-01
         -1   -1    0    0    0  501 -0.00000000000E+00  0.00000000000E+00  0.33571196696E+03  0.33571196696E+03  0.00000000000E+00 0.  1.
          2   -1    0    0  501    0  0.00000000000E+00 -0.00000000000E+00 -0.11452954816E+04  0.11452954816E+04  0.00000000000E+00 0. -1.
         24    2    1    2    0    0 -0.27079190109E+03 -0.10250509572E+03 -0.15034996325E+03  0.33514862422E+03  0.76706847947E+02 0.  0.
        254    2    1    2    0    0  0.27079190109E+03  0.10250509572E+03 -0.65923355139E+03  0.11458588244E+04  0.89138545070E+03 0.  0.
         23    2    4    4    0    0  0.94368949407E+02 -0.18271378627E+03 -0.75265789580E+03  0.78601848454E+03  0.95085875019E+02 0.  0.
         23    2    4    4    0    0  0.17642295168E+03  0.28521888199E+03  0.93424344408E+02  0.35984033981E+03  0.91006008033E+02 0.  0.
          4    1    3    3  502    0 -0.21348999688E+03 -0.10892054381E+03 -0.13662815285E+03  0.27587844385E+03  0.00000000000E+00 0. -1.
         -1    1    3    3    0  502 -0.57301904208E+02  0.64154480873E+01 -0.13721810407E+02  0.59270180368E+02  0.00000000000E+00 0.  1.
         11    1    5    5    0    0  0.14560090648E+02 -0.12517863042E+03 -0.47547716987E+03  0.49189452611E+03  0.00000000000E+00 0. -1.
        -11    1    5    5    0    0  0.79808858758E+02 -0.57535155854E+02 -0.27718072593E+03  0.29412395843E+03  0.00000000000E+00 0.  1.
          2    1    6    6  503    0  0.16372764833E+03  0.19916161339E+03  0.88957432910E+02  0.27273708209E+03  0.00000000000E+00 0. -1.
         -2    1    6    6    0  503  0.12695303350E+02  0.86057268602E+02  0.44669114978E+01  0.87103257716E+02  0.00000000000E+00 0.  1.
<mgrwt>
<rscale>  0 0.12401442E+04</rscale>
<asrwt>0</asrwt>
<pdfrwt beam="1">  1        2 0.17619931E+00 0.12401442E+04</pdfrwt>
<pdfrwt beam="2">  1       -1 0.51647994E-01 0.12401442E+04</pdfrwt>
<totfact> 0.86492678E+01</totfact>
</mgrwt>
</event>
<event>
12    6  0.1327558E-007  0.1820612E+04  0.7818608E-02  0.8695414E-01
          2   -1    0    0  501    0  0.00000000000E+00  0.00000000000E+00  0.15581268327E+04  0.15581268327E+04  0.00000000000E+00 0. -1.
         -1   -1    0    0    0  501 -0.00000000000E+00 -0.00000000000E+00 -0.53182893869E+03  0.53182893869E+03  0.00000000000E+00 0.  1.
         24    2    1    2    0    0  0.17491633414E+03  0.60054371514E+02  0.11442437258E+04  0.11617628866E+04  0.78721338305E+02 0.  0.
        254    2    1    2    0    0 -0.17491633414E+03 -0.60054371514E+02 -0.11794583187E+03  0.92819288473E+03  0.90190274449E+03 0.  0.
         23    2    4    4    0    0 -0.17304103625E+03  0.33760740788E+03  0.17421300674E+03  0.42685084925E+03  0.89047816988E+02 0.  0.
         23    2    4    4    0    0 -0.18752978897E+01 -0.39766177939E+03 -0.29215883861E+03  0.50134203548E+03  0.88592561955E+02 0.  0.
          4    1    3    3  502    0  0.17969245319E+03  0.50775025429E+02  0.11185764654E+04  0.11340550207E+04  0.00000000000E+00 0. -1.
         -3    1    3    3    0  502 -0.47761190545E+01  0.92793460851E+01  0.25667260390E+02  0.27707865903E+02  0.00000000000E+00 0.  1.
         11    1    5    5    0    0 -0.15092610077E+03  0.33163099046E+03  0.17438830127E+03  0.40394192818E+03  0.00000000000E+00 0. -1.
        -11    1    5    5    0    0 -0.22114935476E+02  0.59764174183E+01 -0.17529452728E+00  0.22908921067E+02  0.00000000000E+00 0.  1.
          1    1    6    6  503    0  0.70754356204E+01 -0.39826301489E+03 -0.28742143481E+03  0.49119708062E+03  0.00000000000E+00 0. -1.
         -1    1    6    6    0  503 -0.89507335101E+01  0.60123549680E+00 -0.47374037938E+01  0.10144954864E+02  0.00000000000E+00 0.  1.
<mgrwt>
<rscale>  0 0.18206119E+04</rscale>
<asrwt>0</asrwt>
<pdfrwt beam="1">  1        2 0.23971182E+00 0.18206119E+04</pdfrwt>
<pdfrwt beam="2">  1       -1 0.81819838E-01 0.18206119E+04</pdfrwt>
<totfact> 0.18791485E+01</totfact>
</mgrwt>
</event>
<event>
12    6  0.8914180E-008  0.2253730E+04  0.7818608E-02  0.8496392E-01
         -1   -1    0    0    0  501 -0.00000000000E+00  0.00000000000E+00  0.92988410616E+03  0.92988410616E+03  0.00000000000E+00 0.  1.
          2   -1    0    0  501    0  0.00000000000E+00 -0.00000000000E+00 -0.13655725647E+04  0.13655725647E+04  0.00000000000E+00 0. -1.
         24    2    1    2    0    0 -0.19372829151E+03  0.33242278309E+03  0.69667221655E+03  0.79790811828E+03  0.57180680862E+02 0.  0.
        254    2    1    2    0    0  0.19372829151E+03 -0.33242278309E+03 -0.11323606751E+04  0.14975485526E+04  0.90131870680E+03 0.  0.
         23    2    4    4    0    0  0.28451862121E+03  0.20675306505E+03 -0.20388340857E+03  0.41663799274E+03  0.91220047036E+02 0.  0.
         23    2    4    4    0    0 -0.90790329702E+02 -0.53917584814E+03 -0.92847726651E+03  0.10809105598E+04  0.85697869037E+02 0.  0.
          2    1    3    3  502    0 -0.83937541869E+02  0.11206267495E+03  0.29965276259E+03  0.33074965182E+03  0.00000000000E+00 0. -1.
         -1    1    3    3    0  502 -0.10979074964E+03  0.22036010814E+03  0.39701945395E+03  0.46715846646E+03  0.00000000000E+00 0.  1.
         11    1    5    5    0    0  0.16153601004E+03  0.11031036284E+03 -0.61049071642E+02  0.20491278105E+03  0.00000000000E+00 0. -1.
        -11    1    5    5    0    0  0.12298261118E+03  0.96442702218E+02 -0.14283433693E+03  0.21172521170E+03  0.00000000000E+00 0.  1.
          2    1    6    6  503    0 -0.43249789860E+02 -0.31859723107E+03 -0.62369889146E+03  0.70169441153E+03  0.00000000000E+00 0. -1.
         -2    1    6    6    0  503 -0.47540539842E+02 -0.22057861707E+03 -0.30477837505E+03  0.37921614831E+03  0.00000000000E+00 0.  1.
<mgrwt>
<rscale>  0 0.22537296E+04</rscale>
<asrwt>0</asrwt>
<pdfrwt beam="1">  1        2 0.21008809E+00 0.22537296E+04</pdfrwt>
<pdfrwt beam="2">  1       -1 0.14305909E+00 0.22537296E+04</pdfrwt>
<totfact> 0.62194871E+00</totfact>
</mgrwt>
</event>
<event>
12    6  0.8914180E-008  0.1556378E+04  0.7818608E-02  0.8847804E-01
          2   -1    0    0  501    0  0.00000000000E+00  0.00000000000E+00  0.14285587711E+04  0.14285587711E+04  0.00000000000E+00 0. -1.
         -1   -1    0    0    0  501 -0.00000000000E+00 -0.00000000000E+00 -0.42390861251E+03  0.42390861251E+03  0.00000000000E+00 0.  1.
         24    2    1    2    0    0 -0.32374447379E+03  0.31020622182E+03  0.45479911164E+01  0.45520807043E+03  0.78455839808E+02 0.  0.
        254    2    1    2    0    0  0.32374447379E+03 -0.31020622182E+03  0.10001021675E+04  0.13972593132E+04  0.86665498242E+03 0.  0.
         23    2    4    4    0    0  0.24609312677E+03 -0.20333866932E+03  0.11373883637E+04  0.11853447486E+04  0.97372695494E+02 0.  0.
         23    2    4    4    0    0  0.77651347020E+02 -0.10686755250E+03 -0.13728619614E+03  0.21191456460E+03  0.92789425936E+02 0.  0.
          2    1    3    3  502    0 -0.44352213737E+02  0.34249442286E+02 -0.25079993871E+02  0.61393397469E+02  0.00000000000E+00 0. -1.
         -1    1    3    3    0  502 -0.27939226006E+03  0.27595677953E+03  0.29627984987E+02  0.39381467296E+03  0.00000000000E+00 0.  1.
         11    1    5    5    0    0  0.22694995188E+03 -0.15785180060E+03  0.10406786652E+04  0.10767708929E+04  0.00000000000E+00 0. -1.
        -11    1    5    5    0    0  0.19143174892E+02 -0.45486868715E+02  0.96709698501E+02  0.10857385576E+03  0.00000000000E+00 0.  1.
          3    1    6    6  503    0 -0.11304348037E+02 -0.20913626900E+02 -0.63681204629E+02  0.67973994274E+02  0.00000000000E+00 0. -1.
         -3    1    6    6    0  503  0.88955695056E+02 -0.85953925598E+02 -0.73604991516E+02  0.14394057032E+03  0.00000000000E+00 0.  1.
<mgrwt>
<rscale>  0 0.15563783E+04</rscale>
<asrwt>0</asrwt>
<pdfrwt beam="1">  1        2 0.21977827E+00 0.15563783E+04</pdfrwt>
<pdfrwt beam="2">  1       -1 0.65216710E-01 0.15563783E+04</pdfrwt>
<totfact> 0.36423535E+01</totfact>
</mgrwt>
</event>
<event>
12    6  0.8914180E-008  0.1634787E+04  0.7818608E-02  0.8799457E-01
         -1   -1    0    0    0  501 -0.00000000000E+00  0.00000000000E+00  0.81840587220E+03  0.81840587220E+03  0.00000000000E+00 0.  1.
          2   -1    0    0  501    0  0.00000000000E+00 -0.00000000000E+00 -0.81638242449E+03  0.81638242449E+03  0.00000000000E+00 0. -1.
         24    2    1    2    0    0 -0.30722511507E+03 -0.23549467635E+03 -0.41248089509E+03  0.57123103465E+03  0.79494604904E+02 0.  0.
        254    2    1    2    0    0  0.30722511507E+03  0.23549467635E+03  0.41450434281E+03  0.10635572620E+04  0.89971950380E+03 0.  0.
         23    2    4    4    0    0  0.46752588547E+02  0.17786368712E+03 -0.26082463724E+03  0.33182586425E+03  0.90871431500E+02 0.  0.
         23    2    4    4    0    0  0.26047252653E+03  0.57630989224E+02  0.67532898005E+03  0.73173139779E+03  0.90522589595E+02 0.  0.
          4    1    3    3  502    0 -0.17302150391E+03 -0.10541572142E+03 -0.26250092460E+03  0.33159561299E+03  0.00000000000E+00 0. -1.
         -3    1    3    3    0  502 -0.13420361116E+03 -0.13007895493E+03 -0.14997997049E+03  0.23963542165E+03  0.00000000000E+00 0.  1.
         11    1    5    5    0    0  0.67905347770E+02  0.12088917501E+03 -0.14261231586E+03  0.19890601179E+03  0.00000000000E+00 0. -1.
        -11    1    5    5    0    0 -0.21152759223E+02  0.56974512115E+02 -0.11821232138E+03  0.13291985247E+03  0.00000000000E+00 0.  1.
          4    1    6    6  503    0  0.17605398820E+02 -0.18153633314E+02  0.90347252190E+02  0.93819669837E+02  0.00000000000E+00 0. -1.
         -4    1    6    6    0  503  0.24286712771E+03  0.75784622538E+02  0.58498172786E+03  0.63791172795E+03  0.00000000000E+00 0.  1.
<mgrwt>
<rscale>  0 0.16347870E+04</rscale>
<asrwt>0</asrwt>
<pdfrwt beam="1">  1        2 0.12559730E+00 0.16347870E+04</pdfrwt>
<pdfrwt beam="2">  1       -1 0.12590860E+00 0.16347870E+04</pdfrwt>
<totfact> 0.20120174E+01</totfact>
</mgrwt>
</event>
<event>
12    6  0.8914180E-008  0.3358219E+04  0.7818608E-02  0.8148238E-01
          2   -1    0    0  501    0  0.00000000000E+00  0.00000000000E+00  0.18574777359E+04  0.18574777359E+04  0.00000000000E+00 0. -1.
         -1   -1    0    0    0  501 -0.00000000000E+00 -0.00000000000E+00 -0.15178690213E+04  0.15178690213E+04  0.00000000000E+00 0.  1.
         24    2    1    2    0    0  0.57500764078E+03 -0.10046302355E+04 -0.89213141757E+03  0.14637135168E+04  0.81505190958E+02 0.  0.
        254    2    1    2    0    0 -0.57500764078E+03  0.10046302355E+04  0.12317401321E+04  0.19116332404E+04  0.89288420061E+03 0.  0.
         23    2    4    4    0    0  0.11975382259E+03  0.37710351812E+03  0.75515395245E+03  0.85747909799E+03  0.92004729124E+02 0.  0.
         23    2    4    4    0    0 -0.69476146337E+03  0.62752671734E+03  0.47658617965E+03  0.10541541424E+04  0.87311495848E+02 0.  0.
          2    1    3    3  502    0  0.16174597858E+03 -0.35896469785E+03 -0.31160465632E+03  0.50211042384E+03  0.00000000000E+00 0. -1.
         -1    1    3    3    0  502  0.41326166220E+03 -0.64566553761E+03 -0.58052676125E+03  0.96160309298E+03  0.00000000000E+00 0.  1.
         11    1    5    5    0    0  0.48715224670E+02  0.28742711601E+03  0.55660405631E+03  0.62832761807E+03  0.00000000000E+00 0.  1.
        -11    1    5    5    0    0  0.71038597922E+02  0.89676402116E+02  0.19854989614E+03  0.22915147992E+03  0.00000000000E+00 0. -1.
          1    1    6    6  503    0 -0.48744467232E+03  0.47965840030E+03  0.37550428130E+03  0.78017815583E+03  0.00000000000E+00 0. -1.
         -1    1    6    6    0  503 -0.20731679105E+03  0.14786831704E+03  0.10108189835E+03  0.27397598656E+03  0.00000000000E+00 0.  1.
<mgrwt>
<rscale>  0 0.33582185E+04</rscale>
<asrwt>0</asrwt>
<pdfrwt beam="1">  1        2 0.28576580E+00 0.33582185E+04</pdfrwt>
<pdfrwt beam="2">  1       -1 0.23351831E+00 0.33582185E+04</pdfrwt>
<totfact> 0.67837470E-01</totfact>
</mgrwt>
</event>
<event>
12    6  0.8914180E-008  0.1419277E+04  0.7818608E-02  0.8939982E-01
         -1   -1    0    0    0  501 -0.00000000000E+00  0.00000000000E+00  0.60608068550E+03  0.60608068550E+03  0.00000000000E+00 0.  1.
          2   -1    0    0  501    0  0.00000000000E+00 -0.00000000000E+00 -0.83089046502E+03  0.83089046502E+03  0.00000000000E+00 0. -1.
         24    2    1    2    0    0 -0.37664509002E+03  0.69538893592E+02  0.11072799253E+03  0.40648676026E+03  0.79206163748E+02 0.  0.
        254    2    1    2    0    0  0.37664509002E+03 -0.69538893592E+02 -0.33553777206E+03  0.10304843903E+04  0.89588799553E+03 0.  0.
         23    2    4    4    0    0 -0.18052567360E+02  0.12164258770E+03 -0.52264239369E+03  0.54513743925E+03  0.94323600728E+02 0.  0.
         23    2    4    4    0    0  0.39469765738E+03 -0.19118148129E+03  0.18710462163E+03  0.48534695102E+03  0.90647249798E+02 0.  0.
          2    1    3    3  502    0 -0.10576552352E+02  0.63313358206E+01 -0.10003492193E+02  0.15875110361E+02  0.00000000000E+00 0. -1.
         -1    1    3    3    0  502 -0.36606853767E+03  0.63207557771E+02  0.12073148473E+03  0.39061164990E+03  0.00000000000E+00 0.  1.
         11    1    5    5    0    0 -0.44122003938E+02  0.88832532712E+02 -0.45404651815E+03  0.46475392493E+03  0.00000000000E+00 0. -1.
        -11    1    5    5    0    0  0.26069436577E+02  0.32810054985E+02 -0.68595875545E+02  0.80383514313E+02  0.00000000000E+00 0.  1.
          3    1    6    6  503    0  0.87568380757E+02 -0.51555893820E+01  0.23860303272E+02  0.90907180588E+02  0.00000000000E+00 0. -1.
         -3    1    6    6    0  503  0.30712927662E+03 -0.18602589191E+03  0.16324431836E+03  0.39443977043E+03  0.00000000000E+00 0.  1.
<mgrwt>
<rscale>  0 0.14192768E+04</rscale>
<asrwt>0</asrwt>
<pdfrwt beam="1">  1        2 0.12782930E+00 0.14192768E+04</pdfrwt>
<pdfrwt beam="2">  1       -1 0.93243183E-01 0.14192768E+04</pdfrwt>
<totfact> 0.40571720E+01</totfact>
</mgrwt>
</event>
<event>
12    6  0.8914180E-008  0.2160558E+04  0.7818608E-02  0.8535026E-01
          2   -1    0    0  501    0  0.00000000000E+00  0.00000000000E+00  0.15235553677E+04  0.15235553677E+04  0.00000000000E+00 0. -1.
         -1   -1    0    0    0  501 -0.00000000000E+00 -0.00000000000E+00 -0.76597344093E+03  0.76597344093E+03  0.00000000000E+00 0.  1.
         24    2    1    2    0    0  0.14437933748E+03 -0.70820510997E+03  0.86459893022E+03  0.11298242114E+04  0.81065206043E+02 0.  0.
        254    2    1    2    0    0 -0.14437933748E+03  0.70820510997E+03 -0.10701700344E+03  0.11597045972E+04  0.90058994162E+03 0.  0.
         23    2    4    4    0    0  0.71396858398E+02  0.72392295683E+03 -0.35831672173E+03  0.81494767783E+03  0.81159631007E+02 0.  0.
         23    2    4    4    0    0 -0.21577619588E+03 -0.15717846858E+02  0.25129971829E+03  0.34475691941E+03  0.94336459827E+02 0.  0.
          2    1    3    3  502    0  0.93733428293E+02 -0.57912752247E+03  0.73069569013E+03  0.93706501079E+03  0.00000000000E+00 0. -1.
         -1    1    3    3    0  502  0.50645909186E+02 -0.12907758750E+03  0.13390324009E+03  0.19275920061E+03  0.00000000000E+00 0.  1.
         11    1    5    5    0    0  0.52528508122E+02  0.19075948899E+03 -0.82512526289E+02  0.21437524064E+03  0.00000000000E+00 0.  1.
        -11    1    5    5    0    0  0.18868350275E+02  0.53316346784E+03 -0.27580419544E+03  0.60057243718E+03  0.00000000000E+00 0. -1.
          3    1    6    6  503    0 -0.83764394943E+02  0.50227378159E+01  0.35898002470E+02  0.91270851517E+02  0.00000000000E+00 0. -1.
         -3    1    6    6    0  503 -0.13201180093E+03 -0.20740584674E+02  0.21540171582E+03  0.25348606789E+03  0.00000000000E+00 0.  1.
<mgrwt>
<rscale>  0 0.21605582E+04</rscale>
<asrwt>0</asrwt>
<pdfrwt beam="1">  1        2 0.23439313E+00 0.21605582E+04</pdfrwt>
<pdfrwt beam="2">  1       -1 0.11784207E+00 0.21605582E+04</pdfrwt>
<totfact> 0.83228411E+00</totfact>
</mgrwt>
</event>
<event>
12    6  0.8914180E-008  0.1407406E+04  0.7818608E-02  0.8948475E-01
          2   -1    0    0  501    0  0.00000000000E+00  0.00000000000E+00  0.22200964189E+04  0.22200964189E+04  0.00000000000E+00 0. -1.
         -1   -1    0    0    0  501 -0.00000000000E+00 -0.00000000000E+00 -0.22305231366E+03  0.22305231366E+03  0.00000000000E+00 0.  1.
         24    2    1    2    0    0 -0.23437993894E+03  0.28020547628E+03  0.81270472135E+03  0.89454283768E+03  0.79176130452E+02 0.  0.
        254    2    1    2    0    0  0.23437993894E+03 -0.28020547628E+03  0.11843393839E+04  0.15486058948E+04  0.92847798933E+03 0.  0.
         23    2    4    4    0    0  0.33682689163E+03 -0.53132065066E+03  0.50561122253E+03  0.81213530547E+03  0.90371772665E+02 0.  0.
         23    2    4    4    0    0 -0.10244695269E+03  0.25111517438E+03  0.67872816132E+03  0.73647058937E+03  0.90348232493E+02 0.  0.
          4    1    3    3  502    0 -0.22181062247E+03  0.27886915358E+03  0.80331629274E+03  0.87879748705E+03  0.00000000000E+00 0. -1.
         -3    1    3    3    0  502 -0.12569316472E+02  0.13363227010E+01  0.93884286081E+01  0.15745350636E+02  0.00000000000E+00 0.  1.
         11    1    5    5    0    0  0.13675844211E+03 -0.29693782938E+03  0.27587354751E+03  0.42776297201E+03  0.00000000000E+00 0. -1.
        -11    1    5    5    0    0  0.20006844953E+03 -0.23438282129E+03  0.22973767502E+03  0.38437233347E+03  0.00000000000E+00 0.  1.
          4    1    6    6  503    0 -0.10481723077E+03  0.21675664416E+03  0.64410785746E+03  0.68763727843E+03  0.00000000000E+00 0.  1.
         -4    1    6    6    0  503  0.23702780779E+01  0.34358530225E+02  0.34620303864E+02  0.48833310936E+02  0.00000000000E+00 0. -1.
<mgrwt>
<rscale>  0 0.14074056E+04</rscale>
<asrwt>0</asrwt>
<pdfrwt beam="1">  1        2 0.34155328E+00 0.14074056E+04</pdfrwt>
<pdfrwt beam="2">  1       -1 0.34315742E-01 0.14074056E+04</pdfrwt>
<totfact> 0.44886778E+01</totfact>
</mgrwt>
</event>
<event>
12    6  0.8914180E-008  0.1273945E+04  0.7818608E-02  0.9050486E-01
         -1   -1    0    0    0  501 -0.00000000000E+00  0.00000000000E+00  0.22106338619E+03  0.22106338619E+03  0.00000000000E+00 0.  1.
          2   -1    0    0  501    0  0.00000000000E+00 -0.00000000000E+00 -0.18353726546E+04  0.18353726546E+04  0.00000000000E+00 0. -1.
         24    2    1    2    0    0  0.10834003447E+03  0.27821028646E+03 -0.55881152586E+03  0.63860853540E+03  0.80075049078E+02 0.  0.
        254    2    1    2    0    0 -0.10834003447E+03 -0.27821028646E+03 -0.10554977426E+04  0.14178275054E+04  0.89834337754E+03 0.  0.
         23    2    4    4    0    0 -0.13211665278E+03 -0.48659600410E+03 -0.23038904955E+03  0.56177590849E+03  0.91008659234E+02 0.  0.
         23    2    4    4    0    0  0.23776618307E+02  0.20838571764E+03 -0.82510869302E+03  0.85605159693E+03  0.89610526215E+02 0.  0.
          2    1    3    3  502    0  0.12755737019E+02  0.11241402783E+03 -0.26283702042E+03  0.28615192081E+03  0.00000000000E+00 0. -1.
         -1    1    3    3    0  502  0.95584297452E+02  0.16579625863E+03 -0.29597450544E+03  0.35245661459E+03  0.00000000000E+00 0.  1.
         11    1    5    5    0    0 -0.12933391965E+03 -0.33252699852E+03 -0.18018287473E+03  0.39970906402E+03  0.00000000000E+00 0.  1.
        -11    1    5    5    0    0 -0.27827331309E+01 -0.15406900558E+03 -0.50206174820E+02  0.16206684447E+03  0.00000000000E+00 0. -1.
          1    1    6    6  503    0 -0.34442770527E+02  0.74473737918E+02 -0.29982063000E+03  0.31084570490E+03  0.00000000000E+00 0. -1.
         -1    1    6    6    0  503  0.58219388833E+02  0.13391197972E+03 -0.52528806303E+03  0.54520589203E+03  0.00000000000E+00 0.  1.
<mgrwt>
<rscale>  0 0.12739446E+04</rscale>
<asrwt>0</asrwt>
<pdfrwt beam="1">  1        2 0.28236502E+00 0.12739446E+04</pdfrwt>
<pdfrwt beam="2">  1       -1 0.34009752E-01 0.12739446E+04</pdfrwt>
<totfact> 0.75384671E+01</totfact>
</mgrwt>
</event>
<event>
12    6  0.8914180E-008  0.9951279E+03  0.7818608E-02  0.9313905E-01
         -1   -1    0    0    0  501 -0.00000000000E+00  0.00000000000E+00  0.97385889077E+02  0.97385889077E+02  0.00000000000E+00 0.  1.
          2   -1    0    0  501    0  0.00000000000E+00 -0.00000000000E+00 -0.25421534311E+04  0.25421534311E+04  0.00000000000E+00 0. -1.
         24    2    1    2    0    0 -0.24007327878E+02  0.15848923302E+02 -0.10425330151E+03  0.13517212836E+03  0.81087688623E+02 0.  0.
        254    2    1    2    0    0  0.24007327878E+02 -0.15848923302E+02 -0.23405142405E+04  0.25043671918E+04  0.89051703031E+03 0.  0.
         23    2    4    4    0    0  0.23307596123E+03 -0.13816294550E+03 -0.20559502758E+03  0.35351524344E+03  0.96386247817E+02 0.  0.
         23    2    4    4    0    0 -0.20906863335E+03  0.12231402220E+03 -0.21349192129E+04  0.21508519484E+04  0.98049194899E+02 0.  0.
          4    1    3    3  502    0 -0.60798124301E+01  0.21336005799E+02 -0.11251697447E+03  0.11468329786E+03  0.00000000000E+00 0. -1.
         -3    1    3    3    0  502 -0.17927515448E+02 -0.54870824972E+01  0.82636729599E+01  0.20488830500E+02  0.00000000000E+00 0.  1.
         11    1    5    5    0    0  0.12553174801E+03 -0.26393791113E+02 -0.63382135878E+02  0.14308091108E+03  0.00000000000E+00 0.  1.
        -11    1    5    5    0    0  0.10754421322E+03 -0.11176915439E+03 -0.14221289170E+03  0.21043433236E+03  0.00000000000E+00 0. -1.
          2    1    6    6  503    0 -0.18806482905E+03  0.74154173833E+02 -0.14660352834E+04  0.14799076571E+04  0.00000000000E+00 0. -1.
         -2    1    6    6    0  503 -0.21003804306E+02  0.48159848365E+02 -0.66888392955E+03  0.67094429127E+03  0.00000000000E+00 0.  1.
<mgrwt>
<rscale>  0 0.99512788E+03</rscale>
<asrwt>0</asrwt>
<pdfrwt beam="1">  1        2 0.39110053E+00 0.99512788E+03</pdfrwt>
<pdfrwt beam="2">  1       -1 0.14982444E-01 0.99512788E+03</pdfrwt>
<totfact> 0.12505267E+02</totfact>
</mgrwt>
</event>
<event>
12    6  0.8914180E-008  0.2482954E+04  0.7818608E-02  0.8409084E-01
         -3   -1    0    0    0  501 -0.00000000000E+00  0.00000000000E+00  0.89690778118E+03  0.89690778118E+03  0.00000000000E+00 0.  1.
          2   -1    0    0  501    0  0.00000000000E+00 -0.00000000000E+00 -0.17184204541E+04  0.17184204541E+04  0.00000000000E+00 0. -1.
         24    2    1    2    0    0 -0.43676190792E+03  0.91620065851E+03 -0.73541545979E+03  0.12558298117E+04  0.78025678672E+02 0.  0.
        254    2    1    2    0    0  0.43676190792E+03 -0.91620065851E+03 -0.86097213123E+02  0.13594984236E+04  0.90035472054E+03 0.  0.
         23    2    4    4    0    0  0.26468434559E+03 -0.93492508005E+03  0.21736880267E+03  0.99978808342E+03  0.90467161319E+02 0.  0.
         23    2    4    4    0    0  0.17207756234E+03  0.18724421542E+02 -0.30346601580E+03  0.35971034017E+03  0.85665714633E+02 0.  0.
          4    1    3    3  502    0 -0.26437394043E+03  0.62372190745E+03 -0.51635083288E+03  0.85178681653E+03  0.00000000000E+00 0. -1.
         -3    1    3    3    0  502 -0.17238796749E+03  0.29247875106E+03 -0.21906462691E+03  0.40404299514E+03  0.00000000000E+00 0.  1.
         11    1    5    5    0    0  0.19491710290E+03 -0.52543111353E+03  0.13021324036E+03  0.57534860739E+03  0.00000000000E+00 0.  1.
        -11    1    5    5    0    0  0.69767242687E+02 -0.40949396652E+03  0.87155562311E+02  0.42443947603E+03  0.00000000000E+00 0. -1.
          2    1    6    6  503    0  0.51772783538E+01 -0.14186343964E+02 -0.45402229782E+01  0.15769279975E+02  0.00000000000E+00 0. -1.
         -2    1    6    6    0  503  0.16690028398E+03  0.32910765507E+02 -0.29892579282E+03  0.34394106020E+03  0.00000000000E+00 0.  1.
<mgrwt>
<rscale>  0 0.24829536E+04</rscale>
<asrwt>0</asrwt>
<pdfrwt beam="1">  1        2 0.26437238E+00 0.24829536E+04</pdfrwt>
<pdfrwt beam="2">  1       -3 0.13798581E+00 0.24829536E+04</pdfrwt>
<totfact> 0.21705004E+00</totfact>
</mgrwt>
</event>
<event>
12    6  0.8914180E-008  0.2058428E+04  0.7818608E-02  0.8579781E-01
         -1   -1    0    0    0  501 -0.00000000000E+00  0.00000000000E+00  0.48501426901E+03  0.48501426901E+03  0.00000000000E+00 0.  1.
          2   -1    0    0  501    0  0.00000000000E+00 -0.00000000000E+00 -0.21840210512E+04  0.21840210512E+04  0.00000000000E+00 0. -1.
         24    2    1    2    0    0  0.64489113393E+03  0.23146077041E+03 -0.78481862073E+02  0.69411863046E+03  0.78629559418E+02 0.  0.
        254    2    1    2    0    0 -0.64489113393E+03 -0.23146077041E+03 -0.16205249202E+04  0.19749166898E+04  0.89707092914E+03 0.  0.
         23    2    4    4    0    0  0.20120853296E+03  0.15201851996E+02 -0.19023791094E+03  0.29248360947E+03  0.92952832173E+02 0.  0.
         23    2    4    4    0    0 -0.84609966689E+03 -0.24666262240E+03 -0.14302870092E+04  0.16824330803E+04  0.90183398767E+02 0.  0.
          4    1    3    3  502    0  0.36380883935E+03  0.11896602357E+03 -0.60351023417E+01  0.38281354314E+03  0.00000000000E+00 0. -1.
         -3    1    3    3    0  502  0.28108229458E+03  0.11249474683E+03 -0.72446759731E+02  0.31130508731E+03  0.00000000000E+00 0.  1.
         11    1    5    5    0    0  0.16797596587E+03 -0.90491194604E+01 -0.18652535326E+03  0.25117627093E+03  0.00000000000E+00 0.  1.
        -11    1    5    5    0    0  0.33232567094E+02  0.24250971457E+02 -0.37125576790E+01  0.41307338534E+02  0.00000000000E+00 0. -1.
          1    1    6    6  503    0 -0.15376691407E+03 -0.96256508450E+01 -0.24086077008E+03  0.28592101634E+03  0.00000000000E+00 0. -1.
         -1    1    6    6    0  503 -0.69233275283E+03 -0.23703697156E+03 -0.11894262391E+04  0.13965120640E+04  0.00000000000E+00 0.  1.
<mgrwt>
<rscale>  0 0.20584279E+04</rscale>
<asrwt>0</asrwt>
<pdfrwt beam="1">  1        2 0.33600324E+00 0.20584279E+04</pdfrwt>
<pdfrwt beam="2">  1       -1 0.74617579E-01 0.20584279E+04</pdfrwt>
<totfact> 0.10027935E+01</totfact>
</mgrwt>
</event>
<event>
12    6  0.8914180E-008  0.2409840E+04  0.7818608E-02  0.8435829E-01
          2   -1    0    0  501    0  0.00000000000E+00  0.00000000000E+00  0.59609055479E+03  0.59609055479E+03  0.00000000000E+00 0. -1.
         -1   -1    0    0    0  501 -0.00000000000E+00 -0.00000000000E+00 -0.24355901229E+04  0.24355901229E+04  0.00000000000E+00 0.  1.
         24    2    1    2    0    0  0.58401546154E+03 -0.77824510597E+03 -0.12603809645E+04  0.15942348973E+04  0.79279429219E+02 0.  0.
        254    2    1    2    0    0 -0.58401546154E+03  0.77824510597E+03 -0.57911860363E+03  0.14374457804E+04  0.88551256920E+03 0.  0.
         23    2    4    4    0    0 -0.72418999803E+03  0.65551581177E+03 -0.69250925816E+03  0.12007167621E+04  0.89440133562E+02 0.  0.
         23    2    4    4    0    0  0.14017453649E+03  0.12272929420E+03  0.11339065453E+03  0.23672901827E+03  0.92042420772E+02 0.  0.
          2    1    3    3  502    0  0.18020240187E+03 -0.30129487523E+03 -0.43717228314E+03  0.56068807070E+03  0.00000000000E+00 0. -1.
         -1    1    3    3    0  502  0.40381305968E+03 -0.47695023074E+03 -0.82320868138E+03  0.10335468266E+04  0.00000000000E+00 0.  1.
         11    1    5    5    0    0 -0.67285272498E+02  0.61886216333E+02 -0.35016654107E+02  0.97894727805E+02  0.00000000000E+00 0.  1.
        -11    1    5    5    0    0 -0.65690472553E+03  0.59362959544E+03 -0.65749260405E+03  0.11028220343E+04  0.00000000000E+00 0. -1.
          4    1    6    6  503    0  0.97063042707E+02  0.28565554865E+02  0.76300448852E+02  0.12672404539E+03  0.00000000000E+00 0. -1.
         -4    1    6    6    0  503  0.43111493780E+02  0.94163739333E+02  0.37090205676E+02  0.11000497288E+03  0.00000000000E+00 0.  1.
<mgrwt>
<rscale>  0 0.24098401E+04</rscale>
<asrwt>0</asrwt>
<pdfrwt beam="1">  1        2 0.91706240E-01 0.24098401E+04</pdfrwt>
<pdfrwt beam="2">  1       -1 0.37470617E+00 0.24098401E+04</pdfrwt>
<totfact> 0.54477709E-01</totfact>
</mgrwt>
</event>
<event>
12    6  0.8914180E-008  0.1420931E+04  0.7818608E-02  0.8938806E-01
          2   -1    0    0  501    0  0.00000000000E+00  0.00000000000E+00  0.86804259057E+03  0.86804259057E+03  0.00000000000E+00 0. -1.
         -3   -1    0    0    0  501 -0.00000000000E+00 -0.00000000000E+00 -0.58149327762E+03  0.58149327762E+03  0.00000000000E+00 0.  1.
         24    2    1    2    0    0  0.36551712703E+03  0.79127915466E+02 -0.92168525920E+02  0.40042858431E+03  0.10947153423E+03 0.  0.
        254    2    1    2    0    0 -0.36551712703E+03 -0.79127915466E+02  0.37871783888E+03  0.10491072839E+04  0.90406575781E+03 0.  0.
         23    2    4    4    0    0 -0.13945632407E+03  0.39557008800E+03  0.26449876422E+03  0.50450965791E+03  0.92987299207E+02 0.  0.
         23    2    4    4    0    0 -0.22606080296E+03 -0.47469800347E+03  0.11421907466E+03  0.54459762596E+03  0.84254946770E+02 0.  0.
          4    1    3    3  502    0  0.73365636277E+02  0.60663834751E+02 -0.65148576647E+01  0.95420442272E+02  0.00000000000E+00 0. -1.
         -3    1    3    3    0  502  0.29215149075E+03  0.18464080715E+02 -0.85653668255E+02  0.30500814204E+03  0.00000000000E+00 0.  1.
         11    1    5    5    0    0 -0.88757123862E+02  0.30833128205E+03  0.23998660153E+03  0.40067390162E+03  0.00000000000E+00 0.  1.
        -11    1    5    5    0    0 -0.50699200204E+02  0.87238805952E+02  0.24512162684E+02  0.10383575629E+03  0.00000000000E+00 0. -1.
          4    1    6    6  503    0 -0.12507013385E+02 -0.74738303233E+02 -0.44996367696E+01  0.75911040600E+02  0.00000000000E+00 0. -1.
         -4    1    6    6    0  503 -0.21355378958E+03 -0.39995970023E+03  0.11871871143E+03  0.46868658536E+03  0.00000000000E+00 0.  1.
<mgrwt>
<rscale>  0 0.14209306E+04</rscale>
<asrwt>0</asrwt>
<pdfrwt beam="1">  1        2 0.13354501E+00 0.14209306E+04</pdfrwt>
<pdfrwt beam="2">  1       -3 0.89460504E-01 0.14209306E+04</pdfrwt>
<totfact> 0.21460369E+01</totfact>
</mgrwt>
</event>
<event>
12    6  0.8914180E-008  0.1856073E+04  0.7818608E-02  0.8677036E-01
          2   -1    0    0  501    0  0.00000000000E+00  0.00000000000E+00  0.18322920785E+04  0.18322920785E+04  0.00000000000E+00 0. -1.
         -1   -1    0    0    0  501 -0.00000000000E+00 -0.00000000000E+00 -0.47004071844E+03  0.47004071844E+03  0.00000000000E+00 0.  1.
         24    2    1    2    0    0  0.64999053710E+02  0.68377841259E+03  0.31422764294E+03  0.75943286725E+03  0.78876319402E+02 0.  0.
        254    2    1    2    0    0 -0.64999053710E+02 -0.68377841259E+03  0.10480237171E+04  0.15428999296E+04  0.90022701961E+03 0.  0.
         23    2    4    4    0    0  0.26300802215E+03  0.84731747584E+02  0.23843782290E+03  0.37577108257E+03  0.89435017416E+02 0.  0.
         23    2    4    4    0    0 -0.32800707586E+03 -0.76851016017E+03  0.80958589418E+03  0.11671288471E+04  0.92541436867E+02 0.  0.
          2    1    3    3  502    0  0.66405847758E+02  0.68328753116E+03  0.30694938772E+03  0.75200366587E+03  0.00000000000E+00 0. -1.
         -1    1    3    3    0  502 -0.14067940477E+01  0.49088142574E+00  0.72782552201E+01  0.74292013780E+01  0.00000000000E+00 0.  1.
         11    1    5    5    0    0  0.25960082447E+03  0.96017243726E+02  0.21862468035E+03  0.35271610400E+03  0.00000000000E+00 0. -1.
        -11    1    5    5    0    0  0.34071976775E+01 -0.11285496143E+02  0.19813142552E+02  0.23054978572E+02  0.00000000000E+00 0.  1.
          3    1    6    6  503    0 -0.33243828874E+03 -0.76257557504E+03  0.79455079102E+03  0.11503684988E+04  0.00000000000E+00 0. -1.
         -3    1    6    6    0  503  0.44312128852E+01 -0.59345851350E+01  0.15035103157E+02  0.16760348305E+02  0.00000000000E+00 0.  1.
<mgrwt>
<rscale>  0 0.18560732E+04</rscale>
<asrwt>0</asrwt>
<pdfrwt beam="1">  1        2 0.28189109E+00 0.18560732E+04</pdfrwt>
<pdfrwt beam="2">  1       -1 0.72313958E-01 0.18560732E+04</pdfrwt>
<totfact> 0.17096457E+01</totfact>
</mgrwt>
</event>
<event>
12    6  0.8914180E-008  0.1544310E+04  0.7818608E-02  0.8855510E-01
         -1   -1    0    0    0  501 -0.00000000000E+00  0.00000000000E+00  0.14796179397E+03  0.14796179397E+03  0.00000000000E+00 0.  1.
          2   -1    0    0  501    0  0.00000000000E+00 -0.00000000000E+00 -0.40295787398E+04  0.40295787398E+04  0.00000000000E+00 0. -1.
         24    2    1    2    0    0  0.46317748597E+03  0.13186355199E+03 -0.18517463421E+04  0.19150355747E+04  0.80469603298E+02 0.  0.
        254    2    1    2    0    0 -0.46317748597E+03 -0.13186355199E+03 -0.20298706037E+04  0.22625049591E+04  0.87557560612E+03 0.  0.
         23    2    4    4    0    0 -0.64155458295E+03  0.64172962290E+02 -0.17449442507E+04  0.18624517545E+04  0.90474570945E+02 0.  0.
         23    2    4    4    0    0  0.17837709698E+03 -0.19603651428E+03 -0.28492635308E+03  0.40005320455E+03  0.92794591092E+02 0.  0.
          4    1    3    3  502    0  0.46318919416E+03  0.13682523751E+03 -0.18388030138E+04  0.19011738213E+04  0.00000000000E+00 0. -1.
         -3    1    3    3    0  502 -0.11708183571E-01 -0.49616855162E+01 -0.12943328270E+02  0.13861753386E+02  0.00000000000E+00 0.  1.
         11    1    5    5    0    0 -0.58494353230E+03  0.82838400275E+02 -0.15588416910E+04  0.16670358587E+04  0.00000000000E+00 0. -1.
        -11    1    5    5    0    0 -0.56611050656E+02 -0.18665437985E+02 -0.18610255969E+03  0.19541589586E+03  0.00000000000E+00 0.  1.
          3    1    6    6  503    0  0.47945377673E+01 -0.58754952216E+02 -0.70576420165E+02  0.91957398210E+02  0.00000000000E+00 0. -1.
         -3    1    6    6    0  503  0.17358255921E+03 -0.13728156207E+03 -0.21434993291E+03  0.30809580634E+03  0.00000000000E+00 0.  1.
<mgrwt>
<rscale>  0 0.15443105E+04</rscale>
<asrwt>0</asrwt>
<pdfrwt beam="1">  1        2 0.61993518E+00 0.15443105E+04</pdfrwt>
<pdfrwt beam="2">  1       -1 0.22763353E-01 0.15443105E+04</pdfrwt>
<totfact> 0.59686776E+00</totfact>
</mgrwt>
</event>
<event>
12    6  0.8914180E-008  0.2540444E+04  0.7818608E-02  0.8388717E-01
          2   -1    0    0  501    0  0.00000000000E+00  0.00000000000E+00  0.16440093796E+04  0.16440093796E+04  0.00000000000E+00 0. -1.
         -1   -1    0    0    0  501 -0.00000000000E+00 -0.00000000000E+00 -0.98142030131E+03  0.98142030131E+03  0.00000000000E+00 0.  1.
         24    2    1    2    0    0 -0.88033618121E+03 -0.64516826853E+03  0.49895243718E+03  0.12026709960E+04  0.78931003932E+02 0.  0.
        254    2    1    2    0    0  0.88033618121E+03  0.64516826853E+03  0.16363664112E+03  0.14227586849E+04  0.89790391387E+03 0.  0.
         23    2    4    4    0    0  0.18832713006E+03  0.18137521804E+03 -0.34500145343E+03  0.44245082010E+03  0.91502173185E+02 0.  0.
         23    2    4    4    0    0  0.69200905115E+03  0.46379305049E+03  0.50863809455E+03  0.98030786483E+03  0.91160726510E+02 0.  0.
          4    1    3    3  502    0 -0.20749142324E+03 -0.12243173822E+03  0.85766276358E+02  0.25573047414E+03  0.00000000000E+00 0. -1.
         -3    1    3    3    0  502 -0.67284475797E+03 -0.52273653031E+03  0.41318616082E+03  0.94694052186E+03  0.00000000000E+00 0.  1.
         11    1    5    5    0    0  0.96293419297E+02  0.14656289869E+03 -0.25232822936E+03  0.30728267312E+03  0.00000000000E+00 0. -1.
        -11    1    5    5    0    0  0.92033710765E+02  0.34812319354E+02 -0.92673224077E+02  0.13516814698E+03  0.00000000000E+00 0.  1.
          4    1    6    6  503    0  0.66693184275E+03  0.42433106156E+03  0.48963813224E+03  0.92983892865E+03  0.00000000000E+00 0. -1.
         -4    1    6    6    0  503  0.25077208395E+02  0.39461988933E+02  0.18999962312E+02  0.50468936182E+02  0.00000000000E+00 0.  1.
<mgrwt>
<rscale>  0 0.25404442E+04</rscale>
<asrwt>0</asrwt>
<pdfrwt beam="1">  1        2 0.25292452E+00 0.25404442E+04</pdfrwt>
<pdfrwt beam="2">  1       -1 0.15098774E+00 0.25404442E+04</pdfrwt>
<totfact> 0.36558701E+00</totfact>
</mgrwt>
</event>
<event>
12    6  0.8914180E-008  0.3581500E+04  0.7818608E-02  0.8094743E-01
          2   -1    0    0  501    0  0.00000000000E+00  0.00000000000E+00  0.31171657250E+04  0.31171657250E+04  0.00000000000E+00 0. -1.
         -1   -1    0    0    0  501 -0.00000000000E+00 -0.00000000000E+00 -0.10287504775E+04  0.10287504775E+04  0.00000000000E+00 0.  1.
         24    2    1    2    0    0 -0.15581816380E+04  0.21969303519E+03  0.31192564093E+03  0.16061772324E+04  0.79452186087E+02 0.  0.
        254    2    1    2    0    0  0.15581816380E+04 -0.21969303519E+03  0.17764896065E+04  0.25397389701E+04  0.90452400034E+03 0.  0.
         23    2    4    4    0    0  0.35533672007E+03  0.23688534093E+03  0.14656573069E+03  0.46079467675E+03  0.92040052830E+02 0.  0.
         23    2    4    4    0    0  0.12028449179E+04 -0.45657837612E+03  0.16299238759E+04  0.20789442933E+04  0.10028870084E+03 0.  0.
          2    1    3    3  502    0 -0.40627781312E+01 -0.12506920081E+01 -0.29346290105E+01  0.51655052097E+01  0.00000000000E+00 0. -1.
         -1    1    3    3    0  502 -0.15541188598E+04  0.22094372719E+03  0.31486026994E+03  0.16010117272E+04  0.00000000000E+00 0.  1.
         11    1    5    5    0    0  0.35274172891E+03  0.22622043355E+03  0.12616725591E+03  0.43763065288E+03  0.00000000000E+00 0. -1.
        -11    1    5    5    0    0  0.25949911596E+01  0.10664907378E+02  0.20398474779E+02  0.23164023869E+02  0.00000000000E+00 0.  1.
          2    1    6    6  503    0  0.77413259615E+03 -0.26111655587E+03  0.10931692822E+04  0.13647278893E+04  0.00000000000E+00 0. -1.
         -2    1    6    6    0  503  0.42871232175E+03 -0.19546182024E+03  0.53675459362E+03  0.71421640401E+03  0.00000000000E+00 0.  1.
<mgrwt>
<rscale>  0 0.35815001E+04</rscale>
<asrwt>0</asrwt>
<pdfrwt beam="1">  1        2 0.47956396E+00 0.35815001E+04</pdfrwt>
<pdfrwt beam="2">  1       -1 0.15826930E+00 0.35815001E+04</pdfrwt>
<totfact> 0.40926660E-01</totfact>
</mgrwt>
</event>
<event>
12    6  0.8914180E-008  0.1183929E+04  0.7818608E-02  0.9127041E-01
          2   -1    0    0  501    0  0.00000000000E+00  0.00000000000E+00  0.43142337326E+03  0.43142337326E+03  0.00000000000E+00 0. -1.
         -1   -1    0    0    0  501 -0.00000000000E+00 -0.00000000000E+00 -0.81224595685E+03  0.81224595685E+03  0.00000000000E+00 0.  1.
         24    2    1    2    0    0 -0.21665665756E+03 -0.16904712733E+02  0.19004647021E+02  0.23249002251E+03  0.80402471244E+02 0.  0.
        254    2    1    2    0    0  0.21665665756E+03  0.16904712733E+02 -0.39982723061E+03  0.10111793076E+04  0.90299274704E+03 0.  0.
         23    2    4    4    0    0  0.43556385893E+03  0.31643353895E+03 -0.21921615845E+03  0.58842248689E+03  0.91319434802E+02 0.  0.
         23    2    4    4    0    0 -0.21890720137E+03 -0.29952882622E+03 -0.18061107217E+03  0.42275682071E+03  0.92005921102E+02 0.  0.
          4    1    3    3  502    0 -0.13555723205E+03 -0.11048069390E+02  0.50799506188E+02  0.14518406534E+03  0.00000000000E+00 0. -1.
         -3    1    3    3    0  502 -0.81099425506E+02 -0.58566433431E+01 -0.31794859167E+02  0.87305957174E+02  0.00000000000E+00 0.  1.
         11    1    5    5    0    0  0.37978335315E+03  0.30299492940E+03 -0.21376107263E+03  0.53078726317E+03  0.00000000000E+00 0. -1.
        -11    1    5    5    0    0  0.55780505783E+02  0.13438609550E+02 -0.54550858193E+01  0.57635223721E+02  0.00000000000E+00 0.  1.
          1    1    6    6  503    0 -0.11683437720E+03 -0.22968440241E+03 -0.13517225220E+03  0.29099267031E+03  0.00000000000E+00 0. -1.
         -1    1    6    6    0  503 -0.10207282417E+03 -0.69844423805E+02 -0.45438819966E+02  0.13176415040E+03  0.00000000000E+00 0.  1.
<mgrwt>
<rscale>  0 0.11839289E+04</rscale>
<asrwt>0</asrwt>
<pdfrwt beam="1">  1        2 0.66372827E-01 0.11839289E+04</pdfrwt>
<pdfrwt beam="2">  1       -1 0.12496092E+00 0.11839289E+04</pdfrwt>
<totfact> 0.46212562E+01</totfact>
</mgrwt>
</event>
<event>
12    6  0.8914180E-008  0.1686551E+04  0.7818608E-02  0.8769072E-01
          2   -1    0    0  501    0  0.00000000000E+00  0.00000000000E+00  0.37543044350E+04  0.37543044350E+04  0.00000000000E+00 0. -1.
         -1   -1    0    0    0  501 -0.00000000000E+00 -0.00000000000E+00 -0.18941283136E+03  0.18941283136E+03  0.00000000000E+00 0.  1.
         24    2    1    2    0    0  0.42284544991E+03  0.12283126133E+03  0.22120797855E+04  0.22568830035E+04  0.79612314710E+02 0.  0.
        254    2    1    2    0    0 -0.42284544991E+03 -0.12283126133E+03  0.13528118181E+04  0.16868342629E+04  0.90632456764E+03 0.  0.
         23    2    4    4    0    0  0.26349575611E+02  0.32406942722E+03  0.28828819731E+03  0.44462305313E+03  0.94150310007E+02 0.  0.
         23    2    4    4    0    0 -0.44919502552E+03 -0.44690068855E+03  0.10645236208E+04  0.12422112098E+04  0.91551919583E+02 0.  0.
          4    1    3    3  502    0  0.38161965597E+03  0.13265771503E+03  0.19520148083E+04  0.19933874293E+04  0.00000000000E+00 0. -1.
         -3    1    3    3    0  502  0.41225793940E+02 -0.98264536991E+01  0.26006497716E+03  0.26349557420E+03  0.00000000000E+00 0.  1.
         11    1    5    5    0    0  0.55985165437E+02  0.27638216679E+03  0.23263805961E+03  0.36557066027E+03  0.00000000000E+00 0. -1.
        -11    1    5    5    0    0 -0.29635589826E+02  0.47687260426E+02  0.55650137697E+02  0.79052392860E+02  0.00000000000E+00 0.  1.
          1    1    6    6  503    0 -0.45200692081E+03 -0.43486599208E+03  0.10506101127E+04  0.12236013634E+04  0.00000000000E+00 0. -1.
         -1    1    6    6    0  503  0.28118952900E+01 -0.12034696472E+02  0.13913508098E+02  0.18609846369E+02  0.00000000000E+00 0.  1.
<mgrwt>
<rscale>  0 0.16865508E+04</rscale>
<asrwt>0</asrwt>
<pdfrwt beam="1">  1        2 0.57758524E+00 0.16865508E+04</pdfrwt>
<pdfrwt beam="2">  1       -1 0.29140438E-01 0.16865508E+04</pdfrwt>
<totfact> 0.62781633E+00</totfact>
</mgrwt>
</event>
<event>
12    6  0.8914180E-008  0.2602328E+04  0.7818608E-02  0.8367411E-01
         -1   -1    0    0    0  501 -0.00000000000E+00  0.00000000000E+00  0.95458385614E+03  0.95458385614E+03  0.00000000000E+00 0.  1.
          2   -1    0    0  501    0  0.00000000000E+00 -0.00000000000E+00 -0.17735763688E+04  0.17735763688E+04  0.00000000000E+00 0. -1.
         24    2    1    2    0    0 -0.94576491322E+03 -0.60880454483E+03 -0.13908394970E+03  0.11365100387E+04  0.84832057841E+02 0.  0.
        254    2    1    2    0    0  0.94576491322E+03  0.60880454483E+03 -0.67990856293E+03  0.15916501862E+04  0.89775298192E+03 0.  0.
         23    2    4    4    0    0  0.87941151875E+03  0.81520833399E+03 -0.58714336491E+03  0.13383181401E+04  0.91808856762E+02 0.  0.
         23    2    4    4    0    0  0.66353394475E+02 -0.20640378916E+03 -0.92765198013E+02  0.25333204610E+03  0.92555099697E+02 0.  0.
          2    1    3    3  502    0 -0.70732862950E+03 -0.46345953805E+03 -0.14067448659E+03  0.85726182972E+03  0.00000000000E+00 0. -1.
         -1    1    3    3    0  502 -0.23843628372E+03 -0.14534500678E+03  0.15905368925E+01  0.27924820894E+03  0.00000000000E+00 0.  1.
         11    1    5    5    0    0  0.16123885168E+03  0.10502620569E+03 -0.85005511319E+02  0.21036731716E+03  0.00000000000E+00 0.  1.
        -11    1    5    5    0    0  0.71817266706E+03  0.71018212830E+03 -0.50213785359E+03  0.11279508230E+04  0.00000000000E+00 0. -1.
          3    1    6    6  503    0  0.88065126297E+02 -0.18628091465E+03 -0.78830168703E+02  0.22061332945E+03  0.00000000000E+00 0. -1.
         -3    1    6    6    0  503 -0.21711731822E+02 -0.20122874504E+02 -0.13935029310E+02  0.32718716645E+02  0.00000000000E+00 0.  1.
<mgrwt>
<rscale>  0 0.26023277E+04</rscale>
<asrwt>0</asrwt>
<pdfrwt beam="1">  1        2 0.27285790E+00 0.26023277E+04</pdfrwt>
<pdfrwt beam="2">  1       -1 0.14685906E+00 0.26023277E+04</pdfrwt>
<totfact> 0.33183168E+00</totfact>
</mgrwt>
</event>
<event>
12    6  0.8914180E-008  0.1763413E+04  0.7818608E-02  0.8726002E-01
          2   -1    0    0  501    0  0.00000000000E+00  0.00000000000E+00  0.14792347429E+04  0.14792347429E+04  0.00000000000E+00 0. -1.
         -3   -1    0    0    0  501 -0.00000000000E+00 -0.00000000000E+00 -0.52554604886E+03  0.52554604886E+03  0.00000000000E+00 0.  1.
         24    2    1    2    0    0 -0.42672721989E+03 -0.59749409407E+02  0.87048144013E+03  0.97483246178E+03  0.83031793979E+02 0.  0.
        254    2    1    2    0    0  0.42672721989E+03  0.59749409407E+02  0.83207253940E+02  0.10299483300E+04  0.93177465260E+03 0.  0.
         23    2    4    4    0    0 -0.10113718644E+03  0.66664126745E+01 -0.32441925959E+03  0.35474855954E+03  0.10161453127E+03 0.  0.
         23    2    4    4    0    0  0.52786440633E+03  0.53082996733E+02  0.40762651353E+03  0.67519977046E+03  0.90976477627E+02 0.  0.
          4    1    3    3  502    0 -0.39096911099E+03 -0.50549865231E+02  0.73075754473E+03  0.83031242542E+03  0.00000000000E+00 0. -1.
         -3    1    3    3    0  502 -0.35758108907E+02 -0.91995441761E+01  0.13972389540E+03  0.14452003636E+03  0.00000000000E+00 0.  1.
         11    1    5    5    0    0  0.92710039907E+01  0.28503810035E+02 -0.52425347640E+02  0.60389036892E+02  0.00000000000E+00 0.  1.
        -11    1    5    5    0    0 -0.11040819043E+03 -0.21837397361E+02 -0.27199391195E+03  0.29435952265E+03  0.00000000000E+00 0. -1.
          3    1    6    6  503    0  0.38193331644E+03  0.78024497958E+02  0.28363707693E+03  0.48209010765E+03  0.00000000000E+00 0. -1.
         -3    1    6    6    0  503  0.14593108989E+03 -0.24941501226E+02  0.12398943660E+03  0.19310966281E+03  0.00000000000E+00 0.  1.
<mgrwt>
<rscale>  0 0.17634126E+04</rscale>
<asrwt>0</asrwt>
<pdfrwt beam="1">  1        2 0.22757457E+00 0.17634126E+04</pdfrwt>
<pdfrwt beam="2">  1       -3 0.80853239E-01 0.17634126E+04</pdfrwt>
<totfact> 0.11178064E+01</totfact>
</mgrwt>
</event>
<event>
12    6  0.8914180E-008  0.1568969E+04  0.7818608E-02  0.8839841E-01
         -1   -1    0    0    0  501 -0.00000000000E+00  0.00000000000E+00  0.92884683642E+03  0.92884683642E+03  0.00000000000E+00 0.  1.
          2   -1    0    0  501    0  0.00000000000E+00 -0.00000000000E+00 -0.66255937502E+03  0.66255937502E+03  0.00000000000E+00 0. -1.
         24    2    1    2    0    0  0.38665609169E+03 -0.13437244250E+03  0.41223559740E+03  0.58533494130E+03  0.71553610639E+02 0.  0.
        254    2    1    2    0    0 -0.38665609169E+03  0.13437244250E+03 -0.14594813600E+03  0.10060712701E+04  0.90736963562E+03 0.  0.
         23    2    4    4    0    0  0.66878638095E+02  0.42643288331E+03 -0.12722970560E+03  0.45895340880E+03  0.90183575352E+02 0.  0.
         23    2    4    4    0    0 -0.45353472978E+03 -0.29206044081E+03 -0.18718430396E+02  0.54711786133E+03  0.89412092838E+02 0.  0.
          2    1    3    3  502    0  0.26426848639E+03 -0.96856750036E+02  0.32747072064E+03  0.43180566903E+03  0.00000000000E+00 0. -1.
         -1    1    3    3    0  502  0.12238760530E+03 -0.37515692461E+02  0.84764876762E+02  0.15352927227E+03  0.00000000000E+00 0.  1.
         11    1    5    5    0    0  0.13855991282E+02  0.92433348619E+02 -0.68092918757E+02  0.11563977696E+03  0.00000000000E+00 0.  1.
        -11    1    5    5    0    0  0.53022646813E+02  0.33399953469E+03 -0.59136786847E+02  0.34331363184E+03  0.00000000000E+00 0. -1.
          3    1    6    6  503    0 -0.41285159837E+03 -0.28803508085E+03 -0.32559218582E+01  0.50340962556E+03  0.00000000000E+00 0. -1.
         -3    1    6    6    0  503 -0.40683131410E+02 -0.40253599649E+01 -0.15462508538E+02  0.43708235774E+02  0.00000000000E+00 0.  1.
<mgrwt>
<rscale>  0 0.15689693E+04</rscale>
<asrwt>0</asrwt>
<pdfrwt beam="1">  1        2 0.10193221E+00 0.15689693E+04</pdfrwt>
<pdfrwt beam="2">  1       -1 0.14289951E+00 0.15689693E+04</pdfrwt>
<totfact> 0.19147645E+01</totfact>
</mgrwt>
</event>
<event>
12    6  0.8914180E-008  0.1547377E+04  0.7818608E-02  0.8853545E-01
         -1   -1    0    0    0  501 -0.00000000000E+00  0.00000000000E+00  0.15132213693E+04  0.15132213693E+04  0.00000000000E+00 0.  1.
          2   -1    0    0  501    0  0.00000000000E+00 -0.00000000000E+00 -0.39557599998E+03  0.39557599998E+03  0.00000000000E+00 0. -1.
         24    2    1    2    0    0  0.72424663010E+02  0.49515360215E+03  0.46745760341E+03  0.68969665055E+03  0.82112345319E+02 0.  0.
        254    2    1    2    0    0 -0.72424663010E+02 -0.49515360215E+03  0.65018776589E+03  0.12191007187E+04  0.90168731272E+03 0.  0.
         23    2    4    4    0    0 -0.31644442995E+03  0.12777722657E+03  0.25673963185E+03  0.43702022901E+03  0.92775778741E+02 0.  0.
         23    2    4    4    0    0  0.24401976694E+03 -0.62293082873E+03  0.39344813404E+03  0.78208048971E+03  0.96228863502E+02 0.  0.
          4    1    3    3  502    0  0.62253990474E+02  0.32612603938E+03  0.25874064732E+03  0.42092811199E+03  0.00000000000E+00 0. -1.
         -3    1    3    3    0  502  0.10170672536E+02  0.16902756278E+03  0.20871695609E+03  0.26876853855E+03  0.00000000000E+00 0.  1.
         11    1    5    5    0    0 -0.26477419524E+03  0.12566191718E+03  0.17826155033E+03  0.34303567193E+03  0.00000000000E+00 0.  1.
        -11    1    5    5    0    0 -0.51670234711E+02  0.21153093955E+01  0.78478081521E+02  0.93984557073E+02  0.00000000000E+00 0. -1.
          4    1    6    6  503    0  0.15007992667E+03 -0.49079763519E+03  0.28533748706E+03  0.58721698257E+03  0.00000000000E+00 0.  1.
         -4    1    6    6    0  503  0.93939840275E+02 -0.13213319353E+03  0.10811064697E+03  0.19486350714E+03  0.00000000000E+00 0. -1.
<mgrwt>
<rscale>  0 0.15473772E+04</rscale>
<asrwt>0</asrwt>
<pdfrwt beam="1">  1        2 0.60857847E-01 0.15473772E+04</pdfrwt>
<pdfrwt beam="2">  1       -1 0.23280328E+00 0.15473772E+04</pdfrwt>
<totfact> 0.80220605E+00</totfact>
</mgrwt>
</event>
<event>
12    6  0.8914180E-008  0.1406423E+04  0.7818608E-02  0.8949182E-01
          2   -1    0    0  501    0  0.00000000000E+00  0.00000000000E+00  0.18392980907E+04  0.18392980907E+04  0.00000000000E+00 0. -1.
         -1   -1    0    0    0  501 -0.00000000000E+00 -0.00000000000E+00 -0.26885611323E+03  0.26885611323E+03  0.00000000000E+00 0.  1.
         24    2    1    2    0    0 -0.87564662093E+02 -0.64400148104E+02  0.10518275848E+04  0.10605860292E+04  0.81771070575E+02 0.  0.
        254    2    1    2    0    0  0.87564662093E+02  0.64400148104E+02  0.51861439268E+03  0.10475681748E+04  0.90367208842E+03 0.  0.
         23    2    4    4    0    0  0.12899792980E+03  0.46838286420E+03  0.27325463600E+03  0.56433138451E+03  0.88197744219E+02 0.  0.
         23    2    4    4    0    0 -0.41433267712E+02 -0.40398271610E+03  0.24535975668E+03  0.48323679026E+03  0.91638609144E+02 0.  0.
          4    1    3    3  502    0 -0.85929730742E+02 -0.56455787559E+02  0.10448217393E+04  0.10498683925E+04  0.00000000000E+00 0. -1.
         -3    1    3    3    0  502 -0.16349313508E+01 -0.79443605458E+01  0.70058454624E+01  0.10717636663E+02  0.00000000000E+00 0.  1.
         11    1    5    5    0    0  0.14107020879E+03  0.40344741630E+03  0.24341907051E+03  0.49185715956E+03  0.00000000000E+00 0. -1.
        -11    1    5    5    0    0 -0.12072278990E+02  0.64935447903E+02  0.29835565482E+02  0.72474224950E+02  0.00000000000E+00 0.  1.
          2    1    6    6  503    0 -0.30440211692E+02 -0.39410849619E+03  0.21619510432E+03  0.45054238024E+03  0.00000000000E+00 0. -1.
         -2    1    6    6    0  503 -0.10993056020E+02 -0.98742199041E+01  0.29164652364E+02  0.32694410025E+02  0.00000000000E+00 0.  1.
<mgrwt>
<rscale>  0 0.14064232E+04</rscale>
<asrwt>0</asrwt>
<pdfrwt beam="1">  1        2 0.28296893E+00 0.14064232E+04</pdfrwt>
<pdfrwt beam="2">  1       -1 0.41362480E-01 0.14064232E+04</pdfrwt>
<totfact> 0.52093562E+01</totfact>
</mgrwt>
</event>
<event>
12    6  0.8914180E-008  0.1407098E+04  0.7818608E-02  0.8948697E-01
         -1   -1    0    0    0  501 -0.00000000000E+00  0.00000000000E+00  0.21411598473E+03  0.21411598473E+03  0.00000000000E+00 0.  1.
          2   -1    0    0  501    0  0.00000000000E+00 -0.00000000000E+00 -0.23117425772E+04  0.23117425772E+04  0.00000000000E+00 0. -1.
         24    2    1    2    0    0 -0.29547561337E+03 -0.16087098632E+03 -0.20615415957E+03  0.40270980413E+03  0.80562624683E+02 0.  0.
        254    2    1    2    0    0  0.29547561337E+03  0.16087098632E+03 -0.18914724329E+04  0.21231487579E+04  0.90382928202E+03 0.  0.
         23    2    4    4    0    0  0.37131365893E+03  0.48467755973E+03 -0.12792505198E+04  0.14203871355E+04  0.90727900958E+02 0.  0.
         23    2    4    4    0    0 -0.75838045559E+02 -0.32380657341E+03 -0.61222191317E+03  0.70276162240E+03  0.91957168348E+02 0.  0.
          4    1    3    3  502    0 -0.10620342415E+02 -0.15682205459E+02 -0.35639884115E+02  0.40359937820E+02  0.00000000000E+00 0. -1.
         -3    1    3    3    0  502 -0.28485527095E+03 -0.14518878087E+03 -0.17051427545E+03  0.36234986631E+03  0.00000000000E+00 0.  1.
         11    1    5    5    0    0  0.49883399516E+02  0.12647775583E+03 -0.28791087060E+03  0.31839856418E+03  0.00000000000E+00 0. -1.
        -11    1    5    5    0    0  0.32143025941E+03  0.35819980390E+03 -0.99133964918E+03  0.11019885713E+04  0.00000000000E+00 0.  1.
          1    1    6    6  503    0  0.16799686931E+02 -0.10739191132E+03 -0.21813870426E+03  0.24372063186E+03  0.00000000000E+00 0. -1.
         -1    1    6    6    0  503 -0.92637732490E+02 -0.21641466209E+03 -0.39408320891E+03  0.45904099053E+03  0.00000000000E+00 0.  1.
<mgrwt>
<rscale>  0 0.14070978E+04</rscale>
<asrwt>0</asrwt>
<pdfrwt beam="1">  1        2 0.35565272E+00 0.14070978E+04</pdfrwt>
<pdfrwt beam="2">  1       -1 0.32940920E-01 0.14070978E+04</pdfrwt>
<totfact> 0.42873149E+01</totfact>
</mgrwt>
</event>
<event>
12    6  0.8914180E-008  0.1573877E+04  0.7818608E-02  0.8836759E-01
         -1   -1    0    0    0  501 -0.00000000000E+00  0.00000000000E+00  0.19121558446E+03  0.19121558446E+03  0.00000000000E+00 0.  1.
          2   -1    0    0  501    0  0.00000000000E+00 -0.00000000000E+00 -0.32386083748E+04  0.32386083748E+04  0.00000000000E+00 0. -1.
         24    2    1    2    0    0 -0.48974161361E+03 -0.16815508810E+02 -0.14290493121E+04  0.15128148045E+04  0.79354187175E+02 0.  0.
        254    2    1    2    0    0  0.48974161361E+03  0.16815508810E+02 -0.16183434782E+04  0.19170091547E+04  0.90319370915E+03 0.  0.
         23    2    4    4    0    0 -0.11236325494E+03 -0.29758520879E+03 -0.39926008581E+03  0.51841622668E+03  0.90356573750E+02 0.  0.
         23    2    4    4    0    0  0.60210486855E+03  0.31440071760E+03 -0.12190833924E+04  0.13985929280E+04  0.92302636228E+02 0.  0.
          4    1    3    3  502    0 -0.39582651034E+03 -0.91419326555E+01 -0.10482736219E+04  0.11205533399E+04  0.00000000000E+00 0. -1.
         -3    1    3    3    0  502 -0.93915103274E+02 -0.76735761548E+01 -0.38077569021E+03  0.39226146465E+03  0.00000000000E+00 0.  1.
         11    1    5    5    0    0 -0.23274669509E+02 -0.11759909719E+03 -0.21347798088E+03  0.24483485500E+03  0.00000000000E+00 0. -1.
        -11    1    5    5    0    0 -0.89088585432E+02 -0.17998611160E+03 -0.18578210492E+03  0.27358137168E+03  0.00000000000E+00 0.  1.
          1    1    6    6  503    0  0.81927470097E+02  0.19624333268E+02 -0.10929858752E+03  0.13799784798E+03  0.00000000000E+00 0. -1.
         -1    1    6    6    0  503  0.52017739846E+03  0.29477638433E+03 -0.11097848049E+04  0.12605950800E+04  0.00000000000E+00 0.  1.
<mgrwt>
<rscale>  0 0.15738772E+04</rscale>
<asrwt>0</asrwt>
<pdfrwt beam="1">  1        2 0.49824738E+00 0.15738772E+04</pdfrwt>
<pdfrwt beam="2">  1       -1 0.29417786E-01 0.15738772E+04</pdfrwt>
<totfact> 0.14262033E+01</totfact>
</mgrwt>
</event>
<event>
12    6  0.8914180E-008  0.1267692E+04  0.7818608E-02  0.9055585E-01
         -1   -1    0    0    0  501 -0.00000000000E+00  0.00000000000E+00  0.43821353238E+03  0.43821353238E+03  0.00000000000E+00 0.  1.
          2   -1    0    0  501    0  0.00000000000E+00 -0.00000000000E+00 -0.91681544035E+03  0.91681544035E+03  0.00000000000E+00 0. -1.
         24    2    1    2    0    0  0.17607684959E+02  0.27862899092E+03 -0.12541710282E+03  0.31736248600E+03  0.83936599221E+02 0.  0.
        254    2    1    2    0    0 -0.17607684959E+02 -0.27862899092E+03 -0.35318480515E+03  0.10376664867E+04  0.93491608499E+03 0.  0.
         23    2    4    4    0    0 -0.14032126108E+03 -0.42367131190E+03 -0.57241479122E+03  0.73104038374E+03  0.87028228805E+02 0.  0.
         23    2    4    4    0    0  0.12271357612E+03  0.14504232098E+03  0.21922998607E+03  0.30662610301E+03  0.99307016941E+02 0.  0.
          2    1    3    3  502    0  0.39172448499E+02  0.26028477640E+03 -0.11289101063E+03  0.28640360653E+03  0.00000000000E+00 0. -1.
         -1    1    3    3    0  502 -0.21564763540E+02  0.18344214515E+02 -0.12526092187E+02  0.30958879473E+02  0.00000000000E+00 0.  1.
         11    1    5    5    0    0 -0.99453028411E+02 -0.19398296386E+03 -0.23190782658E+03  0.31827902091E+03  0.00000000000E+00 0.  1.
        -11    1    5    5    0    0 -0.40868232667E+02 -0.22968834804E+03 -0.34050696464E+03  0.41276136282E+03  0.00000000000E+00 0. -1.
          1    1    6    6  503    0  0.60818214589E+02  0.46362738647E+02  0.15682627632E+03  0.17447876577E+03  0.00000000000E+00 0. -1.
         -1    1    6    6    0  503  0.61895361531E+02  0.98679582332E+02  0.62403709753E+02  0.13214733724E+03  0.00000000000E+00 0.  1.
<mgrwt>
<rscale>  0 0.12676923E+04</rscale>
<asrwt>0</asrwt>
<pdfrwt beam="1">  1        2 0.14104853E+00 0.12676923E+04</pdfrwt>
<pdfrwt beam="2">  1       -1 0.67417467E-01 0.12676923E+04</pdfrwt>
<totfact> 0.71367149E+01</totfact>
</mgrwt>
</event>
<event>
12    6  0.8914180E-008  0.3431375E+04  0.7818608E-02  0.8130248E-01
         -1   -1    0    0    0  501 -0.00000000000E+00  0.00000000000E+00  0.12200186895E+04  0.12200186895E+04  0.00000000000E+00 0.  1.
          2   -1    0    0  501    0  0.00000000000E+00 -0.00000000000E+00 -0.24127369303E+04  0.24127369303E+04  0.00000000000E+00 0. -1.
         24    2    1    2    0    0 -0.31279093364E+03 -0.15652817080E+04 -0.54295856486E+03  0.16879043019E+04  0.79195552818E+02 0.  0.
        254    2    1    2    0    0  0.31279093364E+03  0.15652817080E+04 -0.64975967589E+03  0.19448513179E+04  0.90128464917E+03 0.  0.
         23    2    4    4    0    0 -0.18471055870E+03  0.10745425935E+04 -0.57395946272E+03  0.12352969515E+04  0.88143733777E+02 0.  0.
         23    2    4    4    0    0  0.49750149234E+03  0.49073911448E+03 -0.75800213171E+02  0.70955436640E+03  0.96897436496E+02 0.  0.
          4    1    3    3  502    0 -0.20533204630E+01 -0.10247568687E+03 -0.27592586977E+02  0.10614534083E+03  0.00000000000E+00 0. -1.
         -3    1    3    3    0  502 -0.31073761318E+03 -0.14628060211E+04 -0.51536597788E+03  0.15817589610E+04  0.00000000000E+00 0.  1.
         11    1    5    5    0    0 -0.14845664726E+03  0.69945528727E+03 -0.34014994695E+03  0.79182009410E+03  0.00000000000E+00 0.  1.
        -11    1    5    5    0    0 -0.36253911436E+02  0.37508730624E+03 -0.23380951577E+03  0.44347685742E+03  0.00000000000E+00 0. -1.
          2    1    6    6  503    0  0.33908663170E+02  0.18796607563E+02  0.15461857516E+02  0.41739417002E+02  0.00000000000E+00 0. -1.
         -2    1    6    6    0  503  0.46359282917E+03  0.47194250691E+03 -0.91262070687E+02  0.66781494939E+03  0.00000000000E+00 0.  1.
<mgrwt>
<rscale>  0 0.34313753E+04</rscale>
<asrwt>0</asrwt>
<pdfrwt beam="1">  1        2 0.37119030E+00 0.34313753E+04</pdfrwt>
<pdfrwt beam="2">  1       -1 0.18769518E+00 0.34313753E+04</pdfrwt>
<totfact> 0.67337828E-01</totfact>
</mgrwt>
</event>
<event>
12    6  0.8914180E-008  0.2473609E+04  0.7818608E-02  0.8412448E-01
         -1   -1    0    0    0  501 -0.00000000000E+00  0.00000000000E+00  0.61709146339E+03  0.61709146339E+03  0.00000000000E+00 0.  1.
          2   -1    0    0  501    0  0.00000000000E+00 -0.00000000000E+00 -0.24788633733E+04  0.24788633733E+04  0.00000000000E+00 0. -1.
         24    2    1    2    0    0  0.52968017124E+03  0.26404542298E+03  0.30785691947E+03  0.67192553807E+03  0.80168426717E+02 0.  0.
        254    2    1    2    0    0 -0.52968017124E+03 -0.26404542298E+03 -0.21696288294E+04  0.24240292986E+04  0.90462573151E+03 0.  0.
         23    2    4    4    0    0 -0.41941472543E+01 -0.20830275481E+03 -0.43300600952E+02  0.23116292652E+03  0.90297995659E+02 0.  0.
         23    2    4    4    0    0 -0.52548602399E+03 -0.55742668166E+02 -0.21263282284E+04  0.21928663721E+04  0.90268402262E+02 0.  0.
          2    1    3    3  502    0  0.24023810153E+03  0.15153026044E+03  0.11540562718E+03  0.30658477464E+03  0.00000000000E+00 0. -1.
         -1    1    3    3    0  502  0.28944206971E+03  0.11251516254E+03  0.19245129229E+03  0.36534076343E+03  0.00000000000E+00 0.  1.
         11    1    5    5    0    0 -0.35587780113E+02 -0.48605958502E+02  0.74027930559E+01  0.60694568458E+02  0.00000000000E+00 0.  1.
        -11    1    5    5    0    0  0.31393632859E+02 -0.15969679631E+03 -0.50703394008E+02  0.17046835806E+03  0.00000000000E+00 0. -1.
          1    1    6    6  503    0 -0.47720527093E+03 -0.23312617232E+02 -0.18787903869E+04  0.19385875442E+04  0.00000000000E+00 0. -1.
         -1    1    6    6    0  503 -0.48280753055E+02 -0.32430050934E+02 -0.24753784152E+03  0.25427882787E+03  0.00000000000E+00 0.  1.
<mgrwt>
<rscale>  0 0.24736090E+04</rscale>
<asrwt>0</asrwt>
<pdfrwt beam="1">  1        2 0.38136359E+00 0.24736090E+04</pdfrwt>
<pdfrwt beam="2">  1       -1 0.94937149E-01 0.24736090E+04</pdfrwt>
<totfact> 0.39030706E+00</totfact>
</mgrwt>
</event>
<event>
12    6  0.8914180E-008  0.1400114E+04  0.7818608E-02  0.8953736E-01
          2   -1    0    0  501    0  0.00000000000E+00  0.00000000000E+00  0.12407834070E+04  0.12407834070E+04  0.00000000000E+00 0. -1.
         -1   -1    0    0    0  501 -0.00000000000E+00 -0.00000000000E+00 -0.39497595981E+03  0.39497595981E+03  0.00000000000E+00 0.  1.
         24    2    1    2    0    0 -0.19916520840E+03 -0.28281286494E+03  0.49422227256E+03  0.60925882483E+03  0.85385971479E+02 0.  0.
        254    2    1    2    0    0  0.19916520840E+03  0.28281286494E+03  0.35158517467E+03  0.10265005420E+04  0.90024515046E+03 0.  0.
         23    2    4    4    0    0 -0.11945063228E+03  0.70668087338E+02 -0.25434299819E+03  0.30374559737E+03  0.91151495186E+02 0.  0.
         23    2    4    4    0    0  0.31861584068E+03  0.21214477760E+03  0.60592817286E+03  0.72275494466E+03  0.93296831457E+02 0.  0.
          2    1    3    3  502    0 -0.19586628458E+03 -0.27557279003E+03  0.49677145769E+03  0.60090418972E+03  0.00000000000E+00 0. -1.
         -1    1    3    3    0  502 -0.32989238162E+01 -0.72400749102E+01 -0.25491851309E+01  0.83546351136E+01  0.00000000000E+00 0.  1.
         11    1    5    5    0    0 -0.13265605035E+03  0.54910077270E+02 -0.23574340050E+03  0.27602118607E+03  0.00000000000E+00 0. -1.
        -11    1    5    5    0    0  0.13205418071E+02  0.15758010069E+02 -0.18599597688E+02  0.27724411300E+02  0.00000000000E+00 0.  1.
          4    1    6    6  503    0  0.27892600253E+03  0.20425344679E+03  0.48778900764E+03  0.59787732972E+03  0.00000000000E+00 0. -1.
         -4    1    6    6    0  503  0.39689838155E+02  0.78913308155E+01  0.11813916522E+03  0.12487761494E+03  0.00000000000E+00 0.  1.
<mgrwt>
<rscale>  0 0.14001137E+04</rscale>
<asrwt>0</asrwt>
<pdfrwt beam="1">  1        2 0.19088975E+00 0.14001137E+04</pdfrwt>
<pdfrwt beam="2">  1       -1 0.60765533E-01 0.14001137E+04</pdfrwt>
<totfact> 0.54585434E+01</totfact>
</mgrwt>
</event>
<event>
12    6  0.8914180E-008  0.1656150E+04  0.7818608E-02  0.8786776E-01
         -1   -1    0    0    0  501 -0.00000000000E+00  0.00000000000E+00  0.40410725496E+03  0.40410725496E+03  0.00000000000E+00 0.  1.
          2   -1    0    0  501    0  0.00000000000E+00 -0.00000000000E+00 -0.16968475724E+04  0.16968475724E+04  0.00000000000E+00 0. -1.
         24    2    1    2    0    0 -0.36659983570E+03  0.17668889673E+03 -0.94876543861E+03  0.10353585921E+04  0.78721985925E+02 0.  0.
        254    2    1    2    0    0  0.36659983570E+03 -0.17668889673E+03 -0.34397487880E+03  0.10655962352E+04  0.92280128599E+03 0.  0.
         23    2    4    4    0    0 -0.28277665477E+03 -0.36363742613E+02  0.22447329860E+02  0.30139446918E+03  0.95130358859E+02 0.  0.
         23    2    4    4    0    0  0.64937649047E+03 -0.14032515411E+03 -0.36642220866E+03  0.76420176600E+03  0.91422803019E+02 0.  0.
          4    1    3    3  502    0 -0.23913654828E+03  0.72714330820E+02 -0.56338560619E+03  0.61634162921E+03  0.00000000000E+00 0. -1.
         -3    1    3    3    0  502 -0.12746328742E+03  0.10397456591E+03 -0.38537983242E+03  0.41901696294E+03  0.00000000000E+00 0.  1.
         11    1    5    5    0    0 -0.17270473053E+03  0.78996084183E+01 -0.22878416752E+02  0.17439251622E+03  0.00000000000E+00 0. -1.
        -11    1    5    5    0    0 -0.11007192424E+03 -0.44263351031E+02  0.45325746612E+02  0.12700195296E+03  0.00000000000E+00 0.  1.
          4    1    6    6  503    0  0.64534660543E+03 -0.14645589169E+03 -0.35594418365E+03  0.75141056102E+03  0.00000000000E+00 0. -1.
         -4    1    6    6    0  503  0.40298850402E+01  0.61307375726E+01 -0.10478025012E+02  0.12791204977E+02  0.00000000000E+00 0.  1.
<mgrwt>
<rscale>  0 0.16561503E+04</rscale>
<asrwt>0</asrwt>
<pdfrwt beam="1">  1        2 0.26105347E+00 0.16561503E+04</pdfrwt>
<pdfrwt beam="2">  1       -1 0.62170347E-01 0.16561503E+04</pdfrwt>
<totfact> 0.28104505E+01</totfact>
</mgrwt>
</event>
<event>
12    6  0.9463855E-008  0.2771166E+04  0.7818608E-02  0.8312277E-01
         -1   -1    0    0    0  501 -0.00000000000E+00  0.00000000000E+00  0.13941454141E+04  0.13941454141E+04  0.00000000000E+00 0.  1.
          2   -1    0    0  501    0  0.00000000000E+00 -0.00000000000E+00 -0.13770729557E+04  0.13770729557E+04  0.00000000000E+00 0. -1.
         24    2    1    2    0    0  0.19235287370E+03  0.89329599482E+03  0.84110006318E+03  0.12445220580E+04  0.80052945604E+02 0.  0.
        254    2    1    2    0    0 -0.19235287370E+03 -0.89329599482E+03 -0.82402760481E+03  0.15266963118E+04  0.90377141616E+03 0.  0.
         23    2    4    4    0    0  0.13590051568E+03 -0.32915372258E+03  0.10974639793E+03  0.38385882473E+03  0.92153145424E+02 0.  0.
         23    2    4    4    0    0 -0.32825338938E+03 -0.56414227224E+03 -0.93377400274E+03  0.11428374871E+04  0.90204449701E+02 0.  0.
          4    1    3    3  502    0  0.56517129487E+02  0.23190230857E+03  0.26811459620E+03  0.35896838766E+03  0.00000000000E+00 0. -1.
         -3    1    3    3    0  502  0.13583574421E+03  0.66139368625E+03  0.57298546698E+03  0.88555367031E+03  0.00000000000E+00 0.  1.
         11    1    5    5    0    0  0.13491045830E+03 -0.32717151640E+03  0.91573404498E+02  0.36555125675E+03  0.00000000000E+00 0. -1.
        -11    1    5    5    0    0  0.99005737816E+00 -0.19822061880E+01  0.18172993435E+02  0.18307567981E+02  0.00000000000E+00 0.  1.
          2    1    6    6  503    0 -0.23495197274E+03 -0.45027239664E+03 -0.66971303911E+03  0.84051366165E+03  0.00000000000E+00 0. -1.
         -2    1    6    6    0  503 -0.93301416641E+02 -0.11386987560E+03 -0.26406096363E+03  0.30232382544E+03  0.00000000000E+00 0.  1.
<mgrwt>
<rscale>  0 0.27711658E+04</rscale>
<asrwt>0</asrwt>
<pdfrwt beam="1">  1        2 0.21185738E+00 0.27711658E+04</pdfrwt>
<pdfrwt beam="2">  1       -1 0.21448391E+00 0.27711658E+04</pdfrwt>
<totfact> 0.17764106E+00</totfact>
</mgrwt>
</event>
<event>
12    6  0.8914180E-008  0.2693124E+04  0.7818608E-02  0.8337240E-01
         -3   -1    0    0    0  501 -0.00000000000E+00  0.00000000000E+00  0.84745680701E+03  0.84745680701E+03  0.00000000000E+00 0.  1.
          2   -1    0    0  501    0  0.00000000000E+00 -0.00000000000E+00 -0.21396120494E+04  0.21396120494E+04  0.00000000000E+00 0. -1.
         24    2    1    2    0    0  0.12833493963E+03  0.47384918334E+02  0.74436860332E+03  0.76110092730E+03  0.80466245804E+02 0.  0.
        254    2    1    2    0    0 -0.12833493963E+03 -0.47384918334E+02 -0.20365238457E+04  0.22259679291E+04  0.88813774837E+03 0.  0.
         23    2    4    4    0    0 -0.43489331175E+03  0.17912248713E+03 -0.84400914113E+03  0.97054598906E+03  0.91602557665E+02 0.  0.
         23    2    4    4    0    0  0.30655837212E+03 -0.22650740546E+03 -0.11925147046E+04  0.12554219401E+04  0.93323559083E+02 0.  0.
          4    1    3    3  502    0  0.27170047014E+02  0.44215499384E+02  0.16535633434E+03  0.17330879709E+03  0.00000000000E+00 0. -1.
         -3    1    3    3    0  502  0.10116489262E+03  0.31694189499E+01  0.57901226897E+03  0.58779213021E+03  0.00000000000E+00 0.  1.
         11    1    5    5    0    0 -0.17145574670E+03  0.76618373302E+02 -0.24972741182E+03  0.31245996290E+03  0.00000000000E+00 0.  1.
        -11    1    5    5    0    0 -0.26343756505E+03  0.10250411383E+03 -0.59428172931E+03  0.65808602616E+03  0.00000000000E+00 0. -1.
          3    1    6    6  503    0  0.18513341095E+03 -0.14631803720E+03 -0.58670700454E+03  0.63238315682E+03  0.00000000000E+00 0. -1.
         -3    1    6    6    0  503  0.12142496117E+03 -0.80189368262E+02 -0.60580770006E+03  0.62303878324E+03  0.00000000000E+00 0.  1.
<mgrwt>
<rscale>  0 0.26931237E+04</rscale>
<asrwt>0</asrwt>
<pdfrwt beam="1">  1        2 0.32917108E+00 0.26931237E+04</pdfrwt>
<pdfrwt beam="2">  1       -3 0.13037797E+00 0.26931237E+04</pdfrwt>
<totfact> 0.14367586E+00</totfact>
</mgrwt>
</event>
<event>
12    6  0.8914180E-008  0.2240487E+04  0.7818608E-02  0.8501763E-01
         -1   -1    0    0    0  501 -0.00000000000E+00  0.00000000000E+00  0.65866676517E+03  0.65866676517E+03  0.00000000000E+00 0.  1.
          2   -1    0    0  501    0  0.00000000000E+00 -0.00000000000E+00 -0.19052816283E+04  0.19052816283E+04  0.00000000000E+00 0. -1.
         24    2    1    2    0    0 -0.95014776569E+02 -0.81068296749E+03 -0.10503436950E+04  0.13328389484E+04  0.83684546753E+02 0.  0.
        254    2    1    2    0    0  0.95014776569E+02  0.81068296749E+03 -0.19627116819E+03  0.12311094451E+04  0.90048509856E+03 0.  0.
         23    2    4    4    0    0  0.75153076644E+02  0.78770527486E+03 -0.48132041366E+03  0.93063081416E+03  0.90976846972E+02 0.  0.
         23    2    4    4    0    0  0.19861699925E+02  0.22977692623E+02  0.28504924547E+03  0.30047863090E+03  0.90065941413E+02 0.  0.
          4    1    3    3  502    0 -0.57367290129E+02 -0.45935463641E+03 -0.66206664591E+03  0.80785514270E+03  0.00000000000E+00 0. -1.
         -3    1    3    3    0  502 -0.37647486440E+02 -0.35132833108E+03 -0.38827704905E+03  0.52498380572E+03  0.00000000000E+00 0.  1.
         11    1    5    5    0    0  0.15613735663E+02  0.41070166719E+03 -0.20398696113E+03  0.45883584045E+03  0.00000000000E+00 0. -1.
        -11    1    5    5    0    0  0.59539340982E+02  0.37700360767E+03 -0.27733345254E+03  0.47179497371E+03  0.00000000000E+00 0.  1.
          4    1    6    6  503    0  0.45292867009E+01  0.39375674749E+02  0.27124303723E+03  0.27412359156E+03  0.00000000000E+00 0. -1.
         -4    1    6    6    0  503  0.15332413224E+02 -0.16397982125E+02  0.13806208240E+02  0.26355039347E+02  0.00000000000E+00 0.  1.
<mgrwt>
<rscale>  0 0.22404872E+04</rscale>
<asrwt>0</asrwt>
<pdfrwt beam="1">  1        2 0.29312025E+00 0.22404872E+04</pdfrwt>
<pdfrwt beam="2">  1       -1 0.10133335E+00 0.22404872E+04</pdfrwt>
<totfact> 0.72309394E+00</totfact>
</mgrwt>
</event>
<event>
12    6  0.8914180E-008  0.2042594E+04  0.7818608E-02  0.8586962E-01
         -1   -1    0    0    0  501 -0.00000000000E+00  0.00000000000E+00  0.39779864573E+03  0.39779864573E+03  0.00000000000E+00 0.  1.
          2   -1    0    0  501    0  0.00000000000E+00 -0.00000000000E+00 -0.26220488013E+04  0.26220488013E+04  0.00000000000E+00 0. -1.
         24    2    1    2    0    0  0.12594077041E+03  0.33777695221E+03 -0.19946781527E+04  0.20286348395E+04  0.81633521878E+02 0.  0.
        254    2    1    2    0    0 -0.12594077041E+03 -0.33777695221E+03 -0.22957200291E+03  0.99121260762E+03  0.89434041722E+03 0.  0.
         23    2    4    4    0    0 -0.87902792959E+02 -0.63689824837E+03 -0.14572558489E+03  0.66553289669E+03  0.91278752703E+02 0.  0.
         23    2    4    4    0    0 -0.38037977455E+02  0.29912129616E+03 -0.83846418022E+02  0.32567971093E+03  0.90092256861E+02 0.  0.
          4    1    3    3  502    0  0.12083182741E+03  0.32055578010E+03 -0.17448274584E+04  0.17781392516E+04  0.00000000000E+00 0. -1.
         -3    1    3    3    0  502  0.51089430073E+01  0.17221172112E+02 -0.24985069434E+03  0.25049558785E+03  0.00000000000E+00 0.  1.
         11    1    5    5    0    0 -0.87346710041E+02 -0.37837130796E+03 -0.58599593678E+02  0.39271899218E+03  0.00000000000E+00 0. -1.
        -11    1    5    5    0    0 -0.55608291770E+00 -0.25852694041E+03 -0.87125991214E+02  0.27281390451E+03  0.00000000000E+00 0.  1.
          4    1    6    6  503    0 -0.31603386403E+02  0.61978535399E+02  0.10535540098E+02  0.70364127845E+02  0.00000000000E+00 0.  1.
         -4    1    6    6    0  503 -0.64345910526E+01  0.23714276076E+03 -0.94381958120E+02  0.25531558308E+03  0.00000000000E+00 0. -1.
<mgrwt>
<rscale>  0 0.20425939E+04</rscale>
<asrwt>0</asrwt>
<pdfrwt beam="1">  1        2 0.40339212E+00 0.20425939E+04</pdfrwt>
<pdfrwt beam="2">  1       -1 0.61199792E-01 0.20425939E+04</pdfrwt>
<totfact> 0.84349153E+00</totfact>
</mgrwt>
</event>
<event>
12    6  0.8914180E-008  0.1322109E+04  0.7818608E-02  0.9012214E-01
          2   -1    0    0  501    0  0.00000000000E+00  0.00000000000E+00  0.10532300015E+04  0.10532300015E+04  0.00000000000E+00 0. -1.
         -1   -1    0    0    0  501 -0.00000000000E+00 -0.00000000000E+00 -0.41490755408E+03  0.41490755408E+03  0.00000000000E+00 0.  1.
         24    2    1    2    0    0 -0.12365592010E+03  0.31028755631E+03  0.98218877869E+02  0.35745863977E+03  0.80997388824E+02 0.  0.
        254    2    1    2    0    0  0.12365592010E+03 -0.31028755631E+03  0.54010356960E+03  0.11106789159E+04  0.91122260401E+03 0.  0.
         23    2    4    4    0    0  0.43045744229E+03 -0.44242543584E+03  0.35579763393E+03  0.71857764787E+03  0.93423786109E+02 0.  0.
         23    2    4    4    0    0 -0.30680152219E+03  0.13213787953E+03  0.18430593567E+03  0.39210126798E+03  0.90482778506E+02 0.  0.
          2    1    3    3  502    0 -0.18240712694E+02  0.90061338684E+02 -0.57906458221E+01  0.92072253716E+02  0.00000000000E+00 0. -1.
         -1    1    3    3    0  502 -0.10541520741E+03  0.22022621763E+03  0.10400952369E+03  0.26538638605E+03  0.00000000000E+00 0.  1.
         11    1    5    5    0    0  0.64116382778E+01  0.39674987979E+01  0.14149468556E+00  0.75412315217E+01  0.00000000000E+00 0.  1.
        -11    1    5    5    0    0  0.42404580401E+03 -0.44639293464E+03  0.35565613924E+03  0.71103641635E+03  0.00000000000E+00 0. -1.
          4    1    6    6  503    0 -0.27043484873E+03  0.89771481116E+02  0.17785364250E+03  0.33589558553E+03  0.00000000000E+00 0. -1.
         -4    1    6    6    0  503 -0.36366673462E+02  0.42366398410E+02  0.64522931752E+01  0.56205682454E+02  0.00000000000E+00 0.  1.
<mgrwt>
<rscale>  0 0.13221090E+04</rscale>
<asrwt>0</asrwt>
<pdfrwt beam="1">  1        2 0.16203538E+00 0.13221090E+04</pdfrwt>
<pdfrwt beam="2">  1       -1 0.63831932E-01 0.13221090E+04</pdfrwt>
<totfact> 0.64741505E+01</totfact>
</mgrwt>
</event>
<event>
12    6  0.8914180E-008  0.2987648E+04  0.7818608E-02  0.8247267E-01
          2   -1    0    0  501    0  0.00000000000E+00  0.00000000000E+00  0.21739058574E+04  0.21739058574E+04  0.00000000000E+00 0. -1.
         -1   -1    0    0    0  501 -0.00000000000E+00 -0.00000000000E+00 -0.10264980594E+04  0.10264980594E+04  0.00000000000E+00 0.  1.
         24    2    1    2    0    0  0.71239939383E+03 -0.27869494159E+03  0.17206858803E+04  0.18848036421E+04  0.80877091660E+02 0.  0.
        254    2    1    2    0    0 -0.71239939383E+03  0.27869494159E+03 -0.57327808227E+03  0.13156002746E+04  0.90386534187E+03 0.  0.
         23    2    4    4    0    0 -0.81710535628E+03  0.22338556855E+03 -0.71324999867E+03  0.11112230634E+04  0.92351830173E+02 0.  0.
         23    2    4    4    0    0  0.10470596246E+03  0.55309373036E+02  0.13997191640E+03  0.20437721124E+03  0.90307484596E+02 0.  0.
          4    1    3    3  502    0  0.63075327331E+03 -0.22557735015E+03  0.14541323503E+04  0.16010108447E+04  0.00000000000E+00 0. -1.
         -3    1    3    3    0  502  0.81646120522E+02 -0.53117591434E+02  0.26655353001E+03  0.28379279743E+03  0.00000000000E+00 0.  1.
         11    1    5    5    0    0 -0.12638445541E+03  0.24668190816E+01 -0.11986620152E+03  0.17420396675E+03  0.00000000000E+00 0. -1.
        -11    1    5    5    0    0 -0.69072090088E+03  0.22091874947E+03 -0.59338379715E+03  0.93701909666E+03  0.00000000000E+00 0.  1.
          2    1    6    6  503    0  0.17506606916E+02  0.52304367272E+02  0.84754909026E+02  0.10112182121E+03  0.00000000000E+00 0. -1.
         -2    1    6    6    0  503  0.87199355540E+02  0.30050057645E+01  0.55217007372E+02  0.10325539003E+03  0.00000000000E+00 0.  1.
<mgrwt>
<rscale>  0 0.29876480E+04</rscale>
<asrwt>0</asrwt>
<pdfrwt beam="1">  1        2 0.33444705E+00 0.29876480E+04</pdfrwt>
<pdfrwt beam="2">  1       -1 0.15792278E+00 0.29876480E+04</pdfrwt>
<totfact> 0.15773052E+00</totfact>
</mgrwt>
</event>
<event>
12    6  0.8914180E-008  0.3504314E+04  0.7818608E-02  0.8112768E-01
          2   -1    0    0  501    0  0.00000000000E+00  0.00000000000E+00  0.22283267988E+04  0.22283267988E+04  0.00000000000E+00 0. -1.
         -1   -1    0    0    0  501 -0.00000000000E+00 -0.00000000000E+00 -0.13777397837E+04  0.13777397837E+04  0.00000000000E+00 0.  1.
         24    2    1    2    0    0  0.11367697680E+04 -0.47058788748E+02  0.16074206601E+04  0.19710162583E+04  0.81509979644E+02 0.  0.
        254    2    1    2    0    0 -0.11367697680E+04  0.47058788748E+02 -0.75683364497E+03  0.16350503242E+04  0.89784874086E+03 0.  0.
         23    2    4    4    0    0 -0.27378265420E+03 -0.25229956699E+03  0.81418311548E+02  0.39192261745E+03  0.91446068095E+02 0.  0.
         23    2    4    4    0    0 -0.86298711382E+03  0.29935835574E+03 -0.83825195652E+03  0.12431277068E+04  0.91312479620E+02 0.  0.
          2    1    3    3  502    0  0.10919349480E+04 -0.48988003341E+02  0.15134846526E+04  0.18669112321E+04  0.00000000000E+00 0. -1.
         -1    1    3    3    0  502  0.44834820029E+02  0.19292145931E+01  0.93936007545E+02  0.10410502615E+03  0.00000000000E+00 0.  1.
         11    1    5    5    0    0 -0.10325507794E+03 -0.56538157020E+02 -0.62884010168E+01  0.11788858430E+03  0.00000000000E+00 0. -1.
        -11    1    5    5    0    0 -0.17052757626E+03 -0.19576140997E+03  0.87706712565E+02  0.27403403316E+03  0.00000000000E+00 0.  1.
          2    1    6    6  503    0 -0.74158533289E+02  0.48698421949E+02 -0.60736419315E+02  0.10751714743E+03  0.00000000000E+00 0. -1.
         -2    1    6    6    0  503 -0.78882858053E+03  0.25065993379E+03 -0.77751553721E+03  0.11356105593E+04  0.00000000000E+00 0.  1.
<mgrwt>
<rscale>  0 0.35043142E+04</rscale>
<asrwt>0</asrwt>
<pdfrwt beam="1">  1        2 0.34281951E+00 0.35043142E+04</pdfrwt>
<pdfrwt beam="2">  1       -1 0.21195997E+00 0.35043142E+04</pdfrwt>
<totfact> 0.57958981E-01</totfact>
</mgrwt>
</event>
<event>
12    6  0.8914180E-008  0.1955357E+04  0.7818608E-02  0.8627782E-01
          2   -1    0    0  501    0  0.00000000000E+00  0.00000000000E+00  0.32180937897E+04  0.32180937897E+04  0.00000000000E+00 0. -1.
         -1   -1    0    0    0  501 -0.00000000000E+00 -0.00000000000E+00 -0.29702537144E+03  0.29702537144E+03  0.00000000000E+00 0.  1.
         24    2    1    2    0    0 -0.41799393054E+03  0.57673914797E+03  0.63184834424E+03  0.95544908408E+03  0.79395537497E+02 0.  0.
        254    2    1    2    0    0  0.41799393054E+03 -0.57673914797E+03  0.22892200740E+04  0.25596700771E+04  0.89668020235E+03 0.  0.
         23    2    4    4    0    0  0.34034506752E+03 -0.55319566142E+03  0.67513502908E+03  0.94116253530E+03  0.90107744202E+02 0.  0.
         23    2    4    4    0    0  0.77648863025E+02 -0.23543486553E+02  0.16140850450E+04  0.16185075418E+04  0.87820776055E+02 0.  0.
          2    1    3    3  502    0 -0.24597191171E+03  0.34824293690E+03  0.42884645145E+03  0.60471861504E+03  0.00000000000E+00 0. -1.
         -1    1    3    3    0  502 -0.17202201884E+03  0.22849621107E+03  0.20300189278E+03  0.35073046904E+03  0.00000000000E+00 0.  1.
         11    1    5    5    0    0  0.48328148223E+02 -0.12562361653E+03  0.10274602923E+03  0.16933295445E+03  0.00000000000E+00 0.  1.
        -11    1    5    5    0    0  0.29201691929E+03 -0.42757204489E+03  0.57238899985E+03  0.77182958085E+03  0.00000000000E+00 0. -1.
          3    1    6    6  503    0  0.74360374188E+01 -0.20442095075E+02  0.10270515291E+04  0.10272818588E+04  0.00000000000E+00 0. -1.
         -3    1    6    6    0  503  0.70212825607E+02 -0.31013914779E+01  0.58703351583E+03  0.59122568298E+03  0.00000000000E+00 0.  1.
<mgrwt>
<rscale>  0 0.19553573E+04</rscale>
<asrwt>0</asrwt>
<pdfrwt beam="1">  1        2 0.49509133E+00 0.19553573E+04</pdfrwt>
<pdfrwt beam="2">  1       -1 0.45696213E-01 0.19553573E+04</pdfrwt>
<totfact> 0.63987224E+00</totfact>
</mgrwt>
</event>
<event>
12    6  0.8914180E-008  0.2618878E+04  0.7818608E-02  0.8361817E-01
          2   -1    0    0  501    0  0.00000000000E+00  0.00000000000E+00  0.68477340750E+03  0.68477340750E+03  0.00000000000E+00 0. -1.
         -1   -1    0    0    0  501 -0.00000000000E+00 -0.00000000000E+00 -0.25039377071E+04  0.25039377071E+04  0.00000000000E+00 0.  1.
         24    2    1    2    0    0  0.10569900335E+02 -0.83845518235E+03 -0.17659668269E+04  0.19564820905E+04  0.77875035822E+02 0.  0.
        254    2    1    2    0    0 -0.10569900335E+02  0.83845518235E+03 -0.53197472667E+02  0.12322290241E+04  0.90135430382E+03 0.  0.
         23    2    4    4    0    0 -0.22784345763E+03  0.55306411123E+02  0.25578984758E+03  0.35813398052E+03  0.88656988355E+02 0.  0.
         23    2    4    4    0    0  0.21727355729E+03  0.78314877122E+03 -0.30898732025E+03  0.87409504353E+03  0.89661499450E+02 0.  0.
          2    1    3    3  502    0 -0.14608961871E+02 -0.48105027888E+03 -0.10870487518E+04  0.11888220142E+04  0.00000000000E+00 0. -1.
         -1    1    3    3    0  502  0.25178862207E+02 -0.35740490347E+03 -0.67891807510E+03  0.76766007635E+03  0.00000000000E+00 0.  1.
         11    1    5    5    0    0 -0.20413550956E+03  0.60182606730E+02  0.25726601370E+03  0.33388479184E+03  0.00000000000E+00 0. -1.
        -11    1    5    5    0    0 -0.23707948069E+02 -0.48761956071E+01 -0.14761661237E+01  0.24249188681E+02  0.00000000000E+00 0.  1.
          1    1    6    6  503    0  0.18323741473E+03  0.65361219494E+03 -0.29250603223E+03  0.73915129062E+03  0.00000000000E+00 0. -1.
         -1    1    6    6    0  503  0.34036142560E+02  0.12953657628E+03 -0.16481288021E+02  0.13494375291E+03  0.00000000000E+00 0.  1.
<mgrwt>
<rscale>  0 0.26188776E+04</rscale>
<asrwt>0</asrwt>
<pdfrwt beam="1">  1        2 0.10534976E+00 0.26188776E+04</pdfrwt>
<pdfrwt beam="2">  1       -1 0.38522118E+00 0.26188776E+04</pdfrwt>
<totfact> 0.38274632E-01</totfact>
</mgrwt>
</event>
<event>
12    6  0.1024985E-007  0.3043903E+04  0.7818608E-02  0.8231304E-01
          2   -1    0    0  501    0  0.00000000000E+00  0.00000000000E+00  0.14382334860E+04  0.14382334860E+04  0.00000000000E+00 0. -1.
         -1   -1    0    0    0  501 -0.00000000000E+00 -0.00000000000E+00 -0.16105421742E+04  0.16105421742E+04  0.00000000000E+00 0.  1.
         24    2    1    2    0    0  0.75652770478E+03 -0.79572957501E+02  0.10917770925E+04  0.13331048353E+04  0.80779072420E+02 0.  0.
        254    2    1    2    0    0 -0.75652770478E+03  0.79572957501E+02 -0.12640857806E+04  0.17156708250E+04  0.87575538551E+03 0.  0.
         23    2    4    4    0    0 -0.23464199821E+03 -0.23307308774E+03 -0.98043982492E+03  0.10385792923E+04  0.89469349324E+02 0.  0.
         23    2    4    4    0    0 -0.52188570657E+03  0.31264604524E+03 -0.28364595570E+03  0.67709153271E+03  0.88801324123E+02 0.  0.
          4    1    3    3  502    0  0.62319206665E+03 -0.92584411465E+02  0.92506410882E+03  0.11192335907E+04  0.00000000000E+00 0. -1.
         -3    1    3    3    0  502  0.13333563813E+03  0.13011453964E+02  0.16671298364E+03  0.21387124454E+03  0.00000000000E+00 0.  1.
         11    1    5    5    0    0 -0.80265223359E+02 -0.11893773729E+03 -0.31787358564E+03  0.34875823701E+03  0.00000000000E+00 0. -1.
        -11    1    5    5    0    0 -0.15437677485E+03 -0.11413535045E+03 -0.66256623928E+03  0.68982105525E+03  0.00000000000E+00 0.  1.
          1    1    6    6  503    0 -0.15597051802E+03  0.12109552348E+03 -0.13002984091E+03  0.23642903338E+03  0.00000000000E+00 0. -1.
         -1    1    6    6    0  503 -0.36591518855E+03  0.19155052176E+03 -0.15361611479E+03  0.44066249934E+03  0.00000000000E+00 0.  1.
<mgrwt>
<rscale>  0 0.30439026E+04</rscale>
<asrwt>0</asrwt>
<pdfrwt beam="1">  1        2 0.22126669E+00 0.30439026E+04</pdfrwt>
<pdfrwt beam="2">  1       -1 0.24777572E+00 0.30439026E+04</pdfrwt>
<totfact> 0.96357072E-01</totfact>
</mgrwt>
</event>
<event>
12    6  0.8914180E-008  0.2073978E+04  0.7818608E-02  0.8572794E-01
          2   -1    0    0  501    0  0.00000000000E+00  0.00000000000E+00  0.12138897923E+04  0.12138897923E+04  0.00000000000E+00 0. -1.
         -1   -1    0    0    0  501 -0.00000000000E+00 -0.00000000000E+00 -0.88586807761E+03  0.88586807761E+03  0.00000000000E+00 0.  1.
         24    2    1    2    0    0 -0.47993247379E+03  0.15637206878E+03 -0.54760885018E+03  0.74970804594E+03  0.86019172573E+02 0.  0.
        254    2    1    2    0    0  0.47993247379E+03 -0.15637206878E+03  0.87563056487E+03  0.13500498240E+04  0.89505208662E+03 0.  0.
         23    2    4    4    0    0  0.58713100148E+03  0.21406177050E+03  0.53915239032E+03  0.83040474029E+03  0.91331693364E+02 0.  0.
         23    2    4    4    0    0 -0.10719852768E+03 -0.37043383929E+03  0.33647817455E+03  0.51964508368E+03  0.90003874478E+02 0.  0.
          4    1    3    3  502    0 -0.28555912238E+01  0.13712469990E+02 -0.12834898673E+02  0.18997917213E+02  0.00000000000E+00 0. -1.
         -3    1    3    3    0  502 -0.47707688257E+03  0.14265959879E+03 -0.53477395151E+03  0.73071012873E+03  0.00000000000E+00 0.  1.
         11    1    5    5    0    0  0.17328132003E+03  0.28473694623E+02  0.11883708926E+03  0.21203636702E+03  0.00000000000E+00 0. -1.
        -11    1    5    5    0    0  0.41384968144E+03  0.18558807588E+03  0.42031530106E+03  0.61836837326E+03  0.00000000000E+00 0.  1.
          2    1    6    6  503    0 -0.27533903396E+02 -0.10997247266E+03  0.48625683894E+02  0.12335525005E+03  0.00000000000E+00 0. -1.
         -2    1    6    6    0  503 -0.79664624287E+02 -0.26046136662E+03  0.28785249066E+03  0.39628983364E+03  0.00000000000E+00 0.  1.
<mgrwt>
<rscale>  0 0.20739780E+04</rscale>
<asrwt>0</asrwt>
<pdfrwt beam="1">  1        2 0.18675228E+00 0.20739780E+04</pdfrwt>
<pdfrwt beam="2">  1       -1 0.13628740E+00 0.20739780E+04</pdfrwt>
<totfact> 0.87955311E+00</totfact>
</mgrwt>
</event>
<event>
12    6  0.8914180E-008  0.2463552E+04  0.7818608E-02  0.8416087E-01
         -1   -1    0    0    0  501 -0.00000000000E+00  0.00000000000E+00  0.60978298416E+03  0.60978298416E+03  0.00000000000E+00 0.  1.
          2   -1    0    0  501    0  0.00000000000E+00 -0.00000000000E+00 -0.24882164885E+04  0.24882164885E+04  0.00000000000E+00 0. -1.
         24    2    1    2    0    0 -0.43693885089E+03 -0.74994467723E+03 -0.29194023982E+02  0.87205881187E+03  0.79383260203E+02 0.  0.
        254    2    1    2    0    0  0.43693885089E+03  0.74994467723E+03 -0.18492394803E+04  0.22259406608E+04  0.88419035921E+03 0.  0.
         23    2    4    4    0    0 -0.23371638927E+03  0.18435291088E+03 -0.24918987151E+03  0.39894025177E+03  0.91915102432E+02 0.  0.
         23    2    4    4    0    0  0.67065524016E+03  0.56559176636E+03 -0.16000496088E+04  0.18270004090E+04  0.89995813578E+02 0.  0.
          2    1    3    3  502    0 -0.86785625645E+02 -0.10386931774E+03 -0.22216632107E+02  0.13716471386E+03  0.00000000000E+00 0. -1.
         -1    1    3    3    0  502 -0.35015322524E+03 -0.64607535950E+03 -0.69773918751E+01  0.73489409801E+03  0.00000000000E+00 0.  1.
         11    1    5    5    0    0 -0.23143872924E+03  0.17564889359E+03 -0.20938683097E+03  0.35813302584E+03  0.00000000000E+00 0. -1.
        -11    1    5    5    0    0 -0.22776600335E+01  0.87040172905E+01 -0.39803040540E+02  0.40807225934E+02  0.00000000000E+00 0.  1.
          3    1    6    6  503    0  0.65092295755E+03  0.54617733727E+03 -0.15753606648E+04  0.17899082671E+04  0.00000000000E+00 0. -1.
         -3    1    6    6    0  503  0.19732282609E+02  0.19414429089E+02 -0.24688944004E+02  0.37092141888E+02  0.00000000000E+00 0.  1.
<mgrwt>
<rscale>  0 0.24635520E+04</rscale>
<asrwt>0</asrwt>
<pdfrwt beam="1">  1        2 0.38280254E+00 0.24635520E+04</pdfrwt>
<pdfrwt beam="2">  1       -1 0.93812766E-01 0.24635520E+04</pdfrwt>
<totfact> 0.39625255E+00</totfact>
</mgrwt>
</event>
<event>
12    6  0.8914180E-008  0.2414818E+04  0.7818608E-02  0.8433977E-01
          2   -1    0    0  501    0  0.00000000000E+00  0.00000000000E+00  0.10908396436E+04  0.10908396436E+04  0.00000000000E+00 0. -1.
         -1   -1    0    0    0  501 -0.00000000000E+00 -0.00000000000E+00 -0.13364349219E+04  0.13364349219E+04  0.00000000000E+00 0.  1.
         24    2    1    2    0    0 -0.30871042809E+03  0.37879544597E+03  0.81488352601E+03  0.95355732951E+03  0.80301316317E+02 0.  0.
        254    2    1    2    0    0  0.30871042809E+03 -0.37879544597E+03 -0.10604788043E+04  0.14737172359E+04  0.89913240335E+03 0.  0.
         23    2    4    4    0    0  0.51326623867E+03  0.54905494738E+02 -0.44499694638E+03  0.68769318675E+03  0.91884665186E+02 0.  0.
         23    2    4    4    0    0 -0.20455581058E+03 -0.43370094071E+03 -0.61548185795E+03  0.78602404919E+03  0.95269632177E+02 0.  0.
          2    1    3    3  502    0 -0.28697686912E+03  0.31305299835E+03  0.67521682177E+03  0.79766889095E+03  0.00000000000E+00 0. -1.
         -1    1    3    3    0  502 -0.21733558976E+02  0.65742447626E+02  0.13966670423E+03  0.15588843856E+03  0.00000000000E+00 0.  1.
         11    1    5    5    0    0  0.81819684734E+02  0.42051103928E+02 -0.91863248879E+02  0.13000620234E+03  0.00000000000E+00 0. -1.
        -11    1    5    5    0    0  0.43144655394E+03  0.12854390810E+02 -0.35313369750E+03  0.55768698441E+03  0.00000000000E+00 0.  1.
          1    1    6    6  503    0 -0.20599585391E+02 -0.18955655180E+02 -0.76719754458E+02  0.81667499690E+02  0.00000000000E+00 0. -1.
         -1    1    6    6    0  503 -0.18395622519E+03 -0.41474528553E+03 -0.53876210349E+03  0.70435654950E+03  0.00000000000E+00 0.  1.
<mgrwt>
<rscale>  0 0.24148178E+04</rscale>
<asrwt>0</asrwt>
<pdfrwt beam="1">  1        2 0.16782148E+00 0.24148178E+04</pdfrwt>
<pdfrwt beam="2">  1       -1 0.20560537E+00 0.24148178E+04</pdfrwt>
<totfact> 0.31126913E+00</totfact>
</mgrwt>
</event>
<event>
12    6  0.8914180E-008  0.1912738E+04  0.7818608E-02  0.8648542E-01
          2   -1    0    0  501    0  0.00000000000E+00  0.00000000000E+00  0.85838009331E+03  0.85838009331E+03  0.00000000000E+00 0. -1.
         -1   -1    0    0    0  501 -0.00000000000E+00 -0.00000000000E+00 -0.10655437126E+04  0.10655437126E+04  0.00000000000E+00 0.  1.
         24    2    1    2    0    0 -0.48900730213E+01 -0.13223326951E+03  0.64839431995E+03  0.66716734961E+03  0.84779289155E+02 0.  0.
        254    2    1    2    0    0  0.48900730213E+01  0.13223326951E+03 -0.85555793928E+03  0.12567564563E+04  0.91101473791E+03 0.  0.
         23    2    4    4    0    0  0.24767461583E+02 -0.33259816075E+03 -0.65746814187E+03  0.74295070464E+03  0.92067520126E+02 0.  0.
         23    2    4    4    0    0 -0.19877388562E+02  0.46483143026E+03 -0.19808979741E+03  0.51380575170E+03  0.91068180508E+02 0.  0.
          2    1    3    3  502    0  0.38686498769E+02 -0.43071902200E+02  0.23410193228E+03  0.24115461564E+03  0.00000000000E+00 0. -1.
         -1    1    3    3    0  502 -0.43576571791E+02 -0.89161367310E+02  0.41429238767E+03  0.42601273398E+03  0.00000000000E+00 0.  1.
         11    1    5    5    0    0  0.31488068222E+02 -0.33016878683E+03 -0.65677718999E+03  0.73577116247E+03  0.00000000000E+00 0.  1.
        -11    1    5    5    0    0 -0.67206066394E+01 -0.24293739258E+01 -0.69095188314E+00  0.71795421705E+01  0.00000000000E+00 0. -1.
          3    1    6    6  503    0  0.43515883713E+01  0.16596710360E+03 -0.11725671783E+03  0.20325637425E+03  0.00000000000E+00 0. -1.
         -3    1    6    6    0  503 -0.24228976933E+02  0.29886432666E+03 -0.80833079584E+02  0.31054937744E+03  0.00000000000E+00 0.  1.
<mgrwt>
<rscale>  0 0.19127378E+04</rscale>
<asrwt>0</asrwt>
<pdfrwt beam="1">  1        2 0.13205848E+00 0.19127378E+04</pdfrwt>
<pdfrwt beam="2">  1       -1 0.16392980E+00 0.19127378E+04</pdfrwt>
<totfact> 0.91268521E+00</totfact>
</mgrwt>
</event>
<event>
12    6  0.8914180E-008  0.3206938E+04  0.7818608E-02  0.8186987E-01
          2   -1    0    0  501    0  0.00000000000E+00  0.00000000000E+00  0.30245292294E+04  0.30245292294E+04  0.00000000000E+00 0. -1.
         -1   -1    0    0    0  501 -0.00000000000E+00 -0.00000000000E+00 -0.85008670558E+03  0.85008670558E+03  0.00000000000E+00 0.  1.
         24    2    1    2    0    0 -0.14476945950E+04 -0.12176707615E+03  0.69598089207E+03  0.16128577766E+04  0.79208233040E+02 0.  0.
        254    2    1    2    0    0  0.14476945950E+04  0.12176707615E+03  0.14784616317E+04  0.22617581584E+04  0.90501619279E+03 0.  0.
         23    2    4    4    0    0  0.12706138189E+04  0.42758872501E+03  0.12207443862E+04  0.18152324757E+04  0.86951077167E+02 0.  0.
         23    2    4    4    0    0  0.17708077606E+03 -0.30582164885E+03  0.25771724556E+03  0.44652568267E+03  0.89902861284E+02 0.  0.
          2    1    3    3  502    0 -0.21415249316E+03 -0.13157869141E+02  0.13421541185E+03  0.25307745183E+03  0.00000000000E+00 0. -1.
         -1    1    3    3    0  502 -0.12335421018E+04 -0.10860920701E+03  0.56176548022E+03  0.13597803248E+04  0.00000000000E+00 0.  1.
         11    1    5    5    0    0  0.73453948051E+03  0.21438347617E+03  0.73604751031E+03  0.10617318215E+04  0.00000000000E+00 0. -1.
        -11    1    5    5    0    0  0.53607433844E+03  0.21320524883E+03  0.48469687586E+03  0.75350065423E+03  0.00000000000E+00 0.  1.
          1    1    6    6  503    0  0.85739491681E+02 -0.21350658570E+03  0.12945671504E+03  0.26399879477E+03  0.00000000000E+00 0. -1.
         -1    1    6    6    0  503  0.91341284376E+02 -0.92315063151E+02  0.12826053052E+03  0.18252688790E+03  0.00000000000E+00 0.  1.
<mgrwt>
<rscale>  0 0.32069375E+04</rscale>
<asrwt>0</asrwt>
<pdfrwt beam="1">  1        2 0.46531219E+00 0.32069375E+04</pdfrwt>
<pdfrwt beam="2">  1       -1 0.13078257E+00 0.32069375E+04</pdfrwt>
<totfact> 0.80173970E-01</totfact>
</mgrwt>
</event>
<event>
12    6  0.8914180E-008  0.1844049E+04  0.7818608E-02  0.8683219E-01
          2   -1    0    0  501    0  0.00000000000E+00  0.00000000000E+00  0.26456228310E+04  0.26456228310E+04  0.00000000000E+00 0. -1.
         -1   -1    0    0    0  501 -0.00000000000E+00 -0.00000000000E+00 -0.32133438883E+03  0.32133438883E+03  0.00000000000E+00 0.  1.
         24    2    1    2    0    0  0.24119210070E+03 -0.65223575845E+03  0.75970882431E+03  0.10328437521E+04  0.77611884227E+02 0.  0.
        254    2    1    2    0    0 -0.24119210070E+03  0.65223575845E+03  0.15645796179E+04  0.19341134677E+04  0.89961125559E+03 0.  0.
         23    2    4    4    0    0 -0.40719291346E+02  0.72391269443E+03  0.15358476231E+04  0.17007249541E+04  0.89049415847E+02 0.  0.
         23    2    4    4    0    0 -0.20047280935E+03 -0.71676935983E+02  0.28731994797E+02  0.23338851355E+03  0.91201646310E+02 0.  0.
          2    1    3    3  502    0  0.81403077172E+02 -0.26908367505E+03  0.35778738757E+03  0.45502120814E+03  0.00000000000E+00 0. -1.
         -1    1    3    3    0  502  0.15978902353E+03 -0.38315208340E+03  0.40192143674E+03  0.57782254401E+03  0.00000000000E+00 0.  1.
         11    1    5    5    0    0 -0.12224348050E+02  0.33586490980E+02  0.12137754276E+03  0.12653060874E+03  0.00000000000E+00 0.  1.
        -11    1    5    5    0    0 -0.28494943296E+02  0.69032620345E+03  0.14144700803E+04  0.15741943454E+04  0.00000000000E+00 0. -1.
          2    1    6    6  503    0 -0.20432953544E+03 -0.57186889976E+02  0.38287553616E+02  0.21560806154E+03  0.00000000000E+00 0. -1.
         -2    1    6    6    0  503  0.38567260861E+01 -0.14490046007E+02 -0.95555588193E+01  0.17780452012E+02  0.00000000000E+00 0.  1.
<mgrwt>
<rscale>  0 0.18440495E+04</rscale>
<asrwt>0</asrwt>
<pdfrwt beam="1">  1        2 0.40701888E+00 0.18440495E+04</pdfrwt>
<pdfrwt beam="2">  1       -1 0.49436062E-01 0.18440495E+04</pdfrwt>
<totfact> 0.12585596E+01</totfact>
</mgrwt>
</event>
<event>
12    6  0.8914180E-008  0.1582679E+04  0.7818608E-02  0.8831260E-01
         -1   -1    0    0    0  501 -0.00000000000E+00  0.00000000000E+00  0.27338684753E+03  0.27338684753E+03  0.00000000000E+00 0.  1.
          2   -1    0    0  501    0  0.00000000000E+00 -0.00000000000E+00 -0.22905941915E+04  0.22905941915E+04  0.00000000000E+00 0. -1.
         24    2    1    2    0    0 -0.30247942704E+03 -0.59272181080E+02 -0.13818185412E+04  0.14187653991E+04  0.92009681428E+02 0.  0.
        254    2    1    2    0    0  0.30247942704E+03  0.59272181080E+02 -0.63538880271E+03  0.11452156399E+04  0.90155029594E+03 0.  0.
         23    2    4    4    0    0 -0.47700461015E+02  0.22181649486E+02  0.20470808231E+03  0.22954985310E+03  0.89556554995E+02 0.  0.
         23    2    4    4    0    0  0.35017988806E+03  0.37090531594E+02 -0.84009688501E+03  0.91566578683E+03  0.93163272905E+02 0.  0.
          2    1    3    3  502    0 -0.16952205049E+03 -0.40214127640E+02 -0.97218071454E+03  0.98766909610E+03  0.00000000000E+00 0. -1.
         -3    1    3    3    0  502 -0.13295737655E+03 -0.19058053440E+02 -0.40963782670E+03  0.43109630298E+03  0.00000000000E+00 0.  1.
         11    1    5    5    0    0 -0.74454785763E+02  0.14211982269E+02  0.14402210567E+03  0.16275092160E+03  0.00000000000E+00 0. -1.
        -11    1    5    5    0    0  0.26754324748E+02  0.79696672169E+01  0.60685976643E+02  0.66798931499E+02  0.00000000000E+00 0.  1.
          1    1    6    6  503    0  0.28083767809E+03  0.29386020318E+02 -0.56198376575E+03  0.62893488740E+03  0.00000000000E+00 0. -1.
         -1    1    6    6    0  503  0.69342209968E+02  0.77045112754E+01 -0.27811311927E+03  0.28673089942E+03  0.00000000000E+00 0.  1.
<mgrwt>
<rscale>  0 0.15826792E+04</rscale>
<asrwt>0</asrwt>
<pdfrwt beam="1">  1        2 0.35239911E+00 0.15826792E+04</pdfrwt>
<pdfrwt beam="2">  1       -1 0.42059515E-01 0.15826792E+04</pdfrwt>
<totfact> 0.27904388E+01</totfact>
</mgrwt>
</event>
<event>
12    6  0.8914180E-008  0.2178913E+04  0.7818608E-02  0.8527257E-01
         -1   -1    0    0    0  501 -0.00000000000E+00  0.00000000000E+00  0.69726338518E+03  0.69726338518E+03  0.00000000000E+00 0.  1.
          2   -1    0    0  501    0  0.00000000000E+00 -0.00000000000E+00 -0.17022479683E+04  0.17022479683E+04  0.00000000000E+00 0. -1.
         24    2    1    2    0    0 -0.46649107963E+03 -0.69910909768E+03 -0.78229930137E+03  0.11507829557E+04  0.77082789269E+02 0.  0.
        254    2    1    2    0    0  0.46649107963E+03  0.69910909768E+03 -0.22268528179E+03  0.12487283978E+04  0.89630710078E+03 0.  0.
         23    2    4    4    0    0  0.40499278371E+03  0.51798594020E+03 -0.54821124303E+03  0.86055772179E+03  0.87723636767E+02 0.  0.
         23    2    4    4    0    0  0.61498295922E+02  0.18112315749E+03  0.32552596124E+03  0.38817067602E+03  0.90120384491E+02 0.  0.
          2    1    3    3  502    0 -0.37050746956E+03 -0.49636974020E+03 -0.56134398250E+03  0.83592210802E+03  0.00000000000E+00 0. -1.
         -1    1    3    3    0  502 -0.95983610071E+02 -0.20273935748E+03 -0.22095531887E+03  0.31486084769E+03  0.00000000000E+00 0.  1.
         11    1    5    5    0    0  0.72226077354E+02  0.10252439845E+03 -0.63205298946E+02  0.14043777391E+03  0.00000000000E+00 0.  1.
        -11    1    5    5    0    0  0.33276670636E+03  0.41546154175E+03 -0.48500594408E+03  0.72011994787E+03  0.00000000000E+00 0. -1.
          3    1    6    6  503    0  0.54480565445E+02  0.17284788327E+03  0.23385207888E+03  0.29585692076E+03  0.00000000000E+00 0. -1.
         -3    1    6    6    0  503  0.70177304777E+01  0.82752742174E+01  0.91673882352E+02  0.92313755259E+02  0.00000000000E+00 0.  1.
<mgrwt>
<rscale>  0 0.21789127E+04</rscale>
<asrwt>0</asrwt>
<pdfrwt beam="1">  1        2 0.26188430E+00 0.21789127E+04</pdfrwt>
<pdfrwt beam="2">  1       -1 0.10727129E+00 0.21789127E+04</pdfrwt>
<totfact> 0.82562562E+00</totfact>
</mgrwt>
</event>
<event>
12    6  0.8914180E-008  0.3043358E+04  0.7818608E-02  0.8231457E-01
          2   -1    0    0  501    0  0.00000000000E+00  0.00000000000E+00  0.21488511172E+04  0.21488511172E+04  0.00000000000E+00 0. -1.
         -1   -1    0    0    0  501 -0.00000000000E+00 -0.00000000000E+00 -0.10775558393E+04  0.10775558393E+04  0.00000000000E+00 0.  1.
         24    2    1    2    0    0  0.20165448780E+03 -0.57920024245E+03  0.18229885309E+04  0.19261183314E+04  0.10250458180E+03 0.  0.
        254    2    1    2    0    0 -0.20165448780E+03  0.57920024245E+03 -0.75169325302E+03  0.13002886251E+04  0.86577728587E+03 0.  0.
         23    2    4    4    0    0  0.20317880018E+03 -0.62114025214E+02 -0.38819068888E+01  0.23188037074E+03  0.92809806393E+02 0.  0.
         23    2    4    4    0    0 -0.40483328798E+03  0.64131426766E+03 -0.74781134613E+03  0.10684082544E+04  0.84263916997E+02 0.  0.
          2    1    3    3  502    0  0.19428783226E+03 -0.56699197645E+03  0.17051283455E+04  0.18073987766E+04  0.00000000000E+00 0. -1.
         -1    1    3    3    0  502  0.73666555355E+01 -0.12208265995E+02  0.11786018540E+03  0.11871955472E+03  0.00000000000E+00 0.  1.
         11    1    5    5    0    0  0.56250328015E+02 -0.61173191849E+02 -0.15320553137E+02  0.84504308478E+02  0.00000000000E+00 0. -1.
        -11    1    5    5    0    0  0.14692847216E+03 -0.94083336473E+00  0.11438646248E+02  0.14737606226E+03  0.00000000000E+00 0.  1.
          4    1    6    6  503    0 -0.23259658783E+03  0.44333866594E+03 -0.48837843255E+03  0.69940248696E+03  0.00000000000E+00 0. -1.
         -4    1    6    6    0  503 -0.17223670014E+03  0.19797560172E+03 -0.25943291358E+03  0.36900576744E+03  0.00000000000E+00 0.  1.
<mgrwt>
<rscale>  0 0.30433581E+04</rscale>
<asrwt>0</asrwt>
<pdfrwt beam="1">  1        2 0.33059248E+00 0.30433581E+04</pdfrwt>
<pdfrwt beam="2">  1       -1 0.16577782E+00 0.30433581E+04</pdfrwt>
<totfact> 0.14150624E+00</totfact>
</mgrwt>
</event>
<event>
12    6  0.8914180E-008  0.1321050E+04  0.7818608E-02  0.9013037E-01
          2   -1    0    0  501    0  0.00000000000E+00  0.00000000000E+00  0.30816558369E+04  0.30816558369E+04  0.00000000000E+00 0. -1.
         -1   -1    0    0    0  501 -0.00000000000E+00 -0.00000000000E+00 -0.14157763589E+03  0.14157763589E+03  0.00000000000E+00 0.  1.
         24    2    1    2    0    0  0.24375308615E+02  0.17926487661E+03  0.45113463287E+02  0.20286764305E+03  0.79937502902E+02 0.  0.
        254    2    1    2    0    0 -0.24375308615E+02 -0.17926487661E+03  0.28949647377E+04  0.30203658297E+04  0.84205632894E+03 0.  0.
         23    2    4    4    0    0  0.20293112659E+03 -0.44156007153E+03  0.18609943827E+04  0.19256582046E+04  0.93290351347E+02 0.  0.
         23    2    4    4    0    0 -0.22730643520E+03  0.26229519492E+03  0.10339703550E+04  0.10947076251E+04  0.93931382702E+02 0.  0.
          4    1    3    3  502    0 -0.25026756684E+02  0.26555480697E+02  0.15554191570E+02  0.39666925524E+02  0.00000000000E+00 0. -1.
         -3    1    3    3    0  502  0.49402065299E+02  0.15270939592E+03  0.29559271717E+02  0.16320071753E+03  0.00000000000E+00 0.  1.
         11    1    5    5    0    0  0.44638487775E+02 -0.78081537460E+02  0.22493783386E+03  0.24225265775E+03  0.00000000000E+00 0. -1.
        -11    1    5    5    0    0  0.15829263881E+03 -0.36347853407E+03  0.16360565489E+04  0.16834055469E+04  0.00000000000E+00 0.  1.
          4    1    6    6  503    0 -0.21244376999E+03  0.20436477919E+03  0.78144453771E+03  0.83519631459E+03  0.00000000000E+00 0.  1.
         -4    1    6    6    0  503 -0.14862665214E+02  0.57930415734E+02  0.25252581727E+03  0.25951131049E+03  0.00000000000E+00 0. -1.
<mgrwt>
<rscale>  0 0.13210504E+04</rscale>
<asrwt>0</asrwt>
<pdfrwt beam="1">  1        2 0.47410085E+00 0.13210504E+04</pdfrwt>
<pdfrwt beam="2">  1       -1 0.21781177E-01 0.13210504E+04</pdfrwt>
<totfact> 0.30906723E+01</totfact>
</mgrwt>
</event>
<event>
12    6  0.8914180E-008  0.1474037E+04  0.7818608E-02  0.8901904E-01
          2   -1    0    0  501    0  0.00000000000E+00  0.00000000000E+00  0.29985060386E+04  0.29985060386E+04  0.00000000000E+00 0. -1.
         -1   -1    0    0    0  501 -0.00000000000E+00 -0.00000000000E+00 -0.18115572491E+03  0.18115572491E+03  0.00000000000E+00 0.  1.
         24    2    1    2    0    0  0.49587727639E+02  0.38295322661E+03  0.35826004520E+03  0.53318948702E+03  0.82635661650E+02 0.  0.
        254    2    1    2    0    0 -0.49587727639E+02 -0.38295322661E+03  0.24590902685E+04  0.26464722765E+04  0.89865368479E+03 0.  0.
         23    2    4    4    0    0  0.81572348500E+02 -0.27915354629E+02  0.21387462702E+04  0.21423797249E+04  0.90121928206E+02 0.  0.
         23    2    4    4    0    0 -0.13116007614E+03 -0.35503787198E+03  0.32034399822E+03  0.50409255162E+03  0.90742312539E+02 0.  0.
          4    1    3    3  502    0  0.58543032841E+02  0.30352832334E+03  0.24435117643E+03  0.39403581967E+03  0.00000000000E+00 0. -1.
         -3    1    3    3    0  502 -0.89553052019E+01  0.79424903276E+02  0.11390886878E+03  0.13915366735E+03  0.00000000000E+00 0.  1.
         11    1    5    5    0    0 -0.40660323861E+01  0.23544829433E+02  0.52518071013E+03  0.52572394838E+03  0.00000000000E+00 0. -1.
        -11    1    5    5    0    0  0.85638380887E+02 -0.51460184062E+02  0.16135655601E+04  0.16166557765E+04  0.00000000000E+00 0.  1.
          4    1    6    6  503    0 -0.61513631851E+02 -0.64710482641E+02  0.56541639367E+02  0.10568032196E+03  0.00000000000E+00 0. -1.
         -4    1    6    6    0  503 -0.69646444288E+02 -0.29032738934E+03  0.26380235886E+03  0.39841222966E+03  0.00000000000E+00 0.  1.
<mgrwt>
<rscale>  0 0.14740374E+04</rscale>
<asrwt>0</asrwt>
<pdfrwt beam="1">  1        2 0.46130858E+00 0.14740374E+04</pdfrwt>
<pdfrwt beam="2">  1       -1 0.27870114E-01 0.14740374E+04</pdfrwt>
<totfact> 0.22501481E+01</totfact>
</mgrwt>
</event>
<event>
12    6  0.8914180E-008  0.1892741E+04  0.7818608E-02  0.8658478E-01
          2   -1    0    0  501    0  0.00000000000E+00  0.00000000000E+00  0.15794330170E+04  0.15794330170E+04  0.00000000000E+00 0. -1.
         -1   -1    0    0    0  501 -0.00000000000E+00 -0.00000000000E+00 -0.56704986360E+03  0.56704986360E+03  0.00000000000E+00 0.  1.
         24    2    1    2    0    0 -0.54590014621E+03 -0.36501356552E+03  0.30352773300E+02  0.66213634592E+03  0.79128863927E+02 0.  0.
        254    2    1    2    0    0  0.54590014621E+03  0.36501356552E+03  0.98203038005E+03  0.14843465346E+04  0.89869855619E+03 0.  0.
         23    2    4    4    0    0  0.46551796981E+03 -0.51134109958E+02  0.93327009374E+03  0.10481083046E+04  0.90643658750E+02 0.  0.
         23    2    4    4    0    0  0.80382176394E+02  0.41614767547E+03  0.48760286308E+02  0.43623823004E+03  0.91027719623E+02 0.  0.
          4    1    3    3  502    0 -0.37780394313E+02 -0.53151991576E+02  0.51232079878E+01  0.65412075820E+02  0.00000000000E+00 0. -1.
         -3    1    3    3    0  502 -0.50811975189E+03 -0.31186157394E+03  0.25229565312E+02  0.59672427010E+03  0.00000000000E+00 0.  1.
         11    1    5    5    0    0  0.18326531789E+03 -0.42036885456E+02  0.29052335769E+03  0.34605938485E+03  0.00000000000E+00 0. -1.
        -11    1    5    5    0    0  0.28225265193E+03 -0.90972245020E+01  0.64274673605E+03  0.70204891974E+03  0.00000000000E+00 0.  1.
          1    1    6    6  503    0 -0.17935084420E+02  0.11845552141E+03  0.76905019128E+01  0.12005216211E+03  0.00000000000E+00 0. -1.
         -1    1    6    6    0  503  0.98317260814E+02  0.29769215406E+03  0.41069784395E+02  0.31618606793E+03  0.00000000000E+00 0.  1.
<mgrwt>
<rscale>  0 0.18927412E+04</rscale>
<asrwt>0</asrwt>
<pdfrwt beam="1">  1        2 0.24298969E+00 0.18927412E+04</pdfrwt>
<pdfrwt beam="2">  1       -1 0.87238441E-01 0.18927412E+04</pdfrwt>
<totfact> 0.15816018E+01</totfact>
</mgrwt>
</event>
<event>
12    6  0.8914180E-008  0.1695223E+04  0.7818608E-02  0.8764094E-01
          2   -1    0    0  501    0  0.00000000000E+00  0.00000000000E+00  0.30198334653E+04  0.30198334653E+04  0.00000000000E+00 0. -1.
         -1   -1    0    0    0  501 -0.00000000000E+00 -0.00000000000E+00 -0.23790881147E+03  0.23790881147E+03  0.00000000000E+00 0.  1.
         24    2    1    2    0    0 -0.44154474931E+03  0.41300134602E+03  0.10631592328E+04  0.12257883717E+04  0.81961579395E+02 0.  0.
        254    2    1    2    0    0  0.44154474931E+03 -0.41300134602E+03  0.17187654211E+04  0.20319539051E+04  0.89952777739E+03 0.  0.
         23    2    4    4    0    0  0.43034762396E+03 -0.54817845991E+03  0.67150409954E+03  0.97214905582E+03  0.91963741101E+02 0.  0.
         23    2    4    4    0    0  0.11197125348E+02  0.13517711389E+03  0.10472613215E+04  0.10598048493E+04  0.89620395227E+02 0.  0.
          2    1    3    3  502    0 -0.38886311849E+03  0.37010211624E+03  0.98834763050E+03  0.11247315858E+04  0.00000000000E+00 0. -1.
         -1    1    3    3    0  502 -0.52681630822E+02  0.42899229777E+02  0.74811602249E+02  0.10105678588E+03  0.00000000000E+00 0.  1.
         11    1    5    5    0    0  0.17450169459E+03 -0.15253283475E+03  0.21706378618E+03  0.31754337399E+03  0.00000000000E+00 0.  1.
        -11    1    5    5    0    0  0.25584592937E+03 -0.39564562516E+03  0.45444031336E+03  0.65460568183E+03  0.00000000000E+00 0. -1.
          1    1    6    6  503    0 -0.48952919240E+00  0.69024077115E+02  0.23931948818E+03  0.24907504950E+03  0.00000000000E+00 0. -1.
         -1    1    6    6    0  503  0.11686654541E+02  0.66153036770E+02  0.80794183333E+03  0.81072979976E+03  0.00000000000E+00 0.  1.
<mgrwt>
<rscale>  0 0.16952227E+04</rscale>
<asrwt>0</asrwt>
<pdfrwt beam="1">  1        2 0.46458974E+00 0.16952227E+04</pdfrwt>
<pdfrwt beam="2">  1       -1 0.36601358E-01 0.16952227E+04</pdfrwt>
<totfact> 0.13194353E+01</totfact>
</mgrwt>
</event>
<event>
12    6  0.8914180E-008  0.1884321E+04  0.7818608E-02  0.8662700E-01
          2   -1    0    0  501    0  0.00000000000E+00  0.00000000000E+00  0.78405393847E+03  0.78405393847E+03  0.00000000000E+00 0. -1.
         -1   -1    0    0    0  501 -0.00000000000E+00 -0.00000000000E+00 -0.11321496989E+04  0.11321496989E+04  0.00000000000E+00 0.  1.
         24    2    1    2    0    0  0.58157817986E+03  0.43189123591E+03 -0.14547706633E+03  0.74379992257E+03  0.85507479491E+02 0.  0.
        254    2    1    2    0    0 -0.58157817986E+03 -0.43189123591E+03 -0.20261869412E+03  0.11724037148E+04  0.89928466927E+03 0.  0.
         23    2    4    4    0    0  0.10889127222E+03 -0.43320288006E+03 -0.11814959690E+03  0.47096840684E+03  0.91268113462E+02 0.  0.
         23    2    4    4    0    0 -0.69046945208E+03  0.13116441451E+01 -0.84469097227E+02  0.70143530799E+03  0.90148090619E+02 0.  0.
          4    1    3    3  502    0  0.24347643820E+03  0.17969885766E+03 -0.10393521130E+03  0.31996090941E+03  0.00000000000E+00 0. -1.
         -3    1    3    3    0  502  0.33810174165E+03  0.25219237826E+03 -0.41541855029E+02  0.42383901316E+03  0.00000000000E+00 0.  1.
         11    1    5    5    0    0  0.10810173204E+03 -0.30111102462E+03 -0.55251562141E+02  0.32466377799E+03  0.00000000000E+00 0. -1.
        -11    1    5    5    0    0  0.78954018224E+00 -0.13209185544E+03 -0.62898034756E+02  0.14630462885E+03  0.00000000000E+00 0.  1.
          2    1    6    6  503    0 -0.28046642535E+03  0.19414676742E+02  0.59068749297E+01  0.28119963832E+03  0.00000000000E+00 0.  1.
         -2    1    6    6    0  503 -0.41000302673E+03 -0.18103032597E+02 -0.90375972156E+02  0.42023566966E+03  0.00000000000E+00 0. -1.
<mgrwt>
<rscale>  0 0.18843210E+04</rscale>
<asrwt>0</asrwt>
<pdfrwt beam="1">  1        2 0.12062368E+00 0.18843210E+04</pdfrwt>
<pdfrwt beam="2">  1       -1 0.17417688E+00 0.18843210E+04</pdfrwt>
<totfact> 0.86843696E+00</totfact>
</mgrwt>
</event>
<event>
12    6  0.8914180E-008  0.2541502E+04  0.7818608E-02  0.8388348E-01
          2   -1    0    0  501    0  0.00000000000E+00  0.00000000000E+00  0.21464298625E+04  0.21464298625E+04  0.00000000000E+00 0. -1.
         -1   -1    0    0    0  501 -0.00000000000E+00 -0.00000000000E+00 -0.75232288297E+03  0.75232288297E+03  0.00000000000E+00 0.  1.
         24    2    1    2    0    0  0.10182226839E+04  0.13995223028E+03  0.10702122032E+04  0.14859629999E+04  0.79798598534E+02 0.  0.
        254    2    1    2    0    0 -0.10182226839E+04 -0.13995223028E+03  0.32389477630E+03  0.14127897456E+04  0.91362080663E+03 0.  0.
         23    2    4    4    0    0 -0.80198832800E+03 -0.19849772710E+03  0.61511029932E+03  0.10342631452E+04  0.93557187131E+02 0.  0.
         23    2    4    4    0    0 -0.21623435590E+03  0.58545496820E+02 -0.29121552302E+03  0.37852660038E+03  0.91055117780E+02 0.  0.
          2    1    3    3  502    0  0.88176073352E+03  0.93370189563E+02  0.91891476290E+03  0.12769590146E+04  0.00000000000E+00 0. -1.
         -1    1    3    3    0  502  0.13646195038E+03  0.46582040718E+02  0.15129744029E+03  0.20900398526E+03  0.00000000000E+00 0.  1.
         11    1    5    5    0    0 -0.19099735281E+03 -0.34948286500E+02  0.99212933986E+02  0.21804719164E+03  0.00000000000E+00 0.  1.
        -11    1    5    5    0    0 -0.61099097518E+03 -0.16354944060E+03  0.51589736533E+03  0.81621595355E+03  0.00000000000E+00 0. -1.
          1    1    6    6  503    0 -0.20374203719E+03  0.69416619004E+02 -0.22956068049E+03  0.31468649596E+03  0.00000000000E+00 0. -1.
         -1    1    6    6    0  503 -0.12492318711E+02 -0.10871122184E+02 -0.61654842533E+02  0.63840104418E+02  0.00000000000E+00 0.  1.
<mgrwt>
<rscale>  0 0.25415022E+04</rscale>
<asrwt>0</asrwt>
<pdfrwt beam="1">  1        2 0.33021998E+00 0.25415022E+04</pdfrwt>
<pdfrwt beam="2">  1       -1 0.11574198E+00 0.25415022E+04</pdfrwt>
<totfact> 0.37818221E+00</totfact>
</mgrwt>
</event>
<event>
12    6  0.8914180E-008  0.1897877E+04  0.7818608E-02  0.8655914E-01
          2   -1    0    0  501    0  0.00000000000E+00  0.00000000000E+00  0.13826537204E+04  0.13826537204E+04  0.00000000000E+00 0. -1.
         -1   -1    0    0    0  501 -0.00000000000E+00 -0.00000000000E+00 -0.65127255551E+03  0.65127255551E+03  0.00000000000E+00 0.  1.
         24    2    1    2    0    0 -0.53358841811E+03  0.43913642632E+03  0.55843522804E+03  0.89208795531E+03  0.80085049961E+02 0.  0.
        254    2    1    2    0    0  0.53358841811E+03 -0.43913642632E+03  0.17294593688E+03  0.11418383206E+04  0.89237158881E+03 0.  0.
         23    2    4    4    0    0  0.39899708269E+02 -0.29066522534E+03  0.45368020118E+03  0.54788697417E+03  0.90973356431E+02 0.  0.
         23    2    4    4    0    0  0.49368870984E+03 -0.14847120098E+03 -0.28073426430E+03  0.59395134647E+03  0.90522014288E+02 0.  0.
          4    1    3    3  502    0 -0.49859455374E+03  0.43208245847E+03  0.52470348577E+03  0.84297421545E+03  0.00000000000E+00 0. -1.
         -3    1    3    3    0  502 -0.34993864376E+02  0.70539678473E+01  0.33731742269E+02  0.49113739858E+02  0.00000000000E+00 0.  1.
         11    1    5    5    0    0  0.47704319320E+02 -0.29372721242E+03  0.44775548770E+03  0.53762101350E+03  0.00000000000E+00 0. -1.
        -11    1    5    5    0    0 -0.78046110512E+01  0.30619870779E+01  0.59247134746E+01  0.10265960660E+02  0.00000000000E+00 0.  1.
          4    1    6    6  503    0  0.49034678861E+03 -0.15183011290E+03 -0.28538392805E+03  0.58731281501E+03  0.00000000000E+00 0. -1.
         -4    1    6    6    0  503  0.33419212305E+01  0.33589119219E+01  0.46496637562E+01  0.66385314533E+01  0.00000000000E+00 0.  1.
<mgrwt>
<rscale>  0 0.18978772E+04</rscale>
<asrwt>0</asrwt>
<pdfrwt beam="1">  1        2 0.21271596E+00 0.18978772E+04</pdfrwt>
<pdfrwt beam="2">  1       -1 0.10019578E+00 0.18978772E+04</pdfrwt>
<totfact> 0.14999332E+01</totfact>
</mgrwt>
</event>
<event>
12    6  0.8914180E-008  0.3621757E+04  0.7818608E-02  0.8085526E-01
         -1   -1    0    0    0  501 -0.00000000000E+00  0.00000000000E+00  0.11470353192E+04  0.11470353192E+04  0.00000000000E+00 0.  1.
          2   -1    0    0  501    0  0.00000000000E+00 -0.00000000000E+00 -0.28589182206E+04  0.28589182206E+04  0.00000000000E+00 0. -1.
         24    2    1    2    0    0  0.17857404938E+03 -0.34427336969E+03 -0.26270132248E+04  0.26569467086E+04  0.88059554229E+02 0.  0.
        254    2    1    2    0    0 -0.17857404938E+03  0.34427336969E+03  0.91513032339E+03  0.13490068312E+04  0.91210913692E+03 0.  0.
         23    2    4    4    0    0 -0.28045360102E+03  0.45502769483E+03  0.10101442192E+04  0.11463857051E+04  0.90024529446E+02 0.  0.
         23    2    4    4    0    0  0.10187955164E+03 -0.11075432514E+03 -0.95013895851E+02  0.20262112606E+03  0.96859262547E+02 0.  0.
          4    1    3    3  502    0  0.12037518957E+03 -0.30299881814E+03 -0.21131322926E+04  0.21381362342E+04  0.00000000000E+00 0. -1.
         -3    1    3    3    0  502  0.58198859811E+02 -0.41274551550E+02 -0.51388093218E+03  0.51881047440E+03  0.00000000000E+00 0.  1.
         11    1    5    5    0    0 -0.39302116297E+02  0.40856192751E+02  0.62091503566E+02  0.84078770487E+02  0.00000000000E+00 0.  1.
        -11    1    5    5    0    0 -0.24115148472E+03  0.41417150208E+03  0.94805271568E+03  0.10623069347E+04  0.00000000000E+00 0. -1.
          2    1    6    6  503    0  0.82498910787E+02 -0.33940796743E+02 -0.15810098219E+02  0.90598052795E+02  0.00000000000E+00 0.  1.
         -2    1    6    6    0  503  0.19380640858E+02 -0.76813528397E+02 -0.79203797632E+02  0.11202307327E+03  0.00000000000E+00 0. -1.
<mgrwt>
<rscale>  0 0.36217566E+04</rscale>
<asrwt>0</asrwt>
<pdfrwt beam="1">  1        2 0.43983357E+00 0.36217566E+04</pdfrwt>
<pdfrwt beam="2">  1       -1 0.17646697E+00 0.36217566E+04</pdfrwt>
<totfact> 0.43402795E-01</totfact>
</mgrwt>
</event>
<event>
12    6  0.8914180E-008  0.1171016E+04  0.7818608E-02  0.9138611E-01
         -1   -1    0    0    0  501 -0.00000000000E+00  0.00000000000E+00  0.54344519192E+03  0.54344519192E+03  0.00000000000E+00 0.  1.
          2   -1    0    0  501    0  0.00000000000E+00 -0.00000000000E+00 -0.63082692944E+03  0.63082692944E+03  0.00000000000E+00 0. -1.
         24    2    1    2    0    0  0.20390683581E+02 -0.69961430430E+01 -0.24932553491E+03  0.26164292091E+03  0.76348344523E+02 0.  0.
        254    2    1    2    0    0 -0.20390683581E+02  0.69961430430E+01  0.16194379739E+03  0.91262920045E+03  0.89788726353E+03 0.  0.
         23    2    4    4    0    0 -0.76560521977E+02  0.41143372647E+03 -0.70257522597E+02  0.43353687728E+03  0.88763053554E+02 0.  0.
         23    2    4    4    0    0  0.56169838396E+02 -0.40443758343E+03  0.23220131999E+03  0.47909232318E+03  0.94271901904E+02 0.  0.
          2    1    3    3  502    0 -0.24960146269E+02 -0.34158536537E+01 -0.15366305655E+03  0.15571452053E+03  0.00000000000E+00 0. -1.
         -1    1    3    3    0  502  0.45350829850E+02 -0.35802893893E+01 -0.95662478361E+02  0.10592840038E+03  0.00000000000E+00 0.  1.
         11    1    5    5    0    0 -0.28689641226E+02  0.79291330374E+02  0.18702163525E+02  0.86371184469E+02  0.00000000000E+00 0. -1.
        -11    1    5    5    0    0 -0.47870880751E+02  0.33214239610E+03 -0.88959686122E+02  0.34716569281E+03  0.00000000000E+00 0.  1.
          3    1    6    6  503    0  0.22932322444E+02 -0.63371744596E+02  0.42664575742E+01  0.67528305814E+02  0.00000000000E+00 0. -1.
         -3    1    6    6    0  503  0.33237515952E+02 -0.34106583883E+03  0.22793486241E+03  0.41156401736E+03  0.00000000000E+00 0.  1.
<mgrwt>
<rscale>  0 0.11710164E+04</rscale>
<asrwt>0</asrwt>
<pdfrwt beam="1">  1        2 0.97050297E-01 0.11710164E+04</pdfrwt>
<pdfrwt beam="2">  1       -1 0.83606953E-01 0.11710164E+04</pdfrwt>
<totfact> 0.74820627E+01</totfact>
</mgrwt>
</event>
<event>
12    6  0.1525405E-007  0.2702171E+04  0.7818608E-02  0.8334301E-01
          2   -1    0    0  501    0  0.00000000000E+00  0.00000000000E+00  0.18851765946E+04  0.18851765946E+04  0.00000000000E+00 0. -1.
         -1   -1    0    0    0  501 -0.00000000000E+00 -0.00000000000E+00 -0.96830803456E+03  0.96830803456E+03  0.00000000000E+00 0.  1.
         24    2    1    2    0    0 -0.50587804858E+03  0.38544777845E+03 -0.66660750369E+03  0.92448574115E+03  0.76326480761E+02 0.  0.
        254    2    1    2    0    0  0.50587804858E+03 -0.38544777845E+03  0.15834760637E+04  0.19289988880E+04  0.89953192026E+03 0.  0.
         23    2    4    4    0    0 -0.75938236102E+02  0.22235357597E+03  0.42799605903E+03  0.49683738901E+03  0.91973018459E+02 0.  0.
         23    2    4    4    0    0  0.58181628468E+03 -0.60780135442E+03  0.11554800047E+04  0.14321614990E+04  0.89553572659E+02 0.  0.
          4    1    3    3  502    0 -0.97434026365E+02  0.10009240398E+03 -0.18207964576E+03  0.22948829214E+03  0.00000000000E+00 0. -1.
         -3    1    3    3    0  502 -0.40844402221E+03  0.28535537447E+03 -0.48452785793E+03  0.69499744901E+03  0.00000000000E+00 0.  1.
         11    1    5    5    0    0 -0.11187285434E+02 -0.73491308610E+01  0.28456167021E+02  0.31447074925E+02  0.00000000000E+00 0. -1.
        -11    1    5    5    0    0 -0.64750950668E+02  0.22970270683E+03  0.39953989201E+03  0.46539031409E+03  0.00000000000E+00 0.  1.
          4    1    6    6  503    0  0.30848137213E+01 -0.18652484882E+02  0.15344672419E+02  0.24349337560E+02  0.00000000000E+00 0. -1.
         -4    1    6    6    0  503  0.57873147096E+03 -0.58914886954E+03  0.11401353323E+04  0.14078121614E+04  0.00000000000E+00 0.  1.
<mgrwt>
<rscale>  0 0.27021707E+04</rscale>
<asrwt>0</asrwt>
<pdfrwt beam="1">  1        2 0.29002717E+00 0.27021707E+04</pdfrwt>
<pdfrwt beam="2">  1       -1 0.14897047E+00 0.27021707E+04</pdfrwt>
<totfact> 0.27455258E+00</totfact>
</mgrwt>
</event>
<event>
12    6  0.8914180E-008  0.1047435E+04  0.7818608E-02  0.9257997E-01
         -1   -1    0    0    0  501 -0.00000000000E+00  0.00000000000E+00  0.38283184188E+03  0.38283184188E+03  0.00000000000E+00 0.  1.
          2   -1    0    0  501    0  0.00000000000E+00 -0.00000000000E+00 -0.71644982569E+03  0.71644982569E+03  0.00000000000E+00 0. -1.
         24    2    1    2    0    0 -0.70125560903E+02  0.85969067152E+02  0.17585610841E+01  0.13572288471E+03  0.78162229356E+02 0.  0.
        254    2    1    2    0    0  0.70125560903E+02 -0.85969067152E+02 -0.33537654490E+03  0.96355878286E+03  0.89647076158E+03 0.  0.
         23    2    4    4    0    0  0.91054121966E+02 -0.29116362310E+03 -0.56042637616E+03  0.64479866115E+03  0.92846549660E+02 0.  0.
         23    2    4    4    0    0 -0.20928561062E+02  0.20519455595E+03  0.22504983127E+03  0.31876012171E+03  0.91748450568E+02 0.  0.
          4    1    3    3  502    0 -0.48066207030E+02  0.61974003751E+01  0.17398714580E+02  0.51492555760E+02  0.00000000000E+00 0. -1.
         -3    1    3    3    0  502 -0.22059353874E+02  0.79771666777E+02 -0.15640153496E+02  0.84230328950E+02  0.00000000000E+00 0.  1.
         11    1    5    5    0    0  0.98418723044E+02 -0.17625283596E+03 -0.32243305201E+03  0.38041343333E+03  0.00000000000E+00 0. -1.
        -11    1    5    5    0    0 -0.73646010785E+01 -0.11491078714E+03 -0.23799332415E+03  0.26438522782E+03  0.00000000000E+00 0.  1.
          2    1    6    6  503    0 -0.11196017493E+02  0.21274923542E+03  0.21664093044E+03  0.30384351354E+03  0.00000000000E+00 0. -1.
         -2    1    6    6    0  503 -0.97325435694E+01 -0.75546794700E+01  0.84089008261E+01  0.14916608171E+02  0.00000000000E+00 0.  1.
<mgrwt>
<rscale>  0 0.10474346E+04</rscale>
<asrwt>0</asrwt>
<pdfrwt beam="1">  1        2 0.11022305E+00 0.10474346E+04</pdfrwt>
<pdfrwt beam="2">  1       -1 0.58897207E-01 0.10474346E+04</pdfrwt>
<totfact> 0.13217727E+02</totfact>
</mgrwt>
</event>
<event>
12    6  0.8914180E-008  0.2013740E+04  0.7818608E-02  0.8600224E-01
         -1   -1    0    0    0  501 -0.00000000000E+00  0.00000000000E+00  0.92810723586E+03  0.92810723586E+03  0.00000000000E+00 0.  1.
          2   -1    0    0  501    0  0.00000000000E+00 -0.00000000000E+00 -0.10923168976E+04  0.10923168976E+04  0.00000000000E+00 0. -1.
         24    2    1    2    0    0  0.53327450998E+03 -0.53325091385E+03 -0.34103892833E+03  0.83169992320E+03  0.81724974734E+02 0.  0.
        254    2    1    2    0    0 -0.53327450998E+03  0.53325091385E+03  0.17682926655E+03  0.11887242103E+04  0.90169752052E+03 0.  0.
         23    2    4    4    0    0 -0.60989427418E+03  0.66032490291E+03 -0.46924321045E+02  0.90485372474E+03  0.92511448962E+02 0.  0.
         23    2    4    4    0    0  0.76619764197E+02 -0.12707398906E+03  0.22375358759E+03  0.28387048556E+03  0.92186754196E+02 0.  0.
          2    1    3    3  502    0  0.46241624540E+03 -0.48392321149E+03 -0.27787418849E+03  0.72472375652E+03  0.00000000000E+00 0. -1.
         -3    1    3    3    0  502  0.70858264580E+02 -0.49327702365E+02 -0.63164739839E+02  0.10697616669E+03  0.00000000000E+00 0.  1.
         11    1    5    5    0    0 -0.50372287143E+03  0.51607773344E+03 -0.62613424074E+01  0.72118802164E+03  0.00000000000E+00 0.  1.
        -11    1    5    5    0    0 -0.10617140275E+03  0.14424716947E+03 -0.40662978638E+02  0.18366570310E+03  0.00000000000E+00 0. -1.
          4    1    6    6  503    0  0.31095626486E+01 -0.77338017312E+02  0.61229601631E+02  0.98690943949E+02  0.00000000000E+00 0. -1.
         -4    1    6    6    0  503  0.73510201548E+02 -0.49735971743E+02  0.16252398596E+03  0.18517954161E+03  0.00000000000E+00 0.  1.
<mgrwt>
<rscale>  0 0.20137400E+04</rscale>
<asrwt>0</asrwt>
<pdfrwt beam="1">  1        2 0.16804875E+00 0.20137400E+04</pdfrwt>
<pdfrwt beam="2">  1       -1 0.14278573E+00 0.20137400E+04</pdfrwt>
<totfact> 0.92783841E+00</totfact>
</mgrwt>
</event>
<event>
12    6  0.8914180E-008  0.2574106E+04  0.7818608E-02  0.8377050E-01
         -1   -1    0    0    0  501 -0.00000000000E+00  0.00000000000E+00  0.59601976773E+03  0.59601976773E+03  0.00000000000E+00 0.  1.
          2   -1    0    0  501    0  0.00000000000E+00 -0.00000000000E+00 -0.27792790389E+04  0.27792790389E+04  0.00000000000E+00 0. -1.
         24    2    1    2    0    0  0.49807283574E+03  0.10030169842E+04 -0.11402362821E+04  0.16002479961E+04  0.80840891050E+02 0.  0.
        254    2    1    2    0    0 -0.49807283574E+03 -0.10030169842E+04 -0.10430229891E+04  0.17750508106E+04  0.89932686159E+03 0.  0.
         23    2    4    4    0    0 -0.28705872553E+03  0.93696133358E+02 -0.24408552871E+03  0.39896329349E+03  0.91718520039E+02 0.  0.
         23    2    4    4    0    0 -0.21101411021E+03 -0.10967131176E+04 -0.79893746043E+03  0.13760875171E+04  0.89493977896E+02 0.  0.
          4    1    3    3  502    0  0.99605405860E+02  0.20672018840E+03 -0.18895962015E+03  0.29725445533E+03  0.00000000000E+00 0. -1.
         -3    1    3    3    0  502  0.39846742988E+03  0.79629679582E+03 -0.95127666190E+03  0.13029935407E+04  0.00000000000E+00 0.  1.
         11    1    5    5    0    0 -0.20164315411E+03  0.10217971768E+03 -0.20289919757E+03  0.30375770061E+03  0.00000000000E+00 0. -1.
        -11    1    5    5    0    0 -0.85415571414E+02 -0.84835843178E+01 -0.41186331144E+02  0.95205592882E+02  0.00000000000E+00 0.  1.
          3    1    6    6  503    0 -0.12438117905E+03 -0.42797510063E+03 -0.33596441119E+03  0.55812673297E+03  0.00000000000E+00 0. -1.
         -3    1    6    6    0  503 -0.86632931163E+02 -0.66873801695E+03 -0.46297304923E+03  0.81796078414E+03  0.00000000000E+00 0.  1.
<mgrwt>
<rscale>  0 0.25741059E+04</rscale>
<asrwt>0</asrwt>
<pdfrwt beam="1">  1        2 0.42758140E+00 0.25741059E+04</pdfrwt>
<pdfrwt beam="2">  1       -1 0.91695347E-01 0.25741059E+04</pdfrwt>
<totfact> 0.27800495E+00</totfact>
</mgrwt>
</event>
<event>
12    6  0.8914180E-008  0.2629622E+04  0.7818608E-02  0.8358208E-01
          2   -1    0    0  501    0  0.00000000000E+00  0.00000000000E+00  0.27093364652E+04  0.27093364652E+04  0.00000000000E+00 0. -1.
         -1   -1    0    0    0  501 -0.00000000000E+00 -0.00000000000E+00 -0.63806320491E+03  0.63806320491E+03  0.00000000000E+00 0.  1.
         24    2    1    2    0    0 -0.75559467576E+03  0.59394318285E+03  0.87935657405E+02  0.96829579923E+03  0.78563709640E+02 0.  0.
        254    2    1    2    0    0  0.75559467576E+03 -0.59394318285E+03  0.19833376029E+04  0.23791038709E+04  0.89599964448E+03 0.  0.
         23    2    4    4    0    0  0.35066953387E+03 -0.77701943151E+03  0.12125388958E+04  0.14846910153E+04  0.85606765095E+02 0.  0.
         23    2    4    4    0    0  0.40492514189E+03  0.18307624866E+03  0.77079870717E+03  0.89441285562E+03  0.91446301004E+02 0.  0.
          4    1    3    3  502    0 -0.17526343045E+03  0.10221468500E+03  0.29059806978E+01  0.20291268222E+03  0.00000000000E+00 0. -1.
         -3    1    3    3    0  502 -0.58033124532E+03  0.49172849785E+03  0.85029676708E+02  0.76538311701E+03  0.00000000000E+00 0.  1.
         11    1    5    5    0    0  0.20441733470E+01 -0.16462964220E+02  0.88727225833E+01  0.18813108239E+02  0.00000000000E+00 0. -1.
        -11    1    5    5    0    0  0.34862536052E+03 -0.76055646729E+03  0.12036661732E+04  0.14658779070E+04  0.00000000000E+00 0.  1.
          4    1    6    6  503    0  0.12871706483E+03  0.10002444194E+03  0.32227735494E+03  0.36115878124E+03  0.00000000000E+00 0. -1.
         -4    1    6    6    0  503  0.27620807706E+03  0.83051806727E+02  0.44852135223E+03  0.53325407438E+03  0.00000000000E+00 0.  1.
<mgrwt>
<rscale>  0 0.26296220E+04</rscale>
<asrwt>0</asrwt>
<pdfrwt beam="1">  1        2 0.41682099E+00 0.26296220E+04</pdfrwt>
<pdfrwt beam="2">  1       -1 0.98163571E-01 0.26296220E+04</pdfrwt>
<totfact> 0.26146568E+00</totfact>
</mgrwt>
</event>
<event>
12    6  0.8914180E-008  0.1720532E+04  0.7818608E-02  0.8749740E-01
         -1   -1    0    0    0  501 -0.00000000000E+00  0.00000000000E+00  0.10096115771E+04  0.10096115771E+04  0.00000000000E+00 0.  1.
          2   -1    0    0  501    0  0.00000000000E+00 -0.00000000000E+00 -0.73301205840E+03  0.73301205840E+03  0.00000000000E+00 0. -1.
         24    2    1    2    0    0  0.24714667213E+03  0.37010581931E+03  0.55370837905E+03  0.71472287876E+03  0.78587717624E+02 0.  0.
        254    2    1    2    0    0 -0.24714667213E+03 -0.37010581931E+03 -0.27710886038E+03  0.10279007567E+04  0.88415544454E+03 0.  0.
         23    2    4    4    0    0 -0.42058215260E+03  0.10010939093E+03 -0.27450203286E+03  0.51947819430E+03  0.87149245983E+02 0.  0.
         23    2    4    4    0    0  0.17343548047E+03 -0.47021521024E+03 -0.26068275165E+01  0.50842256240E+03  0.85466347666E+02 0.  0.
          4    1    3    3  502    0  0.19741089312E+03  0.23350231058E+03  0.35532085067E+03  0.46877211595E+03  0.00000000000E+00 0. -1.
         -3    1    3    3    0  502  0.49735779004E+02  0.13660350874E+03  0.19838752838E+03  0.24595076281E+03  0.00000000000E+00 0.  1.
         11    1    5    5    0    0 -0.23205702281E+03  0.10601604664E+02 -0.14786852172E+03  0.27536876289E+03  0.00000000000E+00 0.  1.
        -11    1    5    5    0    0 -0.18852512978E+03  0.89507786262E+02 -0.12663351114E+03  0.24410943142E+03  0.00000000000E+00 0. -1.
          4    1    6    6  503    0  0.32900093455E+02 -0.66650891192E+02 -0.30129549555E+02  0.80203162047E+02  0.00000000000E+00 0. -1.
         -4    1    6    6    0  503  0.14053538702E+03 -0.40356431905E+03  0.27522722038E+02  0.42821940035E+03  0.00000000000E+00 0.  1.
<mgrwt>
<rscale>  0 0.17205318E+04</rscale>
<asrwt>0</asrwt>
<pdfrwt beam="1">  1        2 0.11277109E+00 0.17205318E+04</pdfrwt>
<pdfrwt beam="2">  1       -1 0.15532486E+00 0.17205318E+04</pdfrwt>
<totfact> 0.13295902E+01</totfact>
</mgrwt>
</event>
<event>
12    6  0.8914180E-008  0.1926626E+04  0.7818608E-02  0.8641715E-01
          4   -1    0    0  501    0  0.00000000000E+00  0.00000000000E+00  0.85197142298E+03  0.85197142298E+03  0.00000000000E+00 0. -1.
         -3   -1    0    0    0  501 -0.00000000000E+00 -0.00000000000E+00 -0.10892054215E+04  0.10892054215E+04  0.00000000000E+00 0.  1.
         24    2    1    2    0    0  0.61636470121E+03 -0.40884440942E+03  0.37336943606E+02  0.74677261484E+03  0.96000494265E+02 0.  0.
        254    2    1    2    0    0 -0.61636470121E+03  0.40884440942E+03 -0.27457094215E+03  0.11944042297E+04  0.89674581993E+03 0.  0.
         23    2    4    4    0    0 -0.24408383333E+03  0.65416255104E+03 -0.22302809343E+03  0.73827297219E+03  0.88316986672E+02 0.  0.
         23    2    4    4    0    0 -0.37228086788E+03 -0.24531814162E+03 -0.51542848729E+02  0.45613125748E+03  0.81394247941E+02 0.  0.
          4    1    3    3  502    0  0.24766632423E+00  0.22118700351E+01  0.49316726198E+01  0.54106471414E+01  0.00000000000E+00 0. -1.
         -3    1    3    3    0  502  0.61611703489E+03 -0.41105627946E+03  0.32405270986E+02  0.74136196770E+03  0.00000000000E+00 0.  1.
         11    1    5    5    0    0 -0.19504065666E+03  0.53640490518E+03 -0.21682363615E+03  0.61056004557E+03  0.00000000000E+00 0.  1.
        -11    1    5    5    0    0 -0.49043176676E+02  0.11775764586E+03 -0.62044572755E+01  0.12771292662E+03  0.00000000000E+00 0. -1.
          2    1    6    6  503    0 -0.30844210998E+03 -0.21816103781E+03 -0.70261587165E+02  0.38427524544E+03  0.00000000000E+00 0.  1.
         -2    1    6    6    0  503 -0.63838757905E+02 -0.27157103809E+02  0.18718738436E+02  0.71856012043E+02  0.00000000000E+00 0. -1.
<mgrwt>
<rscale>  0 0.19266260E+04</rscale>
<asrwt>0</asrwt>
<pdfrwt beam="1">  1        4 0.13107253E+00 0.19266260E+04</pdfrwt>
<pdfrwt beam="2">  1       -3 0.16757007E+00 0.19266260E+04</pdfrwt>
<totfact> 0.21771262E-01</totfact>
</mgrwt>
</event>
<event>
12    6  0.8914180E-008  0.1769704E+04  0.7818608E-02  0.8722578E-01
          2   -1    0    0  501    0  0.00000000000E+00  0.00000000000E+00  0.16783149968E+04  0.16783149968E+04  0.00000000000E+00 0. -1.
         -1   -1    0    0    0  501 -0.00000000000E+00 -0.00000000000E+00 -0.46651739111E+03  0.46651739111E+03  0.00000000000E+00 0.  1.
         24    2    1    2    0    0  0.34544515416E+02 -0.24604915667E+03 -0.28265245601E+03  0.38382492933E+03  0.75469559693E+02 0.  0.
        254    2    1    2    0    0 -0.34544515416E+02  0.24604915667E+03  0.14944500617E+04  0.17610074586E+04  0.89779327867E+03 0.  0.
         23    2    4    4    0    0  0.30155509113E+03 -0.77997669780E+02  0.19686642690E+03  0.37899685549E+03  0.88674218078E+02 0.  0.
         23    2    4    4    0    0 -0.33609960655E+03  0.32404682645E+03  0.12975836348E+04  0.13820106031E+04  0.90888538949E+02 0.  0.
          2    1    3    3  502    0  0.52186755054E+01 -0.64951449454E+02 -0.12899921273E+03  0.14452239358E+03  0.00000000000E+00 0. -1.
         -1    1    3    3    0  502  0.29325839911E+02 -0.18109770722E+03 -0.15365324328E+03  0.23930253575E+03  0.00000000000E+00 0.  1.
         11    1    5    5    0    0  0.26174618388E+03 -0.33132351346E+02  0.15806994768E+03  0.30756288112E+03  0.00000000000E+00 0. -1.
        -11    1    5    5    0    0  0.39808907252E+02 -0.44865318434E+02  0.38796479220E+02  0.71433974373E+02  0.00000000000E+00 0.  1.
          1    1    6    6  503    0 -0.24249591985E+03  0.19907988351E+03  0.96228284305E+03  0.10121389930E+04  0.00000000000E+00 0. -1.
         -1    1    6    6    0  503 -0.93603686691E+02  0.12496694294E+03  0.33530079174E+03  0.36987161007E+03  0.00000000000E+00 0.  1.
<mgrwt>
<rscale>  0 0.17697041E+04</rscale>
<asrwt>0</asrwt>
<pdfrwt beam="1">  1        2 0.25820230E+00 0.17697041E+04</pdfrwt>
<pdfrwt beam="2">  1       -1 0.71771907E-01 0.17697041E+04</pdfrwt>
<totfact> 0.21299184E+01</totfact>
</mgrwt>
</event>
<event>
12    6  0.8914180E-008  0.1461032E+04  0.7818608E-02  0.8910788E-01
          2   -1    0    0  501    0  0.00000000000E+00  0.00000000000E+00  0.41880242808E+03  0.41880242808E+03  0.00000000000E+00 0. -1.
         -1   -1    0    0    0  501 -0.00000000000E+00 -0.00000000000E+00 -0.12742374926E+04  0.12742374926E+04  0.00000000000E+00 0.  1.
         24    2    1    2    0    0  0.12030855454E+03 -0.40827204583E+03 -0.11822818189E+03  0.44880266537E+03  0.79282518563E+02 0.  0.
        254    2    1    2    0    0 -0.12030855454E+03  0.40827204583E+03 -0.73720688261E+03  0.12442372553E+04  0.90746468138E+03 0.  0.
         23    2    4    4    0    0 -0.33554786780E+02  0.54458618160E+03 -0.77107031266E+02  0.55859678595E+03  0.91568783427E+02 0.  0.
         23    2    4    4    0    0 -0.86753767757E+02 -0.13631413577E+03 -0.66009985135E+03  0.68564046933E+03  0.90902583076E+02 0.  0.
          4    1    3    3  502    0  0.12516673257E+03 -0.34376271500E+03 -0.11701607055E+03  0.38409930477E+03  0.00000000000E+00 0. -1.
         -3    1    3    3    0  502 -0.48581780290E+01 -0.64509330837E+02 -0.12121113440E+01  0.64703360598E+02  0.00000000000E+00 0.  1.
         11    1    5    5    0    0 -0.56505643339E+02  0.35225151665E+03 -0.23063242370E+02  0.35749955505E+03  0.00000000000E+00 0.  1.
        -11    1    5    5    0    0  0.22950856559E+02  0.19233466495E+03 -0.54043788897E+02  0.20109723090E+03  0.00000000000E+00 0. -1.
          4    1    6    6  503    0 -0.74076305415E+02 -0.12762613775E+03 -0.42221535389E+03  0.44726003076E+03  0.00000000000E+00 0. -1.
         -4    1    6    6    0  503 -0.12677462342E+02 -0.86879980162E+01 -0.23788449746E+03  0.23838043857E+03  0.00000000000E+00 0.  1.
<mgrwt>
<rscale>  0 0.14610322E+04</rscale>
<asrwt>0</asrwt>
<pdfrwt beam="1">  1        2 0.64431143E-01 0.14610322E+04</pdfrwt>
<pdfrwt beam="2">  1       -1 0.19603654E+00 0.14610322E+04</pdfrwt>
<totfact> 0.13414067E+01</totfact>
</mgrwt>
</event>
<event>
12    6  0.9986886E-008  0.2731400E+04  0.7818608E-02  0.8324888E-01
         -1   -1    0    0    0  501 -0.00000000000E+00  0.00000000000E+00  0.66729177753E+03  0.66729177753E+03  0.00000000000E+00 0.  1.
          2   -1    0    0  501    0  0.00000000000E+00 -0.00000000000E+00 -0.27950833290E+04  0.27950833290E+04  0.00000000000E+00 0. -1.
         24    2    1    2    0    0 -0.86379461931E+03  0.59112251452E+03 -0.16256389999E+03  0.10623579402E+04  0.81304366857E+02 0.  0.
        254    2    1    2    0    0  0.86379461931E+03 -0.59112251452E+03 -0.19652276515E+04  0.24000171663E+04  0.89576542955E+03 0.  0.
         23    2    4    4    0    0  0.16070793130E+03 -0.36685274214E+03 -0.14195771286E+04  0.14779302464E+04  0.93116140054E+02 0.  0.
         23    2    4    4    0    0  0.70308668801E+03 -0.22426977239E+03 -0.54565052284E+03  0.92208691986E+03  0.88780476653E+02 0.  0.
          2    1    3    3  502    0 -0.12877238353E+03  0.65182598115E+02 -0.16681520018E+01  0.14433946303E+03  0.00000000000E+00 0. -1.
         -1    1    3    3    0  502 -0.73502223578E+03  0.52593991641E+03 -0.16089574798E+03  0.91801847720E+03  0.00000000000E+00 0.  1.
         11    1    5    5    0    0  0.16098673234E+03 -0.30364389777E+03 -0.12668253833E+04  0.13126168125E+04  0.00000000000E+00 0. -1.
        -11    1    5    5    0    0 -0.27880103813E+00 -0.63208844366E+02 -0.15275174532E+03  0.16531343392E+03  0.00000000000E+00 0.  1.
          2    1    6    6  503    0  0.59602281777E+03 -0.22231714141E+03 -0.47210967253E+03  0.79218410333E+03  0.00000000000E+00 0. -1.
         -2    1    6    6    0  503  0.10706387024E+03 -0.19526309767E+01 -0.73540850317E+02  0.12990281654E+03  0.00000000000E+00 0.  1.
<mgrwt>
<rscale>  0 0.27313997E+04</rscale>
<asrwt>0</asrwt>
<pdfrwt beam="1">  1        2 0.43001282E+00 0.27313997E+04</pdfrwt>
<pdfrwt beam="2">  1       -1 0.10266027E+00 0.27313997E+04</pdfrwt>
<totfact> 0.20771165E+00</totfact>
</mgrwt>
</event>
<event>
12    6  0.8914180E-008  0.1870357E+04  0.7818608E-02  0.8669754E-01
         -1   -1    0    0    0  501 -0.00000000000E+00  0.00000000000E+00  0.56427612076E+03  0.56427612076E+03  0.00000000000E+00 0.  1.
          2   -1    0    0  501    0  0.00000000000E+00 -0.00000000000E+00 -0.15498768063E+04  0.15498768063E+04  0.00000000000E+00 0. -1.
         24    2    1    2    0    0 -0.31211857998E+02 -0.81297516850E+02  0.42053244998E+03  0.43682468005E+03  0.79904901521E+02 0.  0.
        254    2    1    2    0    0  0.31211857998E+02  0.81297516850E+02 -0.14061331355E+04  0.16773282470E+04  0.91029456060E+03 0.  0.
         23    2    4    4    0    0  0.23872992802E+03 -0.60925341956E+02 -0.13848139539E+04  0.14093973226E+04  0.89371418036E+02 0.  0.
         23    2    4    4    0    0 -0.20751807002E+03  0.14222285881E+03 -0.21319181636E+02  0.26793092436E+03  0.89673751867E+02 0.  0.
          4    1    3    3  502    0  0.13371192920E+02 -0.32487957174E+02  0.54301996539E+02  0.64675830027E+02  0.00000000000E+00 0. -1.
         -3    1    3    3    0  502 -0.44583050918E+02 -0.48809559675E+02  0.36623045344E+03  0.37214885002E+03  0.00000000000E+00 0.  1.
         11    1    5    5    0    0  0.14199311327E+03 -0.34025412452E+02 -0.10420385772E+04  0.10522186889E+04  0.00000000000E+00 0. -1.
        -11    1    5    5    0    0  0.96736814747E+02 -0.26899929503E+02 -0.34277537673E+03  0.35717863378E+03  0.00000000000E+00 0.  1.
          3    1    6    6  503    0 -0.38216663355E+02  0.79822172172E+01 -0.33613239887E+02  0.51517754662E+02  0.00000000000E+00 0.  1.
         -3    1    6    6    0  503 -0.16930140666E+03  0.13424064159E+03  0.12294058251E+02  0.21641316970E+03  0.00000000000E+00 0. -1.
<mgrwt>
<rscale>  0 0.18703566E+04</rscale>
<asrwt>0</asrwt>
<pdfrwt beam="1">  1        2 0.23844258E+00 0.18703566E+04</pdfrwt>
<pdfrwt beam="2">  1       -1 0.86811711E-01 0.18703566E+04</pdfrwt>
<totfact> 0.16640257E+01</totfact>
</mgrwt>
</event>
<event>
12    6  0.8914180E-008  0.1330768E+04  0.7818608E-02  0.9005516E-01
          2   -1    0    0  501    0  0.00000000000E+00  0.00000000000E+00  0.52323902646E+03  0.52323902646E+03  0.00000000000E+00 0. -1.
         -1   -1    0    0    0  501 -0.00000000000E+00 -0.00000000000E+00 -0.84614416287E+03  0.84614416287E+03  0.00000000000E+00 0.  1.
         24    2    1    2    0    0  0.10050237392E+03  0.10596572784E+03  0.24145008516E+03  0.29458176167E+03  0.84562450584E+02 0.  0.
        254    2    1    2    0    0 -0.10050237392E+03 -0.10596572784E+03 -0.56435522156E+03  0.10748014277E+04  0.90297941845E+03 0.  0.
         23    2    4    4    0    0 -0.20626990407E+03 -0.36364734880E+03 -0.64221043162E+03  0.77219414297E+03  0.95199203484E+02 0.  0.
         23    2    4    4    0    0  0.10576753015E+03  0.25768162096E+03  0.77855210060E+02  0.30260728469E+03  0.89012059842E+02 0.  0.
          4    1    3    3  502    0  0.94019431273E+02  0.48311054104E+02  0.18808403711E+03  0.21575267419E+03  0.00000000000E+00 0. -1.
         -3    1    3    3    0  502  0.64829426461E+01  0.57654673738E+02  0.53366048047E+02  0.78829087483E+02  0.00000000000E+00 0.  1.
         11    1    5    5    0    0 -0.48220128557E+02 -0.45416804647E+02 -0.56160579964E+02  0.86843984734E+02  0.00000000000E+00 0. -1.
        -11    1    5    5    0    0 -0.15804977551E+03 -0.31823054416E+03 -0.58604985165E+03  0.68535015824E+03  0.00000000000E+00 0.  1.
          2    1    6    6  503    0  0.34488124349E+02  0.12101185259E+03 -0.81532306513E+01  0.12609430740E+03  0.00000000000E+00 0. -1.
         -2    1    6    6    0  503  0.71279405797E+02  0.13666976837E+03  0.86008440712E+02  0.17651297729E+03  0.00000000000E+00 0.  1.
<mgrwt>
<rscale>  0 0.13307677E+04</rscale>
<asrwt>0</asrwt>
<pdfrwt beam="1">  1        2 0.80498312E-01 0.13307677E+04</pdfrwt>
<pdfrwt beam="2">  1       -1 0.13017602E+00 0.13307677E+04</pdfrwt>
<totfact> 0.33012191E+01</totfact>
</mgrwt>
</event>
<event>
12    6  0.8914180E-008  0.1837928E+04  0.7818608E-02  0.8686386E-01
          2   -1    0    0  501    0  0.00000000000E+00  0.00000000000E+00  0.83472073210E+03  0.83472073210E+03  0.00000000000E+00 0. -1.
         -1   -1    0    0    0  501 -0.00000000000E+00 -0.00000000000E+00 -0.10117088898E+04  0.10117088898E+04  0.00000000000E+00 0.  1.
         24    2    1    2    0    0 -0.90527275055E+02 -0.68525806082E+03 -0.13945058579E+03  0.70854804990E+03  0.69426764936E+02 0.  0.
        254    2    1    2    0    0  0.90527275055E+02  0.68525806082E+03 -0.37537571888E+02  0.11378815720E+04  0.90310110460E+03 0.  0.
         23    2    4    4    0    0 -0.12272761145E+03  0.11445234070E+02 -0.33455932796E+03  0.36519109174E+03  0.79003351601E+02 0.  0.
         23    2    4    4    0    0  0.21325488651E+03  0.67381282675E+03  0.29702175607E+03  0.77269048025E+03  0.96577857635E+02 0.  0.
          2    1    3    3  502    0 -0.84097205069E+02 -0.65880147324E+03 -0.14715010660E+03  0.68025353723E+03  0.00000000000E+00 0. -1.
         -1    1    3    3    0  502 -0.64300699865E+01 -0.26456587581E+02  0.76995208072E+01  0.28294512668E+02  0.00000000000E+00 0.  1.
         11    1    5    5    0    0 -0.74060936151E+02  0.12338771505E+02 -0.28874325152E+03  0.29834532482E+03  0.00000000000E+00 0. -1.
        -11    1    5    5    0    0 -0.48666675300E+02 -0.89353743533E+00 -0.45816076438E+02  0.66845766912E+02  0.00000000000E+00 0.  1.
          2    1    6    6  503    0  0.34573792894E+02  0.19470559545E+03  0.12133889875E+03  0.23201022478E+03  0.00000000000E+00 0. -1.
         -2    1    6    6    0  503  0.17868109361E+03  0.47910723130E+03  0.17568285732E+03  0.54068025547E+03  0.00000000000E+00 0.  1.
<mgrwt>
<rscale>  0 0.18379275E+04</rscale>
<asrwt>0</asrwt>
<pdfrwt beam="1">  1        2 0.12841857E+00 0.18379275E+04</pdfrwt>
<pdfrwt beam="2">  1       -1 0.15564752E+00 0.18379275E+04</pdfrwt>
<totfact> 0.11026062E+01</totfact>
</mgrwt>
</event>
<event>
12    6  0.8914180E-008  0.1461437E+04  0.7818608E-02  0.8910510E-01
          2   -1    0    0  501    0  0.00000000000E+00  0.00000000000E+00  0.45108211296E+03  0.45108211296E+03  0.00000000000E+00 0. -1.
         -1   -1    0    0    0  501 -0.00000000000E+00 -0.00000000000E+00 -0.11837084652E+04  0.11837084652E+04  0.00000000000E+00 0.  1.
         24    2    1    2    0    0 -0.12271990086E+03 -0.41553409432E+03 -0.34335032438E+03  0.55889656522E+03  0.82141145375E+02 0.  0.
        254    2    1    2    0    0  0.12271990086E+03  0.41553409432E+03 -0.38927602790E+03  0.10758940130E+04  0.90459015230E+03 0.  0.
         23    2    4    4    0    0 -0.28758864188E+03 -0.11298491410E+03 -0.68403913842E+02  0.32887196073E+03  0.89469846137E+02 0.  0.
         23    2    4    4    0    0  0.41030854274E+03  0.52851900842E+03 -0.32087211406E+03  0.74702205225E+03  0.86009246329E+02 0.  0.
          2    1    3    3  502    0 -0.15529306138E+02 -0.27244187366E+02 -0.55697281863E+02  0.63918638137E+02  0.00000000000E+00 0. -1.
         -3    1    3    3    0  502 -0.10719059472E+03 -0.38828990695E+03 -0.28765304251E+03  0.49497792709E+03  0.00000000000E+00 0.  1.
         11    1    5    5    0    0 -0.18354058905E+03 -0.29886668612E+02 -0.60204184492E+02  0.19546074957E+03  0.00000000000E+00 0. -1.
        -11    1    5    5    0    0 -0.10404805283E+03 -0.83098245493E+02 -0.81997293497E+01  0.13341121116E+03  0.00000000000E+00 0.  1.
          1    1    6    6  503    0  0.25198772020E+03  0.30773226030E+03 -0.23554564352E+03  0.46225394032E+03  0.00000000000E+00 0. -1.
         -1    1    6    6    0  503  0.15832082254E+03  0.22078674812E+03 -0.85326470546E+02  0.28476811193E+03  0.00000000000E+00 0.  1.
<mgrwt>
<rscale>  0 0.14614373E+04</rscale>
<asrwt>0</asrwt>
<pdfrwt beam="1">  1        2 0.69397249E-01 0.14614373E+04</pdfrwt>
<pdfrwt beam="2">  1       -1 0.18210899E+00 0.14614373E+04</pdfrwt>
<totfact> 0.15446054E+01</totfact>
</mgrwt>
</event>
<event>
12    6  0.8914180E-008  0.1264438E+04  0.7818608E-02  0.9058252E-01
         -3   -1    0    0    0  501 -0.00000000000E+00  0.00000000000E+00  0.14071468321E+04  0.14071468321E+04  0.00000000000E+00 0.  1.
          4   -1    0    0  501    0  0.00000000000E+00 -0.00000000000E+00 -0.28405036615E+03  0.28405036615E+03  0.00000000000E+00 0. -1.
         24    2    1    2    0    0 -0.13945061499E+03  0.23577160229E+03  0.11312675074E+03  0.30718360804E+03  0.80804609083E+02 0.  0.
        254    2    1    2    0    0  0.13945061499E+03 -0.23577160229E+03  0.10099697152E+04  0.13840135902E+04  0.90577042885E+03 0.  0.
         23    2    4    4    0    0  0.27972796105E+03  0.27550991875E+03  0.50470972238E+03  0.64594756864E+03  0.91448947791E+02 0.  0.
         23    2    4    4    0    0 -0.14027734605E+03 -0.51128152103E+03  0.50525999283E+03  0.73806602157E+03  0.91472751515E+02 0.  0.
          2    1    3    3  502    0 -0.11785907458E+03  0.23585635845E+03  0.10048605682E+03  0.28216383698E+03  0.00000000000E+00 0. -1.
         -1    1    3    3    0  502 -0.21591540418E+02 -0.84756168313E-01  0.12640693919E+02  0.25019771061E+02  0.00000000000E+00 0.  1.
         11    1    5    5    0    0  0.53906193603E+02  0.10806337968E+02  0.61854364860E+02  0.82756371968E+02  0.00000000000E+00 0. -1.
        -11    1    5    5    0    0  0.22582176745E+03  0.26470358078E+03  0.44285535752E+03  0.56319119668E+03  0.00000000000E+00 0.  1.
          4    1    6    6  503    0 -0.22640031632E+02 -0.24692449315E+02  0.12871938377E+02  0.35888366960E+02  0.00000000000E+00 0. -1.
         -4    1    6    6    0  503 -0.11763731442E+03 -0.48658907172E+03  0.49238805445E+03  0.70217765461E+03  0.00000000000E+00 0.  1.
<mgrwt>
<rscale>  0 0.12644375E+04</rscale>
<asrwt>0</asrwt>
<pdfrwt beam="1">  1        4 0.43700057E-01 0.12644375E+04</pdfrwt>
<pdfrwt beam="2">  1       -3 0.21648412E+00 0.12644375E+04</pdfrwt>
<totfact> 0.13281870E+00</totfact>
</mgrwt>
</event>
<event>
12    6  0.8914180E-008  0.2022679E+04  0.7818608E-02  0.8596090E-01
         -1   -1    0    0    0  501 -0.00000000000E+00  0.00000000000E+00  0.68601831983E+03  0.68601831983E+03  0.00000000000E+00 0.  1.
          2   -1    0    0  501    0  0.00000000000E+00 -0.00000000000E+00 -0.14909339638E+04  0.14909339638E+04  0.00000000000E+00 0. -1.
         24    2    1    2    0    0 -0.27037897776E+03  0.68854615510E+03 -0.65930753548E+03  0.99417697905E+03  0.80627786820E+02 0.  0.
        254    2    1    2    0    0  0.27037897776E+03 -0.68854615510E+03 -0.14560810848E+03  0.11827753046E+04  0.91134795799E+03 0.  0.
         23    2    4    4    0    0  0.17698761640E+03 -0.89091915736E+03 -0.20387908546E+03  0.93505562049E+03  0.87754034698E+02 0.  0.
         23    2    4    4    0    0  0.93391361360E+02  0.20237300226E+03  0.58270976980E+02  0.24771968409E+03  0.91064574370E+02 0.  0.
          2    1    3    3  502    0 -0.26391220112E+03  0.65556479001E+03 -0.60489745673E+03  0.93022350914E+03  0.00000000000E+00 0. -1.
         -1    1    3    3    0  502 -0.64667766367E+01  0.32981365093E+02 -0.54410078749E+02  0.63953469906E+02  0.00000000000E+00 0.  1.
         11    1    5    5    0    0  0.17655446597E+03 -0.89209068872E+03 -0.20614695744E+03  0.93246653796E+03  0.00000000000E+00 0. -1.
        -11    1    5    5    0    0  0.43315042554E+00  0.11715313611E+01  0.22678719760E+01  0.25890825249E+01  0.00000000000E+00 0.  1.
          4    1    6    6  503    0  0.91998534656E+02  0.15889457602E+03  0.11679276085E+02  0.18397723272E+03  0.00000000000E+00 0. -1.
         -4    1    6    6    0  503  0.13928267039E+01  0.43478426240E+02  0.46591700896E+02  0.63742451372E+02  0.00000000000E+00 0.  1.
<mgrwt>
<rscale>  0 0.20226794E+04</rscale>
<asrwt>0</asrwt>
<pdfrwt beam="1">  1        2 0.22937445E+00 0.20226794E+04</pdfrwt>
<pdfrwt beam="2">  1       -1 0.10554128E+00 0.20226794E+04</pdfrwt>
<totfact> 0.11416799E+01</totfact>
</mgrwt>
</event>
<event>
12    6  0.8914180E-008  0.1968783E+04  0.7818608E-02  0.8621356E-01
          2   -1    0    0  501    0  0.00000000000E+00  0.00000000000E+00  0.24391956822E+04  0.24391956822E+04  0.00000000000E+00 0. -1.
         -1   -1    0    0    0  501 -0.00000000000E+00 -0.00000000000E+00 -0.39727320434E+03  0.39727320434E+03  0.00000000000E+00 0.  1.
         24    2    1    2    0    0  0.57437091875E+03  0.41175299674E+03  0.34999901829E+03  0.79266875999E+03  0.79887218194E+02 0.  0.
        254    2    1    2    0    0 -0.57437091875E+03 -0.41175299674E+03  0.16919234596E+04  0.20438001265E+04  0.90281309338E+03 0.  0.
         23    2    4    4    0    0  0.14047009975E+03 -0.20944938979E+03  0.96089811175E+03  0.99758888657E+03  0.90870840341E+02 0.  0.
         23    2    4    4    0    0 -0.71484101850E+03 -0.20230360696E+03  0.73102534782E+03  0.10462112400E+04  0.90749481476E+02 0.  0.
          2    1    3    3  502    0  0.39664707290E+03  0.28754892826E+03  0.20076874279E+03  0.52945384564E+03  0.00000000000E+00 0. -1.
         -1    1    3    3    0  502  0.17772384585E+03  0.12420406849E+03  0.14923027549E+03  0.26321491435E+03  0.00000000000E+00 0.  1.
         11    1    5    5    0    0  0.10253412360E+03 -0.76247696410E+02  0.51884093953E+03  0.53434340853E+03  0.00000000000E+00 0. -1.
        -11    1    5    5    0    0  0.37935976153E+02 -0.13320169338E+03  0.44205717223E+03  0.46324547804E+03  0.00000000000E+00 0.  1.
          4    1    6    6  503    0 -0.31438661026E+03 -0.11739504481E+03  0.37987799931E+03  0.50688049046E+03  0.00000000000E+00 0. -1.
         -4    1    6    6    0  503 -0.40045440824E+03 -0.84908562148E+02  0.35114734851E+03  0.53933074952E+03  0.00000000000E+00 0.  1.
<mgrwt>
<rscale>  0 0.19687835E+04</rscale>
<asrwt>0</asrwt>
<pdfrwt beam="1">  1        2 0.37526087E+00 0.19687835E+04</pdfrwt>
<pdfrwt beam="2">  1       -1 0.61118956E-01 0.19687835E+04</pdfrwt>
<totfact> 0.10871172E+01</totfact>
</mgrwt>
</event>
<event>
12    6  0.8914180E-008  0.1549225E+04  0.7818608E-02  0.8852363E-01
          2   -1    0    0  501    0  0.00000000000E+00  0.00000000000E+00  0.29931862408E+04  0.29931862408E+04  0.00000000000E+00 0. -1.
         -1   -1    0    0    0  501 -0.00000000000E+00 -0.00000000000E+00 -0.20046354880E+03  0.20046354880E+03  0.00000000000E+00 0.  1.
         24    2    1    2    0    0 -0.10695676893E+03 -0.44584554925E+03  0.13562962273E+04  0.14338838313E+04  0.79154162293E+02 0.  0.
        254    2    1    2    0    0  0.10695676893E+03  0.44584554925E+03  0.14364264647E+04  0.17597659582E+04  0.90732421720E+03 0.  0.
         23    2    4    4    0    0  0.26020858692E+03  0.65669114786E+03  0.12040061207E+04  0.13987042766E+04  0.88267446554E+02 0.  0.
         23    2    4    4    0    0 -0.15325181799E+03 -0.21084559861E+03  0.23242034396E+03  0.36106168168E+03  0.91675163065E+02 0.  0.
          2    1    3    3  502    0 -0.82830971549E+02 -0.42591762996E+03  0.12718571025E+04  0.13438330575E+04  0.00000000000E+00 0. -1.
         -1    1    3    3    0  502 -0.24125797379E+02 -0.19927919290E+02  0.84439124780E+02  0.90050773789E+02  0.00000000000E+00 0.  1.
         11    1    5    5    0    0  0.45477379932E+02  0.16751758884E+03  0.36296615358E+03  0.40233662933E+03  0.00000000000E+00 0. -1.
        -11    1    5    5    0    0  0.21473120699E+03  0.48917355901E+03  0.84103996715E+03  0.99636764723E+03  0.00000000000E+00 0.  1.
          3    1    6    6  503    0 -0.16390021310E+02  0.79515672563E+01  0.14398452984E+02  0.23220156518E+02  0.00000000000E+00 0. -1.
         -3    1    6    6    0  503 -0.13686179668E+03 -0.21879716586E+03  0.21802189098E+03  0.33784152517E+03  0.00000000000E+00 0.  1.
<mgrwt>
<rscale>  0 0.15492253E+04</rscale>
<asrwt>0</asrwt>
<pdfrwt beam="1">  1        2 0.46049016E+00 0.15492253E+04</pdfrwt>
<pdfrwt beam="2">  1       -1 0.30840548E-01 0.15492253E+04</pdfrwt>
<totfact> 0.18856289E+01</totfact>
</mgrwt>
</event>
<event>
12    6  0.8914180E-008  0.2533742E+04  0.7818608E-02  0.8391062E-01
          2   -1    0    0  501    0  0.00000000000E+00  0.00000000000E+00  0.23780253058E+04  0.23780253058E+04  0.00000000000E+00 0. -1.
         -1   -1    0    0    0  501 -0.00000000000E+00 -0.00000000000E+00 -0.67491398987E+03  0.67491398987E+03  0.00000000000E+00 0.  1.
         24    2    1    2    0    0 -0.71502746287E+03  0.36090229543E+03  0.16629696062E+04  0.18474286415E+04  0.77523769512E+02 0.  0.
        254    2    1    2    0    0  0.71502746287E+03 -0.36090229543E+03  0.40141709711E+02  0.12055106541E+04  0.90007213092E+03 0.  0.
         23    2    4    4    0    0  0.57210986524E+03 -0.27423736917E+03 -0.37994982312E+03  0.74513913340E+03  0.91403651398E+02 0.  0.
         23    2    4    4    0    0  0.14291759763E+03 -0.86664926266E+02  0.42009153283E+03  0.46037152073E+03  0.86768611774E+02 0.  0.
          4    1    3    3  502    0 -0.34039862916E+03  0.20017874849E+03  0.75098123549E+03  0.84847838755E+03  0.00000000000E+00 0. -1.
         -3    1    3    3    0  502 -0.37462883372E+03  0.16072354695E+03  0.91198837070E+03  0.99895025396E+03  0.00000000000E+00 0.  1.
         11    1    5    5    0    0  0.23459411946E+03 -0.63410972306E+02 -0.14744509568E+03  0.28424533160E+03  0.00000000000E+00 0.  1.
        -11    1    5    5    0    0  0.33751574578E+03 -0.21082639686E+03 -0.23250472744E+03  0.46089380180E+03  0.00000000000E+00 0. -1.
          1    1    6    6  503    0  0.77061135998E+02 -0.40476491681E+01  0.12460938552E+03  0.14656841783E+03  0.00000000000E+00 0. -1.
         -1    1    6    6    0  503  0.65856461637E+02 -0.82617277098E+02  0.29548214731E+03  0.31380310290E+03  0.00000000000E+00 0.  1.
<mgrwt>
<rscale>  0 0.25337423E+04</rscale>
<asrwt>0</asrwt>
<pdfrwt beam="1">  1        2 0.36585004E+00 0.25337423E+04</pdfrwt>
<pdfrwt beam="2">  1       -1 0.10383292E+00 0.25337423E+04</pdfrwt>
<totfact> 0.36167774E+00</totfact>
</mgrwt>
</event>
<event>
12    6  0.1008267E-007  0.1573833E+04  0.7818608E-02  0.8836787E-01
          2   -1    0    0  501    0  0.00000000000E+00  0.00000000000E+00  0.84851536942E+03  0.84851536942E+03  0.00000000000E+00 0. -1.
         -1   -1    0    0    0  501 -0.00000000000E+00 -0.00000000000E+00 -0.72978938188E+03  0.72978938188E+03  0.00000000000E+00 0.  1.
         24    2    1    2    0    0 -0.28177651043E+03 -0.31539280725E+03  0.34634775527E+03  0.55235659934E+03  0.79185987141E+02 0.  0.
        254    2    1    2    0    0  0.28177651043E+03  0.31539280725E+03 -0.22762176773E+03  0.10259481520E+04  0.90658001119E+03 0.  0.
         23    2    4    4    0    0 -0.17098373810E+03  0.10236066877E+03  0.24671533067E+03  0.32954216271E+03  0.89534559855E+02 0.  0.
         23    2    4    4    0    0  0.45276024853E+03  0.21303213848E+03 -0.47433709840E+03  0.69640598926E+03  0.98036137630E+02 0.  0.
          4    1    3    3  502    0 -0.25606520785E+03 -0.29105724704E+03  0.28365210598E+03  0.48035635621E+03  0.00000000000E+00 0. -1.
         -3    1    3    3    0  502 -0.25711302582E+02 -0.24335560211E+02  0.62695649284E+02  0.72000243127E+02  0.00000000000E+00 0.  1.
         11    1    5    5    0    0 -0.23642431655E+01 -0.68441722391E+01  0.42371078642E+02  0.42985353840E+02  0.00000000000E+00 0. -1.
        -11    1    5    5    0    0 -0.16861949494E+03  0.10920484101E+03  0.20434425203E+03  0.28655680887E+03  0.00000000000E+00 0.  1.
          1    1    6    6  503    0  0.34025936527E+03  0.14245715102E+03 -0.40035330571E+03  0.54438336209E+03  0.00000000000E+00 0.  1.
         -1    1    6    6    0  503  0.11250088327E+03  0.70574987461E+02 -0.73983792693E+02  0.15202262717E+03  0.00000000000E+00 0. -1.
<mgrwt>
<rscale>  0 0.15738329E+04</rscale>
<asrwt>0</asrwt>
<pdfrwt beam="1">  1        2 0.13054083E+00 0.15738329E+04</pdfrwt>
<pdfrwt beam="2">  1       -1 0.11227529E+00 0.15738329E+04</pdfrwt>
<totfact> 0.25373132E+01</totfact>
</mgrwt>
</event>
<event>
12    6  0.8914180E-008  0.1205233E+04  0.7818608E-02  0.9108288E-01
          2   -1    0    0  501    0  0.00000000000E+00  0.00000000000E+00  0.66374670288E+03  0.66374670288E+03  0.00000000000E+00 0. -1.
         -1   -1    0    0    0  501 -0.00000000000E+00 -0.00000000000E+00 -0.54711624525E+03  0.54711624525E+03  0.00000000000E+00 0.  1.
         24    2    1    2    0    0 -0.19919029727E+03  0.13314099898E+03 -0.55360667728E+02  0.25913408274E+03  0.81745759343E+02 0.  0.
        254    2    1    2    0    0  0.19919029727E+03 -0.13314099898E+03  0.17199112536E+03  0.95172886539E+03  0.90487766349E+03 0.  0.
         23    2    4    4    0    0 -0.26012023496E+03  0.20225293176E+03  0.15519375367E+03  0.37564031011E+03  0.91933434408E+02 0.  0.
         23    2    4    4    0    0  0.45931053223E+03 -0.33539393074E+03  0.16797371694E+02  0.57608855528E+03  0.90225373578E+02 0.  0.
          2    1    3    3  502    0 -0.37759137783E+02  0.13795533546E+02 -0.41685993052E+02  0.57911926653E+02  0.00000000000E+00 0. -1.
         -1    1    3    3    0  502 -0.16143115948E+03  0.11934546544E+03 -0.13674674676E+02  0.20122215609E+03  0.00000000000E+00 0.  1.
         11    1    5    5    0    0 -0.18524196469E+03  0.10132927413E+03  0.12848716859E+03  0.24716625937E+03  0.00000000000E+00 0.  1.
        -11    1    5    5    0    0 -0.74878270271E+02  0.10092365763E+03  0.26706585077E+02  0.12847405074E+03  0.00000000000E+00 0. -1.
          1    1    6    6  503    0  0.17039227606E+03 -0.17216146266E+03  0.29432305555E+02  0.24400688018E+03  0.00000000000E+00 0. -1.
         -1    1    6    6    0  503  0.28891825617E+03 -0.16323246808E+03 -0.12634933861E+02  0.33208167510E+03  0.00000000000E+00 0.  1.
<mgrwt>
<rscale>  0 0.12052329E+04</rscale>
<asrwt>0</asrwt>
<pdfrwt beam="1">  1        2 0.10211488E+00 0.12052329E+04</pdfrwt>
<pdfrwt beam="2">  1       -1 0.84171730E-01 0.12052329E+04</pdfrwt>
<totfact> 0.69073746E+01</totfact>
</mgrwt>
</event>
<event>
12    6  0.8914180E-008  0.2441455E+04  0.7818608E-02  0.8424145E-01
          2   -1    0    0  501    0  0.00000000000E+00  0.00000000000E+00  0.14170198614E+04  0.14170198614E+04  0.00000000000E+00 0. -1.
         -1   -1    0    0    0  501 -0.00000000000E+00 -0.00000000000E+00 -0.10516262761E+04  0.10516262761E+04  0.00000000000E+00 0.  1.
         24    2    1    2    0    0  0.10698922236E+03  0.98287414266E+03 -0.20661320569E+03  0.10132126786E+04  0.80141382788E+02 0.  0.
        254    2    1    2    0    0 -0.10698922236E+03 -0.98287414266E+03  0.57200679101E+03  0.14554334589E+04  0.90200139152E+03 0.  0.
         23    2    4    4    0    0  0.30408762223E+03 -0.93795581099E+02  0.27128382902E+03  0.42684455261E+03  0.85641480486E+02 0.  0.
         23    2    4    4    0    0 -0.41107684459E+03 -0.88907856156E+03  0.30072296199E+03  0.10285889063E+04  0.90088720008E+02 0.  0.
          2    1    3    3  502    0  0.24569560596E+01  0.14748113849E+03 -0.56906613634E+02  0.15809834129E+03  0.00000000000E+00 0. -1.
         -1    1    3    3    0  502  0.10453226630E+03  0.83539300417E+03 -0.14970659206E+03  0.85511433728E+03  0.00000000000E+00 0.  1.
         11    1    5    5    0    0  0.19536640769E+03 -0.98634985461E+02  0.15930083089E+03  0.27069105699E+03  0.00000000000E+00 0. -1.
        -11    1    5    5    0    0  0.10872121454E+03  0.48394043618E+01  0.11198299813E+03  0.15615349563E+03  0.00000000000E+00 0.  1.
          4    1    6    6  503    0 -0.32773428299E+03 -0.62362530076E+03  0.23549174413E+03  0.74281534552E+03  0.00000000000E+00 0. -1.
         -4    1    6    6    0  503 -0.83342561603E+02 -0.26545326081E+03  0.65231217862E+02  0.28577356076E+03  0.00000000000E+00 0.  1.
<mgrwt>
<rscale>  0 0.24414547E+04</rscale>
<asrwt>0</asrwt>
<pdfrwt beam="1">  1        2 0.21800305E+00 0.24414547E+04</pdfrwt>
<pdfrwt beam="2">  1       -1 0.16178866E+00 0.24414547E+04</pdfrwt>
<totfact> 0.40925196E+00</totfact>
</mgrwt>
</event>
<event>
12    6  0.1331155E-007  0.2266854E+04  0.7818608E-02  0.8491106E-01
         -1   -1    0    0    0  501 -0.00000000000E+00  0.00000000000E+00  0.94770024321E+03  0.94770024321E+03  0.00000000000E+00 0.  1.
          2   -1    0    0  501    0  0.00000000000E+00 -0.00000000000E+00 -0.13555518529E+04  0.13555518529E+04  0.00000000000E+00 0. -1.
         24    2    1    2    0    0 -0.26093184964E+03 -0.27128830802E+02  0.75816462293E+03  0.80624906670E+03  0.80015988909E+02 0.  0.
        254    2    1    2    0    0  0.26093184964E+03  0.27128830802E+02 -0.11660162326E+04  0.14970030294E+04  0.90144484676E+03 0.  0.
         23    2    4    4    0    0  0.24439005091E+03  0.21365297295E+03 -0.12343221752E+04  0.12788137052E+04  0.80244441564E+02 0.  0.
         23    2    4    4    0    0  0.16541798726E+02 -0.18652414215E+03  0.68305942592E+02  0.21818932427E+03  0.88746789927E+02 0.  0.
          2    1    3    3  502    0  0.53040953205E+01  0.29749896783E+01  0.22682339254E+02  0.23483451722E+02  0.00000000000E+00 0. -1.
         -1    1    3    3    0  502 -0.26623594496E+03 -0.30103820481E+02  0.73548228368E+03  0.78276561498E+03  0.00000000000E+00 0.  1.
         11    1    5    5    0    0  0.12216571181E+01  0.49028054318E+01 -0.18902728968E+01  0.53947269477E+01  0.00000000000E+00 0.  1.
        -11    1    5    5    0    0  0.24316839379E+03  0.20875016752E+03 -0.12324319023E+04  0.12734189782E+04  0.00000000000E+00 0. -1.
          3    1    6    6  503    0 -0.11897327596E+02 -0.15489646182E+03  0.79066648670E+02  0.17431579165E+03  0.00000000000E+00 0. -1.
         -3    1    6    6    0  503  0.28439126321E+02 -0.31627680337E+02 -0.10760706079E+02  0.43873532622E+02  0.00000000000E+00 0.  1.
<mgrwt>
<rscale>  0 0.22668540E+04</rscale>
<asrwt>0</asrwt>
<pdfrwt beam="1">  1        2 0.20854644E+00 0.22668540E+04</pdfrwt>
<pdfrwt beam="2">  1       -1 0.14580004E+00 0.22668540E+04</pdfrwt>
<totfact> 0.59867964E+00</totfact>
</mgrwt>
</event>
<event>
12    6  0.9376906E-008  0.1950933E+04  0.7818608E-02  0.8629911E-01
          2   -1    0    0  501    0  0.00000000000E+00  0.00000000000E+00  0.14802568294E+04  0.14802568294E+04  0.00000000000E+00 0. -1.
         -1   -1    0    0    0  501 -0.00000000000E+00 -0.00000000000E+00 -0.64281710947E+03  0.64281710947E+03  0.00000000000E+00 0.  1.
         24    2    1    2    0    0 -0.17323918163E+03 -0.63911637712E+03  0.75493727760E+03  0.10073747984E+04  0.79950820850E+02 0.  0.
        254    2    1    2    0    0  0.17323918163E+03  0.63911637712E+03  0.82502442343E+02  0.11156991405E+04  0.89414560423E+03 0.  0.
         23    2    4    4    0    0  0.18692353086E+03  0.85095072810E+03  0.11027959453E+03  0.88291243466E+03  0.91187884391E+02 0.  0.
         23    2    4    4    0    0 -0.13684349230E+02 -0.21183435098E+03 -0.27777152187E+02  0.23278670584E+03  0.91416773953E+02 0.  0.
          2    1    3    3  502    0 -0.12785105572E+03 -0.49242049814E+03  0.52663248672E+03  0.73223330674E+03  0.00000000000E+00 0. -1.
         -1    1    3    3    0  502 -0.45388125909E+02 -0.14669587898E+03  0.22830479087E+03  0.27514149164E+03  0.00000000000E+00 0.  1.
         11    1    5    5    0    0  0.26410409199E+02  0.23975379807E+03 -0.13390945206E+01  0.24120776641E+03  0.00000000000E+00 0.  1.
        -11    1    5    5    0    0  0.16051312166E+03  0.61119693004E+03  0.11161868905E+03  0.64170466825E+03  0.00000000000E+00 0. -1.
          4    1    6    6  503    0 -0.14074630767E+02 -0.21410175463E+03 -0.99317626864E+01  0.21479361368E+03  0.00000000000E+00 0. -1.
         -4    1    6    6    0  503  0.39028153701E+00  0.22674036464E+01 -0.17845389501E+02  0.17993092158E+02  0.00000000000E+00 0.  1.
<mgrwt>
<rscale>  0 0.19509325E+04</rscale>
<asrwt>0</asrwt>
<pdfrwt beam="1">  1        2 0.22773182E+00 0.19509325E+04</pdfrwt>
<pdfrwt beam="2">  1       -1 0.98894940E-01 0.19509325E+04</pdfrwt>
<totfact> 0.13533406E+01</totfact>
</mgrwt>
</event>
<event>
12    6  0.8914180E-008  0.1852586E+04  0.7818608E-02  0.8678824E-01
          2   -1    0    0  501    0  0.00000000000E+00  0.00000000000E+00  0.86798691868E+03  0.86798691868E+03  0.00000000000E+00 0. -1.
         -1   -1    0    0    0  501 -0.00000000000E+00 -0.00000000000E+00 -0.98851548104E+03  0.98851548104E+03  0.00000000000E+00 0.  1.
         24    2    1    2    0    0  0.40692122664E+03 -0.94978952578E+02 -0.61809552213E+03  0.75032003099E+03  0.79575048209E+02 0.  0.
        254    2    1    2    0    0 -0.40692122664E+03  0.94978952578E+02  0.49756695977E+03  0.11061823687E+04  0.89524335646E+03 0.  0.
         23    2    4    4    0    0 -0.20104806100E+03  0.26942488845E+03 -0.16429958365E+03  0.38511650286E+03  0.91160705555E+02 0.  0.
         23    2    4    4    0    0 -0.20587316564E+03 -0.17444593587E+03  0.66186654343E+03  0.72106586587E+03  0.95149969710E+02 0.  0.
          2    1    3    3  502    0  0.93780147936E+02 -0.10526894890E+01 -0.18782786392E+03  0.20994077919E+03  0.00000000000E+00 0. -1.
         -3    1    3    3    0  502  0.31314107871E+03 -0.93926263089E+02 -0.43026765822E+03  0.54037925180E+03  0.00000000000E+00 0.  1.
         11    1    5    5    0    0 -0.11222004626E+03  0.18354947695E+03 -0.14652068468E+03  0.26029225941E+03  0.00000000000E+00 0. -1.
        -11    1    5    5    0    0 -0.88828014741E+02  0.85875411496E+02 -0.17778898973E+02  0.12482424344E+03  0.00000000000E+00 0.  1.
          1    1    6    6  503    0 -0.15384214534E+03 -0.79382375654E+02  0.34161121653E+03  0.38297152702E+03  0.00000000000E+00 0. -1.
         -1    1    6    6    0  503 -0.52031020300E+02 -0.95063560215E+02  0.32025532690E+03  0.33809433885E+03  0.00000000000E+00 0.  1.
<mgrwt>
<rscale>  0 0.18525858E+04</rscale>
<asrwt>0</asrwt>
<pdfrwt beam="1">  1        2 0.13353645E+00 0.18525858E+04</pdfrwt>
<pdfrwt beam="2">  1       -1 0.15207931E+00 0.18525858E+04</pdfrwt>
<totfact> 0.11121710E+01</totfact>
</mgrwt>
</event>
<event>
12    6  0.8914180E-008  0.1553355E+04  0.7818608E-02  0.8849727E-01
         -1   -1    0    0    0  501 -0.00000000000E+00  0.00000000000E+00  0.23594264253E+03  0.23594264253E+03  0.00000000000E+00 0.  1.
          2   -1    0    0  501    0  0.00000000000E+00 -0.00000000000E+00 -0.25566729684E+04  0.25566729684E+04  0.00000000000E+00 0. -1.
         24    2    1    2    0    0  0.13871835315E+03  0.40398958587E+03 -0.13048753280E+04  0.13747332196E+04  0.68858088846E+02 0.  0.
        254    2    1    2    0    0 -0.13871835315E+03 -0.40398958587E+03 -0.10158549979E+04  0.14178823914E+04  0.89217640184E+03 0.  0.
         23    2    4    4    0    0 -0.38792717220E+03 -0.52636657567E+03 -0.51039307638E+03  0.83450438690E+03  0.91363102126E+02 0.  0.
         23    2    4    4    0    0  0.24920881905E+03  0.12237698980E+03 -0.50546192150E+03  0.58337800445E+03  0.88073712679E+02 0.  0.
          2    1    3    3  502    0  0.14257282407E+03  0.40376259556E+03 -0.12985022930E+04  0.13672817737E+04  0.00000000000E+00 0. -1.
         -1    1    3    3    0  502 -0.38544709247E+01  0.22699030669E+00 -0.63730349935E+01  0.74514458823E+01  0.00000000000E+00 0.  1.
         11    1    5    5    0    0 -0.19038948664E+02 -0.23280448622E+02 -0.53051253674E+02  0.60982754699E+02  0.00000000000E+00 0.  1.
        -11    1    5    5    0    0 -0.36888822354E+03 -0.50308612705E+03 -0.45734182271E+03  0.77352163220E+03  0.00000000000E+00 0. -1.
          4    1    6    6  503    0  0.12591270411E+03  0.70618803290E+02 -0.17483544161E+03  0.22673432929E+03  0.00000000000E+00 0.  1.
         -4    1    6    6    0  503  0.12329611495E+03  0.51758186509E+02 -0.33062647989E+03  0.35664367516E+03  0.00000000000E+00 0. -1.
<mgrwt>
<rscale>  0 0.15533553E+04</rscale>
<asrwt>0</asrwt>
<pdfrwt beam="1">  1        2 0.39333432E+00 0.15533553E+04</pdfrwt>
<pdfrwt beam="2">  1       -1 0.36298867E-01 0.15533553E+04</pdfrwt>
<totfact> 0.25767627E+01</totfact>
</mgrwt>
</event>
<event>
12    6  0.8914180E-008  0.2690030E+04  0.7818608E-02  0.8338247E-01
         -3   -1    0    0    0  501 -0.00000000000E+00  0.00000000000E+00  0.19011586532E+04  0.19011586532E+04  0.00000000000E+00 0.  1.
          4   -1    0    0  501    0  0.00000000000E+00 -0.00000000000E+00 -0.95155918648E+03  0.95155918648E+03  0.00000000000E+00 0. -1.
         24    2    1    2    0    0  0.91013801730E+03 -0.34008218424E+03 -0.33621428379E+03  0.10311922054E+04  0.79436876068E+02 0.  0.
        254    2    1    2    0    0 -0.91013801730E+03  0.34008218424E+03  0.12858137505E+04  0.18215256343E+04  0.84890019013E+03 0.  0.
         23    2    4    4    0    0 -0.81119714939E+03 -0.92113799047E+02  0.95677467218E+03  0.12616129589E+04  0.98608912540E+02 0.  0.
         23    2    4    4    0    0 -0.98940867906E+02  0.43219598329E+03  0.32903907836E+03  0.55991267539E+03  0.93020565812E+02 0.  0.
          4    1    3    3  502    0  0.82128116934E+03 -0.28075221370E+03 -0.30279300197E+03  0.91924325761E+03  0.00000000000E+00 0. -1.
         -3    1    3    3    0  502  0.88856847959E+02 -0.59329970541E+02 -0.33421281812E+02  0.11194894779E+03  0.00000000000E+00 0.  1.
         11    1    5    5    0    0 -0.76019449012E+03 -0.10955470920E+03  0.90330757581E+03  0.11856907158E+04  0.00000000000E+00 0. -1.
        -11    1    5    5    0    0 -0.51002659273E+02  0.17440910152E+02  0.53467096365E+02  0.75922243075E+02  0.00000000000E+00 0.  1.
          1    1    6    6  503    0 -0.10051682178E+03  0.41379339304E+03  0.28566558137E+03  0.51277034622E+03  0.00000000000E+00 0. -1.
         -1    1    6    6    0  503  0.15759538726E+01  0.18402590248E+02  0.43373496991E+02  0.47142329171E+02  0.00000000000E+00 0.  1.
<mgrwt>
<rscale>  0 0.26900297E+04</rscale>
<asrwt>0</asrwt>
<pdfrwt beam="1">  1        4 0.14639372E+00 0.26900297E+04</pdfrwt>
<pdfrwt beam="2">  1       -3 0.29248595E+00 0.26900297E+04</pdfrwt>
<totfact> 0.26629587E-02</totfact>
</mgrwt>
</event>
<event>
12    6  0.8914180E-008  0.1760698E+04  0.7818608E-02  0.8727484E-01
         -1   -1    0    0    0  501 -0.00000000000E+00  0.00000000000E+00  0.20925928621E+03  0.20925928621E+03  0.00000000000E+00 0.  1.
          2   -1    0    0  501    0  0.00000000000E+00 -0.00000000000E+00 -0.37036082998E+04  0.37036082998E+04  0.00000000000E+00 0. -1.
         24    2    1    2    0    0 -0.33758969404E+03  0.83129636872E+02 -0.24946731248E+04  0.25201264953E+04  0.82257003719E+02 0.  0.
        254    2    1    2    0    0  0.33758969404E+03 -0.83129636872E+02 -0.99967588887E+03  0.13927410908E+04  0.90526157829E+03 0.  0.
         23    2    4    4    0    0 -0.25779524863E+03  0.15153377459E+03 -0.23413420899E+03  0.39051506115E+03  0.90897250281E+02 0.  0.
         23    2    4    4    0    0  0.59538494267E+03 -0.23466341146E+03 -0.76554167988E+03  0.10022260296E+04  0.94089341588E+02 0.  0.
          4    1    3    3  502    0 -0.65894040266E+02  0.39527547749E+02 -0.74428113454E+03  0.74823716748E+03  0.00000000000E+00 0. -1.
         -3    1    3    3    0  502 -0.27169565377E+03  0.43602089123E+02 -0.17503919902E+04  0.17718893278E+04  0.00000000000E+00 0.  1.
         11    1    5    5    0    0  0.73949103513E+01  0.17865013695E+01 -0.29526518376E+01  0.81605415948E+01  0.00000000000E+00 0. -1.
        -11    1    5    5    0    0 -0.26519015898E+03  0.14974727322E+03 -0.23118155715E+03  0.38235451956E+03  0.00000000000E+00 0.  1.
          3    1    6    6  503    0  0.55488583756E+01 -0.10729889597E+02 -0.28672296220E+01  0.12415368128E+02  0.00000000000E+00 0. -1.
         -3    1    6    6    0  503  0.58983608430E+03 -0.22393352186E+03 -0.76267445026E+03  0.98981066150E+03  0.00000000000E+00 0.  1.
<mgrwt>
<rscale>  0 0.17606981E+04</rscale>
<asrwt>0</asrwt>
<pdfrwt beam="1">  1        2 0.56978586E+00 0.17606981E+04</pdfrwt>
<pdfrwt beam="2">  1       -1 0.32193738E-01 0.17606981E+04</pdfrwt>
<totfact> 0.56986875E+00</totfact>
</mgrwt>
</event>
<event>
12    6  0.8914180E-008  0.1337369E+04  0.7818608E-02  0.9000445E-01
          2   -1    0    0  501    0  0.00000000000E+00  0.00000000000E+00  0.21986072430E+04  0.21986072430E+04  0.00000000000E+00 0. -1.
         -1   -1    0    0    0  501 -0.00000000000E+00 -0.00000000000E+00 -0.20337384098E+03  0.20337384098E+03  0.00000000000E+00 0.  1.
         24    2    1    2    0    0 -0.12492376823E+03  0.10696272661E+03 -0.31806137156E+02  0.18543756702E+03  0.79551795360E+02 0.  0.
        254    2    1    2    0    0  0.12492376823E+03 -0.10696272661E+03  0.20270395391E+04  0.22165435169E+04  0.88154914581E+03 0.  0.
         23    2    4    4    0    0 -0.63569891287E+02 -0.42020884803E+03  0.15422540261E+04  0.16024214615E+04  0.92684691979E+02 0.  0.
         23    2    4    4    0    0  0.18849365952E+03  0.31324612142E+03  0.48478551304E+03  0.61412205546E+03  0.92064722287E+02 0.  0.
          2    1    3    3  502    0 -0.23143393804E+02  0.19062057935E+02  0.25397298311E+02  0.39293784380E+02  0.00000000000E+00 0. -1.
         -1    1    3    3    0  502 -0.10178037443E+03  0.87900668680E+02 -0.57203435466E+02  0.14614378263E+03  0.00000000000E+00 0.  1.
         11    1    5    5    0    0 -0.22821920599E+02 -0.36571993373E+03  0.13276629281E+04  0.13773019860E+04  0.00000000000E+00 0.  1.
        -11    1    5    5    0    0 -0.40747970688E+02 -0.54488914304E+02  0.21459109801E+03  0.22511947549E+03  0.00000000000E+00 0. -1.
          4    1    6    6  503    0  0.47644043269E+02  0.26898679562E+02  0.45486036602E+02  0.71151060055E+02  0.00000000000E+00 0. -1.
         -4    1    6    6    0  503  0.14084961625E+03  0.28634744186E+03  0.43929947643E+03  0.54297099541E+03  0.00000000000E+00 0.  1.
<mgrwt>
<rscale>  0 0.13373694E+04</rscale>
<asrwt>0</asrwt>
<pdfrwt beam="1">  1        2 0.33824725E+00 0.13373694E+04</pdfrwt>
<pdfrwt beam="2">  1       -1 0.31288285E-01 0.13373694E+04</pdfrwt>
<totfact> 0.54683899E+01</totfact>
</mgrwt>
</event>
<event>
12    6  0.8914180E-008  0.1892997E+04  0.7818608E-02  0.8658350E-01
         -1   -1    0    0    0  501 -0.00000000000E+00  0.00000000000E+00  0.34938862625E+03  0.34938862625E+03  0.00000000000E+00 0.  1.
          2   -1    0    0  501    0  0.00000000000E+00 -0.00000000000E+00 -0.25640762665E+04  0.25640762665E+04  0.00000000000E+00 0. -1.
         24    2    1    2    0    0  0.13692797027E+03 -0.62581327097E+03 -0.14429634813E+04  0.15805424241E+04  0.74694223417E+02 0.  0.
        254    2    1    2    0    0 -0.13692797027E+03  0.62581327097E+03 -0.77172415901E+03  0.13329224687E+04  0.87791378318E+03 0.  0.
         23    2    4    4    0    0  0.10891439641E+03 -0.11682595987E+03  0.57500503080E+02  0.18954685543E+03  0.84327053219E+02 0.  0.
         23    2    4    4    0    0 -0.24584236668E+03  0.74263923084E+03 -0.82922466209E+03  0.11433756132E+04  0.87992933076E+02 0.  0.
          4    1    3    3  502    0  0.12606470103E+03 -0.54061436102E+03 -0.13030913480E+04  0.14164050470E+04  0.00000000000E+00 0. -1.
         -3    1    3    3    0  502  0.10863269234E+02 -0.85198909952E+02 -0.13987213332E+03  0.16413737708E+03  0.00000000000E+00 0.  1.
         11    1    5    5    0    0  0.71245191684E+02 -0.10897802742E+03  0.13197891869E+02  0.13086738382E+03  0.00000000000E+00 0. -1.
        -11    1    5    5    0    0  0.37669204729E+02 -0.78479324508E+01  0.44302611211E+02  0.58679471613E+02  0.00000000000E+00 0.  1.
          1    1    6    6  503    0 -0.15877975798E+03  0.58161153510E+03 -0.60809607148E+03  0.85630825142E+03  0.00000000000E+00 0. -1.
         -1    1    6    6    0  503 -0.87062608698E+02  0.16102769574E+03 -0.22112859061E+03  0.28706736180E+03  0.00000000000E+00 0.  1.
<mgrwt>
<rscale>  0 0.18929967E+04</rscale>
<asrwt>0</asrwt>
<pdfrwt beam="1">  1        2 0.39447328E+00 0.18929967E+04</pdfrwt>
<pdfrwt beam="2">  1       -1 0.53752096E-01 0.18929967E+04</pdfrwt>
<totfact> 0.11917069E+01</totfact>
</mgrwt>
</event>
<event>
12    6  0.8914180E-008  0.1605902E+04  0.7818608E-02  0.8816931E-01
         -1   -1    0    0    0  501 -0.00000000000E+00  0.00000000000E+00  0.27478956398E+03  0.27478956398E+03  0.00000000000E+00 0.  1.
          2   -1    0    0  501    0  0.00000000000E+00 -0.00000000000E+00 -0.23462685663E+04  0.23462685663E+04  0.00000000000E+00 0. -1.
         24    2    1    2    0    0  0.25933069495E+03 -0.46817654247E+03 -0.49629155862E+03  0.73440111079E+03  0.81228050012E+02 0.  0.
        254    2    1    2    0    0 -0.25933069495E+03  0.46817654247E+03 -0.15751874437E+04  0.18866570195E+04  0.88984130166E+03 0.  0.
         23    2    4    4    0    0 -0.16283917015E+03  0.59088965324E+03 -0.49914203546E+03  0.79561908064E+03  0.90552593984E+02 0.  0.
         23    2    4    4    0    0 -0.96491524802E+02 -0.12271311076E+03 -0.10760454082E+04  0.10910379388E+04  0.90116266693E+02 0.  0.
          2    1    3    3  502    0  0.89775018826E+02 -0.12597930174E+03 -0.18889872158E+03  0.24415787001E+03  0.00000000000E+00 0. -1.
         -1    1    3    3    0  502  0.16955567612E+03 -0.34219724073E+03 -0.30739283704E+03  0.49024324078E+03  0.00000000000E+00 0.  1.
         11    1    5    5    0    0  0.59226053956E+01  0.19000320044E+02 -0.34114598354E+01  0.20192262743E+02  0.00000000000E+00 0.  1.
        -11    1    5    5    0    0 -0.16876177554E+03  0.57188933319E+03 -0.49573057563E+03  0.77542681790E+03  0.00000000000E+00 0. -1.
          3    1    6    6  503    0 -0.54570828483E+02 -0.11095665015E+03 -0.94245563305E+03  0.95053246857E+03  0.00000000000E+00 0. -1.
         -3    1    6    6    0  503 -0.41920696319E+02 -0.11756460611E+02 -0.13358977516E+03  0.14050547026E+03  0.00000000000E+00 0.  1.
<mgrwt>
<rscale>  0 0.16059018E+04</rscale>
<asrwt>0</asrwt>
<pdfrwt beam="1">  1        2 0.36096440E+00 0.16059018E+04</pdfrwt>
<pdfrwt beam="2">  1       -1 0.42275317E-01 0.16059018E+04</pdfrwt>
<totfact> 0.25655620E+01</totfact>
</mgrwt>
</event>
<event>
12    6  0.8914180E-008  0.2064581E+04  0.7818608E-02  0.8577008E-01
         -1   -1    0    0    0  501 -0.00000000000E+00  0.00000000000E+00  0.35974606572E+03  0.35974606572E+03  0.00000000000E+00 0.  1.
          2   -1    0    0  501    0  0.00000000000E+00 -0.00000000000E+00 -0.29621546818E+04  0.29621546818E+04  0.00000000000E+00 0. -1.
         24    2    1    2    0    0 -0.71917181329E+03 -0.42275365762E+03 -0.10726796009E+04  0.13612739845E+04  0.80601380574E+02 0.  0.
        254    2    1    2    0    0  0.71917181329E+03  0.42275365762E+03 -0.15297290152E+04  0.19606267630E+04  0.89892029237E+03 0.  0.
         23    2    4    4    0    0  0.84941414837E+03  0.39740312654E+03 -0.87295694189E+03  0.12845719426E+04  0.92938759128E+02 0.  0.
         23    2    4    4    0    0 -0.13024233508E+03  0.25350531081E+02 -0.65677207327E+03  0.67605482041E+03  0.89971377092E+02 0.  0.
          4    1    3    3  502    0 -0.26695943112E+03 -0.18274817484E+03 -0.36359161255E+03  0.48668582678E+03  0.00000000000E+00 0. -1.
         -3    1    3    3    0  502 -0.45221238217E+03 -0.24000548278E+03 -0.70908798836E+03  0.87458815770E+03  0.00000000000E+00 0.  1.
         11    1    5    5    0    0  0.79916135679E+03  0.39111264981E+03 -0.84331139642E+03  0.12258882862E+04  0.00000000000E+00 0. -1.
        -11    1    5    5    0    0  0.50252791587E+02  0.62904767236E+01 -0.29645545466E+02  0.58683656376E+02  0.00000000000E+00 0.  1.
          3    1    6    6  503    0 -0.86953448321E+02  0.12531701412E+01 -0.56600444015E+03  0.57264605026E+03  0.00000000000E+00 0. -1.
         -3    1    6    6    0  503 -0.43288886758E+02  0.24097360940E+02 -0.90767633123E+02  0.10340877015E+03  0.00000000000E+00 0.  1.
<mgrwt>
<rscale>  0 0.20645808E+04</rscale>
<asrwt>0</asrwt>
<pdfrwt beam="1">  1        2 0.45571609E+00 0.20645808E+04</pdfrwt>
<pdfrwt beam="2">  1       -1 0.55345550E-01 0.20645808E+04</pdfrwt>
<totfact> 0.63950624E+00</totfact>
</mgrwt>
</event>
<event>
12    6  0.8914180E-008  0.1728304E+04  0.7818608E-02  0.8745384E-01
          2   -1    0    0  501    0  0.00000000000E+00  0.00000000000E+00  0.18372053201E+04  0.18372053201E+04  0.00000000000E+00 0. -1.
         -1   -1    0    0    0  501 -0.00000000000E+00 -0.00000000000E+00 -0.40646434519E+03  0.40646434519E+03  0.00000000000E+00 0.  1.
         24    2    1    2    0    0 -0.20681092190E+03 -0.67756090215E+01  0.12889237060E+04  0.13076335617E+04  0.75924604379E+02 0.  0.
        254    2    1    2    0    0  0.20681092190E+03  0.67756090215E+01  0.14181726887E+03  0.93603610353E+03  0.90179531107E+03 0.  0.
         23    2    4    4    0    0  0.26799380547E+03  0.10386817172E+03  0.48041815253E+03  0.56718346375E+03  0.91028585638E+02 0.  0.
         23    2    4    4    0    0 -0.61182883572E+02 -0.97092562699E+02 -0.33860088366E+03  0.36885263977E+03  0.90727065849E+02 0.  0.
          2    1    3    3  502    0 -0.51565410082E+02 -0.33859239117E+02  0.42510590499E+03  0.42955845941E+03  0.00000000000E+00 0. -1.
         -1    1    3    3    0  502 -0.15524551182E+03  0.27083630095E+02  0.86381780103E+03  0.87807510233E+03  0.00000000000E+00 0.  1.
         11    1    5    5    0    0  0.24220224714E+03  0.67706939680E+02  0.36264821840E+03  0.44131608684E+03  0.00000000000E+00 0. -1.
        -11    1    5    5    0    0  0.25791558336E+02  0.36161232041E+02  0.11776993413E+03  0.12586737691E+03  0.00000000000E+00 0.  1.
          2    1    6    6  503    0 -0.19011206354E+02  0.16400574183E+02 -0.63732197046E+02  0.68499618545E+02  0.00000000000E+00 0.  1.
         -2    1    6    6    0  503 -0.42171677217E+02 -0.11349313688E+03 -0.27486868662E+03  0.30035302123E+03  0.00000000000E+00 0. -1.
<mgrwt>
<rscale>  0 0.17283037E+04</rscale>
<asrwt>0</asrwt>
<pdfrwt beam="1">  1        2 0.28264697E+00 0.17283037E+04</pdfrwt>
<pdfrwt beam="2">  1       -1 0.62532977E-01 0.17283037E+04</pdfrwt>
<totfact> 0.23079407E+01</totfact>
</mgrwt>
</event>
<event>
12    6  0.8914180E-008  0.2111901E+04  0.7818608E-02  0.8556019E-01
         -1   -1    0    0    0  501 -0.00000000000E+00  0.00000000000E+00  0.80724575524E+03  0.80724575524E+03  0.00000000000E+00 0.  1.
          2   -1    0    0  501    0  0.00000000000E+00 -0.00000000000E+00 -0.13812787115E+04  0.13812787115E+04  0.00000000000E+00 0. -1.
         24    2    1    2    0    0  0.81019472829E+03 -0.26130819894E+03 -0.37688985319E+03  0.93438287267E+03  0.79548216351E+02 0.  0.
        254    2    1    2    0    0 -0.81019472829E+03  0.26130819894E+03 -0.19714310302E+03  0.12541415940E+04  0.89961561914E+03 0.  0.
         23    2    4    4    0    0 -0.67487600998E+03  0.55628645599E+03 -0.24774317785E+03  0.91376035507E+03  0.93107756691E+02 0.  0.
         23    2    4    4    0    0 -0.13531871831E+03 -0.29497825706E+03  0.50600074831E+02  0.34038123895E+03  0.89306733198E+02 0.  0.
          2    1    3    3  502    0  0.20330101405E+03 -0.99874079866E+02 -0.85985846461E+02  0.24228020954E+03  0.00000000000E+00 0. -1.
         -1    1    3    3    0  502  0.60689371424E+03 -0.16143411907E+03 -0.29090400673E+03  0.69210266314E+03  0.00000000000E+00 0.  1.
         11    1    5    5    0    0 -0.45581718169E+03  0.36576323349E+03 -0.12019108079E+03  0.59665563099E+03  0.00000000000E+00 0. -1.
        -11    1    5    5    0    0 -0.21905882829E+03  0.19052322250E+03 -0.12755209707E+03  0.31710472407E+03  0.00000000000E+00 0.  1.
          1    1    6    6  503    0 -0.63170030573E+02 -0.22886648583E+03  0.22063747300E+02  0.23844733181E+03  0.00000000000E+00 0. -1.
         -1    1    6    6    0  503 -0.72148687738E+02 -0.66111771222E+02  0.28536327530E+02  0.10193390714E+03  0.00000000000E+00 0.  1.
<mgrwt>
<rscale>  0 0.21119009E+04</rscale>
<asrwt>0</asrwt>
<pdfrwt beam="1">  1        2 0.21250441E+00 0.21119009E+04</pdfrwt>
<pdfrwt beam="2">  1       -1 0.12419166E+00 0.21119009E+04</pdfrwt>
<totfact> 0.88515240E+00</totfact>
</mgrwt>
</event>
<event>
12    6  0.8914180E-008  0.1493986E+04  0.7818608E-02  0.8888462E-01
         -1   -1    0    0    0  501 -0.00000000000E+00  0.00000000000E+00  0.42998606930E+03  0.42998606930E+03  0.00000000000E+00 0.  1.
          2   -1    0    0  501    0  0.00000000000E+00 -0.00000000000E+00 -0.12977127211E+04  0.12977127211E+04  0.00000000000E+00 0. -1.
         24    2    1    2    0    0  0.72917230548E+02 -0.27764468286E+03 -0.71416024177E+03  0.77359621489E+03  0.77606445257E+02 0.  0.
        254    2    1    2    0    0 -0.72917230548E+02  0.27764468286E+03 -0.15356641008E+03  0.95410257556E+03  0.89684200947E+03 0.  0.
         23    2    4    4    0    0 -0.11418113854E+03  0.59256865433E+03 -0.12233272862E+03  0.62215449152E+03  0.89084074553E+02 0.  0.
         23    2    4    4    0    0  0.41263907993E+02 -0.31492397147E+03 -0.31233681466E+02  0.33194808404E+03  0.91291673946E+02 0.  0.
          4    1    3    3  502    0  0.68725677589E+02 -0.26602767065E+03 -0.61395333555E+03  0.67263113111E+03  0.00000000000E+00 0. -1.
         -3    1    3    3    0  502  0.41915529588E+01 -0.11617012211E+02 -0.10020690622E+03  0.10096508378E+03  0.00000000000E+00 0.  1.
         11    1    5    5    0    0  0.97898952972E+01  0.88362960288E+01 -0.12903106343E+01  0.13250927476E+02  0.00000000000E+00 0. -1.
        -11    1    5    5    0    0 -0.12397103384E+03  0.58373235830E+03 -0.12104241798E+03  0.60890356404E+03  0.00000000000E+00 0.  1.
          1    1    6    6  503    0  0.29255692787E+02 -0.37979220109E+02  0.16424347136E+02  0.50676186710E+02  0.00000000000E+00 0. -1.
         -1    1    6    6    0  503  0.12008215206E+02 -0.27694475136E+03 -0.47658028602E+02  0.28127189733E+03  0.00000000000E+00 0.  1.
<mgrwt>
<rscale>  0 0.14939858E+04</rscale>
<asrwt>0</asrwt>
<pdfrwt beam="1">  1        2 0.19964811E+00 0.14939858E+04</pdfrwt>
<pdfrwt beam="2">  1       -1 0.66151704E-01 0.14939858E+04</pdfrwt>
<totfact> 0.42317234E+01</totfact>
</mgrwt>
</event>
<event>
12    6  0.8914180E-008  0.2557042E+04  0.7818608E-02  0.8382941E-01
          4   -1    0    0  501    0  0.00000000000E+00  0.00000000000E+00  0.23155950820E+04  0.23155950820E+04  0.00000000000E+00 0. -1.
         -3   -1    0    0    0  501 -0.00000000000E+00 -0.00000000000E+00 -0.70591594660E+03  0.70591594660E+03  0.00000000000E+00 0.  1.
         24    2    1    2    0    0 -0.10549341113E+04  0.34068705836E+03  0.86837592018E+03  0.14103992872E+04  0.78713147562E+02 0.  0.
        254    2    1    2    0    0  0.10549341113E+04 -0.34068705836E+03  0.74130321518E+03  0.16111117414E+04  0.90398945529E+03 0.  0.
         23    2    4    4    0    0  0.78398374399E+03 -0.49060015803E+03  0.15477805135E+03  0.94161410473E+03  0.85801230404E+02 0.  0.
         23    2    4    4    0    0  0.27095036735E+03  0.14991309967E+03  0.58652516383E+03  0.66949763663E+03  0.91253923862E+02 0.  0.
          2    1    3    3  502    0 -0.83350529498E+03  0.23572007656E+03  0.66793584185E+03  0.10938159443E+04  0.00000000000E+00 0. -1.
         -1    1    3    3    0  502 -0.22142881637E+03  0.10496698180E+03  0.20044007833E+03  0.31658334288E+03  0.00000000000E+00 0.  1.
         11    1    5    5    0    0  0.63364613584E+03 -0.35625479798E+03  0.11197526070E+03  0.73550211799E+03  0.00000000000E+00 0. -1.
        -11    1    5    5    0    0  0.15033760815E+03 -0.13434536006E+03  0.42802790646E+02  0.20611198675E+03  0.00000000000E+00 0.  1.
          3    1    6    6  503    0  0.14761087713E+03  0.11968536822E+03  0.41145297908E+03  0.45321861436E+03  0.00000000000E+00 0. -1.
         -3    1    6    6    0  503  0.12333949022E+03  0.30227731456E+02  0.17507218475E+03  0.21627902226E+03  0.00000000000E+00 0.  1.
<mgrwt>
<rscale>  0 0.25570416E+04</rscale>
<asrwt>0</asrwt>
<pdfrwt beam="1">  1        4 0.35624539E+00 0.25570416E+04</pdfrwt>
<pdfrwt beam="2">  1       -3 0.10860245E+00 0.25570416E+04</pdfrwt>
<totfact> 0.19557915E-02</totfact>
</mgrwt>
</event>
<event>
12    6  0.8914180E-008  0.1837896E+04  0.7818608E-02  0.8686403E-01
          2   -1    0    0  501    0  0.00000000000E+00  0.00000000000E+00  0.54863422680E+03  0.54863422680E+03  0.00000000000E+00 0. -1.
         -1   -1    0    0    0  501 -0.00000000000E+00 -0.00000000000E+00 -0.15392131377E+04  0.15392131377E+04  0.00000000000E+00 0.  1.
         24    2    1    2    0    0  0.32175202563E+03  0.61373697121E+03 -0.43578004559E+03  0.82221810564E+03  0.77077423952E+02 0.  0.
        254    2    1    2    0    0 -0.32175202563E+03 -0.61373697121E+03 -0.55479886530E+03  0.12656292588E+04  0.90211873059E+03 0.  0.
         23    2    4    4    0    0 -0.56871969319E+03 -0.63939856028E+03 -0.36024647933E+03  0.93393247288E+03  0.10089464665E+03 0.  0.
         23    2    4    4    0    0  0.24696766756E+03  0.25661589071E+02 -0.19455238597E+03  0.33169678596E+03  0.10256988329E+03 0.  0.
          4    1    3    3  502    0  0.15555663802E+03  0.26440088832E+03 -0.15145951575E+03  0.34211939770E+03  0.00000000000E+00 0. -1.
         -3    1    3    3    0  502  0.16619538762E+03  0.34933608289E+03 -0.28432052984E+03  0.48009870794E+03  0.00000000000E+00 0.  1.
         11    1    5    5    0    0 -0.54566344879E+03 -0.58456001163E+03 -0.35262312817E+03  0.87395770897E+03  0.00000000000E+00 0.  1.
        -11    1    5    5    0    0 -0.23056244395E+02 -0.54838548648E+02 -0.76233511662E+01  0.59974763913E+02  0.00000000000E+00 0. -1.
          3    1    6    6  503    0  0.66147924370E+02 -0.33016104329E+02 -0.28329652732E+02  0.79171840117E+02  0.00000000000E+00 0. -1.
         -3    1    6    6    0  503  0.18081974319E+03  0.58677693400E+02 -0.16622273323E+03  0.25252494584E+03  0.00000000000E+00 0.  1.
<mgrwt>
<rscale>  0 0.18378955E+04</rscale>
<asrwt>0</asrwt>
<pdfrwt beam="1">  1        2 0.84405267E-01 0.18378955E+04</pdfrwt>
<pdfrwt beam="2">  1       -1 0.23680202E+00 0.18378955E+04</pdfrwt>
<totfact> 0.50522950E+00</totfact>
</mgrwt>
</event>
<event>
12    6  0.8914180E-008  0.2149376E+04  0.7818608E-02  0.8539799E-01
         -1   -1    0    0    0  501 -0.00000000000E+00  0.00000000000E+00  0.26202270443E+04  0.26202270443E+04  0.00000000000E+00 0.  1.
          2   -1    0    0  501    0  0.00000000000E+00 -0.00000000000E+00 -0.44078403364E+03  0.44078403364E+03  0.00000000000E+00 0. -1.
         24    2    1    2    0    0 -0.40035691979E+02 -0.88296948787E+03  0.86270135285E+03  0.12377320677E+04  0.80554789956E+02 0.  0.
        254    2    1    2    0    0  0.40035691979E+02  0.88296948787E+03  0.13167416578E+04  0.18232790102E+04  0.89961090614E+03 0.  0.
         23    2    4    4    0    0  0.24546247570E+02  0.10407720418E+04  0.94436320669E+03  0.14078531651E+04  0.80123073280E+02 0.  0.
         23    2    4    4    0    0  0.15489444409E+02 -0.15780255397E+03  0.37237845111E+03  0.41542584512E+03  0.93655501792E+02 0.  0.
          4    1    3    3  502    0 -0.25132612831E+02 -0.79840937588E+03  0.80635153712E+03  0.11350295067E+04  0.00000000000E+00 0. -1.
         -3    1    3    3    0  502 -0.14903079148E+02 -0.84560111995E+02  0.56349815723E+02  0.10270256102E+03  0.00000000000E+00 0.  1.
         11    1    5    5    0    0 -0.37667220513E+01  0.10685643003E+01  0.50638136748E+01  0.64009556793E+01  0.00000000000E+00 0. -1.
        -11    1    5    5    0    0  0.28312969621E+02  0.10397034775E+04  0.93929939301E+03  0.14014522094E+04  0.00000000000E+00 0.  1.
          1    1    6    6  503    0  0.59299513772E+01 -0.11774433913E+00  0.10279565723E+03  0.10296662242E+03  0.00000000000E+00 0. -1.
         -1    1    6    6    0  503  0.95594930323E+01 -0.15768480963E+03  0.26958279388E+03  0.31245922270E+03  0.00000000000E+00 0.  1.
<mgrwt>
<rscale>  0 0.21493760E+04</rscale>
<asrwt>0</asrwt>
<pdfrwt beam="1">  1        2 0.67812930E-01 0.21493760E+04</pdfrwt>
<pdfrwt beam="2">  1       -1 0.40311184E+00 0.21493760E+04</pdfrwt>
<totfact> 0.50913394E-01</totfact>
</mgrwt>
</event>
<event>
12    6  0.8914180E-008  0.1791039E+04  0.7818608E-02  0.8711079E-01
         -1   -1    0    0    0  501 -0.00000000000E+00  0.00000000000E+00  0.24843170881E+03  0.24843170881E+03  0.00000000000E+00 0.  1.
          2   -1    0    0  501    0  0.00000000000E+00 -0.00000000000E+00 -0.32280714654E+04  0.32280714654E+04  0.00000000000E+00 0. -1.
         24    2    1    2    0    0 -0.32116423246E+03 -0.23582113755E+03 -0.21551225840E+04  0.21931188821E+04  0.80367941016E+02 0.  0.
        254    2    1    2    0    0  0.32116423246E+03  0.23582113755E+03 -0.82451717257E+03  0.12833842921E+04  0.89915994135E+03 0.  0.
         23    2    4    4    0    0 -0.30388026617E+03  0.84464214393E+02 -0.21106651993E+03  0.39024731870E+03  0.90920153101E+02 0.  0.
         23    2    4    4    0    0  0.62504449863E+03  0.15135692315E+03 -0.61345065265E+03  0.89313697336E+03  0.88217948850E+02 0.  0.
          4    1    3    3  502    0 -0.29387068650E+03 -0.22818264758E+03 -0.20759263649E+04  0.21090039292E+04  0.00000000000E+00 0. -1.
         -3    1    3    3    0  502 -0.27293545959E+02 -0.76384899637E+01 -0.79196219092E+02  0.84114952882E+02  0.00000000000E+00 0.  1.
         11    1    5    5    0    0 -0.10222995248E+03 -0.87548529491E+01 -0.41094925353E+02  0.11052784050E+03  0.00000000000E+00 0.  1.
        -11    1    5    5    0    0 -0.20165031369E+03  0.93219067343E+02 -0.16997159458E+03  0.27971947821E+03  0.00000000000E+00 0. -1.
          3    1    6    6  503    0  0.30383418417E+03  0.37767778405E+02 -0.32761292360E+03  0.44841035254E+03  0.00000000000E+00 0. -1.
         -3    1    6    6    0  503  0.32121031446E+03  0.11358914475E+03 -0.28583772904E+03  0.44472662082E+03  0.00000000000E+00 0.  1.
<mgrwt>
<rscale>  0 0.17910392E+04</rscale>
<asrwt>0</asrwt>
<pdfrwt beam="1">  1        2 0.49662637E+00 0.17910392E+04</pdfrwt>
<pdfrwt beam="2">  1       -1 0.38220264E-01 0.17910392E+04</pdfrwt>
<totfact> 0.88997502E+00</totfact>
</mgrwt>
</event>
<event>
12    6  0.8914180E-008  0.2246348E+04  0.7818608E-02  0.8499381E-01
         -1   -1    0    0    0  501 -0.00000000000E+00  0.00000000000E+00  0.11568036244E+04  0.11568036244E+04  0.00000000000E+00 0.  1.
          2   -1    0    0  501    0  0.00000000000E+00 -0.00000000000E+00 -0.10905221925E+04  0.10905221925E+04  0.00000000000E+00 0. -1.
         24    2    1    2    0    0  0.71398160840E+03 -0.11774206616E+03 -0.57653261563E+03  0.92871388023E+03  0.80539947655E+02 0.  0.
        254    2    1    2    0    0 -0.71398160840E+03  0.11774206616E+03  0.64281404757E+03  0.13186119367E+04  0.89548568307E+03 0.  0.
         23    2    4    4    0    0 -0.31952528659E+03  0.40961856505E+03  0.62664892976E+03  0.81916379301E+03  0.91960105537E+02 0.  0.
         23    2    4    4    0    0 -0.39445632181E+03 -0.29187649889E+03  0.16165117810E+02  0.49944814369E+03  0.91648550386E+02 0.  0.
          2    1    3    3  502    0  0.39094472182E+03 -0.30167294509E+02 -0.28342191118E+03  0.48381382878E+03  0.00000000000E+00 0. -1.
         -1    1    3    3    0  502  0.32303688658E+03 -0.87574771648E+02 -0.29311070445E+03  0.44490005145E+03  0.00000000000E+00 0.  1.
         11    1    5    5    0    0 -0.12952851610E+03  0.20518092484E+03  0.35254658285E+03  0.42797890308E+03  0.00000000000E+00 0. -1.
        -11    1    5    5    0    0 -0.18999677049E+03  0.20443764020E+03  0.27410234690E+03  0.39118488993E+03  0.00000000000E+00 0.  1.
          3    1    6    6  503    0 -0.33304623930E+03 -0.20495301843E+03 -0.42495043428E+01  0.39108003729E+03  0.00000000000E+00 0. -1.
         -3    1    6    6    0  503 -0.61410082505E+02 -0.86923480463E+02  0.20414622153E+02  0.10836810641E+03  0.00000000000E+00 0.  1.
<mgrwt>
<rscale>  0 0.22463482E+04</rscale>
<asrwt>0</asrwt>
<pdfrwt beam="1">  1        2 0.16777264E+00 0.22463482E+04</pdfrwt>
<pdfrwt beam="2">  1       -1 0.17796979E+00 0.22463482E+04</pdfrwt>
<totfact> 0.49349643E+00</totfact>
</mgrwt>
</event>
<event>
12    6  0.8914180E-008  0.1564163E+04  0.7818608E-02  0.8842872E-01
         -1   -1    0    0    0  501 -0.00000000000E+00  0.00000000000E+00  0.86247459662E+03  0.86247459662E+03  0.00000000000E+00 0.  1.
          2   -1    0    0  501    0  0.00000000000E+00 -0.00000000000E+00 -0.70918188239E+03  0.70918188239E+03  0.00000000000E+00 0. -1.
         24    2    1    2    0    0 -0.30459908428E+03  0.27705199025E+03 -0.22948327712E+03  0.47861800590E+03  0.82910877720E+02 0.  0.
        254    2    1    2    0    0  0.30459908428E+03 -0.27705199025E+03  0.38277599134E+03  0.10930384731E+04  0.93737785162E+03 0.  0.
         23    2    4    4    0    0  0.38117378757E+03  0.16928772678E+03  0.45677031699E+03  0.62504463202E+03  0.89943753325E+02 0.  0.
         23    2    4    4    0    0 -0.76574703286E+02 -0.44633971703E+03 -0.73994325647E+02  0.46799384109E+03  0.91979600398E+02 0.  0.
          4    1    3    3  502    0 -0.11974299865E+02  0.36718983247E+01 -0.27255878448E+02  0.29995826452E+02  0.00000000000E+00 0. -1.
         -3    1    3    3    0  502 -0.29262478442E+03  0.27338009193E+03 -0.20222739867E+03  0.44862217945E+03  0.00000000000E+00 0.  1.
         11    1    5    5    0    0  0.25835108386E+03  0.15445949924E+03  0.29573655571E+03  0.42197527157E+03  0.00000000000E+00 0.  1.
        -11    1    5    5    0    0  0.12282270371E+03  0.14828227539E+02  0.16103376128E+03  0.20306936044E+03  0.00000000000E+00 0. -1.
          4    1    6    6  503    0 -0.59053885717E+02 -0.14677274011E+03  0.28457502217E+01  0.15823304634E+03  0.00000000000E+00 0. -1.
         -4    1    6    6    0  503 -0.17520817569E+02 -0.29956697692E+03 -0.76840075868E+02  0.30976079476E+03  0.00000000000E+00 0.  1.
<mgrwt>
<rscale>  0 0.15641629E+04</rscale>
<asrwt>0</asrwt>
<pdfrwt beam="1">  1        2 0.10910490E+00 0.15641629E+04</pdfrwt>
<pdfrwt beam="2">  1       -1 0.13268840E+00 0.15641629E+04</pdfrwt>
<totfact> 0.21311215E+01</totfact>
</mgrwt>
</event>
<event>
12    6  0.8914180E-008  0.2229800E+04  0.7818608E-02  0.8506126E-01
          2   -1    0    0  501    0  0.00000000000E+00  0.00000000000E+00  0.13461899315E+04  0.13461899315E+04  0.00000000000E+00 0. -1.
         -1   -1    0    0    0  501 -0.00000000000E+00 -0.00000000000E+00 -0.92334802938E+03  0.92334802938E+03  0.00000000000E+00 0.  1.
         24    2    1    2    0    0  0.48115730895E+03 -0.21799881598E+03 -0.60334875570E+03  0.80609062857E+03  0.81954504035E+02 0.  0.
        254    2    1    2    0    0 -0.48115730895E+03  0.21799881598E+03  0.10261906578E+04  0.14634473323E+04  0.89976385154E+03 0.  0.
         23    2    4    4    0    0 -0.37234655263E+03  0.53424099103E+03  0.84938542373E+03  0.10741726529E+04  0.91301140984E+02 0.  0.
         23    2    4    4    0    0 -0.10881075632E+03 -0.31624217505E+03  0.17680523410E+03  0.38927467946E+03  0.91792109095E+02 0.  0.
          2    1    3    3  502    0  0.50502171720E+02 -0.51894996910E+02 -0.69554553802E+02  0.10040615523E+03  0.00000000000E+00 0. -1.
         -1    1    3    3    0  502  0.43065513723E+03 -0.16610381907E+03 -0.53379420190E+03  0.70568447334E+03  0.00000000000E+00 0.  1.
         11    1    5    5    0    0  0.19651651347E+01  0.37492940525E+01 -0.92426245689E+00  0.43328213658E+01  0.00000000000E+00 0.  1.
        -11    1    5    5    0    0 -0.37431171777E+03  0.53049169698E+03  0.85030968619E+03  0.10698398315E+04  0.00000000000E+00 0. -1.
          1    1    6    6  503    0 -0.85983878278E+02 -0.28181458247E+03  0.11795383794E+03  0.31737327251E+03  0.00000000000E+00 0. -1.
         -1    1    6    6    0  503 -0.22826878038E+02 -0.34427592582E+02  0.58851396161E+02  0.71901406955E+02  0.00000000000E+00 0.  1.
<mgrwt>
<rscale>  0 0.22297998E+04</rscale>
<asrwt>0</asrwt>
<pdfrwt beam="1">  1        2 0.20710614E+00 0.22297998E+04</pdfrwt>
<pdfrwt beam="2">  1       -1 0.14205354E+00 0.22297998E+04</pdfrwt>
<totfact> 0.65148963E+00</totfact>
</mgrwt>
</event>
<event>
12    6  0.8914180E-008  0.2327653E+04  0.7818608E-02  0.8467097E-01
         -1   -1    0    0    0  501 -0.00000000000E+00  0.00000000000E+00  0.11773806491E+04  0.11773806491E+04  0.00000000000E+00 0.  1.
          2   -1    0    0  501    0  0.00000000000E+00 -0.00000000000E+00 -0.11504281620E+04  0.11504281620E+04  0.00000000000E+00 0. -1.
         24    2    1    2    0    0  0.37702368016E+03  0.40733186413E+03 -0.80554437998E+03  0.98146234381E+03  0.79375571010E+02 0.  0.
        254    2    1    2    0    0 -0.37702368016E+03 -0.40733186413E+03  0.83249686705E+03  0.13463464673E+04  0.90085052784E+03 0.  0.
         23    2    4    4    0    0  0.87817561735E+02 -0.29672471552E+03 -0.61833708842E+02  0.32862522186E+03  0.91725939328E+02 0.  0.
         23    2    4    4    0    0 -0.46484124189E+03 -0.11060714862E+03  0.89433057589E+03  0.10177212455E+04  0.87281344047E+02 0.  0.
          2    1    3    3  502    0  0.20370735134E+03  0.16875099674E+03 -0.34804648052E+03  0.43716122483E+03  0.00000000000E+00 0. -1.
         -1    1    3    3    0  502  0.17331632881E+03  0.23858086739E+03 -0.45749789945E+03  0.54430111898E+03  0.00000000000E+00 0.  1.
         11    1    5    5    0    0  0.83296518189E+02 -0.25521978460E+03 -0.19513513105E+02  0.26917694104E+03  0.00000000000E+00 0.  1.
        -11    1    5    5    0    0  0.45210435458E+01 -0.41504930911E+02 -0.42320195736E+02  0.59448280815E+02  0.00000000000E+00 0. -1.
          1    1    6    6  503    0 -0.40900990077E+02  0.11396074318E+02  0.54601743727E+02  0.69167274901E+02  0.00000000000E+00 0. -1.
         -1    1    6    6    0  503 -0.42394025182E+03 -0.12200322294E+03  0.83972883216E+03  0.94855397057E+03  0.00000000000E+00 0.  1.
<mgrwt>
<rscale>  0 0.23276528E+04</rscale>
<asrwt>0</asrwt>
<pdfrwt beam="1">  1        2 0.17698895E+00 0.23276528E+04</pdfrwt>
<pdfrwt beam="2">  1       -1 0.18113548E+00 0.23276528E+04</pdfrwt>
<totfact> 0.42734052E+00</totfact>
</mgrwt>
</event>
<event>
12    6  0.8914180E-008  0.2570305E+04  0.7818608E-02  0.8378358E-01
         -1   -1    0    0    0  501 -0.00000000000E+00  0.00000000000E+00  0.84017810864E+03  0.84017810864E+03  0.00000000000E+00 0.  1.
          2   -1    0    0  501    0  0.00000000000E+00 -0.00000000000E+00 -0.19657938983E+04  0.19657938983E+04  0.00000000000E+00 0. -1.
         24    2    1    2    0    0  0.65457727736E+03 -0.32343359897E+03 -0.14303292675E+04  0.16075738479E+04  0.73288185069E+02 0.  0.
        254    2    1    2    0    0 -0.65457727736E+03  0.32343359897E+03  0.30471347782E+03  0.11983981590E+04  0.90012617951E+03 0.  0.
         23    2    4    4    0    0 -0.18535762138E+02  0.16310728971E+03 -0.26614800318E+03  0.32403898853E+03  0.84964369355E+02 0.  0.
         23    2    4    4    0    0 -0.63604151522E+03  0.16032630926E+03  0.57086148100E+03  0.87435917050E+03  0.91475647187E+02 0.  0.
          4    1    3    3  502    0  0.24055962213E+03 -0.12748392589E+03 -0.45915512189E+03  0.53380193810E+03  0.00000000000E+00 0. -1.
         -3    1    3    3    0  502  0.41401765523E+03 -0.19594967308E+03 -0.97117414559E+03  0.10737719098E+04  0.00000000000E+00 0.  1.
         11    1    5    5    0    0 -0.43035242246E+02  0.10815901020E+03 -0.12609687674E+03  0.17161242929E+03  0.00000000000E+00 0. -1.
        -11    1    5    5    0    0  0.24499480108E+02  0.54948279504E+02 -0.14005112644E+03  0.15242655924E+03  0.00000000000E+00 0.  1.
          1    1    6    6  503    0 -0.12362816249E+03  0.44935983186E+02  0.16236612459E+03  0.20896392884E+03  0.00000000000E+00 0. -1.
         -1    1    6    6    0  503 -0.51241335273E+03  0.11539032607E+03  0.40849535641E+03  0.66539524166E+03  0.00000000000E+00 0.  1.
<mgrwt>
<rscale>  0 0.25703050E+04</rscale>
<asrwt>0</asrwt>
<pdfrwt beam="1">  1        2 0.30242983E+00 0.25703050E+04</pdfrwt>
<pdfrwt beam="2">  1       -1 0.12925817E+00 0.25703050E+04</pdfrwt>
<totfact> 0.36238270E+00</totfact>
</mgrwt>
</event>
<event>
12    6  0.8914180E-008  0.1698225E+04  0.7818608E-02  0.8762377E-01
         -1   -1    0    0    0  501 -0.00000000000E+00  0.00000000000E+00  0.90523061772E+03  0.90523061772E+03  0.00000000000E+00 0.  1.
          2   -1    0    0  501    0  0.00000000000E+00 -0.00000000000E+00 -0.79647320564E+03  0.79647320564E+03  0.00000000000E+00 0. -1.
         24    2    1    2    0    0 -0.32107769404E+03 -0.10956128387E+03  0.54711294763E+03  0.64862221250E+03  0.79269392237E+02 0.  0.
        254    2    1    2    0    0  0.32107769404E+03  0.10956128387E+03 -0.43835553555E+03  0.10530816109E+04  0.89539418305E+03 0.  0.
         23    2    4    4    0    0 -0.19527013954E+03  0.21119316498E+02 -0.47124226131E+03  0.51974002191E+03  0.97385669420E+02 0.  0.
         23    2    4    4    0    0  0.51634783358E+03  0.88441967376E+02  0.32886725764E+02  0.53334158894E+03  0.94523261291E+02 0.  0.
          2    1    3    3  502    0 -0.20084782162E+03 -0.65159643485E+02  0.26560172199E+03  0.33930797414E+03  0.00000000000E+00 0. -1.
         -1    1    3    3    0  502 -0.12022987242E+03 -0.44401640389E+02  0.28151122564E+03  0.30931423836E+03  0.00000000000E+00 0.  1.
         11    1    5    5    0    0 -0.25606683249E+02  0.27993198692E+01 -0.18273732153E+03  0.18454394354E+03  0.00000000000E+00 0.  1.
        -11    1    5    5    0    0 -0.16966345629E+03  0.18319996628E+02 -0.28850493978E+03  0.33519607837E+03  0.00000000000E+00 0. -1.
          3    1    6    6  503    0  0.48119064760E+03  0.84940884714E+02  0.55366562496E+01  0.48866148589E+03  0.00000000000E+00 0. -1.
         -3    1    6    6    0  503  0.35157185985E+02  0.35010826619E+01  0.27350069514E+02  0.44680103051E+02  0.00000000000E+00 0.  1.
<mgrwt>
<rscale>  0 0.16982249E+04</rscale>
<asrwt>0</asrwt>
<pdfrwt beam="1">  1        2 0.12253434E+00 0.16982249E+04</pdfrwt>
<pdfrwt beam="2">  1       -1 0.13926625E+00 0.16982249E+04</pdfrwt>
<totfact> 0.15999696E+01</totfact>
</mgrwt>
</event>
<event>
12    6  0.8914180E-008  0.1492745E+04  0.7818608E-02  0.8889292E-01
          2   -1    0    0  501    0  0.00000000000E+00  0.00000000000E+00  0.36965220876E+03  0.36965220876E+03  0.00000000000E+00 0. -1.
         -1   -1    0    0    0  501 -0.00000000000E+00 -0.00000000000E+00 -0.15070164390E+04  0.15070164390E+04  0.00000000000E+00 0.  1.
         24    2    1    2    0    0 -0.15983310145E+03  0.42306796667E+03 -0.22273343952E+03  0.51102883197E+03  0.83708764656E+02 0.  0.
        254    2    1    2    0    0  0.15983310145E+03 -0.42306796667E+03 -0.91463079072E+03  0.13656398158E+04  0.90768358937E+03 0.  0.
         23    2    4    4    0    0  0.18152294206E+03  0.48409191263E+02  0.10975216576E+03  0.23401243280E+03  0.86152495750E+02 0.  0.
         23    2    4    4    0    0 -0.21689840615E+02 -0.47147715794E+03 -0.10243829565E+04  0.11316273830E+04  0.91972456557E+02 0.  0.
          4    1    3    3  502    0 -0.13815611697E+03  0.27256900529E+03 -0.17241361272E+03  0.35086668288E+03  0.00000000000E+00 0. -1.
         -3    1    3    3    0  502 -0.21676984479E+02  0.15049896138E+03 -0.50319826801E+02  0.16016214909E+03  0.00000000000E+00 0.  1.
         11    1    5    5    0    0  0.34064347061E+02  0.46081820091E+02  0.16923119275E+02  0.59752036363E+02  0.00000000000E+00 0.  1.
        -11    1    5    5    0    0  0.14745859500E+03  0.23273711726E+01  0.92829046486E+02  0.17426039644E+03  0.00000000000E+00 0. -1.
          3    1    6    6  503    0 -0.27374066902E+02 -0.17216368734E+03 -0.47491426824E+03  0.50589844530E+03  0.00000000000E+00 0. -1.
         -3    1    6    6    0  503  0.56842262871E+01 -0.29931347060E+03 -0.54946868825E+03  0.62572893770E+03  0.00000000000E+00 0.  1.
<mgrwt>
<rscale>  0 0.14927451E+04</rscale>
<asrwt>0</asrwt>
<pdfrwt beam="1">  1        2 0.56869570E-01 0.14927451E+04</pdfrwt>
<pdfrwt beam="2">  1       -1 0.23184869E+00 0.14927451E+04</pdfrwt>
<totfact> 0.88248172E+00</totfact>
</mgrwt>
</event>
<event>
12    6  0.8914180E-008  0.1450359E+04  0.7818608E-02  0.8918152E-01
         -1   -1    0    0    0  501 -0.00000000000E+00  0.00000000000E+00  0.54562930166E+03  0.54562930166E+03  0.00000000000E+00 0.  1.
          2   -1    0    0  501    0  0.00000000000E+00 -0.00000000000E+00 -0.96381397566E+03  0.96381397566E+03  0.00000000000E+00 0. -1.
         24    2    1    2    0    0 -0.40424145812E+03  0.14444830990E+03 -0.20331727459E+03  0.48156401960E+03  0.79306494870E+02 0.  0.
        254    2    1    2    0    0  0.40424145812E+03 -0.14444830990E+03 -0.21486739941E+03  0.10278792577E+04  0.90889564772E+03 0.  0.
         23    2    4    4    0    0 -0.17627741037E+03  0.12685943818E+03 -0.28965050968E+03  0.37628857802E+03  0.10260913084E+03 0.  0.
         23    2    4    4    0    0  0.58051886849E+03 -0.27130774807E+03  0.74783110275E+02  0.65159067970E+03  0.91475950142E+02 0.  0.
          2    1    3    3  502    0 -0.30525749276E+03  0.11536063810E+03 -0.18980617526E+03  0.37751370554E+03  0.00000000000E+00 0. -1.
         -1    1    3    3    0  502 -0.98983965365E+02  0.29087671792E+02 -0.13511099334E+02  0.10405031405E+03  0.00000000000E+00 0.  1.
         11    1    5    5    0    0 -0.15879040777E+02  0.66513227520E+02 -0.72533823846E+02  0.99686052048E+02  0.00000000000E+00 0. -1.
        -11    1    5    5    0    0 -0.16039836959E+03  0.60346210659E+02 -0.21711668583E+03  0.27660252597E+03  0.00000000000E+00 0.  1.
          3    1    6    6  503    0  0.11317634858E+03 -0.78668256703E+02  0.45914663827E+02  0.14527813615E+03  0.00000000000E+00 0. -1.
         -3    1    6    6    0  503  0.46734251991E+03 -0.19263949137E+03  0.28868446448E+02  0.50631254355E+03  0.00000000000E+00 0.  1.
<mgrwt>
<rscale>  0 0.14503588E+04</rscale>
<asrwt>0</asrwt>
<pdfrwt beam="1">  1        2 0.14827907E+00 0.14503588E+04</pdfrwt>
<pdfrwt beam="2">  1       -1 0.83942970E-01 0.14503588E+04</pdfrwt>
<totfact> 0.41398724E+01</totfact>
</mgrwt>
</event>
<event>
12    6  0.8914180E-008  0.1448807E+04  0.7818608E-02  0.8919228E-01
          2   -1    0    0  501    0  0.00000000000E+00  0.00000000000E+00  0.19738781589E+04  0.19738781589E+04  0.00000000000E+00 0. -1.
         -1   -1    0    0    0  501 -0.00000000000E+00 -0.00000000000E+00 -0.26585260304E+03  0.26585260304E+03  0.00000000000E+00 0.  1.
         24    2    1    2    0    0  0.76495739571E+02 -0.16062273119E+02 -0.14253072431E+03  0.18112854668E+03  0.79893355547E+02 0.  0.
        254    2    1    2    0    0 -0.76495739571E+02  0.16062273119E+02  0.18505562802E+04  0.20586022153E+04  0.89842915125E+03 0.  0.
         23    2    4    4    0    0 -0.94811687541E+02  0.40585498514E+03  0.54317014274E+03  0.69115542248E+03  0.94628161815E+02 0.  0.
         23    2    4    4    0    0  0.18315947970E+02 -0.38979271202E+03  0.13073861375E+04  0.13674467928E+04  0.91533526333E+02 0.  0.
          2    1    3    3  502    0  0.82809787351E+02 -0.30051866850E+02 -0.88150358815E+02  0.12462367890E+03  0.00000000000E+00 0. -1.
         -1    1    3    3    0  502 -0.63140477792E+01  0.13989593732E+02 -0.54380365498E+02  0.56504867789E+02  0.00000000000E+00 0.  1.
         11    1    5    5    0    0 -0.47625464972E+02  0.31530870521E+03  0.45862702896E+03  0.55859333704E+03  0.00000000000E+00 0. -1.
        -11    1    5    5    0    0 -0.47186222569E+02  0.90546279924E+02  0.84543113780E+02  0.13256208544E+03  0.00000000000E+00 0.  1.
          4    1    6    6  503    0  0.16866818273E+02 -0.37929663392E+03  0.11790143379E+04  0.12386384602E+04  0.00000000000E+00 0. -1.
         -4    1    6    6    0  503  0.14491296969E+01 -0.10496078097E+02  0.12837179953E+03  0.12880833260E+03  0.00000000000E+00 0.  1.
<mgrwt>
<rscale>  0 0.14488073E+04</rscale>
<asrwt>0</asrwt>
<pdfrwt beam="1">  1        2 0.30367355E+00 0.14488073E+04</pdfrwt>
<pdfrwt beam="2">  1       -1 0.40900402E-01 0.14488073E+04</pdfrwt>
<totfact> 0.44645085E+01</totfact>
</mgrwt>
</event>
<event>
12    6  0.8914180E-008  0.1288817E+04  0.7818608E-02  0.9038481E-01
         -1   -1    0    0    0  501 -0.00000000000E+00  0.00000000000E+00  0.13530218523E+03  0.13530218523E+03  0.00000000000E+00 0.  1.
          2   -1    0    0  501    0  0.00000000000E+00 -0.00000000000E+00 -0.30691463317E+04  0.30691463317E+04  0.00000000000E+00 0. -1.
         24    2    1    2    0    0 -0.11864732403E+02  0.19186453094E+03 -0.13863549034E+04  0.14017779173E+04  0.77773010497E+02 0.  0.
        254    2    1    2    0    0  0.11864732403E+02 -0.19186453094E+03 -0.15474892431E+04  0.18026705996E+04  0.90440342945E+03 0.  0.
         23    2    4    4    0    0  0.20590482103E+03  0.30731665595E+03 -0.61973476192E+03  0.72753692133E+03  0.91643190748E+02 0.  0.
         23    2    4    4    0    0 -0.19404008862E+03 -0.49918118690E+03 -0.92775448116E+03  0.10751336783E+04  0.91381811988E+02 0.  0.
          4    1    3    3  502    0  0.24775200582E+02  0.13778003490E+03 -0.10320257468E+04  0.10414769756E+04  0.00000000000E+00 0. -1.
         -3    1    3    3    0  502 -0.36639932985E+02  0.54084496041E+02 -0.35432915657E+03  0.36030094171E+03  0.00000000000E+00 0.  1.
         11    1    5    5    0    0  0.73985173412E+02  0.55451816683E+02 -0.10843831579E+03  0.14250466024E+03  0.00000000000E+00 0.  1.
        -11    1    5    5    0    0  0.13191964762E+03  0.25186483927E+03 -0.51129644613E+03  0.58503226109E+03  0.00000000000E+00 0. -1.
          1    1    6    6  503    0  0.44700927811E+01 -0.43377318177E+02 -0.10707115306E+03  0.11561057598E+03  0.00000000000E+00 0. -1.
         -1    1    6    6    0  503 -0.19851018141E+03 -0.45580386872E+03 -0.82068332810E+03  0.95952310232E+03  0.00000000000E+00 0.  1.
<mgrwt>
<rscale>  0 0.12888168E+04</rscale>
<asrwt>0</asrwt>
<pdfrwt beam="1">  1        2 0.47217640E+00 0.12888168E+04</pdfrwt>
<pdfrwt beam="2">  1       -1 0.20815719E-01 0.12888168E+04</pdfrwt>
<totfact> 0.34080866E+01</totfact>
</mgrwt>
</event>
<event>
12    6  0.8914180E-008  0.3951580E+04  0.7818608E-02  0.8014386E-01
         -1   -1    0    0    0  501 -0.00000000000E+00  0.00000000000E+00  0.17334256780E+04  0.17334256780E+04  0.00000000000E+00 0.  1.
          2   -1    0    0  501    0  0.00000000000E+00 -0.00000000000E+00 -0.22520413294E+04  0.22520413294E+04  0.00000000000E+00 0. -1.
         24    2    1    2    0    0  0.72388207080E+03  0.10013872512E+04 -0.16646565674E+04  0.20746856425E+04  0.80357629290E+02 0.  0.
        254    2    1    2    0    0 -0.72388207080E+03 -0.10013872512E+04  0.11460409160E+04  0.19107813649E+04  0.90049650969E+03 0.  0.
         23    2    4    4    0    0  0.58787104005E+01 -0.59203071430E+03  0.80255280719E+03  0.10015873249E+04  0.92472888506E+02 0.  0.
         23    2    4    4    0    0 -0.72976078120E+03 -0.40935653686E+03  0.34348810886E+03  0.90919404002E+03  0.92337150911E+02 0.  0.
          2    1    3    3  502    0  0.68248075869E+03  0.91245458092E+03 -0.15506555102E+04  0.19242884034E+04  0.00000000000E+00 0. -1.
         -1    1    3    3    0  502  0.41401312111E+02  0.88932670234E+02 -0.11400105727E+03  0.15039723913E+03  0.00000000000E+00 0.  1.
         11    1    5    5    0    0  0.66666310129E+01 -0.27582235526E+03  0.29778018755E+03  0.40595006556E+03  0.00000000000E+00 0. -1.
        -11    1    5    5    0    0 -0.78792061244E+00 -0.31620835904E+03  0.50477261963E+03  0.59563725931E+03  0.00000000000E+00 0.  1.
          4    1    6    6  503    0 -0.29065339448E+03 -0.11623808130E+03  0.14741024539E+03  0.34600645618E+03  0.00000000000E+00 0. -1.
         -4    1    6    6    0  503 -0.43910738672E+03 -0.29311845555E+03  0.19607786347E+03  0.56318758385E+03  0.00000000000E+00 0.  1.
<mgrwt>
<rscale>  0 0.39515801E+04</rscale>
<asrwt>0</asrwt>
<pdfrwt beam="1">  1        2 0.34646790E+00 0.39515801E+04</pdfrwt>
<pdfrwt beam="2">  1       -1 0.26668087E+00 0.39515801E+04</pdfrwt>
<totfact> 0.23600349E-01</totfact>
</mgrwt>
</event>
<event>
12    6  0.8914180E-008  0.1155157E+04  0.7818608E-02  0.9153039E-01
          2   -1    0    0  501    0  0.00000000000E+00  0.00000000000E+00  0.16995046381E+04  0.16995046381E+04  0.00000000000E+00 0. -1.
         -1   -1    0    0    0  501 -0.00000000000E+00 -0.00000000000E+00 -0.19629083780E+03  0.19629083780E+03  0.00000000000E+00 0.  1.
         24    2    1    2    0    0  0.98448344229E+02 -0.44172990397E+02  0.83889802837E+03  0.84953535140E+03  0.79480071098E+02 0.  0.
        254    2    1    2    0    0 -0.98448344229E+02  0.44172990397E+02  0.66431577189E+03  0.10462601245E+04  0.80106271522E+03 0.  0.
         23    2    4    4    0    0  0.49822015101E+02  0.11230819735E+03  0.79989480249E+03  0.81458109893E+03  0.92818679690E+02 0.  0.
         23    2    4    4    0    0 -0.14827035933E+03 -0.68135206949E+02 -0.13557903060E+03  0.23167902554E+03  0.93096678016E+02 0.  0.
          2    1    3    3  502    0  0.10033582338E+03 -0.29181949379E+02  0.81190215405E+03  0.81859878535E+03  0.00000000000E+00 0. -1.
         -1    1    3    3    0  502 -0.18874791502E+01 -0.14991041018E+02  0.26995874319E+02  0.30936566044E+02  0.00000000000E+00 0.  1.
         11    1    5    5    0    0  0.25819566953E+02  0.66898195535E+02  0.19954806019E+03  0.21204114442E+03  0.00000000000E+00 0. -1.
        -11    1    5    5    0    0  0.24002448148E+02  0.45410001811E+02  0.60034674230E+03  0.60253995450E+03  0.00000000000E+00 0.  1.
          3    1    6    6  503    0 -0.14873414743E+03 -0.65007457024E+02 -0.89243192164E+02  0.18523542704E+03  0.00000000000E+00 0. -1.
         -3    1    6    6    0  503  0.46378810458E+00 -0.31277499252E+01 -0.46335838434E+02  0.46443598508E+02  0.00000000000E+00 0.  1.
<mgrwt>
<rscale>  0 0.11551575E+04</rscale>
<asrwt>0</asrwt>
<pdfrwt beam="1">  1        2 0.26146224E+00 0.11551575E+04</pdfrwt>
<pdfrwt beam="2">  1       -1 0.30198592E-01 0.11551575E+04</pdfrwt>
<totfact> 0.11157377E+02</totfact>
</mgrwt>
</event>
<event>
12    6  0.8914180E-008  0.1719827E+04  0.7818608E-02  0.8750136E-01
          2   -1    0    0  501    0  0.00000000000E+00  0.00000000000E+00  0.11180042058E+04  0.11180042058E+04  0.00000000000E+00 0. -1.
         -1   -1    0    0    0  501 -0.00000000000E+00 -0.00000000000E+00 -0.66140295019E+03  0.66140295019E+03  0.00000000000E+00 0.  1.
         24    2    1    2    0    0 -0.44418324677E+03  0.27828227838E+03  0.50546460695E+03  0.73258274646E+03  0.80269722556E+02 0.  0.
        254    2    1    2    0    0  0.44418324677E+03 -0.27828227838E+03 -0.48863351320E+02  0.10468244096E+04  0.90482812410E+03 0.  0.
         23    2    4    4    0    0 -0.15487244136E+03 -0.12891278800E+03  0.26767451010E+03  0.34706609811E+03  0.90560770196E+02 0.  0.
         23    2    4    4    0    0  0.59905568812E+03 -0.14936949039E+03 -0.31653786142E+03  0.69975831145E+03  0.91030294924E+02 0.  0.
          2    1    3    3  502    0 -0.43462622840E+03  0.27038601695E+03  0.46963633514E+03  0.69467031306E+03  0.00000000000E+00 0. -1.
         -1    1    3    3    0  502 -0.95570183704E+01  0.78962614359E+01  0.35828271815E+02  0.37912433397E+02  0.00000000000E+00 0.  1.
         11    1    5    5    0    0 -0.14133947470E+03 -0.10750652882E+03  0.26828696806E+03  0.32173342705E+03  0.00000000000E+00 0. -1.
        -11    1    5    5    0    0 -0.13532966658E+02 -0.21406259173E+02 -0.61245796217E+00  0.25332671061E+02  0.00000000000E+00 0.  1.
          3    1    6    6  503    0  0.51414077808E+03 -0.13865301764E+03 -0.23681573157E+03  0.58279249283E+03  0.00000000000E+00 0. -1.
         -3    1    6    6    0  503  0.84914910047E+02 -0.10716472744E+02 -0.79722129848E+02  0.11696581861E+03  0.00000000000E+00 0.  1.
<mgrwt>
<rscale>  0 0.17198271E+04</rscale>
<asrwt>0</asrwt>
<pdfrwt beam="1">  1        2 0.17200065E+00 0.17198271E+04</pdfrwt>
<pdfrwt beam="2">  1       -1 0.10175430E+00 0.17198271E+04</pdfrwt>
<totfact> 0.21075545E+01</totfact>
</mgrwt>
</event>
<event>
12    6  0.8914180E-008  0.1350960E+04  0.7818608E-02  0.8990102E-01
         -1   -1    0    0    0  501 -0.00000000000E+00  0.00000000000E+00  0.43245932336E+03  0.43245932336E+03  0.00000000000E+00 0.  1.
          2   -1    0    0  501    0  0.00000000000E+00 -0.00000000000E+00 -0.10550663818E+04  0.10550663818E+04  0.00000000000E+00 0. -1.
         24    2    1    2    0    0  0.38717097358E+00  0.14936910921E+03 -0.54326821097E+03  0.56976112260E+03  0.84711906451E+02 0.  0.
        254    2    1    2    0    0 -0.38717097358E+00 -0.14936910921E+03 -0.79338847465E+02  0.91776458256E+03  0.90204539553E+03 0.  0.
         23    2    4    4    0    0  0.30253494160E+03 -0.21624935029E+03 -0.33236680081E+03  0.50694999803E+03  0.90771349215E+02 0.  0.
         23    2    4    4    0    0 -0.30292211257E+03  0.66880241085E+02  0.25302795335E+03  0.41081458452E+03  0.92253480967E+02 0.  0.
          4    1    3    3  502    0  0.19987724989E+02  0.11173213253E+03 -0.26513950927E+03  0.28841383110E+03  0.00000000000E+00 0. -1.
         -3    1    3    3    0  502 -0.19600554016E+02  0.37636976673E+02 -0.27812870170E+03  0.28134729151E+03  0.00000000000E+00 0.  1.
         11    1    5    5    0    0  0.16697765397E+03 -0.14809816576E+03 -0.14631504972E+03  0.26687580894E+03  0.00000000000E+00 0.  1.
        -11    1    5    5    0    0  0.13555728763E+03 -0.68151184531E+02 -0.18605175110E+03  0.24007418909E+03  0.00000000000E+00 0. -1.
          2    1    6    6  503    0 -0.41116423609E+02 -0.19170312414E+01  0.13285781106E+01  0.41182525651E+02  0.00000000000E+00 0. -1.
         -2    1    6    6    0  503 -0.26180568896E+03  0.68797272327E+02  0.25169937524E+03  0.36963205887E+03  0.00000000000E+00 0.  1.
<mgrwt>
<rscale>  0 0.13509601E+04</rscale>
<asrwt>0</asrwt>
<pdfrwt beam="1">  1        2 0.16231790E+00 0.13509601E+04</pdfrwt>
<pdfrwt beam="2">  1       -1 0.66532205E-01 0.13509601E+04</pdfrwt>
<totfact> 0.59266051E+01</totfact>
</mgrwt>
</event>
<event>
12    6  0.8914180E-008  0.4257659E+04  0.7818608E-02  0.7954494E-01
         -1   -1    0    0    0  501 -0.00000000000E+00  0.00000000000E+00  0.16144236615E+04  0.16144236615E+04  0.00000000000E+00 0.  1.
          2   -1    0    0  501    0  0.00000000000E+00 -0.00000000000E+00 -0.28071413649E+04  0.28071413649E+04  0.00000000000E+00 0. -1.
         24    2    1    2    0    0 -0.40981654529E+03  0.81348831881E+03  0.13165277285E+04  0.16028556459E+04  0.78664578605E+02 0.  0.
        254    2    1    2    0    0  0.40981654529E+03 -0.81348831881E+03 -0.25092454320E+04  0.28187093805E+04  0.90503982690E+03 0.  0.
         23    2    4    4    0    0  0.65999679689E+03 -0.36201451493E+03 -0.14385692100E+04  0.16266046459E+04  0.98544514146E+02 0.  0.
         23    2    4    4    0    0 -0.25018025160E+03 -0.45147380388E+03 -0.10706762220E+04  0.11921047346E+04  0.91363953710E+02 0.  0.
          2    1    3    3  502    0 -0.23472159358E+02  0.80405843433E+02  0.15264942965E+03  0.17412033280E+03  0.00000000000E+00 0. -1.
         -1    1    3    3    0  502 -0.38634438593E+03  0.73308247538E+03  0.11638782989E+04  0.14287353131E+04  0.00000000000E+00 0.  1.
         11    1    5    5    0    0  0.27534022978E+03 -0.20649306277E+03 -0.63849699422E+03  0.72534821896E+03  0.00000000000E+00 0.  1.
        -11    1    5    5    0    0  0.38465656711E+03 -0.15552145216E+03 -0.80007221575E+03  0.90125642695E+03  0.00000000000E+00 0. -1.
          1    1    6    6  503    0 -0.15702907409E+03 -0.36378674044E+03 -0.81383243347E+03  0.90516415770E+03  0.00000000000E+00 0. -1.
         -1    1    6    6    0  503 -0.93151177509E+02 -0.87687063447E+02 -0.25684378854E+03  0.28694057692E+03  0.00000000000E+00 0.  1.
<mgrwt>
<rscale>  0 0.42576592E+04</rscale>
<asrwt>0</asrwt>
<pdfrwt beam="1">  1        2 0.43186790E+00 0.42576592E+04</pdfrwt>
<pdfrwt beam="2">  1       -1 0.24837287E+00 0.42576592E+04</pdfrwt>
<totfact> 0.14357188E-01</totfact>
</mgrwt>
</event>
<event>
12    6  0.8914180E-008  0.2224594E+04  0.7818608E-02  0.8508261E-01
         -1   -1    0    0    0  501 -0.00000000000E+00  0.00000000000E+00  0.46760960034E+03  0.46760960034E+03  0.00000000000E+00 0.  1.
          2   -1    0    0  501    0  0.00000000000E+00 -0.00000000000E+00 -0.26458074624E+04  0.26458074624E+04  0.00000000000E+00 0. -1.
         24    2    1    2    0    0  0.22746412278E+03 -0.60542425486E+03 -0.18406449484E+04  0.19537129119E+04  0.10364294857E+03 0.  0.
        254    2    1    2    0    0 -0.22746412278E+03  0.60542425486E+03 -0.33755291364E+03  0.11597041507E+04  0.90149503172E+03 0.  0.
         23    2    4    4    0    0  0.19760767213E+03  0.75516764467E+02 -0.40995190625E+03  0.47022548868E+03  0.91103627648E+02 0.  0.
         23    2    4    4    0    0 -0.42507179491E+03  0.52990749040E+03  0.72398992606E+02  0.68947866206E+03  0.93011999760E+02 0.  0.
          2    1    3    3  502    0  0.13595742237E+03 -0.47641001298E+03 -0.13385617279E+04  0.14273045998E+04  0.00000000000E+00 0. -1.
         -1    1    3    3    0  502  0.91506700413E+02 -0.12901424188E+03 -0.50208322048E+03  0.52640831217E+03  0.00000000000E+00 0.  1.
         11    1    5    5    0    0  0.13755858146E+02 -0.33170053196E+01 -0.10218767814E+03  0.10316272448E+03  0.00000000000E+00 0.  1.
        -11    1    5    5    0    0  0.18385181399E+03  0.78833769786E+02 -0.30776422810E+03  0.36706276420E+03  0.00000000000E+00 0. -1.
          2    1    6    6  503    0 -0.35409215867E+03  0.42758587601E+03  0.23416145107E+02  0.55566109639E+03  0.00000000000E+00 0. -1.
         -2    1    6    6    0  503 -0.70979636239E+02  0.10232161439E+03  0.48982847499E+02  0.13381756567E+03  0.00000000000E+00 0.  1.
<mgrwt>
<rscale>  0 0.22245943E+04</rscale>
<asrwt>0</asrwt>
<pdfrwt beam="1">  1        2 0.40704729E+00 0.22245943E+04</pdfrwt>
<pdfrwt beam="2">  1       -1 0.71939941E-01 0.22245943E+04</pdfrwt>
<totfact> 0.57897833E+00</totfact>
</mgrwt>
</event>
<event>
12    6  0.8914180E-008  0.2310980E+04  0.7818608E-02  0.8473605E-01
          2   -1    0    0  501    0  0.00000000000E+00  0.00000000000E+00  0.30532399229E+04  0.30532399229E+04  0.00000000000E+00 0. -1.
         -1   -1    0    0    0  501 -0.00000000000E+00 -0.00000000000E+00 -0.43729173646E+03  0.43729173646E+03  0.00000000000E+00 0.  1.
         24    2    1    2    0    0  0.18661784134E+03  0.12237188601E+03 -0.32735244297E+03  0.40418120583E+03  0.80010799535E+02 0.  0.
        254    2    1    2    0    0 -0.18661784134E+03 -0.12237188601E+03  0.29433006294E+04  0.30863504536E+04  0.90152062081E+03 0.  0.
         23    2    4    4    0    0 -0.26573884498E+03 -0.47127096208E+03  0.15196878550E+04  0.16156243403E+04  0.89874239213E+02 0.  0.
         23    2    4    4    0    0  0.79121003642E+02  0.34889907607E+03  0.14236127745E+04  0.14707261133E+04  0.91494645738E+02 0.  0.
          4    1    3    3  502    0  0.43885071660E+02 -0.60109945993E+01 -0.75040245709E+02  0.87138223798E+02  0.00000000000E+00 0. -1.
         -3    1    3    3    0  502  0.14273276968E+03  0.12838288061E+03 -0.25231219726E+03  0.31704298204E+03  0.00000000000E+00 0.  1.
         11    1    5    5    0    0 -0.13862709442E+03 -0.16786428556E+03  0.54252168701E+03  0.58457306690E+03  0.00000000000E+00 0. -1.
        -11    1    5    5    0    0 -0.12711175056E+03 -0.30340667652E+03  0.97716616795E+03  0.10310512734E+04  0.00000000000E+00 0.  1.
          1    1    6    6  503    0  0.20957649917E+02  0.52454765164E+02  0.38324132308E+03  0.38738177189E+03  0.00000000000E+00 0. -1.
         -1    1    6    6    0  503  0.58163353726E+02  0.29644431091E+03  0.10403714514E+04  0.10833443414E+04  0.00000000000E+00 0.  1.
<mgrwt>
<rscale>  0 0.23109795E+04</rscale>
<asrwt>0</asrwt>
<pdfrwt beam="1">  1        2 0.46972920E+00 0.23109795E+04</pdfrwt>
<pdfrwt beam="2">  1       -1 0.67275654E-01 0.23109795E+04</pdfrwt>
<totfact> 0.37200048E+00</totfact>
</mgrwt>
</event>
<event>
12    6  0.8914180E-008  0.3375947E+04  0.7818608E-02  0.8143835E-01
         -1   -1    0    0    0  501 -0.00000000000E+00  0.00000000000E+00  0.11251572364E+04  0.11251572364E+04  0.00000000000E+00 0.  1.
          2   -1    0    0  501    0  0.00000000000E+00 -0.00000000000E+00 -0.25323169857E+04  0.25323169857E+04  0.00000000000E+00 0. -1.
         24    2    1    2    0    0 -0.11229687257E+03  0.14998429194E+04 -0.10757090972E+04  0.18508591526E+04  0.79938541367E+02 0.  0.
        254    2    1    2    0    0  0.11229687257E+03 -0.14998429194E+04 -0.33145065209E+03  0.18066150695E+04  0.94438292242E+03 0.  0.
         23    2    4    4    0    0  0.33184873223E+03 -0.58005864531E+03 -0.50268461643E+03  0.84116090841E+03  0.90929847445E+02 0.  0.
         23    2    4    4    0    0 -0.21955185966E+03 -0.91978427411E+03  0.17123396434E+03  0.96545416112E+03  0.92598794285E+02 0.  0.
          2    1    3    3  502    0 -0.81444633710E+02  0.99995297561E+03 -0.67142937916E+03  0.12072102522E+04  0.00000000000E+00 0. -1.
         -1    1    3    3    0  502 -0.30852238859E+02  0.49988994382E+03 -0.40427971806E+03  0.64364890041E+03  0.00000000000E+00 0.  1.
         11    1    5    5    0    0  0.23440267736E+03 -0.44575006095E+03 -0.41996588868E+03  0.65575077556E+03  0.00000000000E+00 0.  1.
        -11    1    5    5    0    0  0.97446054870E+02 -0.13430858436E+03 -0.82718727749E+02  0.18541013285E+03  0.00000000000E+00 0. -1.
          3    1    6    6  503    0  0.57389504404E+01 -0.88423904884E+01  0.73813474320E+01  0.12868865980E+02  0.00000000000E+00 0. -1.
         -3    1    6    6    0  503 -0.22529081010E+03 -0.91094188362E+03  0.16385261691E+03  0.95258529514E+03  0.00000000000E+00 0.  1.
<mgrwt>
<rscale>  0 0.33759471E+04</rscale>
<asrwt>0</asrwt>
<pdfrwt beam="1">  1        2 0.38958722E+00 0.33759471E+04</pdfrwt>
<pdfrwt beam="2">  1       -1 0.17310112E+00 0.33759471E+04</pdfrwt>
<totfact> 0.73417566E-01</totfact>
</mgrwt>
</event>
<event>
12    6  0.8914180E-008  0.1256798E+04  0.7818608E-02  0.9064544E-01
          2   -1    0    0  501    0  0.00000000000E+00  0.00000000000E+00  0.91843412166E+03  0.91843412166E+03  0.00000000000E+00 0. -1.
         -1   -1    0    0    0  501 -0.00000000000E+00 -0.00000000000E+00 -0.42995517627E+03  0.42995517627E+03  0.00000000000E+00 0.  1.
         24    2    1    2    0    0  0.11516260635E+03  0.26108499067E+03  0.18914953113E+03  0.35176990599E+03  0.80850005469E+02 0.  0.
        254    2    1    2    0    0 -0.11516260635E+03 -0.26108499067E+03  0.29932941426E+03  0.99661939194E+03  0.90676585506E+03 0.  0.
         23    2    4    4    0    0 -0.33750474775E+03 -0.49962748210E+03  0.16541858063E+03  0.63177155267E+03  0.90746417672E+02 0.  0.
         23    2    4    4    0    0  0.22234214140E+03  0.23854249144E+03  0.13391083364E+03  0.36484783927E+03  0.94038749408E+02 0.  0.
          4    1    3    3  502    0  0.83545789247E+02  0.24839008888E+03  0.16094413789E+03  0.30753951076E+03  0.00000000000E+00 0. -1.
         -3    1    3    3    0  502  0.31616817103E+02  0.12694901785E+02  0.28205393239E+02  0.44230395237E+02  0.00000000000E+00 0.  1.
         11    1    5    5    0    0 -0.21653644609E+03 -0.33437825152E+03  0.15253650586E+03  0.42657265876E+03  0.00000000000E+00 0. -1.
        -11    1    5    5    0    0 -0.12096830166E+03 -0.16524923058E+03  0.12882074766E+02  0.20519889392E+03  0.00000000000E+00 0.  1.
          3    1    6    6  503    0  0.18476560713E+03  0.17648146919E+03  0.62482353328E+02  0.26303627701E+03  0.00000000000E+00 0. -1.
         -3    1    6    6    0  503  0.37576534266E+02  0.62061022248E+02  0.71428480309E+02  0.10181156226E+03  0.00000000000E+00 0.  1.
<mgrwt>
<rscale>  0 0.12567983E+04</rscale>
<asrwt>0</asrwt>
<pdfrwt beam="1">  1        2 0.14129756E+00 0.12567983E+04</pdfrwt>
<pdfrwt beam="2">  1       -1 0.66146951E-01 0.12567983E+04</pdfrwt>
<totfact> 0.74048273E+01</totfact>
</mgrwt>
</event>
<event>
12    6  0.8914180E-008  0.1703599E+04  0.7818608E-02  0.8759315E-01
          2   -1    0    0  501    0  0.00000000000E+00  0.00000000000E+00  0.13149335783E+04  0.13149335783E+04  0.00000000000E+00 0. -1.
         -1   -1    0    0    0  501 -0.00000000000E+00 -0.00000000000E+00 -0.55178604454E+03  0.55178604454E+03  0.00000000000E+00 0.  1.
         24    2    1    2    0    0  0.60680388713E+03  0.67588673723E+02  0.22108506689E+03  0.65417753909E+03  0.79312417671E+02 0.  0.
        254    2    1    2    0    0 -0.60680388713E+03 -0.67588673723E+02  0.54206246690E+03  0.12125420838E+04  0.89646383121E+03 0.  0.
         23    2    4    4    0    0 -0.46312915345E+03 -0.22469749025E+03  0.74143540164E+03  0.90719592247E+03  0.91106597168E+02 0.  0.
         23    2    4    4    0    0 -0.14367473368E+03  0.15710881652E+03 -0.19937293473E+03  0.30534616131E+03  0.90338816652E+02 0.  0.
          4    1    3    3  502    0  0.33705949150E+03  0.12228303425E+01  0.10420897744E+03  0.35280321300E+03  0.00000000000E+00 0. -1.
         -3    1    3    3    0  502  0.26974439563E+03  0.66365843380E+02  0.11687608945E+03  0.30137432609E+03  0.00000000000E+00 0.  1.
         11    1    5    5    0    0 -0.30167825043E+03 -0.11870179209E+03  0.52583326157E+03  0.61773821413E+03  0.00000000000E+00 0.  1.
        -11    1    5    5    0    0 -0.16145090302E+03 -0.10599569816E+03  0.21560214007E+03  0.28945770834E+03  0.00000000000E+00 0. -1.
          3    1    6    6  503    0 -0.47268101389E+02  0.18879653989E+02 -0.10051826067E+02  0.51882115907E+02  0.00000000000E+00 0. -1.
         -3    1    6    6    0  503 -0.96406632291E+02  0.13822916254E+03 -0.18932110867E+03  0.25346404540E+03  0.00000000000E+00 0.  1.
<mgrwt>
<rscale>  0 0.17035985E+04</rscale>
<asrwt>0</asrwt>
<pdfrwt beam="1">  1        2 0.20229747E+00 0.17035985E+04</pdfrwt>
<pdfrwt beam="2">  1       -1 0.84890161E-01 0.17035985E+04</pdfrwt>
<totfact> 0.24125620E+01</totfact>
</mgrwt>
</event>
<event>
12    6  0.8914180E-008  0.1801372E+04  0.7818608E-02  0.8705570E-01
         -1   -1    0    0    0  501 -0.00000000000E+00  0.00000000000E+00  0.27471828702E+03  0.27471828702E+03  0.00000000000E+00 0.  1.
          2   -1    0    0  501    0  0.00000000000E+00 -0.00000000000E+00 -0.29529702582E+04  0.29529702582E+04  0.00000000000E+00 0. -1.
         24    2    1    2    0    0 -0.63229341713E+03  0.21803626876E+03 -0.11412955361E+04  0.13251797959E+04  0.78811236606E+02 0.  0.
        254    2    1    2    0    0  0.63229341713E+03 -0.21803626876E+03 -0.15369564351E+04  0.19025087493E+04  0.89998315422E+03 0.  0.
         23    2    4    4    0    0 -0.18171225537E+03 -0.20731986970E+03 -0.29420702815E+03  0.41384413518E+03  0.93318383414E+02 0.  0.
         23    2    4    4    0    0  0.81400567249E+03 -0.10716399057E+02 -0.12427494069E+04  0.14886646141E+04  0.94742644945E+02 0.  0.
          2    1    3    3  502    0 -0.17424320769E+03  0.88234611425E+02 -0.38054999748E+03  0.42774331399E+03  0.00000000000E+00 0. -1.
         -1    1    3    3    0  502 -0.45805020944E+03  0.12980165733E+03 -0.76074553861E+03  0.89743648195E+03  0.00000000000E+00 0.  1.
         11    1    5    5    0    0 -0.15798168335E+03 -0.17244477651E+03 -0.28832926463E+03  0.37125352263E+03  0.00000000000E+00 0. -1.
        -11    1    5    5    0    0 -0.23730572019E+02 -0.34875093186E+02 -0.58777635167E+01  0.42590612546E+02  0.00000000000E+00 0.  1.
          2    1    6    6  503    0  0.69036574456E+03 -0.62566879937E+01 -0.11100969814E+04  0.13072717068E+04  0.00000000000E+00 0. -1.
         -2    1    6    6    0  503  0.12363992793E+03 -0.44597110630E+01 -0.13265242555E+03  0.18139290727E+03  0.00000000000E+00 0.  1.
<mgrwt>
<rscale>  0 0.18013716E+04</rscale>
<asrwt>0</asrwt>
<pdfrwt beam="1">  1        2 0.45430313E+00 0.18013716E+04</pdfrwt>
<pdfrwt beam="2">  1       -1 0.42264351E-01 0.18013716E+04</pdfrwt>
<totfact> 0.11057750E+01</totfact>
</mgrwt>
</event>
<event>
12    6  0.8914180E-008  0.1248030E+04  0.7818608E-02  0.9071825E-01
          2   -1    0    0  501    0  0.00000000000E+00  0.00000000000E+00  0.13413262380E+04  0.13413262380E+04  0.00000000000E+00 0. -1.
         -1   -1    0    0    0  501 -0.00000000000E+00 -0.00000000000E+00 -0.29030564349E+03  0.29030564349E+03  0.00000000000E+00 0.  1.
         24    2    1    2    0    0  0.41683440916E+01 -0.13339172932E+03 -0.90701391395E+02  0.17435636470E+03  0.66050518292E+02 0.  0.
        254    2    1    2    0    0 -0.41683440916E+01  0.13339172932E+03  0.11417219859E+04  0.14572755168E+04  0.89571876735E+03 0.  0.
         23    2    4    4    0    0 -0.39270033829E+03  0.26346291435E+03  0.68264405981E+03  0.83539214149E+03  0.90834215723E+02 0.  0.
         23    2    4    4    0    0  0.38853199420E+03 -0.13007118502E+03  0.45907792613E+03  0.62188337532E+03  0.90059794287E+02 0.  0.
          4    1    3    3  502    0  0.25763498432E+02 -0.21689229176E+02 -0.31459382859E+02  0.46085499710E+02  0.00000000000E+00 0. -1.
         -3    1    3    3    0  502 -0.21595154340E+02 -0.11170250015E+03 -0.59242008536E+02  0.12827086499E+03  0.00000000000E+00 0.  1.
         11    1    5    5    0    0 -0.21305129927E+03  0.13245867507E+03  0.28400319456E+03  0.37893795171E+03  0.00000000000E+00 0. -1.
        -11    1    5    5    0    0 -0.17964903902E+03  0.13100423928E+03  0.39864086524E+03  0.45645418979E+03  0.00000000000E+00 0.  1.
          3    1    6    6  503    0  0.23765079451E+03 -0.10037731949E+03  0.34313812561E+03  0.42929859031E+03  0.00000000000E+00 0. -1.
         -3    1    6    6    0  503  0.15088119969E+03 -0.29693865534E+02  0.11593980052E+03  0.19258478501E+03  0.00000000000E+00 0.  1.
<mgrwt>
<rscale>  0 0.12480298E+04</rscale>
<asrwt>0</asrwt>
<pdfrwt beam="1">  1        2 0.20635788E+00 0.12480298E+04</pdfrwt>
<pdfrwt beam="2">  1       -1 0.44662407E-01 0.12480298E+04</pdfrwt>
<totfact> 0.87059609E+01</totfact>
</mgrwt>
</event>
<event>
12    6  0.8914180E-008  0.1810242E+04  0.7818608E-02  0.8700872E-01
         -1   -1    0    0    0  501 -0.00000000000E+00  0.00000000000E+00  0.28661205586E+03  0.28661205586E+03  0.00000000000E+00 0.  1.
          2   -1    0    0  501    0  0.00000000000E+00 -0.00000000000E+00 -0.28583737184E+04  0.28583737184E+04  0.00000000000E+00 0. -1.
         24    2    1    2    0    0 -0.52559637534E+02 -0.15247335980E+03 -0.21171351208E+04  0.21245476615E+04  0.73695354843E+02 0.  0.
        254    2    1    2    0    0  0.52559637534E+02  0.15247335980E+03 -0.45462654165E+03  0.10204381127E+04  0.89922077848E+03 0.  0.
         23    2    4    4    0    0 -0.43392501112E+02  0.56653768074E+02 -0.70903195291E+03  0.71871272189E+03  0.93429694297E+02 0.  0.
         23    2    4    4    0    0  0.95952138646E+02  0.95819591723E+02  0.25440541126E+03  0.30172539077E+03  0.89038705562E+02 0.  0.
          2    1    3    3  502    0 -0.51327337777E+02 -0.41808066986E+02 -0.86662900606E+03  0.86915375177E+03  0.00000000000E+00 0. -1.
         -1    1    3    3    0  502 -0.12322997571E+01 -0.11066529281E+03 -0.12505061148E+04  0.12553939098E+04  0.00000000000E+00 0.  1.
         11    1    5    5    0    0 -0.65966509042E+02  0.60736885442E+02 -0.63225088752E+03  0.63857789998E+03  0.00000000000E+00 0.  1.
        -11    1    5    5    0    0  0.22574007930E+02 -0.40831173683E+01 -0.76781065386E+02  0.80134821915E+02  0.00000000000E+00 0. -1.
          3    1    6    6  503    0  0.10502192801E+02  0.21018577815E+02  0.41225556460E+00  0.23499928120E+02  0.00000000000E+00 0. -1.
         -3    1    6    6    0  503  0.85449945845E+02  0.74801013907E+02  0.25399315569E+03  0.27822546265E+03  0.00000000000E+00 0.  1.
<mgrwt>
<rscale>  0 0.18102424E+04</rscale>
<asrwt>0</asrwt>
<pdfrwt beam="1">  1        2 0.43974981E+00 0.18102424E+04</pdfrwt>
<pdfrwt beam="2">  1       -1 0.44094162E-01 0.18102424E+04</pdfrwt>
<totfact> 0.11674098E+01</totfact>
</mgrwt>
</event>
<event>
12    6  0.8914180E-008  0.1449709E+04  0.7818608E-02  0.8918602E-01
          2   -1    0    0  501    0  0.00000000000E+00  0.00000000000E+00  0.12513251874E+04  0.12513251874E+04  0.00000000000E+00 0. -1.
         -1   -1    0    0    0  501 -0.00000000000E+00 -0.00000000000E+00 -0.41988608474E+03  0.41988608474E+03  0.00000000000E+00 0.  1.
         24    2    1    2    0    0 -0.38847262987E+03  0.20372470825E+03  0.23187223493E+03  0.50246816547E+03  0.79339668959E+02 0.  0.
        254    2    1    2    0    0  0.38847262987E+03 -0.20372470825E+03  0.59956686774E+03  0.11687431067E+04  0.90225566198E+03 0.  0.
         23    2    4    4    0    0 -0.15328841371E+02  0.28657098241E+02 -0.20903363002E+03  0.23112903869E+03  0.93109459169E+02 0.  0.
         23    2    4    4    0    0  0.40380147125E+03 -0.23238180649E+03  0.80860049777E+03  0.93761406798E+03  0.90710767384E+02 0.  0.
          4    1    3    3  502    0 -0.25628651920E+03  0.14635974276E+03  0.19497643084E+03  0.35372272023E+03  0.00000000000E+00 0. -1.
         -3    1    3    3    0  502 -0.13218611067E+03  0.57364965488E+02  0.36895804085E+02  0.14874544524E+03  0.00000000000E+00 0.  1.
         11    1    5    5    0    0 -0.13275507663E+02 -0.24431427370E+02 -0.18672824332E+02  0.33493404061E+02  0.00000000000E+00 0. -1.
        -11    1    5    5    0    0 -0.20533337080E+01  0.53088525612E+02 -0.19036080569E+03  0.19763563463E+03  0.00000000000E+00 0.  1.
          4    1    6    6  503    0  0.47195103549E+02 -0.31842841942E+02  0.50228340988E+02  0.75922530387E+02  0.00000000000E+00 0. -1.
         -4    1    6    6    0  503  0.35660636770E+03 -0.20053896455E+03  0.75837215678E+03  0.86169153759E+03  0.00000000000E+00 0.  1.
<mgrwt>
<rscale>  0 0.14497090E+04</rscale>
<asrwt>0</asrwt>
<pdfrwt beam="1">  1        2 0.19251157E+00 0.14497090E+04</pdfrwt>
<pdfrwt beam="2">  1       -1 0.64597860E-01 0.14497090E+04</pdfrwt>
<totfact> 0.47435847E+01</totfact>
</mgrwt>
</event>
<event>
12    6  0.8914180E-008  0.1596227E+04  0.7818608E-02  0.8822870E-01
          2   -1    0    0  501    0  0.00000000000E+00  0.00000000000E+00  0.62422301972E+03  0.62422301972E+03  0.00000000000E+00 0. -1.
         -1   -1    0    0    0  501 -0.00000000000E+00 -0.00000000000E+00 -0.10204442475E+04  0.10204442475E+04  0.00000000000E+00 0.  1.
         24    2    1    2    0    0  0.37635699274E+03 -0.28356717049E+03  0.14024560978E+03  0.49780056845E+03  0.77984926210E+02 0.  0.
        254    2    1    2    0    0 -0.37635699274E+03  0.28356717049E+03 -0.53646683752E+03  0.11468666987E+04  0.89746957093E+03 0.  0.
         23    2    4    4    0    0 -0.65285456209E+02  0.51228336765E+03 -0.53653024738E+03  0.75023233183E+03  0.91035189975E+02 0.  0.
         23    2    4    4    0    0 -0.31107153653E+03 -0.22871619716E+03  0.63409864035E-01  0.39663436690E+03  0.90786658177E+02 0.  0.
          2    1    3    3  502    0  0.16735368698E+03 -0.84635623491E+02  0.74970526091E+02  0.20196788134E+03  0.00000000000E+00 0. -1.
         -1    1    3    3    0  502  0.20900330576E+03 -0.19893154700E+03  0.65275083693E+02  0.29583268711E+03  0.00000000000E+00 0.  1.
         11    1    5    5    0    0 -0.19175003408E+02  0.31841790168E+03 -0.38443285464E+03  0.49954605452E+03  0.00000000000E+00 0. -1.
        -11    1    5    5    0    0 -0.46110452801E+02  0.19386546597E+03 -0.15209739275E+03  0.25068627731E+03  0.00000000000E+00 0.  1.
          4    1    6    6  503    0 -0.24513116624E+03 -0.22006027661E+03 -0.88337349883E+01  0.32953580819E+03  0.00000000000E+00 0. -1.
         -4    1    6    6    0  503 -0.65940370295E+02 -0.86559205481E+01  0.88971448523E+01  0.67098558715E+02  0.00000000000E+00 0.  1.
<mgrwt>
<rscale>  0 0.15962265E+04</rscale>
<asrwt>0</asrwt>
<pdfrwt beam="1">  1        2 0.96034311E-01 0.15962265E+04</pdfrwt>
<pdfrwt beam="2">  1       -1 0.15699142E+00 0.15962265E+04</pdfrwt>
<totfact> 0.15955940E+01</totfact>
</mgrwt>
</event>
<event>
12    6  0.8914180E-008  0.1911752E+04  0.7818608E-02  0.8649029E-01
         -1   -1    0    0    0  501 -0.00000000000E+00  0.00000000000E+00  0.25682844239E+03  0.25682844239E+03  0.00000000000E+00 0.  1.
          2   -1    0    0  501    0  0.00000000000E+00 -0.00000000000E+00 -0.35576238721E+04  0.35576238721E+04  0.00000000000E+00 0. -1.
         24    2    1    2    0    0 -0.20210921689E+03 -0.71828524989E+03 -0.14545557239E+04  0.16367513653E+04  0.80254856101E+02 0.  0.
        254    2    1    2    0    0  0.20210921689E+03  0.71828524989E+03 -0.18462397058E+04  0.21777009492E+04  0.88147520513E+03 0.  0.
         23    2    4    4    0    0  0.49854362797E+03  0.43013530254E+03 -0.14615316775E+04  0.16055409585E+04  0.90137660087E+02 0.  0.
         23    2    4    4    0    0 -0.29643441108E+03  0.28814994735E+03 -0.38470802835E+03  0.57215999073E+03  0.91994758998E+02 0.  0.
          4    1    3    3  502    0 -0.51809919501E+02 -0.26038614676E+03 -0.44773584212E+03  0.52053107256E+03  0.00000000000E+00 0. -1.
         -3    1    3    3    0  502 -0.15029929739E+03 -0.45789910313E+03 -0.10068198818E+04  0.11162202927E+04  0.00000000000E+00 0.  1.
         11    1    5    5    0    0  0.44837024056E+03  0.41459660728E+03 -0.13149937401E+04  0.14498740483E+04  0.00000000000E+00 0.  1.
        -11    1    5    5    0    0  0.50173387411E+02  0.15538695260E+02 -0.14653793736E+03  0.15566691022E+03  0.00000000000E+00 0. -1.
          4    1    6    6  503    0  0.25509045280E+01  0.22394365752E+02 -0.12587751611E+02  0.25816007088E+02  0.00000000000E+00 0. -1.
         -4    1    6    6    0  503 -0.29898531561E+03  0.26575558160E+03 -0.37212027674E+03  0.54634398364E+03  0.00000000000E+00 0.  1.
<mgrwt>
<rscale>  0 0.19117521E+04</rscale>
<asrwt>0</asrwt>
<pdfrwt beam="1">  1        2 0.54732667E+00 0.19117521E+04</pdfrwt>
<pdfrwt beam="2">  1       -1 0.39512074E-01 0.19117521E+04</pdfrwt>
<totfact> 0.49474434E+00</totfact>
</mgrwt>
</event>
<event>
12    6  0.8914180E-008  0.1535910E+04  0.7818608E-02  0.8860918E-01
         -1   -1    0    0    0  501 -0.00000000000E+00  0.00000000000E+00  0.88274816673E+03  0.88274816673E+03  0.00000000000E+00 0.  1.
          2   -1    0    0  501    0  0.00000000000E+00 -0.00000000000E+00 -0.66809004550E+03  0.66809004550E+03  0.00000000000E+00 0. -1.
         24    2    1    2    0    0  0.27298674903E+03  0.33042804128E+03 -0.18860781000E+03  0.47555883907E+03  0.82938819698E+02 0.  0.
        254    2    1    2    0    0 -0.27298674903E+03 -0.33042804128E+03  0.40326593123E+03  0.10752793732E+04  0.89994325569E+03 0.  0.
         23    2    4    4    0    0 -0.58706627214E+03 -0.26034379703E+03  0.35263408262E+03  0.73766895404E+03  0.85901041882E+02 0.  0.
         23    2    4    4    0    0  0.31407952311E+03 -0.70084244252E+02  0.50631848609E+02  0.33761041913E+03  0.88653611774E+02 0.  0.
          2    1    3    3  502    0  0.15286288093E+03  0.20549213625E+03 -0.69880382318E+02  0.26547569805E+03  0.00000000000E+00 0. -1.
         -3    1    3    3    0  502  0.12012386810E+03  0.12493590504E+03 -0.11872742768E+03  0.21008314101E+03  0.00000000000E+00 0.  1.
         11    1    5    5    0    0 -0.51090784301E+03 -0.21615228038E+03  0.27021028770E+03  0.61705934232E+03  0.00000000000E+00 0. -1.
        -11    1    5    5    0    0 -0.76158429128E+02 -0.44191516653E+02  0.82423794920E+02  0.12060961172E+03  0.00000000000E+00 0.  1.
          2    1    6    6  503    0  0.19871001964E+03 -0.76455935651E+02  0.38280898967E+01  0.21294561812E+03  0.00000000000E+00 0. -1.
         -2    1    6    6    0  503  0.11536950346E+03  0.63716913995E+01  0.46803758712E+02  0.12466480101E+03  0.00000000000E+00 0.  1.
<mgrwt>
<rscale>  0 0.15359105E+04</rscale>
<asrwt>0</asrwt>
<pdfrwt beam="1">  1        2 0.10278308E+00 0.15359105E+04</pdfrwt>
<pdfrwt beam="2">  1       -1 0.13580741E+00 0.15359105E+04</pdfrwt>
<totfact> 0.21700322E+01</totfact>
</mgrwt>
</event>
<event>
12    6  0.8914180E-008  0.2178996E+04  0.7818608E-02  0.8527222E-01
          2   -1    0    0  501    0  0.00000000000E+00  0.00000000000E+00  0.27141175307E+04  0.27141175307E+04  0.00000000000E+00 0. -1.
         -1   -1    0    0    0  501 -0.00000000000E+00 -0.00000000000E+00 -0.43734512688E+03  0.43734512688E+03  0.00000000000E+00 0.  1.
         24    2    1    2    0    0 -0.76707260528E+03  0.10056415160E+03  0.27286721613E+03  0.82429650803E+03  0.80589609385E+02 0.  0.
        254    2    1    2    0    0  0.76707260528E+03 -0.10056415160E+03  0.20039051877E+04  0.23271661496E+04  0.89529478723E+03 0.  0.
         23    2    4    4    0    0  0.86910231381E+03  0.76433090694E+02  0.11660754179E+04  0.14589683907E+04  0.87612987229E+02 0.  0.
         23    2    4    4    0    0 -0.10202970853E+03 -0.17699724230E+03  0.83782976982E+03  0.86819775891E+03  0.10035208109E+03 0.  0.
          4    1    3    3  502    0 -0.19702103130E+03 -0.92551044038E+01  0.73313773806E+02  0.21042303382E+03  0.00000000000E+00 0. -1.
         -3    1    3    3    0  502 -0.57005157398E+03  0.10981925601E+03  0.19955344233E+03  0.61387347420E+03  0.00000000000E+00 0.  1.
         11    1    5    5    0    0  0.82298192602E+03  0.55038339919E+02  0.10791772273E+04  0.13582900858E+04  0.00000000000E+00 0. -1.
        -11    1    5    5    0    0  0.46120387793E+02  0.21394750775E+02  0.86898190637E+02  0.10067830485E+03  0.00000000000E+00 0.  1.
          1    1    6    6  503    0 -0.84431538947E+02 -0.18816451035E+03  0.77656350112E+03  0.80348331594E+03  0.00000000000E+00 0. -1.
         -1    1    6    6    0  503 -0.17598169583E+02  0.11167268055E+02  0.61266268704E+02  0.64714442973E+02  0.00000000000E+00 0.  1.
<mgrwt>
<rscale>  0 0.21789962E+04</rscale>
<asrwt>0</asrwt>
<pdfrwt beam="1">  1        2 0.41755653E+00 0.21789962E+04</pdfrwt>
<pdfrwt beam="2">  1       -1 0.67283867E-01 0.21789962E+04</pdfrwt>
<totfact> 0.60746584E+00</totfact>
</mgrwt>
</event>
<event>
12    6  0.8914180E-008  0.1306263E+04  0.7818608E-02  0.9024613E-01
         -1   -1    0    0    0  501 -0.00000000000E+00  0.00000000000E+00  0.86476348850E+03  0.86476348850E+03  0.00000000000E+00 0.  1.
          2   -1    0    0  501    0  0.00000000000E+00 -0.00000000000E+00 -0.49329163906E+03  0.49329163906E+03  0.00000000000E+00 0. -1.
         24    2    1    2    0    0  0.20508417549E+03 -0.22201342356E+03  0.23769910686E+03  0.39274084334E+03  0.79968902374E+02 0.  0.
        254    2    1    2    0    0 -0.20508417549E+03  0.22201342356E+03  0.13377274258E+03  0.96531428421E+03  0.90696584355E+03 0.  0.
         23    2    4    4    0    0  0.30709199594E+03  0.11562096862E+03  0.24832742332E+03  0.42145933441E+03  0.91037129975E+02 0.  0.
         23    2    4    4    0    0 -0.51217617143E+03  0.10639245495E+03 -0.11455468075E+03  0.54385494980E+03  0.94929692319E+02 0.  0.
          4    1    3    3  502    0  0.32172200767E+02 -0.31207423905E+01  0.14224421901E+02  0.35314638802E+02  0.00000000000E+00 0. -1.
         -3    1    3    3    0  502  0.17291197473E+03 -0.21889268117E+03  0.22347468496E+03  0.35742620454E+03  0.00000000000E+00 0.  1.
         11    1    5    5    0    0  0.65789696029E+02 -0.12956306533E+02  0.45863066314E+02  0.81237742671E+02  0.00000000000E+00 0. -1.
        -11    1    5    5    0    0  0.24130229991E+03  0.12857727515E+03  0.20246435701E+03  0.34022159174E+03  0.00000000000E+00 0.  1.
          1    1    6    6  503    0 -0.22895560788E+03 -0.23862404798E+00 -0.53684553402E+02  0.23516538562E+03  0.00000000000E+00 0. -1.
         -1    1    6    6    0  503 -0.28322056355E+03  0.10663107899E+03 -0.60870127346E+02  0.30868956418E+03  0.00000000000E+00 0.  1.
<mgrwt>
<rscale>  0 0.13062628E+04</rscale>
<asrwt>0</asrwt>
<pdfrwt beam="1">  1        2 0.75891021E-01 0.13062628E+04</pdfrwt>
<pdfrwt beam="2">  1       -1 0.13304054E+00 0.13062628E+04</pdfrwt>
<totfact> 0.33525489E+01</totfact>
</mgrwt>
</event>
<event>
12    6  0.8914180E-008  0.1649835E+04  0.7818608E-02  0.8790504E-01
          2   -1    0    0  501    0  0.00000000000E+00  0.00000000000E+00  0.29133985451E+04  0.29133985451E+04  0.00000000000E+00 0. -1.
         -1   -1    0    0    0  501 -0.00000000000E+00 -0.00000000000E+00 -0.23357213568E+03  0.23357213568E+03  0.00000000000E+00 0.  1.
         24    2    1    2    0    0  0.53715785546E+03 -0.10185084986E+03  0.63328801085E+03  0.84044439117E+03  0.79880615150E+02 0.  0.
        254    2    1    2    0    0 -0.53715785546E+03  0.10185084986E+03  0.20465383986E+04  0.23065262896E+04  0.91259626920E+03 0.  0.
         23    2    4    4    0    0 -0.48416424878E+03  0.23885236310E+03  0.20608425783E+04  0.21323385852E+04  0.91270137667E+02 0.  0.
         23    2    4    4    0    0 -0.52993606680E+02 -0.13700151325E+03 -0.14304179733E+02  0.17418770446E+03  0.92514916879E+02 0.  0.
          4    1    3    3  502    0  0.30016952779E+02  0.88992707020E+00  0.13153310204E+02  0.32784432185E+02  0.00000000000E+00 0. -1.
         -3    1    3    3    0  502  0.50714090268E+03 -0.10274077693E+03  0.62013470064E+03  0.80765995899E+03  0.00000000000E+00 0.  1.
         11    1    5    5    0    0 -0.23411438958E+03  0.13826293703E+03  0.11937706785E+04  0.12243425256E+04  0.00000000000E+00 0.  1.
        -11    1    5    5    0    0 -0.25004985920E+03  0.10058942607E+03  0.86707189986E+03  0.90799605960E+03  0.00000000000E+00 0. -1.
          1    1    6    6  503    0 -0.17372857021E+02 -0.12646269119E+03 -0.34056855540E+02  0.13211547159E+03  0.00000000000E+00 0. -1.
         -1    1    6    6    0  503 -0.35620749658E+02 -0.10538822052E+02  0.19752675807E+02  0.42072232862E+02  0.00000000000E+00 0.  1.
<mgrwt>
<rscale>  0 0.16498348E+04</rscale>
<asrwt>0</asrwt>
<pdfrwt beam="1">  1        2 0.44821513E+00 0.16498348E+04</pdfrwt>
<pdfrwt beam="2">  1       -1 0.35934177E-01 0.16498348E+04</pdfrwt>
<totfact> 0.15941897E+01</totfact>
</mgrwt>
</event>
<event>
12    6  0.8914180E-008  0.1685001E+04  0.7818608E-02  0.8769965E-01
          2   -1    0    0  501    0  0.00000000000E+00  0.00000000000E+00  0.20182791230E+04  0.20182791230E+04  0.00000000000E+00 0. -1.
         -1   -1    0    0    0  501 -0.00000000000E+00 -0.00000000000E+00 -0.35168917388E+03  0.35168917388E+03  0.00000000000E+00 0.  1.
         24    2    1    2    0    0  0.18102764417E+03  0.21449082610E+03  0.11877505896E+04  0.12230791579E+04  0.79961495567E+02 0.  0.
        254    2    1    2    0    0 -0.18102764417E+03 -0.21449082610E+03  0.47883935946E+03  0.11468891390E+04  0.10036385019E+04 0.  0.
         23    2    4    4    0    0 -0.34463243580E+03 -0.50694585876E+03  0.50256770262E+03  0.79921800150E+03  0.10202695077E+03 0.  0.
         23    2    4    4    0    0  0.16360479163E+03  0.29245503267E+03 -0.23728343163E+02  0.34767113749E+03  0.89530506513E+02 0.  0.
          2    1    3    3  502    0  0.15640459370E+03  0.16181376810E+03  0.10446490503E+04  0.10686148655E+04  0.00000000000E+00 0. -1.
         -1    1    3    3    0  502  0.24623050479E+02  0.52677057993E+02  0.14310153936E+03  0.15446429238E+03  0.00000000000E+00 0.  1.
         11    1    5    5    0    0 -0.18878919497E+03 -0.33503266991E+03  0.26427392347E+03  0.46661435540E+03  0.00000000000E+00 0.  1.
        -11    1    5    5    0    0 -0.15584324083E+03 -0.17191318886E+03  0.23829377915E+03  0.33260364610E+03  0.00000000000E+00 0. -1.
          4    1    6    6  503    0  0.25386303942E+02  0.31784783189E+02 -0.33146102120E+02  0.52472859232E+02  0.00000000000E+00 0. -1.
         -4    1    6    6    0  503  0.13821848769E+03  0.26067024948E+03  0.94177589574E+01  0.29519827825E+03  0.00000000000E+00 0.  1.
<mgrwt>
<rscale>  0 0.16850008E+04</rscale>
<asrwt>0</asrwt>
<pdfrwt beam="1">  1        2 0.31050448E+00 0.16850008E+04</pdfrwt>
<pdfrwt beam="2">  1       -1 0.54106028E-01 0.16850008E+04</pdfrwt>
<totfact> 0.24427962E+01</totfact>
</mgrwt>
</event>
<event>
12    6  0.8914180E-008  0.2544381E+04  0.7818608E-02  0.8387343E-01
         -1   -1    0    0    0  501 -0.00000000000E+00  0.00000000000E+00  0.10278314871E+04  0.10278314871E+04  0.00000000000E+00 0.  1.
          2   -1    0    0  501    0  0.00000000000E+00 -0.00000000000E+00 -0.15746443294E+04  0.15746443294E+04  0.00000000000E+00 0. -1.
         24    2    1    2    0    0  0.44709642544E+03 -0.10169982013E+04 -0.25026295756E+03  0.11416996891E+04  0.81646047617E+02 0.  0.
        254    2    1    2    0    0 -0.44709642544E+03  0.10169982013E+04 -0.29654988478E+03  0.14607761274E+04  0.90096864830E+03 0.  0.
         23    2    4    4    0    0 -0.63440938765E+03  0.40712394004E+03 -0.29947753437E+03  0.81618208861E+03  0.90781245231E+02 0.  0.
         23    2    4    4    0    0  0.18731296221E+03  0.60987426125E+03  0.29276495915E+01  0.64459403881E+03  0.91979037835E+02 0.  0.
          4    1    3    3  502    0  0.14251466653E+03 -0.40815690792E+03 -0.75720872964E+02  0.43890334045E+03  0.00000000000E+00 0. -1.
         -3    1    3    3    0  502  0.30458175891E+03 -0.60884129336E+03 -0.17454208460E+03  0.70279634864E+03  0.00000000000E+00 0.  1.
         11    1    5    5    0    0 -0.15034456702E+03  0.91481944641E+02 -0.11218828569E+03  0.20870708295E+03  0.00000000000E+00 0. -1.
        -11    1    5    5    0    0 -0.48406482062E+03  0.31564199539E+03 -0.18728924868E+03  0.60747500565E+03  0.00000000000E+00 0.  1.
          3    1    6    6  503    0  0.51582132005E+02  0.25264257753E+03  0.38834375969E+02  0.26076253005E+03  0.00000000000E+00 0. -1.
         -3    1    6    6    0  503  0.13573083020E+03  0.35723168372E+03 -0.35906726377E+02  0.38383150876E+03  0.00000000000E+00 0.  1.
<mgrwt>
<rscale>  0 0.25443813E+04</rscale>
<asrwt>0</asrwt>
<pdfrwt beam="1">  1        2 0.24225297E+00 0.25443813E+04</pdfrwt>
<pdfrwt beam="2">  1       -1 0.15812792E+00 0.25443813E+04</pdfrwt>
<totfact> 0.35214321E+00</totfact>
</mgrwt>
</event>
<event>
12    6  0.8914180E-008  0.1447503E+04  0.7818608E-02  0.8920134E-01
         -1   -1    0    0    0  501 -0.00000000000E+00  0.00000000000E+00  0.23203483514E+03  0.23203483514E+03  0.00000000000E+00 0.  1.
          2   -1    0    0  501    0  0.00000000000E+00 -0.00000000000E+00 -0.22574888933E+04  0.22574888933E+04  0.00000000000E+00 0. -1.
         24    2    1    2    0    0 -0.36847836645E+03  0.58517841047E+02 -0.23537976347E+03  0.45131804942E+03  0.95308469822E+02 0.  0.
        254    2    1    2    0    0  0.36847836645E+03 -0.58517841047E+02 -0.17900742947E+04  0.20382056790E+04  0.90039755952E+03 0.  0.
         23    2    4    4    0    0 -0.18723009445E+03 -0.25580156506E+03 -0.36037815862E+03  0.48874990540E+03  0.92274069262E+02 0.  0.
         23    2    4    4    0    0  0.55570846091E+03  0.19728372401E+03 -0.14296961361E+04  0.15494557737E+04  0.95128290321E+02 0.  0.
          4    1    3    3  502    0 -0.92770959239E+02 -0.18750045324E+02 -0.88214692751E+02  0.12938256102E+03  0.00000000000E+00 0. -1.
         -3    1    3    3    0  502 -0.27570740722E+03  0.77267886371E+02 -0.14716507072E+03  0.32193548841E+03  0.00000000000E+00 0.  1.
         11    1    5    5    0    0 -0.18140460379E+03 -0.24622162204E+03 -0.36537191992E+03  0.47647597768E+03  0.00000000000E+00 0. -1.
        -11    1    5    5    0    0 -0.58254906628E+01 -0.95799430166E+01  0.49937613015E+01  0.12273927717E+02  0.00000000000E+00 0.  1.
          3    1    6    6  503    0  0.23535024301E+03  0.11908170115E+03 -0.54980346179E+03  0.60979835604E+03  0.00000000000E+00 0. -1.
         -3    1    6    6    0  503  0.32035821790E+03  0.78202022859E+02 -0.87989267432E+03  0.93965741761E+03  0.00000000000E+00 0.  1.
<mgrwt>
<rscale>  0 0.14475028E+04</rscale>
<asrwt>0</asrwt>
<pdfrwt beam="1">  1        2 0.34730600E+00 0.14475028E+04</pdfrwt>
<pdfrwt beam="2">  1       -1 0.35697665E-01 0.14475028E+04</pdfrwt>
<totfact> 0.39713727E+01</totfact>
</mgrwt>
</event>
<event>
12    6  0.8914180E-008  0.1511446E+04  0.7818608E-02  0.8876877E-01
         -1   -1    0    0    0  501 -0.00000000000E+00  0.00000000000E+00  0.18470685929E+03  0.18470685929E+03  0.00000000000E+00 0.  1.
          2   -1    0    0  501    0  0.00000000000E+00 -0.00000000000E+00 -0.30920202354E+04  0.30920202354E+04  0.00000000000E+00 0. -1.
         24    2    1    2    0    0  0.96955242820E+02 -0.46599293512E+03 -0.11586905857E+04  0.12552987949E+04  0.81617744923E+02 0.  0.
        254    2    1    2    0    0 -0.96955242820E+02  0.46599293512E+03 -0.17486227904E+04  0.20214282998E+04  0.89551157085E+03 0.  0.
         23    2    4    4    0    0 -0.42203113660E+03 -0.32436692117E+01 -0.84879739278E+03  0.95186756644E+03  0.86452578810E+02 0.  0.
         23    2    4    4    0    0  0.32507589378E+03  0.46923660434E+03 -0.89982539761E+03  0.10695607334E+04  0.91744692705E+02 0.  0.
          4    1    3    3  502    0  0.10573510056E+03 -0.32952301953E+03 -0.81912562001E+03  0.88923119224E+03  0.00000000000E+00 0. -1.
         -3    1    3    3    0  502 -0.87798577422E+01 -0.13646991560E+03 -0.33956496573E+03  0.36606760266E+03  0.00000000000E+00 0.  1.
         11    1    5    5    0    0 -0.36984412599E+03 -0.30901529199E+02 -0.74886343555E+03  0.83578467750E+03  0.00000000000E+00 0. -1.
        -11    1    5    5    0    0 -0.52187010611E+02  0.27657859987E+02 -0.99933957238E+02  0.11608288894E+03  0.00000000000E+00 0.  1.
          1    1    6    6  503    0  0.19699243583E+03  0.32161702811E+03 -0.66026955962E+03  0.76039425557E+03  0.00000000000E+00 0. -1.
         -1    1    6    6    0  503  0.12808345796E+03  0.14761957623E+03 -0.23955583799E+03  0.30916647781E+03  0.00000000000E+00 0.  1.
<mgrwt>
<rscale>  0 0.15114461E+04</rscale>
<asrwt>0</asrwt>
<pdfrwt beam="1">  1        2 0.47569537E+00 0.15114461E+04</pdfrwt>
<pdfrwt beam="2">  1       -1 0.28416443E-01 0.15114461E+04</pdfrwt>
<totfact> 0.18936634E+01</totfact>
</mgrwt>
</event>
<event>
12    6  0.8914180E-008  0.1361341E+04  0.7818608E-02  0.8982287E-01
          2   -1    0    0  501    0  0.00000000000E+00  0.00000000000E+00  0.24763118219E+04  0.24763118219E+04  0.00000000000E+00 0. -1.
         -1   -1    0    0    0  501 -0.00000000000E+00 -0.00000000000E+00 -0.18709780442E+03  0.18709780442E+03  0.00000000000E+00 0.  1.
         24    2    1    2    0    0  0.33181090518E+03 -0.11625698999E+02  0.82941307260E+03  0.89762544700E+03  0.87015886072E+02 0.  0.
        254    2    1    2    0    0 -0.33181090518E+03  0.11625698999E+02  0.14598009448E+04  0.17657841793E+04  0.93634466708E+03 0.  0.
         23    2    4    4    0    0 -0.37532486201E+03 -0.14948244197E+03  0.14820057844E+03  0.44032212973E+03  0.93308166751E+02 0.  0.
         23    2    4    4    0    0  0.43513956829E+02  0.16110814096E+03  0.13116003664E+04  0.13254620496E+04  0.93299657737E+02 0.  0.
          4    1    3    3  502    0  0.12162615344E+03  0.14107590391E+02  0.21087351693E+03  0.24384336253E+03  0.00000000000E+00 0. -1.
         -3    1    3    3    0  502  0.21018475174E+03 -0.25733289389E+02  0.61853955568E+03  0.65378208448E+03  0.00000000000E+00 0.  1.
         11    1    5    5    0    0 -0.37880255365E+03 -0.14268638178E+03  0.15122477664E+03  0.43211076273E+03  0.00000000000E+00 0. -1.
        -11    1    5    5    0    0  0.34776916389E+01 -0.67960601890E+01 -0.30241982075E+01  0.82113670011E+01  0.00000000000E+00 0.  1.
          1    1    6    6  503    0  0.50912873959E+02  0.16721671360E+03  0.11141081882E+04  0.11277369397E+04  0.00000000000E+00 0. -1.
         -1    1    6    6    0  503 -0.73989171302E+01 -0.61085726328E+01  0.19749217818E+03  0.19772510988E+03  0.00000000000E+00 0.  1.
<mgrwt>
<rscale>  0 0.13613413E+04</rscale>
<asrwt>0</asrwt>
<pdfrwt beam="1">  1        2 0.38097103E+00 0.13613413E+04</pdfrwt>
<pdfrwt beam="2">  1       -1 0.28784279E-01 0.13613413E+04</pdfrwt>
<totfact> 0.43987196E+01</totfact>
</mgrwt>
</event>
<event>
12    6  0.8914180E-008  0.2480924E+04  0.7818608E-02  0.8409813E-01
         -1   -1    0    0    0  501 -0.00000000000E+00  0.00000000000E+00  0.57243217529E+03  0.57243217529E+03  0.00000000000E+00 0.  1.
          2   -1    0    0  501    0  0.00000000000E+00 -0.00000000000E+00 -0.26880848424E+04  0.26880848424E+04  0.00000000000E+00 0. -1.
         24    2    1    2    0    0 -0.81471459380E+03  0.46482856229E+03 -0.16348994248E+04  0.18865694479E+04  0.80141693348E+02 0.  0.
        254    2    1    2    0    0  0.81471459380E+03 -0.46482856229E+03 -0.48075324237E+03  0.13739475698E+04  0.88135281408E+03 0.  0.
         23    2    4    4    0    0  0.71699347246E+03 -0.69033837140E+03 -0.26261663059E+03  0.10331350603E+04  0.88055956918E+02 0.  0.
         23    2    4    4    0    0  0.97721121334E+02  0.22550980911E+03 -0.21813661178E+03  0.34081250953E+03  0.90363121312E+02 0.  0.
          2    1    3    3  502    0 -0.78258962757E+03  0.42673996619E+03 -0.15568119568E+04  0.17939389602E+04  0.00000000000E+00 0. -1.
         -1    1    3    3    0  502 -0.32124966227E+02  0.38088596101E+02 -0.78087467937E+02  0.92630487729E+02  0.00000000000E+00 0.  1.
         11    1    5    5    0    0  0.18157288259E+03 -0.14249610551E+03 -0.31202554685E+02  0.23291082241E+03  0.00000000000E+00 0. -1.
        -11    1    5    5    0    0  0.53542058987E+03 -0.54784226589E+03 -0.23141407591E+03  0.80022423788E+03  0.00000000000E+00 0.  1.
          1    1    6    6  503    0  0.54811349631E+02  0.18100796992E+03 -0.20242586258E+03  0.27702779475E+03  0.00000000000E+00 0. -1.
         -1    1    6    6    0  503  0.42909771703E+02  0.44501839191E+02 -0.15710749199E+02  0.63784714778E+02  0.00000000000E+00 0.  1.
<mgrwt>
<rscale>  0 0.24809242E+04</rscale>
<asrwt>0</asrwt>
<pdfrwt beam="1">  1        2 0.41355152E+00 0.24809242E+04</pdfrwt>
<pdfrwt beam="2">  1       -1 0.88066488E-01 0.24809242E+04</pdfrwt>
<totfact> 0.34745749E+00</totfact>
</mgrwt>
</event>
<event>
12    6  0.8914180E-008  0.1961853E+04  0.7818608E-02  0.8624666E-01
          2   -1    0    0  501    0  0.00000000000E+00  0.00000000000E+00  0.13493163099E+04  0.13493163099E+04  0.00000000000E+00 0. -1.
         -1   -1    0    0    0  501 -0.00000000000E+00 -0.00000000000E+00 -0.71311400787E+03  0.71311400787E+03  0.00000000000E+00 0.  1.
         24    2    1    2    0    0  0.60317557774E+03  0.97420939552E+02 -0.24723141830E+03  0.66368254709E+03  0.77714426439E+02 0.  0.
        254    2    1    2    0    0 -0.60317557774E+03 -0.97420939552E+02  0.88343372036E+03  0.13987477707E+04  0.89595121004E+03 0.  0.
         23    2    4    4    0    0 -0.35335595182E+03 -0.44823207679E+03  0.73344266674E+03  0.93383058782E+03  0.91263344281E+02 0.  0.
         23    2    4    4    0    0 -0.24981962592E+03  0.35081113724E+03  0.14999105362E+03  0.46491718290E+03  0.90401168592E+02 0.  0.
          4    1    3    3  502    0  0.32865155608E+02 -0.81669705770E+01 -0.18687467636E+01  0.33916221429E+02  0.00000000000E+00 0. -1.
         -3    1    3    3    0  502  0.57031042213E+03  0.10558791013E+03 -0.24536267153E+03  0.62976632566E+03  0.00000000000E+00 0.  1.
         11    1    5    5    0    0 -0.25354048583E+03 -0.30052591944E+03  0.43644115726E+03  0.58743466867E+03  0.00000000000E+00 0.  1.
        -11    1    5    5    0    0 -0.99815465991E+02 -0.14770615735E+03  0.29700150948E+03  0.34639591915E+03  0.00000000000E+00 0. -1.
          3    1    6    6  503    0 -0.11754801932E+02  0.51961519627E+02 -0.29658563801E+01  0.53357016357E+02  0.00000000000E+00 0. -1.
         -3    1    6    6    0  503 -0.23806482398E+03  0.29884961761E+03  0.15295691000E+03  0.41156016654E+03  0.00000000000E+00 0.  1.
<mgrwt>
<rscale>  0 0.19618526E+04</rscale>
<asrwt>0</asrwt>
<pdfrwt beam="1">  1        2 0.20758712E+00 0.19618526E+04</pdfrwt>
<pdfrwt beam="2">  1       -1 0.10970985E+00 0.19618526E+04</pdfrwt>
<totfact> 0.12624853E+01</totfact>
</mgrwt>
</event>
<event>
12    6  0.8914180E-008  0.1373806E+04  0.7818608E-02  0.8973000E-01
         -3   -1    0    0    0  501 -0.00000000000E+00  0.00000000000E+00  0.16781151452E+04  0.16781151452E+04  0.00000000000E+00 0.  1.
          4   -1    0    0  501    0  0.00000000000E+00 -0.00000000000E+00 -0.28117017667E+03  0.28117017667E+03  0.00000000000E+00 0. -1.
         24    2    1    2    0    0 -0.13094338128E+03  0.24320391808E+03  0.27136765821E+02  0.28925192559E+03  0.81461386723E+02 0.  0.
        254    2    1    2    0    0  0.13094338128E+03 -0.24320391808E+03  0.13698082027E+04  0.16700333963E+04  0.91451775141E+03 0.  0.
         23    2    4    4    0    0  0.32772458571E+02 -0.57749750919E+03  0.73013231598E+03  0.93601885747E+03  0.91982039236E+02 0.  0.
         23    2    4    4    0    0  0.98170922712E+02  0.33429359111E+03  0.63967588677E+03  0.73401453885E+03  0.90566925531E+02 0.  0.
          2    1    3    3  502    0 -0.12451683435E+03  0.21971199244E+03 -0.32925674822E+00  0.25254288758E+03  0.00000000000E+00 0. -1.
         -1    1    3    3    0  502 -0.64265469384E+01  0.23491925639E+02  0.27466022569E+02  0.36709038009E+02  0.00000000000E+00 0.  1.
         11    1    5    5    0    0  0.49506358431E+02 -0.47761452178E+03  0.55662762612E+03  0.73511959918E+03  0.00000000000E+00 0. -1.
        -11    1    5    5    0    0 -0.16733899860E+02 -0.99882987416E+02  0.17350468986E+03  0.20089925829E+03  0.00000000000E+00 0.  1.
          4    1    6    6  503    0  0.57653837119E+02  0.29786628272E+03  0.51102695516E+03  0.59430365657E+03  0.00000000000E+00 0. -1.
         -4    1    6    6    0  503  0.40517085594E+02  0.36427308394E+02  0.12864893161E+03  0.13971088227E+03  0.00000000000E+00 0.  1.
<mgrwt>
<rscale>  0 0.13738063E+04</rscale>
<asrwt>0</asrwt>
<pdfrwt beam="1">  1        4 0.43256951E-01 0.13738063E+04</pdfrwt>
<pdfrwt beam="2">  1       -3 0.25817156E+00 0.13738063E+04</pdfrwt>
<totfact> 0.76502973E-01</totfact>
</mgrwt>
</event>
<event>
12    6  0.8914180E-008  0.1530370E+04  0.7818608E-02  0.8864505E-01
         -1   -1    0    0    0  501 -0.00000000000E+00  0.00000000000E+00  0.53505631451E+03  0.53505631451E+03  0.00000000000E+00 0.  1.
          2   -1    0    0  501    0  0.00000000000E+00 -0.00000000000E+00 -0.10942923839E+04  0.10942923839E+04  0.00000000000E+00 0. -1.
         24    2    1    2    0    0  0.19719027236E+03 -0.40897233032E+03 -0.42757604166E+03  0.62887579372E+03  0.80753464616E+02 0.  0.
        254    2    1    2    0    0 -0.19719027236E+03  0.40897233032E+03 -0.13166002777E+03  0.10004729047E+04  0.88174219571E+03 0.  0.
         23    2    4    4    0    0 -0.26454352135E+03  0.49898622581E+03  0.22570133852E+03  0.61490142074E+03  0.90510412537E+02 0.  0.
         23    2    4    4    0    0  0.67353248990E+02 -0.90013895489E+02 -0.35736136629E+03  0.38557148399E+03  0.91209986400E+02 0.  0.
          4    1    3    3  502    0  0.15978877485E+03 -0.31259830777E+03 -0.28187434919E+03  0.45022583591E+03  0.00000000000E+00 0. -1.
         -3    1    3    3    0  502  0.37401497507E+02 -0.96374022553E+02 -0.14570169246E+03  0.17864995781E+03  0.00000000000E+00 0.  1.
         11    1    5    5    0    0 -0.23588335135E+03  0.36865758440E+03  0.15838455064E+03  0.46544068995E+03  0.00000000000E+00 0.  1.
        -11    1    5    5    0    0 -0.28660169996E+02  0.13032864141E+03  0.67316787884E+02  0.14946073079E+03  0.00000000000E+00 0. -1.
          3    1    6    6  503    0 -0.94983313449E+01 -0.39045268399E+02 -0.47185747050E+02  0.61977786402E+02  0.00000000000E+00 0. -1.
         -3    1    6    6    0  503  0.76851580335E+02 -0.50968627090E+02 -0.31017561924E+03  0.32359369759E+03  0.00000000000E+00 0.  1.
<mgrwt>
<rscale>  0 0.15303700E+04</rscale>
<asrwt>0</asrwt>
<pdfrwt beam="1">  1        2 0.16835267E+00 0.15303700E+04</pdfrwt>
<pdfrwt beam="2">  1       -1 0.82316357E-01 0.15303700E+04</pdfrwt>
<totfact> 0.35443759E+01</totfact>
</mgrwt>
</event>
<event>
12    6  0.8914180E-008  0.1738446E+04  0.7818608E-02  0.8739736E-01
          2   -1    0    0  501    0  0.00000000000E+00  0.00000000000E+00  0.13202892719E+04  0.13202892719E+04  0.00000000000E+00 0. -1.
         -1   -1    0    0    0  501 -0.00000000000E+00 -0.00000000000E+00 -0.57225989827E+03  0.57225989827E+03  0.00000000000E+00 0.  1.
         24    2    1    2    0    0 -0.40393986571E+03  0.83593012643E+02  0.79765016427E+03  0.90150443128E+03  0.79430776032E+02 0.  0.
        254    2    1    2    0    0  0.40393986571E+03 -0.83593012643E+02 -0.49620790665E+02  0.99104473887E+03  0.89975121267E+03 0.  0.
         23    2    4    4    0    0  0.12177323307E+02 -0.29072034555E+03  0.29361208862E+03  0.42343804976E+03  0.91788435467E+02 0.  0.
         23    2    4    4    0    0  0.39176254240E+03  0.20712733290E+03 -0.34323287929E+03  0.56760668910E+03  0.89380772140E+02 0.  0.
          2    1    3    3  502    0 -0.32119476208E+03  0.56429795490E+02  0.55526700247E+03  0.64395018521E+03  0.00000000000E+00 0. -1.
         -1    1    3    3    0  502 -0.82745103631E+02  0.27163217153E+02  0.24238316180E+03  0.25755424607E+03  0.00000000000E+00 0.  1.
         11    1    5    5    0    0  0.22168050267E+02 -0.28013784151E+03  0.24541410878E+03  0.37309076307E+03  0.00000000000E+00 0.  1.
        -11    1    5    5    0    0 -0.99907269595E+01 -0.10582504037E+02  0.48197979840E+02  0.50347286695E+02  0.00000000000E+00 0. -1.
          2    1    6    6  503    0  0.22011606799E+03  0.66610173424E+02 -0.18450645807E+03  0.29484001028E+03  0.00000000000E+00 0. -1.
         -2    1    6    6    0  503  0.17164647441E+03  0.14051715948E+03 -0.15872642122E+03  0.27276667883E+03  0.00000000000E+00 0.  1.
<mgrwt>
<rscale>  0 0.17384460E+04</rscale>
<asrwt>0</asrwt>
<pdfrwt beam="1">  1        2 0.20312143E+00 0.17384460E+04</pdfrwt>
<pdfrwt beam="2">  1       -1 0.88039984E-01 0.17384460E+04</pdfrwt>
<totfact> 0.22061043E+01</totfact>
</mgrwt>
</event>
<event>
12    6  0.8971730E-008  0.1854912E+04  0.7818608E-02  0.8677631E-01
         -1   -1    0    0    0  501 -0.00000000000E+00  0.00000000000E+00  0.49940449567E+03  0.49940449567E+03  0.00000000000E+00 0.  1.
          2   -1    0    0  501    0  0.00000000000E+00 -0.00000000000E+00 -0.17224011045E+04  0.17224011045E+04  0.00000000000E+00 0. -1.
         24    2    1    2    0    0 -0.49585977826E+03  0.37049615563E+03 -0.88712323914E+03  0.10846685353E+04  0.79836514124E+02 0.  0.
        254    2    1    2    0    0  0.49585977826E+03 -0.37049615563E+03 -0.33587336967E+03  0.11371370649E+04  0.89281882978E+03 0.  0.
         23    2    4    4    0    0 -0.21393585169E+03 -0.37467902282E+01  0.60892429157E+02  0.24036302280E+03  0.91015975101E+02 0.  0.
         23    2    4    4    0    0  0.70979562995E+03 -0.36674936540E+03 -0.39676579882E+03  0.89677404206E+03  0.92008967411E+02 0.  0.
          2    1    3    3  502    0 -0.31123423196E+03  0.21343736573E+03 -0.47655436153E+03  0.60788676225E+03  0.00000000000E+00 0. -1.
         -1    1    3    3    0  502 -0.18462554629E+03  0.15705878991E+03 -0.41056887762E+03  0.47678177304E+03  0.00000000000E+00 0.  1.
         11    1    5    5    0    0 -0.18473907388E+03  0.14810335810E+02  0.78822863949E+02  0.20139740650E+03  0.00000000000E+00 0.  1.
        -11    1    5    5    0    0 -0.29196777813E+02 -0.18557126038E+02 -0.17930434792E+02  0.38965616296E+02  0.00000000000E+00 0. -1.
          2    1    6    6  503    0  0.25395553186E+02  0.17985124471E+01 -0.37151514282E+01  0.25728799404E+02  0.00000000000E+00 0. -1.
         -2    1    6    6    0  503  0.68440007676E+03 -0.36854787785E+03 -0.39305064740E+03  0.87104524266E+03  0.00000000000E+00 0.  1.
<mgrwt>
<rscale>  0 0.18549122E+04</rscale>
<asrwt>0</asrwt>
<pdfrwt beam="1">  1        2 0.26498479E+00 0.18549122E+04</pdfrwt>
<pdfrwt beam="2">  1       -1 0.76831460E-01 0.18549122E+04</pdfrwt>
<totfact> 0.17337942E+01</totfact>
</mgrwt>
</event>
<event>
12    6  0.8914180E-008  0.1717244E+04  0.7818608E-02  0.8751590E-01
          2   -1    0    0  501    0  0.00000000000E+00  0.00000000000E+00  0.11278917577E+04  0.11278917577E+04  0.00000000000E+00 0. -1.
         -1   -1    0    0    0  501 -0.00000000000E+00 -0.00000000000E+00 -0.65363722841E+03  0.65363722841E+03  0.00000000000E+00 0.  1.
         24    2    1    2    0    0  0.39843209701E+03  0.31107994588E+03  0.54405047808E+03  0.74749893131E+03  0.85116748917E+02 0.  0.
        254    2    1    2    0    0 -0.39843209701E+03 -0.31107994588E+03 -0.69795948776E+02  0.10340300548E+04  0.89934854820E+03 0.  0.
         23    2    4    4    0    0  0.14574652904E+03  0.66702832767E+02  0.23580974624E+03  0.29875752894E+03  0.89210459292E+02 0.  0.
         23    2    4    4    0    0 -0.54417862605E+03 -0.37778277865E+03 -0.30560569502E+03  0.73527252589E+03  0.91545844278E+02 0.  0.
          4    1    3    3  502    0  0.29961875725E+03  0.19731084069E+03  0.34387041685E+03  0.49694047042E+03  0.00000000000E+00 0. -1.
         -3    1    3    3    0  502  0.98813339757E+02  0.11376910519E+03  0.20018006123E+03  0.25055846089E+03  0.00000000000E+00 0.  1.
         11    1    5    5    0    0  0.16746020562E+02  0.23444671072E+02  0.10907666866E+03  0.11281755827E+03  0.00000000000E+00 0. -1.
        -11    1    5    5    0    0  0.12900050847E+03  0.43258161695E+02  0.12673307758E+03  0.18593997067E+03  0.00000000000E+00 0.  1.
          2    1    6    6  503    0 -0.99735788240E+01  0.40475487776E+01 -0.11592876457E+02  0.15819282861E+02  0.00000000000E+00 0. -1.
         -2    1    6    6    0  503 -0.53420504722E+03 -0.38183032743E+03 -0.29401281856E+03  0.71945324303E+03  0.00000000000E+00 0.  1.
<mgrwt>
<rscale>  0 0.17172444E+04</rscale>
<asrwt>0</asrwt>
<pdfrwt beam="1">  1        2 0.17352181E+00 0.17172444E+04</pdfrwt>
<pdfrwt beam="2">  1       -1 0.10055957E+00 0.17172444E+04</pdfrwt>
<totfact> 0.21360574E+01</totfact>
</mgrwt>
</event>
<event>
12    6  0.8914180E-008  0.1722346E+04  0.7818608E-02  0.8748721E-01
         -1   -1    0    0    0  501 -0.00000000000E+00  0.00000000000E+00  0.40065210425E+03  0.40065210425E+03  0.00000000000E+00 0.  1.
          2   -1    0    0  501    0  0.00000000000E+00 -0.00000000000E+00 -0.18510300410E+04  0.18510300410E+04  0.00000000000E+00 0. -1.
         24    2    1    2    0    0  0.22931553276E+03 -0.37520956659E+03  0.44514376798E+02  0.44899962044E+03  0.79065143979E+02 0.  0.
        254    2    1    2    0    0 -0.22931553276E+03  0.37520956659E+03 -0.14948923135E+04  0.18026825248E+04  0.90641790787E+03 0.  0.
         23    2    4    4    0    0 -0.41671958994E+03 -0.13537901082E+03 -0.78419035310E+03  0.90295745786E+03  0.91624055797E+02 0.  0.
         23    2    4    4    0    0  0.18740405718E+03  0.51058857741E+03 -0.71070196042E+03  0.89972506692E+03  0.92665762133E+02 0.  0.
          2    1    3    3  502    0  0.14186553571E+03 -0.25739300877E+03  0.64573241493E+02  0.30090977834E+03  0.00000000000E+00 0. -1.
         -1    1    3    3    0  502  0.87449997053E+02 -0.11781655782E+03 -0.20058864695E+02  0.14808984210E+03  0.00000000000E+00 0.  1.
         11    1    5    5    0    0 -0.34986134597E+03 -0.13377783871E+03 -0.71223373500E+03  0.80472129636E+03  0.00000000000E+00 0. -1.
        -11    1    5    5    0    0 -0.66858243975E+02 -0.16011721078E+01 -0.71956618101E+02  0.98236161509E+02  0.00000000000E+00 0.  1.
          3    1    6    6  503    0  0.82629655750E+01  0.11644625209E+02 -0.16038597081E+01  0.14368237969E+02  0.00000000000E+00 0.  1.
         -3    1    6    6    0  503  0.17914109160E+03  0.49894395220E+03 -0.70909810071E+03  0.88535682895E+03  0.00000000000E+00 0. -1.
<mgrwt>
<rscale>  0 0.17223462E+04</rscale>
<asrwt>0</asrwt>
<pdfrwt beam="1">  1        2 0.28477385E+00 0.17223462E+04</pdfrwt>
<pdfrwt beam="2">  1       -1 0.61638785E-01 0.17223462E+04</pdfrwt>
<totfact> 0.23348251E+01</totfact>
</mgrwt>
</event>
<event>
12    6  0.8914180E-008  0.1154996E+04  0.7818608E-02  0.9153187E-01
          2   -1    0    0  501    0  0.00000000000E+00  0.00000000000E+00  0.10775825074E+04  0.10775825074E+04  0.00000000000E+00 0. -1.
         -1   -1    0    0    0  501 -0.00000000000E+00 -0.00000000000E+00 -0.30949254444E+03  0.30949254444E+03  0.00000000000E+00 0.  1.
         24    2    1    2    0    0 -0.12431369392E+03  0.36090774808E+02  0.36272700998E+03  0.39282391994E+03  0.77351857027E+02 0.  0.
        254    2    1    2    0    0  0.12431369392E+03 -0.36090774808E+02  0.40536295293E+03  0.99425113185E+03  0.89858764238E+03 0.  0.
         23    2    4    4    0    0  0.30079086081E+03  0.29554324654E+03 -0.37745563577E+01  0.43144309812E+03  0.91147940864E+02 0.  0.
         23    2    4    4    0    0 -0.17647716688E+03 -0.33163402134E+03  0.40913750929E+03  0.56280803372E+03  0.90741758695E+02 0.  0.
          4    1    3    3  502    0 -0.11902133979E+03  0.52469342670E+02  0.34188712258E+03  0.36579490952E+03  0.00000000000E+00 0. -1.
         -3    1    3    3    0  502 -0.52923541325E+01 -0.16378567862E+02  0.20839887408E+02  0.27029010426E+02  0.00000000000E+00 0.  1.
         11    1    5    5    0    0 -0.40783736568E+01  0.38689143911E+01  0.74956349234E+01  0.93694275788E+01  0.00000000000E+00 0. -1.
        -11    1    5    5    0    0  0.30486923446E+03  0.29167433215E+03 -0.11270191281E+02  0.42207367054E+03  0.00000000000E+00 0.  1.
          2    1    6    6  503    0 -0.17126942481E+03 -0.33352623499E+03  0.41158198887E+03  0.55675191860E+03  0.00000000000E+00 0.  1.
         -2    1    6    6    0  503 -0.52077420775E+01  0.18922136479E+01 -0.24444795761E+01  0.60561151271E+01  0.00000000000E+00 0. -1.
<mgrwt>
<rscale>  0 0.11549957E+04</rscale>
<asrwt>0</asrwt>
<pdfrwt beam="1">  1        2 0.16578192E+00 0.11549957E+04</pdfrwt>
<pdfrwt beam="2">  1       -1 0.47614238E-01 0.11549957E+04</pdfrwt>
<totfact> 0.11174955E+02</totfact>
</mgrwt>
</event>
<event>
12    6  0.8914180E-008  0.1958204E+04  0.7818608E-02  0.8626415E-01
         -1   -1    0    0    0  501 -0.00000000000E+00  0.00000000000E+00  0.34590396453E+03  0.34590396453E+03  0.00000000000E+00 0.  1.
          2   -1    0    0  501    0  0.00000000000E+00 -0.00000000000E+00 -0.27714076805E+04  0.27714076805E+04  0.00000000000E+00 0. -1.
         24    2    1    2    0    0  0.13776476531E+03  0.61356367116E+03 -0.16673302795E+04  0.17836460742E+04  0.77224011572E+02 0.  0.
        254    2    1    2    0    0 -0.13776476531E+03 -0.61356367116E+03 -0.75817343645E+03  0.13336655708E+04  0.89910921800E+03 0.  0.
         23    2    4    4    0    0 -0.85653686629E+02 -0.83033024560E+03 -0.48470593063E+03  0.96945641675E+03  0.90116779835E+02 0.  0.
         23    2    4    4    0    0 -0.52111078685E+02  0.21676657444E+03 -0.27346750583E+03  0.36420915406E+03  0.90335590136E+02 0.  0.
          2    1    3    3  502    0  0.32364784092E+02  0.55405063677E+02 -0.13650580605E+03  0.15083446362E+03  0.00000000000E+00 0. -1.
         -1    1    3    3    0  502  0.10539998122E+03  0.55815860749E+03 -0.15308244734E+04  0.16328116106E+04  0.00000000000E+00 0.  1.
         11    1    5    5    0    0 -0.80408678488E+02 -0.34812208420E+03 -0.20044881753E+03  0.40967581028E+03  0.00000000000E+00 0.  1.
        -11    1    5    5    0    0 -0.52450081407E+01 -0.48220816140E+03 -0.28425711310E+03  0.55978060647E+03  0.00000000000E+00 0. -1.
          3    1    6    6  503    0 -0.34843130735E+02  0.61150955783E+02 -0.34160327545E+02  0.78233056508E+02  0.00000000000E+00 0. -1.
         -3    1    6    6    0  503 -0.17267947950E+02  0.15561561865E+03 -0.23930717828E+03  0.28597609755E+03  0.00000000000E+00 0.  1.
<mgrwt>
<rscale>  0 0.19582042E+04</rscale>
<asrwt>0</asrwt>
<pdfrwt beam="1">  1        2 0.42637042E+00 0.19582042E+04</pdfrwt>
<pdfrwt beam="2">  1       -1 0.53215994E-01 0.19582042E+04</pdfrwt>
<totfact> 0.91081016E+00</totfact>
</mgrwt>
</event>
<event>
12    6  0.8914180E-008  0.1446882E+04  0.7818608E-02  0.8920565E-01
          2   -1    0    0  501    0  0.00000000000E+00  0.00000000000E+00  0.78906156588E+03  0.78906156588E+03  0.00000000000E+00 0. -1.
         -1   -1    0    0    0  501 -0.00000000000E+00 -0.00000000000E+00 -0.66327763593E+03  0.66327763593E+03  0.00000000000E+00 0.  1.
         24    2    1    2    0    0  0.26784657552E+03  0.10811094141E+03  0.37332992160E+03  0.47904498712E+03  0.81725795494E+02 0.  0.
        254    2    1    2    0    0 -0.26784657552E+03 -0.10811094141E+03 -0.24754599165E+03  0.97329421469E+03  0.89587546384E+03 0.  0.
         23    2    4    4    0    0 -0.10671419136E+03  0.53368054294E+02 -0.55720385915E+03  0.57758239858E+03  0.94282652924E+02 0.  0.
         23    2    4    4    0    0 -0.16113238415E+03 -0.16147899570E+03  0.30965786750E+03  0.39571181611E+03  0.93063071267E+02 0.  0.
          4    1    3    3  502    0  0.15110948719E+03  0.85839905210E+02  0.16749331986E+03  0.24136399616E+03  0.00000000000E+00 0. -1.
         -3    1    3    3    0  502  0.11673708833E+03  0.22271036198E+02  0.20583660174E+03  0.23768099096E+03  0.00000000000E+00 0.  1.
         11    1    5    5    0    0 -0.17793649483E+02 -0.13459002389E+02 -0.23474228188E+02  0.32385152404E+02  0.00000000000E+00 0.  1.
        -11    1    5    5    0    0 -0.88920541880E+02  0.66827056683E+02 -0.53372963096E+03  0.54519724618E+03  0.00000000000E+00 0. -1.
          3    1    6    6  503    0 -0.17214372001E+03 -0.14159589600E+03  0.27125496728E+03  0.35108704814E+03  0.00000000000E+00 0. -1.
         -3    1    6    6    0  503  0.11011335854E+02 -0.19883099704E+02  0.38402900221E+02  0.44624767972E+02  0.00000000000E+00 0.  1.
<mgrwt>
<rscale>  0 0.14468820E+04</rscale>
<asrwt>0</asrwt>
<pdfrwt beam="1">  1        2 0.12139409E+00 0.14468820E+04</pdfrwt>
<pdfrwt beam="2">  1       -1 0.10204271E+00 0.14468820E+04</pdfrwt>
<totfact> 0.35361643E+01</totfact>
</mgrwt>
</event>
<event>
12    6  0.9515406E-008  0.2024960E+04  0.7818608E-02  0.8595039E-01
          2   -1    0    0  501    0  0.00000000000E+00  0.00000000000E+00  0.18550341948E+04  0.18550341948E+04  0.00000000000E+00 0. -1.
         -1   -1    0    0    0  501 -0.00000000000E+00 -0.00000000000E+00 -0.55261302952E+03  0.55261302952E+03  0.00000000000E+00 0.  1.
         24    2    1    2    0    0  0.29077850571E+03  0.69506544178E+03  0.87547942584E+03  0.11577801851E+04  0.79514931187E+02 0.  0.
        254    2    1    2    0    0 -0.29077850571E+03 -0.69506544178E+03  0.42694173948E+03  0.12498670392E+04  0.90123263317E+03 0.  0.
         23    2    4    4    0    0  0.56978718488E+02 -0.70065080551E+03  0.51886741699E+03  0.87841693062E+03  0.90745699439E+02 0.  0.
         23    2    4    4    0    0 -0.34775722420E+03  0.55853637249E+01 -0.91925677516E+02  0.37145010860E+03  0.92512538186E+02 0.  0.
          2    1    3    3  502    0  0.29381889567E+03  0.69053312608E+03  0.86010953810E+03  0.11414700869E+04  0.00000000000E+00 0. -1.
         -1    1    3    3    0  502 -0.30403899516E+01  0.45323157000E+01  0.15369887738E+02  0.16310098275E+02  0.00000000000E+00 0.  1.
         11    1    5    5    0    0 -0.19680112600E+02 -0.16892397885E+03  0.10085516510E+03  0.19772299257E+03  0.00000000000E+00 0.  1.
        -11    1    5    5    0    0  0.76658831088E+02 -0.53172682666E+03  0.41801225189E+03  0.68069393805E+03  0.00000000000E+00 0. -1.
          1    1    6    6  503    0 -0.34460497018E+03  0.14651810235E+02 -0.99767334411E+02  0.35905540245E+03  0.00000000000E+00 0. -1.
         -1    1    6    6    0  503 -0.31522540271E+01 -0.90664465103E+01  0.78416568949E+01  0.12394706154E+02  0.00000000000E+00 0.  1.
<mgrwt>
<rscale>  0 0.20249603E+04</rscale>
<asrwt>0</asrwt>
<pdfrwt beam="1">  1        2 0.28538987E+00 0.20249603E+04</pdfrwt>
<pdfrwt beam="2">  1       -1 0.85017390E-01 0.20249603E+04</pdfrwt>
<totfact> 0.11619431E+01</totfact>
</mgrwt>
</event>
<event>
12    6  0.8914180E-008  0.1730638E+04  0.7818608E-02  0.8744081E-01
          2   -1    0    0  501    0  0.00000000000E+00  0.00000000000E+00  0.22455670615E+04  0.22455670615E+04  0.00000000000E+00 0. -1.
         -1   -1    0    0    0  501 -0.00000000000E+00 -0.00000000000E+00 -0.33344673010E+03  0.33344673010E+03  0.00000000000E+00 0.  1.
         24    2    1    2    0    0  0.90747104950E+02 -0.57142724259E+03  0.33397774694E+03  0.67377945979E+03  0.87598483734E+02 0.  0.
        254    2    1    2    0    0 -0.90747104950E+02  0.57142724259E+03  0.15781425845E+04  0.19052343318E+04  0.89700597076E+03 0.  0.
         23    2    4    4    0    0  0.29947587379E+03 -0.63110399585E+02  0.47552126044E+03  0.57153119248E+03  0.82817349167E+02 0.  0.
         23    2    4    4    0    0 -0.39022297874E+03  0.63453764217E+03  0.11026213240E+04  0.13337031393E+04  0.89879292459E+02 0.  0.
          2    1    3    3  502    0 -0.14957218175E+02 -0.43352150686E+02  0.35908335611E+02  0.58245479747E+02  0.00000000000E+00 0. -1.
         -1    1    3    3    0  502  0.10570432313E+03 -0.52807509190E+03  0.29806941133E+03  0.61553398004E+03  0.00000000000E+00 0.  1.
         11    1    5    5    0    0  0.33413776885E+02  0.13756298979E+02  0.88820560334E+02  0.95889562442E+02  0.00000000000E+00 0. -1.
        -11    1    5    5    0    0  0.26606209690E+03 -0.76866698564E+02  0.38670070011E+03  0.47564163003E+03  0.00000000000E+00 0.  1.
          3    1    6    6  503    0 -0.53034549619E+02  0.48361901193E+02  0.13955149687E+03  0.15692723543E+03  0.00000000000E+00 0. -1.
         -3    1    6    6    0  503 -0.33718842912E+03  0.58617574098E+03  0.96306982716E+03  0.11767759039E+04  0.00000000000E+00 0.  1.
<mgrwt>
<rscale>  0 0.17306380E+04</rscale>
<asrwt>0</asrwt>
<pdfrwt beam="1">  1        2 0.34547185E+00 0.17306380E+04</pdfrwt>
<pdfrwt beam="2">  1       -1 0.51299498E-01 0.17306380E+04</pdfrwt>
<totfact> 0.20119164E+01</totfact>
</mgrwt>
</event>
<event>
12    6  0.8914180E-008  0.1905840E+04  0.7818608E-02  0.8651955E-01
          2   -1    0    0  501    0  0.00000000000E+00  0.00000000000E+00  0.28365562541E+04  0.28365562541E+04  0.00000000000E+00 0. -1.
         -3   -1    0    0    0  501 -0.00000000000E+00 -0.00000000000E+00 -0.32012638087E+03  0.32012638087E+03  0.00000000000E+00 0.  1.
         24    2    1    2    0    0 -0.75601728903E+02 -0.28972332029E+03  0.20938019934E+04  0.21167060978E+04  0.82357107176E+02 0.  0.
        254    2    1    2    0    0  0.75601728903E+02  0.28972332029E+03  0.42262787977E+03  0.10399765371E+04  0.90182129565E+03 0.  0.
         23    2    4    4    0    0 -0.38846685371E+03  0.17412940218E+03  0.74271685276E+02  0.44182724273E+03  0.92018933140E+02 0.  0.
         23    2    4    4    0    0  0.46406858261E+03  0.11559391811E+03  0.34835619450E+03  0.59814929440E+03  0.87800551672E+02 0.  0.
          4    1    3    3  502    0 -0.57974501990E+02 -0.17945111444E+03  0.15593466869E+04  0.15707087048E+04  0.00000000000E+00 0. -1.
         -3    1    3    3    0  502 -0.17627226913E+02 -0.11027220586E+03  0.53445530650E+03  0.54599739300E+03  0.00000000000E+00 0.  1.
         11    1    5    5    0    0 -0.40375726082E+02  0.42646652326E+02  0.33224441078E+02  0.67474437354E+02  0.00000000000E+00 0. -1.
        -11    1    5    5    0    0 -0.34809112762E+03  0.13148274985E+03  0.41047244198E+02  0.37435280538E+03  0.00000000000E+00 0.  1.
          2    1    6    6  503    0  0.27244765671E+03  0.96045970996E+02  0.16747393807E+03  0.33391626814E+03  0.00000000000E+00 0. -1.
         -2    1    6    6    0  503  0.19162092589E+03  0.19547947119E+02  0.18088225642E+03  0.26423302626E+03  0.00000000000E+00 0.  1.
<mgrwt>
<rscale>  0 0.19058400E+04</rscale>
<asrwt>0</asrwt>
<pdfrwt beam="1">  1        2 0.43639325E+00 0.19058400E+04</pdfrwt>
<pdfrwt beam="2">  1       -3 0.49250214E-01 0.19058400E+04</pdfrwt>
<totfact> 0.54410455E+00</totfact>
</mgrwt>
</event>
<event>
12    6  0.8914180E-008  0.1292154E+04  0.7818608E-02  0.9035810E-01
          2   -1    0    0  501    0  0.00000000000E+00  0.00000000000E+00  0.26469864340E+03  0.26469864340E+03  0.00000000000E+00 0. -1.
         -1   -1    0    0    0  501 -0.00000000000E+00 -0.00000000000E+00 -0.15769466475E+04  0.15769466475E+04  0.00000000000E+00 0.  1.
         24    2    1    2    0    0 -0.24776315411E+03 -0.21072020028E+03 -0.36337017932E+03  0.49410075974E+03  0.79423486569E+02 0.  0.
        254    2    1    2    0    0  0.24776315411E+03  0.21072020028E+03 -0.94887782474E+03  0.13475445311E+04  0.89984307172E+03 0.  0.
         23    2    4    4    0    0  0.11780196735E+03 -0.13862129578E+03  0.10277465544E+03  0.22795420682E+03  0.91144519587E+02 0.  0.
         23    2    4    4    0    0  0.12996118675E+03  0.34934149606E+03 -0.10516524802E+04  0.11195903243E+04  0.92629175987E+02 0.  0.
          2    1    3    3  502    0 -0.17750042544E+03 -0.19316534770E+03 -0.28834916956E+03  0.38982623844E+03  0.00000000000E+00 0. -1.
         -1    1    3    3    0  502 -0.70262728666E+02 -0.17554852576E+02 -0.75021009757E+02  0.10427452131E+03  0.00000000000E+00 0.  1.
         11    1    5    5    0    0  0.79872601600E+01 -0.47677219862E+01 -0.15639888793E+02  0.18197077218E+02  0.00000000000E+00 0.  1.
        -11    1    5    5    0    0  0.10981470719E+03 -0.13385357379E+03  0.11841454424E+03  0.20975712961E+03  0.00000000000E+00 0. -1.
          1    1    6    6  503    0  0.12774645211E+03  0.28103939236E+03 -0.93200308900E+03  0.98180041454E+03  0.00000000000E+00 0. -1.
         -1    1    6    6    0  503  0.22147346384E+01  0.68302103700E+02 -0.11964939119E+03  0.13778990976E+03  0.00000000000E+00 0.  1.
<mgrwt>
<rscale>  0 0.12921542E+04</rscale>
<asrwt>0</asrwt>
<pdfrwt beam="1">  1        2 0.40722869E-01 0.12921542E+04</pdfrwt>
<pdfrwt beam="2">  1       -1 0.24260717E+00 0.12921542E+04</pdfrwt>
<totfact> 0.11074683E+01</totfact>
</mgrwt>
</event>
<event>
12    6  0.8914180E-008  0.1275131E+04  0.7818608E-02  0.9049522E-01
          2   -1    0    0  501    0  0.00000000000E+00  0.00000000000E+00  0.22027985660E+04  0.22027985660E+04  0.00000000000E+00 0. -1.
         -1   -1    0    0    0  501 -0.00000000000E+00 -0.00000000000E+00 -0.18453332179E+03  0.18453332179E+03  0.00000000000E+00 0.  1.
         24    2    1    2    0    0  0.13519201760E+03  0.20418017044E+03  0.84986841556E+03  0.88791768677E+03  0.78454261084E+02 0.  0.
        254    2    1    2    0    0 -0.13519201760E+03 -0.20418017044E+03  0.11683968287E+04  0.14994142010E+04  0.90726257139E+03 0.  0.
         23    2    4    4    0    0  0.15938018190E+03  0.67702547737E+02 -0.59044820141E+02  0.20466432793E+03  0.91736137858E+02 0.  0.
         23    2    4    4    0    0 -0.29457219950E+03 -0.27188271818E+03  0.12274416488E+04  0.12947498731E+04  0.95243055088E+02 0.  0.
          2    1    3    3  502    0  0.77100212913E+02  0.16594121432E+03  0.68416704422E+03  0.70821287325E+03  0.00000000000E+00 0. -1.
         -1    1    3    3    0  502  0.58091804685E+02  0.38238956120E+02  0.16570137135E+03  0.17970481352E+03  0.00000000000E+00 0.  1.
         11    1    5    5    0    0  0.15680677155E+03  0.79154369126E+02 -0.69542041140E+02  0.18891763613E+03  0.00000000000E+00 0.  1.
        -11    1    5    5    0    0  0.25734103521E+01 -0.11451821389E+02  0.10497220999E+02  0.15746691800E+02  0.00000000000E+00 0. -1.
          3    1    6    6  503    0 -0.15974148589E+02 -0.38112587811E+02  0.21582926033E+03  0.21974988598E+03  0.00000000000E+00 0. -1.
         -3    1    6    6    0  503 -0.27859805091E+03 -0.23377013037E+03  0.10116123885E+04  0.10749999871E+04  0.00000000000E+00 0.  1.
<mgrwt>
<rscale>  0 0.12751310E+04</rscale>
<asrwt>0</asrwt>
<pdfrwt beam="1">  1        2 0.33889207E+00 0.12751310E+04</pdfrwt>
<pdfrwt beam="2">  1       -1 0.28389743E-01 0.12751310E+04</pdfrwt>
<totfact> 0.64820673E+01</totfact>
</mgrwt>
</event>
<event>
12    6  0.8914180E-008  0.1792218E+04  0.7818608E-02  0.8710449E-01
         -3   -1    0    0    0  501 -0.00000000000E+00  0.00000000000E+00  0.16050710190E+04  0.16050710190E+04  0.00000000000E+00 0.  1.
          2   -1    0    0  501    0  0.00000000000E+00 -0.00000000000E+00 -0.50029626511E+03  0.50029626511E+03  0.00000000000E+00 0. -1.
         24    2    1    2    0    0  0.60754975011E+03  0.15172501672E+03  0.68864842162E+03  0.93405414950E+03  0.77995679555E+02 0.  0.
        254    2    1    2    0    0 -0.60754975011E+03 -0.15172501672E+03  0.41612633224E+03  0.11713131346E+04  0.89815152136E+03 0.  0.
         23    2    4    4    0    0 -0.29101083575E+03 -0.49114022704E+03  0.65165220866E+02  0.58168408157E+03  0.90575027469E+02 0.  0.
         23    2    4    4    0    0 -0.31653891437E+03  0.33941521032E+03  0.35096111138E+03  0.58962905303E+03  0.95337029376E+02 0.  0.
          4    1    3    3  502    0  0.10476260477E+03  0.26093685480E+02  0.78316874809E+02  0.13337772175E+03  0.00000000000E+00 0. -1.
         -3    1    3    3    0  502  0.50278714535E+03  0.12563133124E+03  0.61033154682E+03  0.80067642775E+03  0.00000000000E+00 0.  1.
         11    1    5    5    0    0 -0.11568565859E+01 -0.44989427417E+02 -0.39359241257E+01  0.45176082114E+02  0.00000000000E+00 0. -1.
        -11    1    5    5    0    0 -0.28985397916E+03 -0.44615079962E+03  0.69101144991E+02  0.53650799945E+03  0.00000000000E+00 0.  1.
          3    1    6    6  503    0 -0.17211696147E+02  0.30302989603E+02  0.62619073749E+02  0.71663533685E+02  0.00000000000E+00 0. -1.
         -3    1    6    6    0  503 -0.29932721822E+03  0.30911222071E+03  0.28834203763E+03  0.51796551934E+03  0.00000000000E+00 0.  1.
<mgrwt>
<rscale>  0 0.17922177E+04</rscale>
<asrwt>0</asrwt>
<pdfrwt beam="1">  1        2 0.76968657E-01 0.17922177E+04</pdfrwt>
<pdfrwt beam="2">  1       -3 0.24693400E+00 0.17922177E+04</pdfrwt>
<totfact> 0.27667848E+00</totfact>
</mgrwt>
</event>
<event>
12    6  0.8914180E-008  0.1911245E+04  0.7818608E-02  0.8649279E-01
         -1   -1    0    0    0  501 -0.00000000000E+00  0.00000000000E+00  0.50220116876E+03  0.50220116876E+03  0.00000000000E+00 0.  1.
          2   -1    0    0  501    0  0.00000000000E+00 -0.00000000000E+00 -0.18184242063E+04  0.18184242063E+04  0.00000000000E+00 0. -1.
         24    2    1    2    0    0  0.59903243560E+03 -0.20365431975E+03 -0.10107704354E+04  0.11951837026E+04  0.80574617814E+02 0.  0.
        254    2    1    2    0    0 -0.59903243560E+03  0.20365431975E+03 -0.30545260216E+03  0.11254416725E+04  0.87920573537E+03 0.  0.
         23    2    4    4    0    0 -0.52168555030E+03  0.42055748365E+03  0.65214868142E+02  0.67952455008E+03  0.92066414567E+02 0.  0.
         23    2    4    4    0    0 -0.77346885296E+02 -0.21690316390E+03 -0.37066747030E+03  0.44591712239E+03  0.91750658422E+02 0.  0.
          2    1    3    3  502    0  0.53418388840E+03 -0.19076724641E+03 -0.85595994284E+03  0.10268456518E+04  0.00000000000E+00 0. -1.
         -1    1    3    3    0  502  0.64848547195E+02 -0.12887073335E+02 -0.15481049252E+03  0.16833805074E+03  0.00000000000E+00 0.  1.
         11    1    5    5    0    0 -0.43804788510E+03  0.35301211721E+03  0.20127932067E+02  0.56294639015E+03  0.00000000000E+00 0.  1.
        -11    1    5    5    0    0 -0.83637665204E+02  0.67545366439E+02  0.45086936075E+02  0.11657815993E+03  0.00000000000E+00 0. -1.
          1    1    6    6  503    0 -0.27499117819E+02 -0.73684026045E+02 -0.55792734933E+02  0.96428037657E+02  0.00000000000E+00 0. -1.
         -1    1    6    6    0  503 -0.49847767477E+02 -0.14321913786E+03 -0.31487473537E+03  0.34948908473E+03  0.00000000000E+00 0.  1.
<mgrwt>
<rscale>  0 0.19112454E+04</rscale>
<asrwt>0</asrwt>
<pdfrwt beam="1">  1        2 0.27975757E+00 0.19112454E+04</pdfrwt>
<pdfrwt beam="2">  1       -1 0.77261719E-01 0.19112454E+04</pdfrwt>
<totfact> 0.15083861E+01</totfact>
</mgrwt>
</event>
<event>
12    6  0.8914180E-008  0.2728966E+04  0.7818608E-02  0.8325667E-01
         -1   -1    0    0    0  501 -0.00000000000E+00  0.00000000000E+00  0.14851192793E+04  0.14851192793E+04  0.00000000000E+00 0.  1.
          2   -1    0    0  501    0  0.00000000000E+00 -0.00000000000E+00 -0.12536456668E+04  0.12536456668E+04  0.00000000000E+00 0. -1.
         24    2    1    2    0    0 -0.54479746085E+03 -0.10389731446E+04  0.40096793769E+03  0.12424800187E+04  0.81925828008E+02 0.  0.
        254    2    1    2    0    0  0.54479746085E+03  0.10389731446E+04 -0.16949432520E+03  0.14962849273E+04  0.91316525814E+03 0.  0.
         23    2    4    4    0    0  0.19202441586E+03 -0.12056091093E+03  0.77600894616E+02  0.25625812388E+03  0.90763526142E+02 0.  0.
         23    2    4    4    0    0  0.35277304499E+03  0.11595340556E+04 -0.24709521982E+03  0.12400268034E+04  0.87420696552E+02 0.  0.
          4    1    3    3  502    0 -0.21337989807E+03 -0.41586332176E+03  0.20210043805E+03  0.50923262891E+03  0.00000000000E+00 0. -1.
         -3    1    3    3    0  502 -0.33141756278E+03 -0.62310982288E+03  0.19886749964E+03  0.73324738983E+03  0.00000000000E+00 0.  1.
         11    1    5    5    0    0  0.38257768005E+02 -0.16180875566E+02  0.55173256420E+02  0.69062042910E+02  0.00000000000E+00 0.  1.
        -11    1    5    5    0    0  0.15376664786E+03 -0.10438003536E+03  0.22427638196E+02  0.18719608097E+03  0.00000000000E+00 0. -1.
          4    1    6    6  503    0  0.36573780767E+02  0.10080767543E+03  0.24362419234E+01  0.10726492502E+03  0.00000000000E+00 0.  1.
         -4    1    6    6    0  503  0.31619926422E+03  0.10587263801E+04 -0.24953146174E+03  0.11327618784E+04  0.00000000000E+00 0. -1.
<mgrwt>
<rscale>  0 0.27289656E+04</rscale>
<asrwt>0</asrwt>
<pdfrwt beam="1">  1        2 0.19286857E+00 0.27289656E+04</pdfrwt>
<pdfrwt beam="2">  1       -1 0.22847989E+00 0.27289656E+04</pdfrwt>
<totfact> 0.16956163E+00</totfact>
</mgrwt>
</event>
<event>
12    6  0.8914180E-008  0.2393705E+04  0.7818608E-02  0.8441864E-01
          2   -1    0    0  501    0  0.00000000000E+00  0.00000000000E+00  0.28303446986E+04  0.28303446986E+04  0.00000000000E+00 0. -1.
         -1   -1    0    0    0  501 -0.00000000000E+00 -0.00000000000E+00 -0.50610662740E+03  0.50610662740E+03  0.00000000000E+00 0.  1.
         24    2    1    2    0    0  0.70420291554E+03  0.49314656229E+03  0.21880495629E+03  0.89075663990E+03  0.80476732504E+02 0.  0.
        254    2    1    2    0    0 -0.70420291554E+03 -0.49314656229E+03  0.21054331150E+04  0.24456946861E+04  0.89971029678E+03 0.  0.
         23    2    4    4    0    0 -0.30788279585E+03  0.19158527322E+03  0.11081228723E+04  0.11693647220E+04  0.89335435641E+02 0.  0.
         23    2    4    4    0    0 -0.39632011969E+03 -0.68473183551E+03  0.99731024265E+03  0.12763299641E+04  0.91995290163E+02 0.  0.
          2    1    3    3  502    0  0.27444073016E+03  0.23015972538E+03  0.65595008311E+02  0.36413447883E+03  0.00000000000E+00 0. -1.
         -1    1    3    3    0  502  0.42976218538E+03  0.26298683692E+03  0.15320994797E+03  0.52662216107E+03  0.00000000000E+00 0.  1.
         11    1    5    5    0    0 -0.17029122464E+03  0.58874807244E+02  0.47564974545E+03  0.50863348736E+03  0.00000000000E+00 0. -1.
        -11    1    5    5    0    0 -0.13759157120E+03  0.13271046598E+03  0.63247312686E+03  0.66073123465E+03  0.00000000000E+00 0.  1.
          2    1    6    6  503    0 -0.17151642085E+02 -0.10468648990E+02  0.11184732378E+02  0.22997166701E+02  0.00000000000E+00 0. -1.
         -2    1    6    6    0  503 -0.37916847760E+03 -0.67426318652E+03  0.98612551028E+03  0.12533327974E+04  0.00000000000E+00 0.  1.
<mgrwt>
<rscale>  0 0.23937053E+04</rscale>
<asrwt>0</asrwt>
<pdfrwt beam="1">  1        2 0.43543764E+00 0.23937053E+04</pdfrwt>
<pdfrwt beam="2">  1       -1 0.77862560E-01 0.23937053E+04</pdfrwt>
<totfact> 0.37485015E+00</totfact>
</mgrwt>
</event>
<event>
12    6  0.8914180E-008  0.1535562E+04  0.7818608E-02  0.8861143E-01
         -1   -1    0    0    0  501 -0.00000000000E+00  0.00000000000E+00  0.85780329736E+03  0.85780329736E+03  0.00000000000E+00 0.  1.
          2   -1    0    0  501    0  0.00000000000E+00 -0.00000000000E+00 -0.68720630863E+03  0.68720630863E+03  0.00000000000E+00 0. -1.
         24    2    1    2    0    0  0.70712230453E+02  0.47128595765E+03 -0.74310905367E+02  0.48899104030E+03  0.80495052142E+02 0.  0.
        254    2    1    2    0    0 -0.70712230453E+02 -0.47128595765E+03  0.24490789410E+03  0.10560185657E+04  0.90999157199E+03 0.  0.
         23    2    4    4    0    0  0.26909650399E+03 -0.11102934601E+03 -0.21592557013E+03  0.37405891498E+03  0.92497437286E+02 0.  0.
         23    2    4    4    0    0 -0.33980873444E+03 -0.36025661164E+03  0.46083346423E+03  0.68195965072E+03  0.86294155205E+02 0.  0.
          4    1    3    3  502    0 -0.37421809596E+01  0.68393936972E+02 -0.36292741183E+02  0.77517079379E+02  0.00000000000E+00 0. -1.
         -3    1    3    3    0  502  0.74454411413E+02  0.40289202068E+03 -0.38018164185E+02  0.41147396092E+03  0.00000000000E+00 0.  1.
         11    1    5    5    0    0  0.16423868595E+03 -0.10945320703E+03 -0.11455619747E+03  0.22820489230E+03  0.00000000000E+00 0. -1.
        -11    1    5    5    0    0  0.10485781804E+03 -0.15761389813E+01 -0.10136937266E+03  0.14585402268E+03  0.00000000000E+00 0.  1.
          1    1    6    6  503    0 -0.51717522588E+02 -0.17424687126E+02  0.57794702811E+02  0.79489304546E+02  0.00000000000E+00 0. -1.
         -1    1    6    6    0  503 -0.28809121185E+03 -0.34283192451E+03  0.40303876142E+03  0.60247034617E+03  0.00000000000E+00 0.  1.
<mgrwt>
<rscale>  0 0.15355622E+04</rscale>
<asrwt>0</asrwt>
<pdfrwt beam="1">  1        2 0.10572405E+00 0.15355622E+04</pdfrwt>
<pdfrwt beam="2">  1       -1 0.13196974E+00 0.15355622E+04</pdfrwt>
<totfact> 0.22538852E+01</totfact>
</mgrwt>
</event>
<event>
12    6  0.1020027E-007  0.2583024E+04  0.7818608E-02  0.8373991E-01
         -1   -1    0    0    0  501 -0.00000000000E+00  0.00000000000E+00  0.11677853694E+04  0.11677853694E+04  0.00000000000E+00 0.  1.
          2   -1    0    0  501    0  0.00000000000E+00 -0.00000000000E+00 -0.14283472734E+04  0.14283472734E+04  0.00000000000E+00 0. -1.
         24    2    1    2    0    0  0.51164001193E+03  0.49502649777E+02  0.90604234313E+03  0.10445699862E+04  0.77380322381E+02 0.  0.
        254    2    1    2    0    0 -0.51164001193E+03 -0.49502649777E+02 -0.11666042471E+04  0.15515626567E+04  0.88439538340E+03 0.  0.
         23    2    4    4    0    0 -0.45727725621E+03 -0.41040834808E+03 -0.55113583516E+03  0.83021508148E+03  0.89268535894E+02 0.  0.
         23    2    4    4    0    0 -0.54362755724E+02  0.36090569830E+03 -0.61546841191E+03  0.72134757520E+03  0.91283765872E+02 0.  0.
          2    1    3    3  502    0  0.45778221454E+02  0.20051993608E+02  0.12566978340E+03  0.13524282778E+03  0.00000000000E+00 0. -1.
         -1    1    3    3    0  502  0.46586179048E+03  0.29450656168E+02  0.78037255973E+03  0.90932715837E+03  0.00000000000E+00 0.  1.
         11    1    5    5    0    0 -0.39388214440E+03 -0.31829075164E+03 -0.47956314915E+03  0.69744746059E+03  0.00000000000E+00 0.  1.
        -11    1    5    5    0    0 -0.63395111808E+02 -0.92117596436E+02 -0.71572686006E+02  0.13276762089E+03  0.00000000000E+00 0. -1.
          2    1    6    6  503    0 -0.57272496876E+02  0.35867828923E+03 -0.57104774889E+03  0.67677602320E+03  0.00000000000E+00 0.  1.
         -2    1    6    6    0  503  0.29097411522E+01  0.22274090710E+01 -0.44420663018E+02  0.44571552001E+02  0.00000000000E+00 0. -1.
<mgrwt>
<rscale>  0 0.25830238E+04</rscale>
<asrwt>0</asrwt>
<pdfrwt beam="1">  1        2 0.21974573E+00 0.25830238E+04</pdfrwt>
<pdfrwt beam="2">  1       -1 0.17965929E+00 0.25830238E+04</pdfrwt>
<totfact> 0.29440035E+00</totfact>
</mgrwt>
</event>
<event>
12    6  0.8914180E-008  0.2181742E+04  0.7818608E-02  0.8526066E-01
          2   -1    0    0  501    0  0.00000000000E+00  0.00000000000E+00  0.17794412671E+04  0.17794412671E+04  0.00000000000E+00 0. -1.
         -1   -1    0    0    0  501 -0.00000000000E+00 -0.00000000000E+00 -0.66874895262E+03  0.66874895262E+03  0.00000000000E+00 0.  1.
         24    2    1    2    0    0 -0.78413184691E+03 -0.15900164695E+03  0.92830942723E+03  0.12287694859E+04  0.89284823055E+02 0.  0.
        254    2    1    2    0    0  0.78413184691E+03  0.15900164695E+03  0.18238288720E+03  0.12194207338E+04  0.90198621466E+03 0.  0.
         23    2    4    4    0    0  0.91261619979E+00  0.35795063772E+03 -0.53235123434E+02  0.37306557586E+03  0.90633622986E+02 0.  0.
         23    2    4    4    0    0  0.78321923071E+03 -0.19894899077E+03  0.23561801063E+03  0.84635515795E+03  0.88250451345E+02 0.  0.
          2    1    3    3  502    0 -0.16893662803E+03 -0.97688221528E+01  0.23952418233E+03  0.29326924164E+03  0.00000000000E+00 0. -1.
         -1    1    3    3    0  502 -0.61519521888E+03 -0.14923282480E+03  0.68878524491E+03  0.93550024422E+03  0.00000000000E+00 0.  1.
         11    1    5    5    0    0 -0.17784095392E+02  0.78711920956E+02 -0.46470111502E+02  0.93119878718E+02  0.00000000000E+00 0.  1.
        -11    1    5    5    0    0  0.18696711591E+02  0.27923871676E+03 -0.67650119327E+01  0.27994569715E+03  0.00000000000E+00 0. -1.
          4    1    6    6  503    0  0.12439807856E+03 -0.48239074980E+02  0.97818391808E+01  0.13378181746E+03  0.00000000000E+00 0. -1.
         -4    1    6    6    0  503  0.65882115215E+03 -0.15070991579E+03  0.22583617145E+03  0.71257334049E+03  0.00000000000E+00 0.  1.
<mgrwt>
<rscale>  0 0.21817419E+04</rscale>
<asrwt>0</asrwt>
<pdfrwt beam="1">  1        2 0.27376019E+00 0.21817419E+04</pdfrwt>
<pdfrwt beam="2">  1       -1 0.10288445E+00 0.21817419E+04</pdfrwt>
<totfact> 0.82416086E+00</totfact>
</mgrwt>
</event>
<event>
12    6  0.8914180E-008  0.3161661E+04  0.7818608E-02  0.8199017E-01
         -1   -1    0    0    0  501 -0.00000000000E+00  0.00000000000E+00  0.93002671779E+03  0.93002671779E+03  0.00000000000E+00 0.  1.
          2   -1    0    0  501    0  0.00000000000E+00 -0.00000000000E+00 -0.26870458824E+04  0.26870458824E+04  0.00000000000E+00 0. -1.
         24    2    1    2    0    0  0.37332743895E+03  0.75644147190E+03 -0.21565997277E+04  0.23171034271E+04  0.80429031081E+02 0.  0.
        254    2    1    2    0    0 -0.37332743895E+03 -0.75644147190E+03  0.39958056311E+03  0.12999691731E+04  0.90480834854E+03 0.  0.
         23    2    4    4    0    0 -0.53730477633E+03 -0.66616642202E+03  0.56801702735E+03  0.10312770004E+04  0.91732129874E+02 0.  0.
         23    2    4    4    0    0  0.16397733738E+03 -0.90275049873E+02 -0.16843646424E+03  0.26869217275E+03  0.93736275826E+02 0.  0.
          2    1    3    3  502    0  0.27256371634E+03  0.50238410989E+03 -0.13733717161E+04  0.14875586187E+04  0.00000000000E+00 0. -1.
         -1    1    3    3    0  502  0.10076372261E+03  0.25405736201E+03 -0.78322801163E+03  0.82954480843E+03  0.00000000000E+00 0.  1.
         11    1    5    5    0    0 -0.32752154278E+03 -0.33564060160E+03  0.29583263951E+03  0.55447445841E+03  0.00000000000E+00 0.  1.
        -11    1    5    5    0    0 -0.20978323354E+03 -0.33052582042E+03  0.27218438784E+03  0.47680254196E+03  0.00000000000E+00 0. -1.
          4    1    6    6  503    0  0.93467514161E+02 -0.17057210004E+02 -0.12773842868E+03  0.15919871475E+03  0.00000000000E+00 0. -1.
         -4    1    6    6    0  503  0.70509823219E+02 -0.73217839869E+02 -0.40698035560E+02  0.10949345800E+03  0.00000000000E+00 0.  1.
<mgrwt>
<rscale>  0 0.31616606E+04</rscale>
<asrwt>0</asrwt>
<pdfrwt beam="1">  1        2 0.41339167E+00 0.31616606E+04</pdfrwt>
<pdfrwt beam="2">  1       -1 0.14308103E+00 0.31616606E+04</pdfrwt>
<totfact> 0.10265558E+00</totfact>
</mgrwt>
</event>
<event>
12    6  0.8914180E-008  0.3130608E+04  0.7818608E-02  0.8207388E-01
          2   -1    0    0  501    0  0.00000000000E+00  0.00000000000E+00  0.16375646992E+04  0.16375646992E+04  0.00000000000E+00 0. -1.
         -1   -1    0    0    0  501 -0.00000000000E+00 -0.00000000000E+00 -0.14962317156E+04  0.14962317156E+04  0.00000000000E+00 0.  1.
         24    2    1    2    0    0 -0.10934734077E+04  0.65178736388E+03  0.72243857936E+03  0.14659869398E+04  0.81788419796E+02 0.  0.
        254    2    1    2    0    0  0.10934734077E+04 -0.65178736388E+03 -0.58110559575E+03  0.16678094751E+04  0.90741053043E+03 0.  0.
         23    2    4    4    0    0  0.84964180612E+03 -0.42579818174E+01 -0.21724860736E+03  0.88093024034E+03  0.83257443029E+02 0.  0.
         23    2    4    4    0    0  0.24383160156E+03 -0.64752938206E+03 -0.36385698839E+03  0.78687923474E+03  0.89659754184E+02 0.  0.
          4    1    3    3  502    0 -0.92619970512E+03  0.51811306182E+03  0.61138689249E+03  0.12247779272E+04  0.00000000000E+00 0. -1.
         -3    1    3    3    0  502 -0.16727370256E+03  0.13367430206E+03  0.11105168687E+03  0.24120901259E+03  0.00000000000E+00 0.  1.
         11    1    5    5    0    0  0.23178530164E+03 -0.19104599264E+02 -0.93305016311E+02  0.25058978000E+03  0.00000000000E+00 0.  1.
        -11    1    5    5    0    0  0.61785650448E+03  0.14846617447E+02 -0.12394359105E+03  0.63034046034E+03  0.00000000000E+00 0. -1.
          1    1    6    6  503    0  0.19916862758E+03 -0.57776277285E+03 -0.29239002457E+03  0.67747316580E+03  0.00000000000E+00 0. -1.
         -1    1    6    6    0  503  0.44662973980E+02 -0.69766609209E+02 -0.71466963816E+02  0.10940606895E+03  0.00000000000E+00 0.  1.
<mgrwt>
<rscale>  0 0.31306078E+04</rscale>
<asrwt>0</asrwt>
<pdfrwt beam="1">  1        2 0.25193303E+00 0.31306078E+04</pdfrwt>
<pdfrwt beam="2">  1       -1 0.23018949E+00 0.31306078E+04</pdfrwt>
<totfact> 0.96406146E-01</totfact>
</mgrwt>
</event>
<event>
12    6  0.8914180E-008  0.1428688E+04  0.7818608E-02  0.8933310E-01
         -1   -1    0    0    0  501 -0.00000000000E+00  0.00000000000E+00  0.39291378073E+03  0.39291378073E+03  0.00000000000E+00 0.  1.
          2   -1    0    0  501    0  0.00000000000E+00 -0.00000000000E+00 -0.12987262754E+04  0.12987262754E+04  0.00000000000E+00 0. -1.
         24    2    1    2    0    0 -0.28103833145E+03 -0.27538248159E+03 -0.47417686955E+03  0.62116776954E+03  0.78661549620E+02 0.  0.
        254    2    1    2    0    0  0.28103833145E+03  0.27538248159E+03 -0.43163562509E+03  0.10704722866E+04  0.89709729044E+03 0.  0.
         23    2    4    4    0    0  0.14084579818E+03 -0.13175515250E+03 -0.57016090298E+03  0.60882968716E+03  0.91614265311E+02 0.  0.
         23    2    4    4    0    0  0.14019253328E+03  0.40713763409E+03  0.13852527789E+03  0.46164259939E+03  0.92247696326E+02 0.  0.
          2    1    3    3  502    0 -0.22696920301E+03 -0.21027723137E+03 -0.41609882386E+03  0.51852653198E+03  0.00000000000E+00 0. -1.
         -1    1    3    3    0  502 -0.54069128448E+02 -0.65105250225E+02 -0.58078045683E+02  0.10264123756E+03  0.00000000000E+00 0.  1.
         11    1    5    5    0    0  0.76038468517E+02 -0.93569460907E+02 -0.45927753951E+03  0.47483992145E+03  0.00000000000E+00 0. -1.
        -11    1    5    5    0    0  0.64807329659E+02 -0.38185691592E+02 -0.11088336347E+03  0.13398976571E+03  0.00000000000E+00 0.  1.
          2    1    6    6  503    0  0.13359411313E+03  0.25725288040E+03  0.10129758240E+03  0.30706291169E+03  0.00000000000E+00 0. -1.
         -2    1    6    6    0  503  0.65984201504E+01  0.14988475370E+03  0.37227695491E+02  0.15457968770E+03  0.00000000000E+00 0.  1.
<mgrwt>
<rscale>  0 0.14286881E+04</rscale>
<asrwt>0</asrwt>
<pdfrwt beam="1">  1        2 0.19980404E+00 0.14286881E+04</pdfrwt>
<pdfrwt beam="2">  1       -1 0.60448274E-01 0.14286881E+04</pdfrwt>
<totfact> 0.50882478E+01</totfact>
</mgrwt>
</event>
<event>
12    6  0.8914180E-008  0.1496540E+04  0.7818608E-02  0.8886757E-01
         -1   -1    0    0    0  501 -0.00000000000E+00  0.00000000000E+00  0.59102996295E+03  0.59102996295E+03  0.00000000000E+00 0.  1.
          2   -1    0    0  501    0  0.00000000000E+00 -0.00000000000E+00 -0.94734234002E+03  0.94734234002E+03  0.00000000000E+00 0. -1.
         24    2    1    2    0    0 -0.40607401135E+03  0.24144598128E+03  0.24206341915E+01  0.47959931685E+03  0.82567431126E+02 0.  0.
        254    2    1    2    0    0  0.40607401135E+03 -0.24144598128E+03 -0.35873301126E+03  0.10587729861E+04  0.87699406964E+03 0.  0.
         23    2    4    4    0    0 -0.22017125668E+03  0.70012071279E+02 -0.23932259786E+03  0.34352433742E+03  0.85770578617E+02 0.  0.
         23    2    4    4    0    0  0.62624526803E+03 -0.31145805256E+03 -0.11941041340E+03  0.71524864870E+03  0.90180532226E+02 0.  0.
          4    1    3    3  502    0 -0.20980443817E+03  0.14164580299E+03  0.39832231113E+02  0.25625776557E+03  0.00000000000E+00 0. -1.
         -3    1    3    3    0  502 -0.19626957318E+03  0.99800178296E+02 -0.37411596922E+02  0.22334155128E+03  0.00000000000E+00 0.  1.
         11    1    5    5    0    0 -0.77154710447E+02  0.11041761713E+02 -0.30619994815E+02  0.83739798951E+02  0.00000000000E+00 0. -1.
        -11    1    5    5    0    0 -0.14301654624E+03  0.58970309566E+02 -0.20870260305E+03  0.25978453847E+03  0.00000000000E+00 0.  1.
          2    1    6    6  503    0  0.12485237384E+03 -0.31613907250E+02 -0.15052829215E+00  0.12879276782E+03  0.00000000000E+00 0. -1.
         -2    1    6    6    0  503  0.50139289420E+03 -0.27984414531E+03 -0.11925988511E+03  0.58645588088E+03  0.00000000000E+00 0.  1.
<mgrwt>
<rscale>  0 0.14965396E+04</rscale>
<asrwt>0</asrwt>
<pdfrwt beam="1">  1        2 0.14574497E+00 0.14965396E+04</pdfrwt>
<pdfrwt beam="2">  1       -1 0.90927688E-01 0.14965396E+04</pdfrwt>
<totfact> 0.35508940E+01</totfact>
</mgrwt>
</event>
<event>
12    6  0.8914180E-008  0.1439126E+04  0.7818608E-02  0.8925974E-01
          2   -1    0    0  501    0  0.00000000000E+00  0.00000000000E+00  0.11013561536E+04  0.11013561536E+04  0.00000000000E+00 0. -1.
         -1   -1    0    0    0  501 -0.00000000000E+00 -0.00000000000E+00 -0.47012148809E+03  0.47012148809E+03  0.00000000000E+00 0.  1.
         24    2    1    2    0    0  0.23711733565E+03 -0.24190767312E+03  0.48569969569E+03  0.59778027471E+03  0.81811425018E+02 0.  0.
        254    2    1    2    0    0 -0.23711733565E+03  0.24190767312E+03  0.14553496978E+03  0.97369736694E+03  0.90120041155E+03 0.  0.
         23    2    4    4    0    0 -0.11112564581E+03  0.47467337817E+03  0.36744904755E+03  0.61618823881E+03  0.83698375103E+02 0.  0.
         23    2    4    4    0    0 -0.12599168983E+03 -0.23276570505E+03 -0.22191407778E+03  0.35750912813E+03  0.92266675589E+02 0.  0.
          2    1    3    3  502    0  0.22475332804E+03 -0.18839217874E+03  0.41763997854E+03  0.51032227381E+03  0.00000000000E+00 0. -1.
         -1    1    3    3    0  502  0.12364007611E+02 -0.53515494381E+02  0.68059717149E+02  0.87458000901E+02  0.00000000000E+00 0.  1.
         11    1    5    5    0    0 -0.10397989850E+03  0.47470680916E+03  0.36710222160E+03  0.60903400156E+03  0.00000000000E+00 0. -1.
        -11    1    5    5    0    0 -0.71457473139E+01 -0.33430986447E-01  0.34682594768E+00  0.71542372440E+01  0.00000000000E+00 0.  1.
          1    1    6    6  503    0 -0.79585313366E+02 -0.20042413809E+03 -0.20721044575E+03  0.29906491948E+03  0.00000000000E+00 0. -1.
         -1    1    6    6    0  503 -0.46406376466E+02 -0.32341566963E+02 -0.14703632025E+02  0.58444208653E+02  0.00000000000E+00 0.  1.
<mgrwt>
<rscale>  0 0.14391264E+04</rscale>
<asrwt>0</asrwt>
<pdfrwt beam="1">  1        2 0.16943941E+00 0.14391264E+04</pdfrwt>
<pdfrwt beam="2">  1       -1 0.72326383E-01 0.14391264E+04</pdfrwt>
<totfact> 0.46424228E+01</totfact>
</mgrwt>
</event>
<event>
12    6  0.8914180E-008  0.1997006E+04  0.7818608E-02  0.8608022E-01
          2   -1    0    0  501    0  0.00000000000E+00  0.00000000000E+00  0.23543143795E+04  0.23543143795E+04  0.00000000000E+00 0. -1.
         -1   -1    0    0    0  501 -0.00000000000E+00 -0.00000000000E+00 -0.42348148734E+03  0.42348148734E+03  0.00000000000E+00 0.  1.
         24    2    1    2    0    0 -0.41162287225E+03 -0.67461563179E+03  0.67030409662E+03  0.10393061324E+04  0.79435604647E+02 0.  0.
        254    2    1    2    0    0  0.41162287225E+03  0.67461563179E+03  0.12605287955E+04  0.17384897344E+04  0.89937426732E+03 0.  0.
         23    2    4    4    0    0 -0.24802757037E+03  0.20761589477E+03  0.61438032741E+03  0.69988349351E+03  0.88043638899E+02 0.  0.
         23    2    4    4    0    0  0.65965044263E+03  0.46699973702E+03  0.64614846811E+03  0.10386062409E+04  0.89261525732E+02 0.  0.
          2    1    3    3  502    0 -0.17993930571E+03 -0.30187226604E+03  0.24699908924E+03  0.42955042641E+03  0.00000000000E+00 0. -1.
         -1    1    3    3    0  502 -0.23168356655E+03 -0.37274336575E+03  0.42330500738E+03  0.60975570599E+03  0.00000000000E+00 0.  1.
         11    1    5    5    0    0 -0.25235871371E+03  0.21160324404E+03  0.60379688125E+03  0.68777287463E+03  0.00000000000E+00 0.  1.
        -11    1    5    5    0    0  0.43311433398E+01 -0.39873492744E+01  0.10583446163E+02  0.12110618875E+02  0.00000000000E+00 0. -1.
          4    1    6    6  503    0  0.17421341539E+03  0.77406697517E+02  0.14605862717E+03  0.24015668530E+03  0.00000000000E+00 0. -1.
         -4    1    6    6    0  503  0.48543702724E+03  0.38959303950E+03  0.50008984094E+03  0.79844955561E+03  0.00000000000E+00 0.  1.
<mgrwt>
<rscale>  0 0.19970063E+04</rscale>
<asrwt>0</asrwt>
<pdfrwt beam="1">  1        2 0.36220220E+00 0.19970063E+04</pdfrwt>
<pdfrwt beam="2">  1       -1 0.65151000E-01 0.19970063E+04</pdfrwt>
<totfact> 0.10670692E+01</totfact>
</mgrwt>
</event>
<event>
12    6  0.8914180E-008  0.1664769E+04  0.7818608E-02  0.8781717E-01
         -1   -1    0    0    0  501 -0.00000000000E+00  0.00000000000E+00  0.38598460860E+03  0.38598460860E+03  0.00000000000E+00 0.  1.
          2   -1    0    0  501    0  0.00000000000E+00 -0.00000000000E+00 -0.17950550707E+04  0.17950550707E+04  0.00000000000E+00 0. -1.
         24    2    1    2    0    0  0.29710449951E+03  0.31245630923E+03 -0.29285650146E+01  0.43932096590E+03  0.84227701946E+02 0.  0.
        254    2    1    2    0    0 -0.29710449951E+03 -0.31245630923E+03 -0.14061418971E+04  0.17417187134E+04  0.93297857052E+03 0.  0.
         23    2    4    4    0    0  0.37064592569E+02 -0.55942793910E+03 -0.10176568713E+04  0.11655246140E+04  0.92134223138E+02 0.  0.
         23    2    4    4    0    0 -0.33416909208E+03  0.24697162987E+03 -0.38848502575E+03  0.57619409937E+03  0.91733618953E+02 0.  0.
          2    1    3    3  502    0  0.88720551512E+02  0.81092960141E+02 -0.37802070904E+02  0.12600159130E+03  0.00000000000E+00 0. -1.
         -1    1    3    3    0  502  0.20838394800E+03  0.23136334909E+03  0.34873505889E+02  0.31331937460E+03  0.00000000000E+00 0.  1.
         11    1    5    5    0    0 -0.17269598127E+00 -0.91912458737E+02 -0.24493999417E+03  0.26161714515E+03  0.00000000000E+00 0. -1.
        -11    1    5    5    0    0  0.37237288551E+02 -0.46751548036E+03 -0.77271687715E+03  0.90390746887E+03  0.00000000000E+00 0.  1.
          1    1    6    6  503    0 -0.18107417255E+02 -0.75279454395E+01 -0.14977271521E+02  0.24675234232E+02  0.00000000000E+00 0. -1.
         -1    1    6    6    0  503 -0.31606167483E+03  0.25449957531E+03 -0.37350775423E+03  0.55151886513E+03  0.00000000000E+00 0.  1.
<mgrwt>
<rscale>  0 0.16647686E+04</rscale>
<asrwt>0</asrwt>
<pdfrwt beam="1">  1        2 0.27616232E+00 0.16647686E+04</pdfrwt>
<pdfrwt beam="2">  1       -1 0.59382248E-01 0.16647686E+04</pdfrwt>
<totfact> 0.27132230E+01</totfact>
</mgrwt>
</event>
<event>
12    6  0.8914180E-008  0.2050722E+04  0.7818608E-02  0.8583267E-01
         -1   -1    0    0    0  501 -0.00000000000E+00  0.00000000000E+00  0.55105458983E+03  0.55105458983E+03  0.00000000000E+00 0.  1.
          2   -1    0    0  501    0  0.00000000000E+00 -0.00000000000E+00 -0.19079155863E+04  0.19079155863E+04  0.00000000000E+00 0. -1.
         24    2    1    2    0    0  0.11329287680E+03  0.51638378836E+03 -0.13086198706E+04  0.14137058180E+04  0.81183010840E+02 0.  0.
        254    2    1    2    0    0 -0.11329287680E+03 -0.51638378836E+03 -0.48241125851E+02  0.10452643581E+04  0.90042372212E+03 0.  0.
         23    2    4    4    0    0  0.18024324463E+03 -0.48245429703E+03  0.28183366736E+03  0.59400515058E+03  0.90344490120E+02 0.  0.
         23    2    4    4    0    0 -0.29353612142E+03 -0.33929491327E+02 -0.33007479321E+03  0.45125920756E+03  0.85853586608E+02 0.  0.
          4    1    3    3  502    0  0.80967408188E+02  0.18804519951E+03 -0.48237924871E+03  0.52402906202E+03  0.00000000000E+00 0. -1.
         -3    1    3    3    0  502  0.32325468607E+02  0.32833858885E+03 -0.82624062193E+03  0.88967675600E+03  0.00000000000E+00 0.  1.
         11    1    5    5    0    0  0.16256946473E+03 -0.47408419913E+03  0.28065426927E+03  0.57441402976E+03  0.00000000000E+00 0. -1.
        -11    1    5    5    0    0  0.17673779902E+02 -0.83700979003E+01  0.11793980883E+01  0.19591120814E+02  0.00000000000E+00 0.  1.
          4    1    6    6  503    0 -0.13911196451E+03 -0.53845337981E+02 -0.19213040753E+03  0.24323970192E+03  0.00000000000E+00 0. -1.
         -4    1    6    6    0  503 -0.15442415692E+03  0.19915846654E+02 -0.13794438568E+03  0.20801950564E+03  0.00000000000E+00 0.  1.
<mgrwt>
<rscale>  0 0.20507224E+04</rscale>
<asrwt>0</asrwt>
<pdfrwt beam="1">  1        2 0.29352547E+00 0.20507224E+04</pdfrwt>
<pdfrwt beam="2">  1       -1 0.84777629E-01 0.20507224E+04</pdfrwt>
<totfact> 0.10902947E+01</totfact>
</mgrwt>
</event>
<event>
12    6  0.8914180E-008  0.1852594E+04  0.7818608E-02  0.8678820E-01
          2   -1    0    0  501    0  0.00000000000E+00  0.00000000000E+00  0.14583780170E+04  0.14583780170E+04  0.00000000000E+00 0. -1.
         -1   -1    0    0    0  501 -0.00000000000E+00 -0.00000000000E+00 -0.58834276898E+03  0.58834276898E+03  0.00000000000E+00 0.  1.
         24    2    1    2    0    0 -0.48903031201E+03 -0.29020006247E+03  0.79475832801E+03  0.98028038415E+03  0.77085078196E+02 0.  0.
        254    2    1    2    0    0  0.48903031201E+03  0.29020006247E+03  0.75276920010E+02  0.10664404018E+04  0.89903381118E+03 0.  0.
         23    2    4    4    0    0 -0.24619806719E+03 -0.45813918132E+01  0.60773945359E+02  0.26900895819E+03  0.89654167301E+02 0.  0.
         23    2    4    4    0    0  0.73522837920E+03  0.29478145428E+03  0.14502974652E+02  0.79743144364E+03  0.90717670077E+02 0.  0.
          2    1    3    3  502    0 -0.36162497069E+03 -0.18967883315E+03  0.61364154285E+03  0.73709336062E+03  0.00000000000E+00 0. -1.
         -1    1    3    3    0  502 -0.12740534132E+03 -0.10052122932E+03  0.18111678516E+03  0.24318702352E+03  0.00000000000E+00 0.  1.
         11    1    5    5    0    0  0.58468689122E+01  0.42013136518E+01 -0.45133778056E+01  0.84974991435E+01  0.00000000000E+00 0.  1.
        -11    1    5    5    0    0 -0.25204493610E+03 -0.87827054650E+01  0.65287323164E+02  0.26051145905E+03  0.00000000000E+00 0. -1.
          3    1    6    6  503    0  0.69078098675E+03  0.29800775661E+03  0.77688310790E+01  0.75236118281E+03  0.00000000000E+00 0. -1.
         -3    1    6    6    0  503  0.44447392445E+02 -0.32263023260E+01  0.67341435728E+01  0.45070260833E+02  0.00000000000E+00 0.  1.
<mgrwt>
<rscale>  0 0.18525940E+04</rscale>
<asrwt>0</asrwt>
<pdfrwt beam="1">  1        2 0.22436585E+00 0.18525940E+04</pdfrwt>
<pdfrwt beam="2">  1       -1 0.90514273E-01 0.18525940E+04</pdfrwt>
<totfact> 0.17126491E+01</totfact>
</mgrwt>
</event>
<event>
12    6  0.8914180E-008  0.2456747E+04  0.7818608E-02  0.8418559E-01
          2   -1    0    0  501    0  0.00000000000E+00  0.00000000000E+00  0.13358911867E+04  0.13358911867E+04  0.00000000000E+00 0. -1.
         -1   -1    0    0    0  501 -0.00000000000E+00 -0.00000000000E+00 -0.11295093218E+04  0.11295093218E+04  0.00000000000E+00 0.  1.
         24    2    1    2    0    0 -0.75660689377E+02  0.38599007669E+03  0.10872632077E+04  0.11591407790E+04  0.82177756344E+02 0.  0.
        254    2    1    2    0    0  0.75660689377E+02 -0.38599007669E+03 -0.88088134274E+03  0.13062597295E+04  0.88070974881E+03 0.  0.
         23    2    4    4    0    0  0.49447483267E+02  0.26631076841E+03 -0.39483336733E+03  0.48724342911E+03  0.90256812925E+02 0.  0.
         23    2    4    4    0    0  0.26213206110E+02 -0.65230084510E+03 -0.48604797541E+03  0.81901630037E+03  0.91441463100E+02 0.  0.
          2    1    3    3  502    0 -0.81477003782E+02  0.38423944297E+03  0.10820561868E+04  0.11511403229E+04  0.00000000000E+00 0. -1.
         -1    1    3    3    0  502  0.58163144048E+01  0.17506337157E+01  0.52070209104E+01  0.80004561385E+01  0.00000000000E+00 0.  1.
         11    1    5    5    0    0 -0.13579898580E+00  0.18279986398E+03 -0.20976844760E+03  0.27824199956E+03  0.00000000000E+00 0.  1.
        -11    1    5    5    0    0  0.49583282253E+02  0.83510904437E+02 -0.18506491973E+03  0.20900142955E+03  0.00000000000E+00 0. -1.
          3    1    6    6  503    0  0.31486766921E+02 -0.13215591348E+03 -0.13463030730E+03  0.19126401022E+03  0.00000000000E+00 0.  1.
         -3    1    6    6    0  503 -0.52735608106E+01 -0.52014493162E+03 -0.35141766810E+03  0.62775229015E+03  0.00000000000E+00 0. -1.
<mgrwt>
<rscale>  0 0.24567471E+04</rscale>
<asrwt>0</asrwt>
<pdfrwt beam="1">  1        2 0.20552172E+00 0.24567471E+04</pdfrwt>
<pdfrwt beam="2">  1       -1 0.17377067E+00 0.24567471E+04</pdfrwt>
<totfact> 0.37103732E+00</totfact>
</mgrwt>
</event>
<event>
12    6  0.8914180E-008  0.1510792E+04  0.7818608E-02  0.8877308E-01
          4   -1    0    0  501    0  0.00000000000E+00  0.00000000000E+00  0.35995686329E+03  0.35995686329E+03  0.00000000000E+00 0. -1.
         -3   -1    0    0    0  501 -0.00000000000E+00 -0.00000000000E+00 -0.15852549270E+04  0.15852549270E+04  0.00000000000E+00 0.  1.
         24    2    1    2    0    0 -0.13694803174E+03  0.70015263836E+02 -0.98778833095E+03  0.10029598275E+04  0.80905674475E+02 0.  0.
        254    2    1    2    0    0  0.13694803174E+03 -0.70015263836E+02 -0.23750973273E+03  0.94225196282E+03  0.89876080673E+03 0.  0.
         23    2    4    4    0    0 -0.37207770735E+03 -0.87812561480E+02 -0.85782473695E+02  0.40310650641E+03  0.94780570051E+02 0.  0.
         23    2    4    4    0    0  0.50902573909E+03  0.17797297644E+02 -0.15172725904E+03  0.53914545640E+03  0.90734310815E+02 0.  0.
          2    1    3    3  502    0 -0.80112243753E+02  0.23088502402E+02 -0.73296102548E+03  0.73768754592E+03  0.00000000000E+00 0. -1.
         -1    1    3    3    0  502 -0.56835787991E+02  0.46926761434E+02 -0.25482730548E+03  0.26527228154E+03  0.00000000000E+00 0.  1.
         11    1    5    5    0    0 -0.33899611590E+03 -0.99614233476E+02 -0.57426618830E+02  0.35796533164E+03  0.00000000000E+00 0. -1.
        -11    1    5    5    0    0 -0.33081591450E+02  0.11801671996E+02 -0.28355854865E+02  0.45141174773E+02  0.00000000000E+00 0.  1.
          3    1    6    6  503    0  0.32154539535E+03 -0.29278359151E+02 -0.11243420495E+03  0.34189196251E+03  0.00000000000E+00 0. -1.
         -3    1    6    6    0  503  0.18748034375E+03  0.47075656796E+02 -0.39293054089E+02  0.19725349389E+03  0.00000000000E+00 0.  1.
<mgrwt>
<rscale>  0 0.15107924E+04</rscale>
<asrwt>0</asrwt>
<pdfrwt beam="1">  1        4 0.55377978E-01 0.15107924E+04</pdfrwt>
<pdfrwt beam="2">  1       -3 0.24388538E+00 0.15107924E+04</pdfrwt>
<totfact> 0.54723505E-01</totfact>
</mgrwt>
</event>
<event>
12    6  0.8914180E-008  0.1965010E+04  0.7818608E-02  0.8623156E-01
          2   -1    0    0  501    0  0.00000000000E+00  0.00000000000E+00  0.49945268892E+03  0.49945268892E+03  0.00000000000E+00 0. -1.
         -1   -1    0    0    0  501 -0.00000000000E+00 -0.00000000000E+00 -0.19327484787E+04  0.19327484787E+04  0.00000000000E+00 0.  1.
         24    2    1    2    0    0  0.56702839678E+03 -0.20809881850E+02  0.46262431948E+02  0.57497565917E+03  0.80638341317E+02 0.  0.
        254    2    1    2    0    0 -0.56702839678E+03  0.20809881850E+02 -0.14795582217E+04  0.18572255085E+04  0.96862779427E+03 0.  0.
         23    2    4    4    0    0  0.25034013909E+03 -0.41707789741E+02 -0.56042584501E+03  0.62224829436E+03  0.93306415178E+02 0.  0.
         23    2    4    4    0    0 -0.81736853587E+03  0.62517671590E+02 -0.91913237672E+03  0.12349772141E+04  0.91458245720E+02 0.  0.
          4    1    3    3  502    0  0.44399133613E+03 -0.30213119890E+02  0.56021839019E+01  0.44505339414E+03  0.00000000000E+00 0. -1.
         -1    1    3    3    0  502  0.12303706065E+03  0.94032380408E+01  0.40660248046E+02  0.12992226503E+03  0.00000000000E+00 0.  1.
         11    1    5    5    0    0  0.22079110088E+02 -0.24172498354E+02 -0.13741486952E+03  0.14126090452E+03  0.00000000000E+00 0.  1.
        -11    1    5    5    0    0  0.22826102900E+03 -0.17535291386E+02 -0.42301097548E+03  0.48098738984E+03  0.00000000000E+00 0. -1.
          1    1    6    6  503    0 -0.77437308498E+03  0.66336840744E+02 -0.89560386287E+03  0.11858163983E+04  0.00000000000E+00 0. -1.
         -1    1    6    6    0  503 -0.42995450892E+02 -0.38191691533E+01 -0.23528513852E+02  0.49160815845E+02  0.00000000000E+00 0.  1.
<mgrwt>
<rscale>  0 0.19650104E+04</rscale>
<asrwt>0</asrwt>
<pdfrwt beam="1">  1        2 0.76838876E-01 0.19650104E+04</pdfrwt>
<pdfrwt beam="2">  1       -1 0.29734592E+00 0.19650104E+04</pdfrwt>
<totfact> 0.22566210E+00</totfact>
</mgrwt>
</event>
<event>
12    6  0.8914180E-008  0.1482889E+04  0.7818608E-02  0.8895912E-01
         -1   -1    0    0    0  501 -0.00000000000E+00  0.00000000000E+00  0.49812662520E+03  0.49812662520E+03  0.00000000000E+00 0.  1.
          2   -1    0    0  501    0  0.00000000000E+00 -0.00000000000E+00 -0.11036143713E+04  0.11036143713E+04  0.00000000000E+00 0. -1.
         24    2    1    2    0    0 -0.34523896695E+03  0.33728418828E+03 -0.34671013785E+03  0.60006248422E+03  0.83165481519E+02 0.  0.
        254    2    1    2    0    0  0.34523896695E+03 -0.33728418828E+03 -0.25877760825E+03  0.10016785123E+04  0.83871534114E+03 0.  0.
         23    2    4    4    0    0 -0.18613246340E+03 -0.32441510295E+03 -0.25520701503E+03  0.46208126934E+03  0.92184738426E+02 0.  0.
         23    2    4    4    0    0  0.53137143035E+03 -0.12869085332E+02 -0.35705932192E+01  0.53959724295E+03  0.92904386899E+02 0.  0.
          2    1    3    3  502    0 -0.33247127983E+03  0.29465424179E+03 -0.30342414075E+03  0.53798186150E+03  0.00000000000E+00 0. -1.
         -1    1    3    3    0  502 -0.12767687123E+02  0.42629946487E+02 -0.43285997103E+02  0.62080622719E+02  0.00000000000E+00 0.  1.
         11    1    5    5    0    0 -0.50359888833E+02 -0.31495323604E+02 -0.20152167991E+02  0.62723071408E+02  0.00000000000E+00 0. -1.
        -11    1    5    5    0    0 -0.13577257457E+03 -0.29291977934E+03 -0.23505484704E+03  0.39935819793E+03  0.00000000000E+00 0.  1.
          1    1    6    6  503    0  0.27675072321E+02  0.17514248220E+02  0.11633762554E+02  0.34756336830E+02  0.00000000000E+00 0. -1.
         -1    1    6    6    0  503  0.50369635803E+03 -0.30383333551E+02 -0.15204355773E+02  0.50484090612E+03  0.00000000000E+00 0.  1.
<mgrwt>
<rscale>  0 0.14828887E+04</rscale>
<asrwt>0</asrwt>
<pdfrwt beam="1">  1        2 0.16978683E+00 0.14828887E+04</pdfrwt>
<pdfrwt beam="2">  1       -1 0.76634865E-01 0.14828887E+04</pdfrwt>
<totfact> 0.40871046E+01</totfact>
</mgrwt>
</event>
<event>
12    6  0.8914180E-008  0.1891623E+04  0.7818608E-02  0.8659038E-01
         -1   -1    0    0    0  501 -0.00000000000E+00  0.00000000000E+00  0.50353181974E+03  0.50353181974E+03  0.00000000000E+00 0.  1.
          2   -1    0    0  501    0  0.00000000000E+00 -0.00000000000E+00 -0.17765689783E+04  0.17765689783E+04  0.00000000000E+00 0. -1.
         24    2    1    2    0    0  0.15452293696E+03 -0.59102533251E+03 -0.99043709028E+03  0.11664500747E+04  0.80323503928E+02 0.  0.
        254    2    1    2    0    0 -0.15452293696E+03  0.59102533251E+03 -0.28260006827E+03  0.11136507233E+04  0.88722424068E+03 0.  0.
         23    2    4    4    0    0 -0.75204067471E+02 -0.83098628081E+02 -0.39374763962E+03  0.41979193212E+03  0.92881800209E+02 0.  0.
         23    2    4    4    0    0 -0.79318869494E+02  0.67412396059E+03  0.11114757135E+03  0.69385879121E+03  0.91387319784E+02 0.  0.
          4    1    3    3  502    0  0.61063828810E+02 -0.31124796278E+03 -0.44669995793E+03  0.54785485115E+03  0.00000000000E+00 0. -1.
         -3    1    3    3    0  502  0.93459108155E+02 -0.27977736973E+03 -0.54373713235E+03  0.61859522356E+03  0.00000000000E+00 0.  1.
         11    1    5    5    0    0 -0.41942781256E+02 -0.99857798536E+02 -0.29111397357E+03  0.31060927616E+03  0.00000000000E+00 0.  1.
        -11    1    5    5    0    0 -0.33261286215E+02  0.16759170455E+02 -0.10263366605E+03  0.10918265596E+03  0.00000000000E+00 0. -1.
          4    1    6    6  503    0 -0.75938447907E+02  0.41424241623E+03  0.10428375991E+03  0.43386464462E+03  0.00000000000E+00 0.  1.
         -4    1    6    6    0  503 -0.33804215872E+01  0.25988154436E+03  0.68638114420E+01  0.25999414658E+03  0.00000000000E+00 0. -1.
<mgrwt>
<rscale>  0 0.18916226E+04</rscale>
<asrwt>0</asrwt>
<pdfrwt beam="1">  1        2 0.27331831E+00 0.18916226E+04</pdfrwt>
<pdfrwt beam="2">  1       -1 0.77466433E-01 0.18916226E+04</pdfrwt>
<totfact> 0.15850172E+01</totfact>
</mgrwt>
</event>
<event>
12    6  0.8914180E-008  0.3161898E+04  0.7818608E-02  0.8198953E-01
         -1   -1    0    0    0  501 -0.00000000000E+00  0.00000000000E+00  0.92333155131E+03  0.92333155131E+03  0.00000000000E+00 0.  1.
          2   -1    0    0  501    0  0.00000000000E+00 -0.00000000000E+00 -0.27069371297E+04  0.27069371297E+04  0.00000000000E+00 0. -1.
         24    2    1    2    0    0 -0.53863288684E+03  0.12026116637E+04 -0.11789671863E+03  0.13253648850E+04  0.79323652701E+02 0.  0.
        254    2    1    2    0    0  0.53863288684E+03 -0.12026116637E+04 -0.16657088598E+04  0.23049037960E+04  0.89531854827E+03 0.  0.
         23    2    4    4    0    0 -0.22183531638E+03 -0.50268351419E+03 -0.60207790917E+03  0.81892262188E+03  0.78960932688E+02 0.  0.
         23    2    4    4    0    0  0.76046820322E+03 -0.69992814946E+03 -0.10636309506E+04  0.14859811741E+04  0.92832904640E+02 0.  0.
          4    1    3    3  502    0 -0.81719841922E+02  0.12759689423E+03 -0.25224976039E+02  0.15360794054E+03  0.00000000000E+00 0. -1.
         -3    1    3    3    0  502 -0.45691304492E+03  0.10750147694E+04 -0.92671742593E+02  0.11717569445E+04  0.00000000000E+00 0.  1.
         11    1    5    5    0    0 -0.96868142401E+02 -0.14830264847E+03 -0.15977304489E+03  0.23854672169E+03  0.00000000000E+00 0. -1.
        -11    1    5    5    0    0 -0.12496717397E+03 -0.35438086572E+03 -0.44230486428E+03  0.58037590019E+03  0.00000000000E+00 0.  1.
          2    1    6    6  503    0  0.34494344109E+03 -0.32593796800E+03 -0.55434210261E+03  0.72973742076E+03  0.00000000000E+00 0. -1.
         -2    1    6    6    0  503  0.41552476213E+03 -0.37399018147E+03 -0.50928884800E+03  0.75624375334E+03  0.00000000000E+00 0.  1.
<mgrwt>
<rscale>  0 0.31618985E+04</rscale>
<asrwt>0</asrwt>
<pdfrwt beam="1">  1        2 0.41645186E+00 0.31618985E+04</pdfrwt>
<pdfrwt beam="2">  1       -1 0.14205101E+00 0.31618985E+04</pdfrwt>
<totfact> 0.10180930E+00</totfact>
</mgrwt>
</event>
<event>
12    6  0.8914180E-008  0.1650811E+04  0.7818608E-02  0.8789927E-01
          2   -1    0    0  501    0  0.00000000000E+00  0.00000000000E+00  0.13304582297E+04  0.13304582297E+04  0.00000000000E+00 0. -1.
         -1   -1    0    0    0  501 -0.00000000000E+00 -0.00000000000E+00 -0.51207511243E+03  0.51207511243E+03  0.00000000000E+00 0.  1.
         24    2    1    2    0    0  0.32016813533E+03 -0.41445218179E+03  0.37851364063E+02  0.53119329122E+03  0.80345136798E+02 0.  0.
        254    2    1    2    0    0 -0.32016813533E+03  0.41445218179E+03  0.78053175323E+03  0.13113400509E+04  0.91438759044E+03 0.  0.
         23    2    4    4    0    0  0.26419193559E+03 -0.18093804153E+02  0.39410904057E+03  0.48298392376E+03  0.88469035076E+02 0.  0.
         23    2    4    4    0    0 -0.58436007092E+03  0.43254598594E+03  0.38642271266E+03  0.82835612719E+03  0.90987021935E+02 0.  0.
          2    1    3    3  502    0  0.14468512753E+03 -0.23330129332E+03 -0.89872550466E+01  0.27467080359E+03  0.00000000000E+00 0. -1.
         -1    1    3    3    0  502  0.17548300779E+03 -0.18115088847E+03  0.46838619110E+02  0.25652248763E+03  0.00000000000E+00 0.  1.
         11    1    5    5    0    0  0.56038385469E+01  0.11932103876E+02  0.48745441049E+02  0.50496496240E+02  0.00000000000E+00 0.  1.
        -11    1    5    5    0    0  0.25858809704E+03 -0.30025908030E+02  0.34536359952E+03  0.43248742752E+03  0.00000000000E+00 0. -1.
          2    1    6    6  503    0 -0.51407627799E+03  0.35519195972E+03  0.30199630159E+03  0.69400109079E+03  0.00000000000E+00 0. -1.
         -2    1    6    6    0  503 -0.70283792925E+02  0.77354026224E+02  0.84426411065E+02  0.13435503640E+03  0.00000000000E+00 0.  1.
<mgrwt>
<rscale>  0 0.16508114E+04</rscale>
<asrwt>0</asrwt>
<pdfrwt beam="1">  1        2 0.20468588E+00 0.16508114E+04</pdfrwt>
<pdfrwt beam="2">  1       -1 0.78780787E-01 0.16508114E+04</pdfrwt>
<totfact> 0.27852120E+01</totfact>
</mgrwt>
</event>
<event>
12    6  0.8914180E-008  0.2418265E+04  0.7818608E-02  0.8432697E-01
         -1   -1    0    0    0  501 -0.00000000000E+00  0.00000000000E+00  0.85405614148E+03  0.85405614148E+03  0.00000000000E+00 0.  1.
          2   -1    0    0  501    0  0.00000000000E+00 -0.00000000000E+00 -0.17118335834E+04  0.17118335834E+04  0.00000000000E+00 0. -1.
         24    2    1    2    0    0  0.76743307607E+03 -0.48405558641E+03  0.16924293619E+03  0.92638590995E+03  0.79273865361E+02 0.  0.
        254    2    1    2    0    0 -0.76743307607E+03  0.48405558641E+03 -0.10270203781E+04  0.16395038149E+04  0.89996586887E+03 0.  0.
         23    2    4    4    0    0 -0.38756934310E+03  0.14572206538E+03 -0.10395051761E+04  0.11227732762E+04  0.92757223542E+02 0.  0.
         23    2    4    4    0    0 -0.37986373296E+03  0.33833352104E+03  0.12484798048E+02  0.51673053870E+03  0.89936379534E+02 0.  0.
          2    1    3    3  502    0  0.37486475459E+03 -0.23182891931E+03  0.42125257591E+02  0.44276717289E+03  0.00000000000E+00 0. -1.
         -1    1    3    3    0  502  0.39256832147E+03 -0.25222666710E+03  0.12711767860E+03  0.48361873706E+03  0.00000000000E+00 0.  1.
         11    1    5    5    0    0 -0.38232193243E+03  0.15279995338E+03 -0.10323450485E+04  0.11114198959E+04  0.00000000000E+00 0.  1.
        -11    1    5    5    0    0 -0.52474106695E+01 -0.70778880071E+01 -0.71601276175E+01  0.11353380328E+02  0.00000000000E+00 0. -1.
          1    1    6    6  503    0 -0.29432446341E+03  0.30552056696E+03 -0.28148836551E+00  0.42422845949E+03  0.00000000000E+00 0. -1.
         -1    1    6    6    0  503 -0.85539269548E+02  0.32812954074E+02  0.12766286414E+02  0.92502079213E+02  0.00000000000E+00 0.  1.
<mgrwt>
<rscale>  0 0.24182655E+04</rscale>
<asrwt>0</asrwt>
<pdfrwt beam="1">  1        2 0.26335901E+00 0.24182655E+04</pdfrwt>
<pdfrwt beam="2">  1       -1 0.13139325E+00 0.24182655E+04</pdfrwt>
<totfact> 0.48743716E+00</totfact>
</mgrwt>
</event>
<event>
12    6  0.8914180E-008  0.1692137E+04  0.7818608E-02  0.8765862E-01
          2   -1    0    0  501    0  0.00000000000E+00  0.00000000000E+00  0.12993908904E+04  0.12993908904E+04  0.00000000000E+00 0. -1.
         -1   -1    0    0    0  501 -0.00000000000E+00 -0.00000000000E+00 -0.55089785003E+03  0.55089785003E+03  0.00000000000E+00 0.  1.
         24    2    1    2    0    0 -0.31647851650E+03 -0.41754552326E+02 -0.28761728462E+03  0.43739553223E+03  0.81786644092E+02 0.  0.
        254    2    1    2    0    0  0.31647851650E+03  0.41754552326E+02  0.10361103250E+04  0.14128932082E+04  0.90600249347E+03 0.  0.
         23    2    4    4    0    0  0.10804318985E+03  0.46131236567E+03  0.54865685980E+03  0.73069819974E+03  0.91722841798E+02 0.  0.
         23    2    4    4    0    0  0.20843532666E+03 -0.41955781334E+03  0.48745346517E+03  0.68219500845E+03  0.91132347217E+02 0.  0.
          2    1    3    3  502    0  0.17947512609E+01  0.68768426188E+01 -0.99919379735E+01  0.12261766633E+02  0.00000000000E+00 0. -1.
         -1    1    3    3    0  502 -0.31827326776E+03 -0.48631394944E+02 -0.27762534665E+03  0.42513376559E+03  0.00000000000E+00 0.  1.
         11    1    5    5    0    0  0.10642678986E+03  0.30513729885E+03  0.32893009070E+03  0.46111868029E+03  0.00000000000E+00 0. -1.
        -11    1    5    5    0    0  0.16163999840E+01  0.15617506682E+03  0.21972676911E+03  0.26957951945E+03  0.00000000000E+00 0.  1.
          2    1    6    6  503    0  0.15887525718E+03 -0.25804721249E+03  0.36002565456E+03  0.47058281222E+03  0.00000000000E+00 0. -1.
         -2    1    6    6    0  503  0.49560069479E+02 -0.16151060085E+03  0.12742781061E+03  0.21161219623E+03  0.00000000000E+00 0.  1.
<mgrwt>
<rscale>  0 0.16921367E+04</rscale>
<asrwt>0</asrwt>
<pdfrwt beam="1">  1        2 0.19990629E+00 0.16921367E+04</pdfrwt>
<pdfrwt beam="2">  1       -1 0.84753515E-01 0.16921367E+04</pdfrwt>
<totfact> 0.24743850E+01</totfact>
</mgrwt>
</event>
<event>
12    6  0.8914180E-008  0.1775124E+04  0.7818608E-02  0.8719641E-01
          2   -1    0    0  501    0  0.00000000000E+00  0.00000000000E+00  0.62126546994E+03  0.62126546994E+03  0.00000000000E+00 0. -1.
         -1   -1    0    0    0  501 -0.00000000000E+00 -0.00000000000E+00 -0.12680021519E+04  0.12680021519E+04  0.00000000000E+00 0.  1.
         24    2    1    2    0    0  0.33463911656E+03  0.12660503667E+03  0.34373920748E+03  0.50230268361E+03  0.78352852917E+02 0.  0.
        254    2    1    2    0    0 -0.33463911656E+03 -0.12660503667E+03 -0.99047588941E+03  0.13869649382E+04  0.90256139880E+03 0.  0.
         23    2    4    4    0    0 -0.51206734189E+03  0.15339998112E+02 -0.19668901514E+03  0.55622697605E+03  0.90849337010E+02 0.  0.
         23    2    4    4    0    0  0.17742822533E+03 -0.14194503478E+03 -0.79378687426E+03  0.83073796213E+03  0.91644923066E+02 0.  0.
          4    1    3    3  502    0  0.25504944391E+03  0.79994761526E+02  0.29461362761E+03  0.39780217481E+03  0.00000000000E+00 0. -1.
         -3    1    3    3    0  502  0.79589672657E+02  0.46610275146E+02  0.49125579871E+02  0.10450050881E+03  0.00000000000E+00 0.  1.
         11    1    5    5    0    0 -0.15848034023E+03  0.39785139125E+02 -0.87539060314E+02  0.18536979963E+03  0.00000000000E+00 0.  1.
        -11    1    5    5    0    0 -0.35358700166E+03 -0.24445141013E+02 -0.10914995483E+03  0.37085717642E+03  0.00000000000E+00 0. -1.
          3    1    6    6  503    0  0.76056180168E+02 -0.11147809215E+03 -0.51929082120E+03  0.53653971387E+03  0.00000000000E+00 0. -1.
         -3    1    6    6    0  503  0.10137204516E+03 -0.30466942633E+02 -0.27449605306E+03  0.29419824826E+03  0.00000000000E+00 0.  1.
<mgrwt>
<rscale>  0 0.17751236E+04</rscale>
<asrwt>0</asrwt>
<pdfrwt beam="1">  1        2 0.95579303E-01 0.17751236E+04</pdfrwt>
<pdfrwt beam="2">  1       -1 0.19507725E+00 0.17751236E+04</pdfrwt>
<totfact> 0.83610672E+00</totfact>
</mgrwt>
</event>
<event>
12    6  0.8914180E-008  0.2178882E+04  0.7818608E-02  0.8527269E-01
         -1   -1    0    0    0  501 -0.00000000000E+00  0.00000000000E+00  0.76631202362E+03  0.76631202362E+03  0.00000000000E+00 0.  1.
          2   -1    0    0  501    0  0.00000000000E+00 -0.00000000000E+00 -0.15488234085E+04  0.15488234085E+04  0.00000000000E+00 0. -1.
         24    2    1    2    0    0 -0.27387843566E+03 -0.26833558129E+03  0.54299608957E+03  0.66911256253E+03  0.76508080235E+02 0.  0.
        254    2    1    2    0    0  0.27387843566E+03  0.26833558129E+03 -0.13255074744E+04  0.16460228696E+04  0.89744517417E+03 0.  0.
         23    2    4    4    0    0  0.77278085052E+02  0.28819857233E+03 -0.13854168675E+04  0.14201853601E+04  0.92283480415E+02 0.  0.
         23    2    4    4    0    0  0.19660035061E+03 -0.19862991033E+02  0.59909393046E+02  0.22583750949E+03  0.91472449639E+02 0.  0.
          2    1    3    3  502    0 -0.34699659723E+02 -0.14988116994E+02  0.90084196852E+02  0.97692745679E+02  0.00000000000E+00 0. -1.
         -1    1    3    3    0  502 -0.23917877594E+03 -0.25334746430E+03  0.45291189272E+03  0.57141981685E+03  0.00000000000E+00 0.  1.
         11    1    5    5    0    0  0.16556864570E+02  0.11207235207E+03 -0.34222944557E+03  0.36049318340E+03  0.00000000000E+00 0. -1.
        -11    1    5    5    0    0  0.60721220482E+02  0.17612622026E+03 -0.10431874219E+04  0.10596921767E+04  0.00000000000E+00 0.  1.
          3    1    6    6  503    0 -0.90813080898E+01 -0.71032600940E+01  0.50259564511E+01  0.12577229378E+02  0.00000000000E+00 0. -1.
         -3    1    6    6    0  503  0.20568165870E+03 -0.12759730939E+02  0.54883436595E+02  0.21326028011E+03  0.00000000000E+00 0.  1.
<mgrwt>
<rscale>  0 0.21788823E+04</rscale>
<asrwt>0</asrwt>
<pdfrwt beam="1">  1        2 0.23828052E+00 0.21788823E+04</pdfrwt>
<pdfrwt beam="2">  1       -1 0.11789416E+00 0.21788823E+04</pdfrwt>
<totfact> 0.80333223E+00</totfact>
</mgrwt>
</event>
<event>
12    6  0.8914180E-008  0.1827602E+04  0.7818608E-02  0.8691757E-01
         -1   -1    0    0    0  501 -0.00000000000E+00  0.00000000000E+00  0.91927177569E+03  0.91927177569E+03  0.00000000000E+00 0.  1.
          2   -1    0    0  501    0  0.00000000000E+00 -0.00000000000E+00 -0.90836296019E+03  0.90836296019E+03  0.00000000000E+00 0. -1.
         24    2    1    2    0    0  0.21806794684E+03 -0.74471341068E+02 -0.64121195480E+03  0.68615291331E+03  0.80953316067E+02 0.  0.
        254    2    1    2    0    0 -0.21806794684E+03  0.74471341068E+02  0.65212077030E+03  0.11414818226E+04  0.90808570197E+03 0.  0.
         23    2    4    4    0    0  0.30441219140E+03  0.15735556184E+03  0.43653154601E+03  0.56275939980E+03  0.93331646718E+02 0.  0.
         23    2    4    4    0    0 -0.52248013823E+03 -0.82884220777E+02  0.21558922429E+03  0.57872242278E+03  0.92658729183E+02 0.  0.
          2    1    3    3  502    0  0.22190844782E+03 -0.60869816227E+02 -0.60456631371E+03  0.64687627983E+03  0.00000000000E+00 0. -1.
         -1    1    3    3    0  502 -0.38405009855E+01 -0.13601524841E+02 -0.36645641093E+02  0.39276633473E+02  0.00000000000E+00 0.  1.
         11    1    5    5    0    0  0.10998598290E+03  0.66874526897E+02  0.97009443934E+02  0.16118297365E+03  0.00000000000E+00 0.  1.
        -11    1    5    5    0    0  0.19442620850E+03  0.90481034947E+02  0.33952210208E+03  0.40157642614E+03  0.00000000000E+00 0. -1.
          3    1    6    6  503    0 -0.11635808221E+02  0.43774585403E+01 -0.74806132678E+01  0.14509092015E+02  0.00000000000E+00 0.  1.
         -3    1    6    6    0  503 -0.51084433001E+03 -0.87261679317E+02  0.22306983755E+03  0.56421333076E+03  0.00000000000E+00 0. -1.
<mgrwt>
<rscale>  0 0.18276022E+04</rscale>
<asrwt>0</asrwt>
<pdfrwt beam="1">  1        2 0.13974815E+00 0.18276022E+04</pdfrwt>
<pdfrwt beam="2">  1       -1 0.14142643E+00 0.18276022E+04</pdfrwt>
<totfact> 0.12699109E+01</totfact>
</mgrwt>
</event>
<event>
12    6  0.8914180E-008  0.2433492E+04  0.7818608E-02  0.8427070E-01
         -1   -1    0    0    0  501 -0.00000000000E+00  0.00000000000E+00  0.13888309447E+04  0.13888309447E+04  0.00000000000E+00 0.  1.
          2   -1    0    0  501    0  0.00000000000E+00 -0.00000000000E+00 -0.10659832095E+04  0.10659832095E+04  0.00000000000E+00 0. -1.
         24    2    1    2    0    0  0.98413110074E+03 -0.36174561224E+03  0.11780266230E+03  0.10583588619E+04  0.82898141240E+02 0.  0.
        254    2    1    2    0    0 -0.98413110074E+03  0.36174561224E+03  0.20504507291E+03  0.13964552924E+04  0.89926080211E+03 0.  0.
         23    2    4    4    0    0 -0.19935148748E+03  0.32310174603E+03 -0.26907269584E+03  0.47420492471E+03  0.91293160307E+02 0.  0.
         23    2    4    4    0    0 -0.78477961326E+03  0.38643866207E+02  0.47411776876E+03  0.92225036765E+03  0.91573425194E+02 0.  0.
          4    1    3    3  502    0  0.12857819631E+03 -0.67184599436E+02  0.38232282946E+02  0.15002609915E+03  0.00000000000E+00 0. -1.
         -3    1    3    3    0  502  0.85555290443E+03 -0.29456101281E+03  0.79570379358E+02  0.90833276271E+03  0.00000000000E+00 0.  1.
         11    1    5    5    0    0 -0.17058077899E+03  0.27527220148E+03 -0.26463007439E+03  0.41821246196E+03  0.00000000000E+00 0.  1.
        -11    1    5    5    0    0 -0.28770708492E+02  0.47829544558E+02 -0.44426214579E+01  0.55992462753E+02  0.00000000000E+00 0. -1.
          1    1    6    6  503    0 -0.25356675367E+03  0.50004828326E+02  0.13095421471E+03  0.28973364971E+03  0.00000000000E+00 0. -1.
         -1    1    6    6    0  503 -0.53121285958E+03 -0.11360962119E+02  0.34316355405E+03  0.63251671794E+03  0.00000000000E+00 0.  1.
<mgrwt>
<rscale>  0 0.24334917E+04</rscale>
<asrwt>0</asrwt>
<pdfrwt beam="1">  1        2 0.16399742E+00 0.24334917E+04</pdfrwt>
<pdfrwt beam="2">  1       -1 0.21366630E+00 0.24334917E+04</pdfrwt>
<totfact> 0.28390049E+00</totfact>
</mgrwt>
</event>
<event>
12    6  0.8914180E-008  0.1650968E+04  0.7818608E-02  0.8789834E-01
         -1   -1    0    0    0  501 -0.00000000000E+00  0.00000000000E+00  0.36084942305E+03  0.36084942305E+03  0.00000000000E+00 0.  1.
          2   -1    0    0  501    0  0.00000000000E+00 -0.00000000000E+00 -0.18883890126E+04  0.18883890126E+04  0.00000000000E+00 0. -1.
         24    2    1    2    0    0  0.35799714083E+03 -0.25889315889E+03 -0.74183458449E+03  0.86705976905E+03  0.79287273842E+02 0.  0.
        254    2    1    2    0    0 -0.35799714083E+03  0.25889315889E+03 -0.78570500501E+03  0.13821786666E+04  0.10478062277E+04 0.  0.
         23    2    4    4    0    0 -0.19021034616E+03  0.65559743034E+03 -0.39817475478E+03  0.79555146975E+03  0.91493383466E+02 0.  0.
         23    2    4    4    0    0 -0.16778679468E+03 -0.39670427145E+03 -0.38753025024E+03  0.58662719680E+03  0.91788265724E+02 0.  0.
          4    1    3    3  502    0  0.18563351336E+02 -0.42922839851E+01 -0.69218877945E+02  0.71793278088E+02  0.00000000000E+00 0. -1.
         -3    1    3    3    0  502  0.33943378950E+03 -0.25460087491E+03 -0.67261570655E+03  0.79526649097E+03  0.00000000000E+00 0.  1.
         11    1    5    5    0    0 -0.10015884124E+03  0.31117605384E+03 -0.13910192154E+03  0.35526282459E+03  0.00000000000E+00 0.  1.
        -11    1    5    5    0    0 -0.90051504916E+02  0.34442137651E+03 -0.25907283324E+03  0.44028864516E+03  0.00000000000E+00 0. -1.
          1    1    6    6  503    0 -0.67534972457E+02 -0.12173376675E+03 -0.73759868922E+02  0.15754555131E+03  0.00000000000E+00 0. -1.
         -1    1    6    6    0  503 -0.10025182222E+03 -0.27497050470E+03 -0.31377038131E+03  0.42908164550E+03  0.00000000000E+00 0.  1.
<mgrwt>
<rscale>  0 0.16509683E+04</rscale>
<asrwt>0</asrwt>
<pdfrwt beam="1">  1        2 0.29052139E+00 0.16509683E+04</pdfrwt>
<pdfrwt beam="2">  1       -1 0.55515296E-01 0.16509683E+04</pdfrwt>
<totfact> 0.27513080E+01</totfact>
</mgrwt>
</event>
<event>
12    6  0.8914180E-008  0.1304497E+04  0.7818608E-02  0.9026006E-01
          2   -1    0    0  501    0  0.00000000000E+00  0.00000000000E+00  0.12011047202E+04  0.12011047202E+04  0.00000000000E+00 0. -1.
         -1   -1    0    0    0  501 -0.00000000000E+00 -0.00000000000E+00 -0.35419754789E+03  0.35419754789E+03  0.00000000000E+00 0.  1.
         24    2    1    2    0    0 -0.17258848002E+03 -0.11984769265E+03 -0.97632994408E+02  0.24494817600E+03  0.79480528797E+02 0.  0.
        254    2    1    2    0    0  0.17258848002E+03  0.11984769265E+03  0.94454016674E+03  0.13103540921E+04  0.88358444262E+03 0.  0.
         23    2    4    4    0    0  0.43666307564E+03  0.17609037357E+03  0.90291462654E+03  0.10222999296E+04  0.90331954053E+02 0.  0.
         23    2    4    4    0    0 -0.26407459562E+03 -0.56242680919E+02  0.41625540199E+02  0.28805416252E+03  0.91344861580E+02 0.  0.
          4    1    3    3  502    0 -0.91853462261E+02 -0.18611091724E+02 -0.27415670834E+02  0.97647582007E+02  0.00000000000E+00 0. -1.
         -3    1    3    3    0  502 -0.80735017757E+02 -0.10123660093E+03 -0.70217323574E+02  0.14730059399E+03  0.00000000000E+00 0.  1.
         11    1    5    5    0    0  0.15552529904E+03  0.11019692968E+03  0.36654643283E+03  0.41314376356E+03  0.00000000000E+00 0. -1.
        -11    1    5    5    0    0  0.28113777660E+03  0.65893443891E+02  0.53636819371E+03  0.60915616602E+03  0.00000000000E+00 0.  1.
          3    1    6    6  503    0 -0.24779312405E+02 -0.37474099768E+02  0.89752720088E+01  0.45813513119E+02  0.00000000000E+00 0. -1.
         -3    1    6    6    0  503 -0.23929528322E+03 -0.18768581151E+02  0.32650268190E+02  0.24224064940E+03  0.00000000000E+00 0.  1.
<mgrwt>
<rscale>  0 0.13044974E+04</rscale>
<asrwt>0</asrwt>
<pdfrwt beam="1">  1        2 0.18478534E+00 0.13044974E+04</pdfrwt>
<pdfrwt beam="2">  1       -1 0.54491931E-01 0.13044974E+04</pdfrwt>
<totfact> 0.71863818E+01</totfact>
</mgrwt>
</event>
<event>
12    6  0.8914180E-008  0.2407752E+04  0.7818608E-02  0.8436607E-01
          2   -1    0    0  501    0  0.00000000000E+00  0.00000000000E+00  0.11825563659E+04  0.11825563659E+04  0.00000000000E+00 0. -1.
         -1   -1    0    0    0  501 -0.00000000000E+00 -0.00000000000E+00 -0.12255794981E+04  0.12255794981E+04  0.00000000000E+00 0.  1.
         24    2    1    2    0    0  0.86698498066E+03 -0.23895380655E+03  0.49175138895E+03  0.10281515618E+04  0.80711381896E+02 0.  0.
        254    2    1    2    0    0 -0.86698498066E+03  0.23895380655E+03 -0.53477452122E+03  0.13799843022E+04  0.89978386701E+03 0.  0.
         23    2    4    4    0    0 -0.27510718757E+03  0.13361323692E+03 -0.68316393839E+03  0.75403599255E+03  0.91218691161E+02 0.  0.
         23    2    4    4    0    0 -0.59187779309E+03  0.10534056963E+03  0.14838941717E+03  0.62594830962E+03  0.91519995744E+02 0.  0.
          4    1    3    3  502    0  0.47151211343E+03 -0.89927906702E+02  0.24837425459E+03  0.54046320121E+03  0.00000000000E+00 0. -1.
         -1    1    3    3    0  502  0.39547286722E+03 -0.14902589985E+03  0.24337713436E+03  0.48768836060E+03  0.00000000000E+00 0.  1.
         11    1    5    5    0    0 -0.24084849417E+03  0.14690661029E+03 -0.61418751404E+03  0.67588153673E+03  0.00000000000E+00 0. -1.
        -11    1    5    5    0    0 -0.34258693392E+02 -0.13293373369E+02 -0.68976424348E+02  0.78154455819E+02  0.00000000000E+00 0.  1.
          3    1    6    6  503    0 -0.49204142111E+03  0.52116573242E+02  0.12657299949E+03  0.51072656235E+03  0.00000000000E+00 0. -1.
         -3    1    6    6    0  503 -0.99836371984E+02  0.53223996391E+02  0.21816417677E+02  0.11522174727E+03  0.00000000000E+00 0.  1.
<mgrwt>
<rscale>  0 0.24077515E+04</rscale>
<asrwt>0</asrwt>
<pdfrwt beam="1">  1        2 0.18193175E+00 0.24077515E+04</pdfrwt>
<pdfrwt beam="2">  1       -1 0.18855069E+00 0.24077515E+04</pdfrwt>
<totfact> 0.35953233E+00</totfact>
</mgrwt>
</event>
<event>
12    6  0.8914180E-008  0.1726621E+04  0.7818608E-02  0.8746326E-01
         -1   -1    0    0    0  501 -0.00000000000E+00  0.00000000000E+00  0.46205737828E+03  0.46205737828E+03  0.00000000000E+00 0.  1.
          2   -1    0    0  501    0  0.00000000000E+00 -0.00000000000E+00 -0.16130132772E+04  0.16130132772E+04  0.00000000000E+00 0. -1.
         24    2    1    2    0    0 -0.53315754728E+03  0.56875587912E+02 -0.33050550274E+02  0.54314547825E+03  0.80142803515E+02 0.  0.
        254    2    1    2    0    0  0.53315754728E+03 -0.56875587912E+02 -0.11179053486E+04  0.15319251772E+04  0.89977251422E+03 0.  0.
         23    2    4    4    0    0  0.18613775263E+02  0.24518797409E+03 -0.81556503806E+03  0.85691826098E+03  0.93268212268E+02 0.  0.
         23    2    4    4    0    0  0.51454377201E+03 -0.30206356200E+03 -0.30234031055E+03  0.67500691622E+03  0.90702727362E+02 0.  0.
          4    1    3    3  502    0 -0.31329172857E+03 -0.17137160675E+01 -0.54378332041E+00  0.31329688749E+03  0.00000000000E+00 0. -1.
         -3    1    3    3    0  502 -0.21986581871E+03  0.58589303979E+02 -0.32506766954E+02  0.22984859076E+03  0.00000000000E+00 0.  1.
         11    1    5    5    0    0  0.33223992510E+02  0.75819096542E+02 -0.38933351207E+03  0.39803637108E+03  0.00000000000E+00 0.  1.
        -11    1    5    5    0    0 -0.14610217247E+02  0.16936887755E+03 -0.42623152599E+03  0.45888188990E+03  0.00000000000E+00 0. -1.
          1    1    6    6  503    0  0.34145699289E+02 -0.50276785277E+02 -0.23659499639E+02  0.65218523756E+02  0.00000000000E+00 0. -1.
         -1    1    6    6    0  503  0.48039807273E+03 -0.25178677672E+03 -0.27868081091E+03  0.60978839246E+03  0.00000000000E+00 0.  1.
<mgrwt>
<rscale>  0 0.17266206E+04</rscale>
<asrwt>0</asrwt>
<pdfrwt beam="1">  1        2 0.24815589E+00 0.17266206E+04</pdfrwt>
<pdfrwt beam="2">  1       -1 0.71085750E-01 0.17266206E+04</pdfrwt>
<totfact> 0.23712378E+01</totfact>
</mgrwt>
</event>
<event>
12    6  0.8914180E-008  0.4554502E+04  0.7818608E-02  0.7901164E-01
         -1   -1    0    0    0  501 -0.00000000000E+00  0.00000000000E+00  0.19401733066E+04  0.19401733066E+04  0.00000000000E+00 0.  1.
          2   -1    0    0  501    0  0.00000000000E+00 -0.00000000000E+00 -0.26728917152E+04  0.26728917152E+04  0.00000000000E+00 0. -1.
         24    2    1    2    0    0  0.19466870272E+04  0.64002801745E+03 -0.11254113708E+04  0.23392343427E+04  0.78995643802E+02 0.  0.
        254    2    1    2    0    0 -0.19466870272E+04 -0.64002801745E+03  0.39269296223E+03  0.22738306791E+04  0.90380968662E+03 0.  0.
         23    2    4    4    0    0 -0.51194792798E+03  0.26666437792E+02  0.44972741850E+03  0.68810087772E+03  0.91794809740E+02 0.  0.
         23    2    4    4    0    0 -0.14347390992E+04 -0.66669445524E+03 -0.57034456274E+02  0.15857298014E+04  0.91259488848E+02 0.  0.
          2    1    3    3  502    0  0.11892651002E+04  0.42360149899E+03 -0.66698290566E+03  0.14278150808E+04  0.00000000000E+00 0. -1.
         -1    1    3    3    0  502  0.75742192695E+03  0.21642651845E+03 -0.45842846519E+03  0.91141926193E+03  0.00000000000E+00 0.  1.
         11    1    5    5    0    0 -0.12929749375E+02  0.16900418949E+02  0.13328674814E+02  0.25108885915E+02  0.00000000000E+00 0.  1.
        -11    1    5    5    0    0 -0.49901817861E+03  0.97660188427E+01  0.43639874369E+03  0.66299199181E+03  0.00000000000E+00 0. -1.
          2    1    6    6  503    0 -0.12724862616E+04 -0.55985860475E+03 -0.58969663082E+02  0.13914526095E+04  0.00000000000E+00 0. -1.
         -2    1    6    6    0  503 -0.16225283761E+03 -0.10683585049E+03  0.19352068078E+01  0.19427719189E+03  0.00000000000E+00 0.  1.
<mgrwt>
<rscale>  0 0.45545025E+04</rscale>
<asrwt>0</asrwt>
<pdfrwt beam="1">  1        2 0.41121411E+00 0.45545025E+04</pdfrwt>
<pdfrwt beam="2">  1       -1 0.29848820E+00 0.45545025E+04</pdfrwt>
<totfact> 0.79828293E-02</totfact>
</mgrwt>
</event>
<event>
12    6  0.8914180E-008  0.1068706E+04  0.7818608E-02  0.9236241E-01
          2   -1    0    0  501    0  0.00000000000E+00  0.00000000000E+00  0.43959616799E+03  0.43959616799E+03  0.00000000000E+00 0. -1.
         -1   -1    0    0    0  501 -0.00000000000E+00 -0.00000000000E+00 -0.64953544192E+03  0.64953544192E+03  0.00000000000E+00 0.  1.
         24    2    1    2    0    0 -0.57826337586E+02  0.75831428845E+02 -0.12616883694E+03  0.17709833496E+03  0.79692872388E+02 0.  0.
        254    2    1    2    0    0  0.57826337586E+02 -0.75831428845E+02 -0.83770436984E+02  0.91203327495E+03  0.90315719428E+03 0.  0.
         23    2    4    4    0    0  0.15919923134E+03  0.10136651494E+03  0.35890375711E+03  0.41533653536E+03  0.89849680709E+02 0.  0.
         23    2    4    4    0    0 -0.10137289375E+03 -0.17719794379E+03 -0.44267419410E+03  0.49669673959E+03  0.95245126561E+02 0.  0.
          4    1    3    3  502    0  0.13271406315E+01 -0.13301009596E+02 -0.31617050916E+02  0.34326608734E+02  0.00000000000E+00 0. -1.
         -3    1    3    3    0  502 -0.59153478218E+02  0.89132438441E+02 -0.94551786029E+02  0.14277172622E+03  0.00000000000E+00 0.  1.
         11    1    5    5    0    0 -0.74966288520E+00  0.27966268433E+02  0.87547454327E+02  0.91908818531E+02  0.00000000000E+00 0.  1.
        -11    1    5    5    0    0  0.15994889422E+03  0.73400246508E+02  0.27135630279E+03  0.32342771683E+03  0.00000000000E+00 0. -1.
          2    1    6    6  503    0 -0.55489028642E+02 -0.11952362517E+03 -0.17502532892E+03  0.21908627305E+03  0.00000000000E+00 0. -1.
         -2    1    6    6    0  503 -0.45883865110E+02 -0.57674318611E+02 -0.26764886518E+03  0.27761046655E+03  0.00000000000E+00 0.  1.
<mgrwt>
<rscale>  0 0.10687063E+04</rscale>
<asrwt>0</asrwt>
<pdfrwt beam="1">  1        2 0.67630180E-01 0.10687063E+04</pdfrwt>
<pdfrwt beam="2">  1       -1 0.99928529E-01 0.10687063E+04</pdfrwt>
<totfact> 0.77660712E+01</totfact>
</mgrwt>
</event>
<event>
12    6  0.8914180E-008  0.1614937E+04  0.7818608E-02  0.8811424E-01
         -1   -1    0    0    0  501 -0.00000000000E+00  0.00000000000E+00  0.10292623789E+04  0.10292623789E+04  0.00000000000E+00 0.  1.
          2   -1    0    0  501    0  0.00000000000E+00 -0.00000000000E+00 -0.63346888984E+03  0.63346888984E+03  0.00000000000E+00 0. -1.
         24    2    1    2    0    0 -0.55202147269E+03  0.45663188526E+02  0.12029527446E+03  0.57288862235E+03  0.83172035358E+02 0.  0.
        254    2    1    2    0    0  0.55202147269E+03 -0.45663188526E+02  0.27549821458E+03  0.10898426464E+04  0.89724294065E+03 0.  0.
         23    2    4    4    0    0  0.12889936882E+03 -0.16234675112E+03  0.52821611142E+03  0.57549365278E+03  0.95964416075E+02 0.  0.
         23    2    4    4    0    0  0.42312210387E+03  0.11668356259E+03 -0.25271789683E+03  0.51434899360E+03  0.89672645068E+02 0.  0.
          2    1    3    3  502    0 -0.49426112379E+03  0.45166180127E+02  0.13281721462E+03  0.51378444393E+03  0.00000000000E+00 0. -1.
         -1    1    3    3    0  502 -0.57760348895E+02  0.49700839852E+00 -0.12521940161E+02  0.59104178424E+02  0.00000000000E+00 0.  1.
         11    1    5    5    0    0  0.11335980762E+02 -0.59018324519E+02  0.75584900811E+02  0.96564715706E+02  0.00000000000E+00 0.  1.
        -11    1    5    5    0    0  0.11756338805E+03 -0.10332842660E+03  0.45263121061E+03  0.47892893708E+03  0.00000000000E+00 0. -1.
          2    1    6    6  503    0  0.54586825949E+02  0.11138291490E+02 -0.70609977839E+02  0.89941937242E+02  0.00000000000E+00 0. -1.
         -2    1    6    6    0  503  0.36853527792E+03  0.10554527110E+03 -0.18210791899E+03  0.42440705636E+03  0.00000000000E+00 0.  1.
<mgrwt>
<rscale>  0 0.16149374E+04</rscale>
<asrwt>0</asrwt>
<pdfrwt beam="1">  1        2 0.97456752E-01 0.16149374E+04</pdfrwt>
<pdfrwt beam="2">  1       -1 0.15834806E+00 0.16149374E+04</pdfrwt>
<totfact> 0.15278033E+01</totfact>
</mgrwt>
</event>
<event>
12    6  0.8914180E-008  0.2399592E+04  0.7818608E-02  0.8439656E-01
          2   -1    0    0  501    0  0.00000000000E+00  0.00000000000E+00  0.20312188647E+04  0.20312188647E+04  0.00000000000E+00 0. -1.
         -1   -1    0    0    0  501 -0.00000000000E+00 -0.00000000000E+00 -0.70869294125E+03  0.70869294125E+03  0.00000000000E+00 0.  1.
         24    2    1    2    0    0 -0.34824086168E+02 -0.10256924668E+04  0.46403626537E+03  0.11294713016E+04  0.84368311436E+02 0.  0.
        254    2    1    2    0    0  0.34824086168E+02  0.10256924668E+04  0.85848965805E+03  0.16104405044E+04  0.89624570937E+03 0.  0.
         23    2    4    4    0    0 -0.34046819470E+03  0.29156297333E+03  0.57345163668E+03  0.73328069975E+03  0.89029466972E+02 0.  0.
         23    2    4    4    0    0  0.37529228086E+03  0.73412949351E+03  0.28503802137E+03  0.87715980461E+03  0.91499944651E+02 0.  0.
          4    1    3    3  502    0  0.12821900399E+02 -0.60663573342E+03  0.24664751719E+03  0.65498573414E+03  0.00000000000E+00 0. -1.
         -3    1    3    3    0  502 -0.47645986566E+02 -0.41905673342E+03  0.21738874818E+03  0.47448556742E+03  0.00000000000E+00 0.  1.
         11    1    5    5    0    0 -0.17371533050E+03  0.18092199467E+03  0.37728890090E+03  0.45305264478E+03  0.00000000000E+00 0.  1.
        -11    1    5    5    0    0 -0.16675286420E+03  0.11064097866E+03  0.19616273579E+03  0.28022805496E+03  0.00000000000E+00 0. -1.
          4    1    6    6  503    0  0.26225025159E+03  0.58317330556E+03  0.24224450000E+03  0.68377532609E+03  0.00000000000E+00 0. -1.
         -4    1    6    6    0  503  0.11304202927E+03  0.15095618795E+03  0.42793521362E+02  0.19338447852E+03  0.00000000000E+00 0.  1.
<mgrwt>
<rscale>  0 0.23995920E+04</rscale>
<asrwt>0</asrwt>
<pdfrwt beam="1">  1        2 0.31249521E+00 0.23995920E+04</pdfrwt>
<pdfrwt beam="2">  1       -1 0.10902968E+00 0.23995920E+04</pdfrwt>
<totfact> 0.51187995E+00</totfact>
</mgrwt>
</event>
<event>
12    6  0.8914180E-008  0.1661505E+04  0.7818608E-02  0.8783629E-01
          2   -1    0    0  501    0  0.00000000000E+00  0.00000000000E+00  0.22262256937E+04  0.22262256937E+04  0.00000000000E+00 0. -1.
         -1   -1    0    0    0  501 -0.00000000000E+00 -0.00000000000E+00 -0.31000901372E+03  0.31000901372E+03  0.00000000000E+00 0.  1.
         24    2    1    2    0    0 -0.53405367344E+02  0.37954910715E+03  0.10300350460E+02  0.39155386734E+03  0.79364197258E+02 0.  0.
        254    2    1    2    0    0  0.53405367344E+02 -0.37954910715E+03  0.19059163295E+04  0.21446808401E+04  0.90566505545E+03 0.  0.
         23    2    4    4    0    0 -0.10869479938E+03  0.23611937166E+03  0.96779703101E+03  0.10070632983E+04  0.99892324176E+02 0.  0.
         23    2    4    4    0    0  0.16210016673E+03 -0.61566847881E+03  0.93811929851E+03  0.11376175418E+04  0.93710796076E+02 0.  0.
          4    1    3    3  502    0 -0.61361920853E+02  0.17691466797E+03  0.21321392779E+02  0.18846402008E+03  0.00000000000E+00 0. -1.
         -3    1    3    3    0  502  0.79565535092E+01  0.20263443918E+03 -0.11021042320E+02  0.20308984726E+03  0.00000000000E+00 0.  1.
         11    1    5    5    0    0 -0.81924031241E+02  0.23784786709E+03  0.88151302326E+03  0.91670516795E+03  0.00000000000E+00 0. -1.
        -11    1    5    5    0    0 -0.26770768144E+02 -0.17284954262E+01  0.86284007745E+02  0.90358130326E+02  0.00000000000E+00 0.  1.
          3    1    6    6  503    0  0.16104335449E+03 -0.60295140244E+03  0.93554104735E+03  0.11245987760E+04  0.00000000000E+00 0. -1.
         -3    1    6    6    0  503  0.10568122356E+01 -0.12717076372E+02  0.25782511688E+01  0.13018765788E+02  0.00000000000E+00 0.  1.
<mgrwt>
<rscale>  0 0.16615054E+04</rscale>
<asrwt>0</asrwt>
<pdfrwt beam="1">  1        2 0.34249625E+00 0.16615054E+04</pdfrwt>
<pdfrwt beam="2">  1       -1 0.47693696E-01 0.16615054E+04</pdfrwt>
<totfact> 0.23833736E+01</totfact>
</mgrwt>
</event>
<event>
12    6  0.8914180E-008  0.2805154E+04  0.7818608E-02  0.8301670E-01
         -1   -1    0    0    0  501 -0.00000000000E+00  0.00000000000E+00  0.82401811993E+03  0.82401811993E+03  0.00000000000E+00 0.  1.
          2   -1    0    0  501    0  0.00000000000E+00 -0.00000000000E+00 -0.23873530115E+04  0.23873530115E+04  0.00000000000E+00 0. -1.
         24    2    1    2    0    0  0.83980443844E+03 -0.35848865314E+03  0.28390220523E+03  0.95967245221E+03  0.81148901099E+02 0.  0.
        254    2    1    2    0    0 -0.83980443844E+03  0.35848865314E+03 -0.18472370968E+04  0.22516986792E+04  0.90778656137E+03 0.  0.
         23    2    4    4    0    0 -0.82537435021E+02 -0.11274077962E+03 -0.10124899392E+04  0.10266050875E+04  0.96224825299E+02 0.  0.
         23    2    4    4    0    0 -0.75726700341E+03  0.47122943275E+03 -0.83474715756E+03  0.12250935918E+04  0.92417524060E+02 0.  0.
          2    1    3    3  502    0  0.41386583690E+03 -0.17125234830E+03  0.18141739141E+03  0.48324379733E+03  0.00000000000E+00 0. -1.
         -1    1    3    3    0  502  0.42593860154E+03 -0.18723630483E+03  0.10248481382E+03  0.47642865488E+03  0.00000000000E+00 0.  1.
         11    1    5    5    0    0 -0.32463800744E+02 -0.46686954089E+02 -0.72984503112E+03  0.73205692367E+03  0.00000000000E+00 0.  1.
        -11    1    5    5    0    0 -0.50073634277E+02 -0.66053825526E+02 -0.28264490809E+03  0.29454816378E+03  0.00000000000E+00 0. -1.
          1    1    6    6  503    0 -0.23956533139E+03  0.20087963054E+03 -0.28867481324E+03  0.42553181052E+03  0.00000000000E+00 0. -1.
         -1    1    6    6    0  503 -0.51770167203E+03  0.27034980222E+03 -0.54607234433E+03  0.79956178124E+03  0.00000000000E+00 0.  1.
<mgrwt>
<rscale>  0 0.28051539E+04</rscale>
<asrwt>0</asrwt>
<pdfrwt beam="1">  1        2 0.36728507E+00 0.28051539E+04</pdfrwt>
<pdfrwt beam="2">  1       -1 0.12677202E+00 0.28051539E+04</pdfrwt>
<totfact> 0.21594614E+00</totfact>
</mgrwt>
</event>
<event>
12    6  0.8914180E-008  0.1566317E+04  0.7818608E-02  0.8841512E-01
          2   -1    0    0  501    0  0.00000000000E+00  0.00000000000E+00  0.10036948078E+04  0.10036948078E+04  0.00000000000E+00 0. -1.
         -1   -1    0    0    0  501 -0.00000000000E+00 -0.00000000000E+00 -0.61107970292E+03  0.61107970292E+03  0.00000000000E+00 0.  1.
         24    2    1    2    0    0 -0.25618947439E+03  0.36077775542E+03  0.39054063968E+03  0.59510875611E+03  0.76412072155E+02 0.  0.
        254    2    1    2    0    0  0.25618947439E+03 -0.36077775542E+03  0.20744652254E+01  0.10196657546E+04  0.91865135507E+03 0.  0.
         23    2    4    4    0    0 -0.32216244938E+03 -0.26206755598E+03  0.19920164072E+02  0.42567614720E+03  0.91297982841E+02 0.  0.
         23    2    4    4    0    0  0.57835192376E+03 -0.98710199438E+02 -0.17845698847E+02  0.59398960743E+03  0.90942474008E+02 0.  0.
          4    1    3    3  502    0 -0.24947113425E+03  0.34437949585E+03  0.39056797632E+03  0.57738758915E+03  0.00000000000E+00 0. -1.
         -3    1    3    3    0  502 -0.67183401322E+01  0.16398259566E+02 -0.27336639594E-01  0.17721166954E+02  0.00000000000E+00 0.  1.
         11    1    5    5    0    0 -0.16097605325E+03 -0.18493584744E+03  0.28166650833E+02  0.24679529494E+03  0.00000000000E+00 0. -1.
        -11    1    5    5    0    0 -0.16118639613E+03 -0.77131708541E+02 -0.82464867604E+01  0.17888085225E+03  0.00000000000E+00 0.  1.
          3    1    6    6  503    0  0.39847608244E+03 -0.26091558919E+02 -0.22369791109E+02  0.39995545412E+03  0.00000000000E+00 0. -1.
         -3    1    6    6    0  503  0.17987584132E+03 -0.72618640519E+02  0.45240922621E+01  0.19403415331E+03  0.00000000000E+00 0.  1.
<mgrwt>
<rscale>  0 0.15663174E+04</rscale>
<asrwt>0</asrwt>
<pdfrwt beam="1">  1        2 0.15441459E+00 0.15663174E+04</pdfrwt>
<pdfrwt beam="2">  1       -1 0.94012262E-01 0.15663174E+04</pdfrwt>
<totfact> 0.30127480E+01</totfact>
</mgrwt>
</event>
<event>
12    6  0.8914180E-008  0.2196811E+04  0.7818608E-02  0.8519757E-01
          2   -1    0    0  501    0  0.00000000000E+00  0.00000000000E+00  0.16345962353E+04  0.16345962353E+04  0.00000000000E+00 0. -1.
         -1   -1    0    0    0  501 -0.00000000000E+00 -0.00000000000E+00 -0.73809945779E+03  0.73809945779E+03  0.00000000000E+00 0.  1.
         24    2    1    2    0    0  0.72462512560E+03  0.11648995005E+03 -0.22159938290E+03  0.77074433375E+03  0.79303596330E+02 0.  0.
        254    2    1    2    0    0 -0.72462512560E+03 -0.11648995005E+03  0.11180961605E+04  0.16019513594E+04  0.88173559116E+03 0.  0.
         23    2    4    4    0    0  0.16494282238E+02 -0.35174059294E+03  0.35864375091E+03  0.51127298838E+03  0.93708177399E+02 0.  0.
         23    2    4    4    0    0 -0.74111940783E+03  0.23525064288E+03  0.75945240955E+03  0.10906783710E+04  0.90611836898E+02 0.  0.
          2    1    3    3  502    0  0.48884494859E+03  0.10170293504E+03 -0.18059745357E+03  0.53096921850E+03  0.00000000000E+00 0. -1.
         -1    1    3    3    0  502  0.23578017701E+03  0.14787015013E+02 -0.41001929322E+02  0.23977511525E+03  0.00000000000E+00 0.  1.
         11    1    5    5    0    0  0.40672644301E+02 -0.32419616932E+03  0.31027104675E+03  0.45058355789E+03  0.00000000000E+00 0.  1.
        -11    1    5    5    0    0 -0.24178362062E+02 -0.27544423621E+02  0.48372704157E+02  0.60689430481E+02  0.00000000000E+00 0. -1.
          1    1    6    6  503    0 -0.17452517078E+03  0.19880091926E+02  0.19445025637E+03  0.26204036997E+03  0.00000000000E+00 0. -1.
         -1    1    6    6    0  503 -0.56659423706E+03  0.21537055096E+03  0.56500215318E+03  0.82863800105E+03  0.00000000000E+00 0.  1.
<mgrwt>
<rscale>  0 0.21968110E+04</rscale>
<asrwt>0</asrwt>
<pdfrwt beam="1">  1        2 0.25147634E+00 0.21968110E+04</pdfrwt>
<pdfrwt beam="2">  1       -1 0.11355376E+00 0.21968110E+04</pdfrwt>
<totfact> 0.78582507E+00</totfact>
</mgrwt>
</event>
<event>
12    6  0.8914180E-008  0.1347534E+04  0.7818608E-02  0.8992697E-01
         -1   -1    0    0    0  501 -0.00000000000E+00  0.00000000000E+00  0.72803950293E+03  0.72803950293E+03  0.00000000000E+00 0.  1.
          2   -1    0    0  501    0  0.00000000000E+00 -0.00000000000E+00 -0.62354024211E+03  0.62354024211E+03  0.00000000000E+00 0. -1.
         24    2    1    2    0    0  0.11447212573E+03 -0.26026228318E+03  0.26145520569E+03  0.39465691783E+03  0.80962550579E+02 0.  0.
        254    2    1    2    0    0 -0.11447212573E+03  0.26026228318E+03 -0.15695594487E+03  0.95692282720E+03  0.90012543846E+03 0.  0.
         23    2    4    4    0    0 -0.83982916746E+02 -0.15381720741E+03  0.28253240747E+03  0.34481950697E+03  0.91449808705E+02 0.  0.
         23    2    4    4    0    0 -0.30489208979E+02  0.41407949059E+03 -0.43948835235E+03  0.61210332023E+03  0.95546043372E+02 0.  0.
          4    1    3    3  502    0  0.75239829042E+02 -0.15973658330E+03  0.21215295281E+03  0.27601754166E+03  0.00000000000E+00 0. -1.
         -3    1    3    3    0  502  0.39232296683E+02 -0.10052569988E+03  0.49302252884E+02  0.11863937617E+03  0.00000000000E+00 0.  1.
         11    1    5    5    0    0 -0.26481113512E+02 -0.12922828966E+03  0.21907472523E+03  0.25572433489E+03  0.00000000000E+00 0.  1.
        -11    1    5    5    0    0 -0.57501803234E+02 -0.24588917743E+02  0.63457682244E+02  0.89095172073E+02  0.00000000000E+00 0. -1.
          2    1    6    6  503    0 -0.25825052312E+02  0.15915905945E+03 -0.10870092104E+03  0.19445932677E+03  0.00000000000E+00 0. -1.
         -2    1    6    6    0  503 -0.46641566671E+01  0.25492043114E+03 -0.33078743131E+03  0.41764399347E+03  0.00000000000E+00 0.  1.
<mgrwt>
<rscale>  0 0.13475339E+04</rscale>
<asrwt>0</asrwt>
<pdfrwt beam="1">  1        2 0.95929268E-01 0.13475339E+04</pdfrwt>
<pdfrwt beam="2">  1       -1 0.11200608E+00 0.13475339E+04</pdfrwt>
<totfact> 0.38641210E+01</totfact>
</mgrwt>
</event>
<event>
12    6  0.8914180E-008  0.3376310E+04  0.7818608E-02  0.8143745E-01
         -1   -1    0    0    0  501 -0.00000000000E+00  0.00000000000E+00  0.27321335142E+04  0.27321335142E+04  0.00000000000E+00 0.  1.
          2   -1    0    0  501    0  0.00000000000E+00 -0.00000000000E+00 -0.10430921156E+04  0.10430921156E+04  0.00000000000E+00 0. -1.
         24    2    1    2    0    0 -0.32633549143E+03  0.12537125367E+04  0.17759341072E+04  0.21996920004E+04  0.80080995451E+02 0.  0.
        254    2    1    2    0    0  0.32633549143E+03 -0.12537125367E+04 -0.86892708539E+02  0.15755336294E+04  0.89244938060E+03 0.  0.
         23    2    4    4    0    0 -0.25220586775E+03 -0.53455127463E+03  0.15339581737E+03  0.61742045733E+03  0.91240777097E+02 0.  0.
         23    2    4    4    0    0  0.57854135918E+03 -0.71916126207E+03 -0.24028852591E+03  0.95811317208E+03  0.91319492298E+02 0.  0.
          2    1    3    3  502    0 -0.17086261543E+03  0.77463336356E+03  0.11286732862E+04  0.13795485741E+04  0.00000000000E+00 0. -1.
         -1    1    3    3    0  502 -0.15547287600E+03  0.47907917314E+03  0.64726082103E+03  0.82014342633E+03  0.00000000000E+00 0.  1.
         11    1    5    5    0    0 -0.97315416179E+02 -0.11400665597E+03  0.37116760725E+02  0.15441975831E+03  0.00000000000E+00 0. -1.
        -11    1    5    5    0    0 -0.15489045157E+03 -0.42054461866E+03  0.11627905665E+03  0.46300069902E+03  0.00000000000E+00 0.  1.
          3    1    6    6  503    0  0.20174955766E+03 -0.22689772738E+03 -0.37796803005E+02  0.30596414990E+03  0.00000000000E+00 0. -1.
         -3    1    6    6    0  503  0.37679180152E+03 -0.49226353470E+03 -0.20249172291E+03  0.65214902218E+03  0.00000000000E+00 0.  1.
<mgrwt>
<rscale>  0 0.33763098E+04</rscale>
<asrwt>0</asrwt>
<pdfrwt beam="1">  1        2 0.16047571E+00 0.33763098E+04</pdfrwt>
<pdfrwt beam="2">  1       -1 0.42032823E+00 0.33763098E+04</pdfrwt>
<totfact> 0.11587494E-01</totfact>
</mgrwt>
</event>
<event>
12    6  0.8914180E-008  0.3096335E+04  0.7818608E-02  0.8216745E-01
         -1   -1    0    0    0  501 -0.00000000000E+00  0.00000000000E+00  0.11306722575E+04  0.11306722575E+04  0.00000000000E+00 0.  1.
          2   -1    0    0  501    0  0.00000000000E+00 -0.00000000000E+00 -0.21198204847E+04  0.21198204847E+04  0.00000000000E+00 0. -1.
         24    2    1    2    0    0  0.31490691212E+03 -0.39075332359E+03 -0.18182074519E+04  0.18878322140E+04  0.78597755147E+02 0.  0.
        254    2    1    2    0    0 -0.31490691212E+03  0.39075332359E+03  0.82905922468E+03  0.13626605282E+04  0.95794049603E+03 0.  0.
         23    2    4    4    0    0  0.21497935140E+03  0.45130106915E+03  0.56970192738E+03  0.76270581570E+03  0.85270737687E+02 0.  0.
         23    2    4    4    0    0 -0.52988626352E+03 -0.60547745559E+02  0.25935729730E+03  0.59995471252E+03  0.90741212483E+02 0.  0.
          4    1    3    3  502    0  0.22563109326E+03 -0.28503327251E+03 -0.11768653991E+04  0.12317327325E+04  0.00000000000E+00 0. -1.
         -3    1    3    3    0  502  0.89275818860E+02 -0.10572005108E+03 -0.64134205280E+03  0.65609948157E+03  0.00000000000E+00 0.  1.
         11    1    5    5    0    0  0.76491011794E+02  0.12411637696E+03  0.11518200821E+03  0.18580270431E+03  0.00000000000E+00 0.  1.
        -11    1    5    5    0    0  0.13848833960E+03  0.32718469219E+03  0.45451991917E+03  0.57690311139E+03  0.00000000000E+00 0. -1.
          4    1    6    6  503    0 -0.47871015496E+03 -0.77328384055E+02  0.24900569929E+03  0.54511185066E+03  0.00000000000E+00 0. -1.
         -4    1    6    6    0  503 -0.51176108559E+02  0.16780638496E+02  0.10351598012E+02  0.54842861860E+02  0.00000000000E+00 0.  1.
<mgrwt>
<rscale>  0 0.30963347E+04</rscale>
<asrwt>0</asrwt>
<pdfrwt beam="1">  1        2 0.32612623E+00 0.30963347E+04</pdfrwt>
<pdfrwt beam="2">  1       -1 0.17394958E+00 0.30963347E+04</pdfrwt>
<totfact> 0.12734883E+00</totfact>
</mgrwt>
</event>
<event>
12    6  0.8914180E-008  0.3566390E+04  0.7818608E-02  0.8098234E-01
          2   -1    0    0  501    0  0.00000000000E+00  0.00000000000E+00  0.22735194743E+04  0.22735194743E+04  0.00000000000E+00 0. -1.
         -1   -1    0    0    0  501 -0.00000000000E+00 -0.00000000000E+00 -0.13986179720E+04  0.13986179720E+04  0.00000000000E+00 0.  1.
         24    2    1    2    0    0  0.26098773952E+03 -0.15081372249E+04  0.10851271323E+04  0.18778250827E+04  0.78317677290E+02 0.  0.
        254    2    1    2    0    0 -0.26098773952E+03  0.15081372249E+04 -0.21022562997E+03  0.17943123636E+04  0.91256208180E+03 0.  0.
         23    2    4    4    0    0  0.23665523435E+03  0.47602155606E+03  0.19824586714E+03  0.57451103239E+03  0.90328736971E+02 0.  0.
         23    2    4    4    0    0 -0.49764297388E+03  0.10321156689E+04 -0.40847149711E+03  0.12198013312E+04  0.90305261206E+02 0.  0.
          4    1    3    3  502    0 -0.34673252891E+01 -0.84048677815E+02  0.59618814307E+02  0.10310482824E+03  0.00000000000E+00 0. -1.
         -1    1    3    3    0  502  0.26445506481E+03 -0.14240885471E+04  0.10255083180E+04  0.17747202544E+04  0.00000000000E+00 0.  1.
         11    1    5    5    0    0  0.32755421429E+01  0.34657862142E+02  0.34666584516E+02  0.49129102033E+02  0.00000000000E+00 0. -1.
        -11    1    5    5    0    0  0.23337969221E+03  0.44136369392E+03  0.16357928263E+03  0.52538193036E+03  0.00000000000E+00 0.  1.
          1    1    6    6  503    0 -0.21909388388E+02  0.99917349212E+02 -0.46893233040E+02  0.11252765561E+03  0.00000000000E+00 0. -1.
         -1    1    6    6    0  503 -0.47573358549E+03  0.93219831965E+03 -0.36157826407E+03  0.11072736755E+04  0.00000000000E+00 0.  1.
<mgrwt>
<rscale>  0 0.35663904E+04</rscale>
<asrwt>0</asrwt>
<pdfrwt beam="1">  1        2 0.34977223E+00 0.35663904E+04</pdfrwt>
<pdfrwt beam="2">  1       -1 0.21517200E+00 0.35663904E+04</pdfrwt>
<totfact> 0.51714526E-01</totfact>
</mgrwt>
</event>
<event>
12    6  0.8914180E-008  0.1269293E+04  0.7818608E-02  0.9054277E-01
          2   -1    0    0  501    0  0.00000000000E+00  0.00000000000E+00  0.22576830503E+04  0.22576830503E+04  0.00000000000E+00 0. -1.
         -1   -1    0    0    0  501 -0.00000000000E+00 -0.00000000000E+00 -0.17840235263E+03  0.17840235263E+03  0.00000000000E+00 0.  1.
         24    2    1    2    0    0  0.31789246257E+02  0.10823530937E+03  0.10583578708E+04  0.10675316352E+04  0.82322361081E+02 0.  0.
        254    2    1    2    0    0 -0.31789246257E+02 -0.10823530937E+03  0.10209228269E+04  0.13685537678E+04  0.90439513398E+03 0.  0.
         23    2    4    4    0    0 -0.71674471153E+02 -0.34473664698E+03  0.10495490889E+04  0.11106415963E+04  0.89391721929E+02 0.  0.
         23    2    4    4    0    0  0.39885224896E+02  0.23650133761E+03 -0.28626261955E+02  0.25791217144E+03  0.90418534874E+02 0.  0.
          4    1    3    3  502    0  0.52859207143E+02  0.91617665141E+02  0.95128539973E+03  0.95714774413E+03  0.00000000000E+00 0. -1.
         -3    1    3    3    0  502 -0.21069960886E+02  0.16617644232E+02  0.10707247106E+03  0.11038389109E+03  0.00000000000E+00 0.  1.
         11    1    5    5    0    0 -0.25169324802E+02 -0.39568995441E+02  0.23341565008E+03  0.23807995719E+03  0.00000000000E+00 0. -1.
        -11    1    5    5    0    0 -0.46505146351E+02 -0.30516765154E+03  0.81613343878E+03  0.87256163913E+03  0.00000000000E+00 0.  1.
          3    1    6    6  503    0 -0.15162943650E+02  0.53916557992E+02  0.22683914988E+02  0.60427395154E+02  0.00000000000E+00 0. -1.
         -3    1    6    6    0  503  0.55048168546E+02  0.18258477961E+03 -0.51310176943E+02  0.19748477629E+03  0.00000000000E+00 0.  1.
<mgrwt>
<rscale>  0 0.12692927E+04</rscale>
<asrwt>0</asrwt>
<pdfrwt beam="1">  1        2 0.34733583E+00 0.12692927E+04</pdfrwt>
<pdfrwt beam="2">  1       -1 0.27446517E-01 0.12692927E+04</pdfrwt>
<totfact> 0.64073972E+01</totfact>
</mgrwt>
</event>
<event>
12    6  0.8914180E-008  0.2001407E+04  0.7818608E-02  0.8605963E-01
          2   -1    0    0  501    0  0.00000000000E+00  0.00000000000E+00  0.87706365574E+03  0.87706365574E+03  0.00000000000E+00 0. -1.
         -1   -1    0    0    0  501 -0.00000000000E+00 -0.00000000000E+00 -0.11417725170E+04  0.11417725170E+04  0.00000000000E+00 0.  1.
         24    2    1    2    0    0 -0.46002200483E+03  0.14815406145E+03 -0.73390021242E+03  0.88239297544E+03  0.80236964393E+02 0.  0.
        254    2    1    2    0    0  0.46002200483E+03 -0.14815406145E+03  0.46919135114E+03  0.11364431973E+04  0.91531019110E+03 0.  0.
         23    2    4    4    0    0  0.25399828108E+03 -0.11367372438E+03  0.73186198099E+03  0.78892205522E+03  0.96639575728E+02 0.  0.
         23    2    4    4    0    0  0.20602372375E+03 -0.34480337072E+02 -0.26267062985E+03  0.34752114211E+03  0.90224254121E+02 0.  0.
          2    1    3    3  502    0 -0.65212365323E+02 -0.26483340364E+00 -0.68540201619E+02  0.94606986876E+02  0.00000000000E+00 0. -1.
         -3    1    3    3    0  502 -0.39480963951E+03  0.14841889485E+03 -0.66536001080E+03  0.78778598856E+03  0.00000000000E+00 0.  1.
         11    1    5    5    0    0  0.22737834437E+03 -0.68815829794E+02  0.64785526213E+03  0.69003838342E+03  0.00000000000E+00 0. -1.
        -11    1    5    5    0    0  0.26619936713E+02 -0.44857894581E+02  0.84006718856E+02  0.98883671806E+02  0.00000000000E+00 0.  1.
          1    1    6    6  503    0 -0.81515711276E+01  0.55845939281E+00 -0.21492261667E+01  0.84486189320E+01  0.00000000000E+00 0.  1.
         -1    1    6    6    0  503  0.21417529488E+03 -0.35038796465E+02 -0.26052140368E+03  0.33907252318E+03  0.00000000000E+00 0. -1.
<mgrwt>
<rscale>  0 0.20014067E+04</rscale>
<asrwt>0</asrwt>
<pdfrwt beam="1">  1        2 0.13493287E+00 0.20014067E+04</pdfrwt>
<pdfrwt beam="2">  1       -1 0.17565731E+00 0.20014067E+04</pdfrwt>
<totfact> 0.72078707E+00</totfact>
</mgrwt>
</event>
<event>
12    6  0.8914180E-008  0.1680130E+04  0.7818608E-02  0.8772779E-01
          2   -1    0    0  501    0  0.00000000000E+00  0.00000000000E+00  0.16126809381E+04  0.16126809381E+04  0.00000000000E+00 0. -1.
         -1   -1    0    0    0  501 -0.00000000000E+00 -0.00000000000E+00 -0.43759994308E+03  0.43759994308E+03  0.00000000000E+00 0.  1.
         24    2    1    2    0    0 -0.18888752557E+03  0.51980807435E+03  0.67435445411E+03  0.87562491020E+03  0.78013602001E+02 0.  0.
        254    2    1    2    0    0  0.18888752557E+03 -0.51980807435E+03  0.50072654088E+03  0.11746559710E+04  0.90730956674E+03 0.  0.
         23    2    4    4    0    0  0.52495647205E+02 -0.63512033330E+03  0.90293041033E+01  0.64362679701E+03  0.89667690667E+02 0.  0.
         23    2    4    4    0    0  0.13639187837E+03  0.11531225895E+03  0.49169723677E+03  0.53102917395E+03  0.91247736338E+02 0.  0.
          4    1    3    3  502    0 -0.18205108261E+03  0.49714296588E+03  0.66537741173E+03  0.85030631259E+03  0.00000000000E+00 0. -1.
         -3    1    3    3    0  502 -0.68364429668E+01  0.22665108480E+02  0.89770423886E+01  0.25318597609E+02  0.00000000000E+00 0.  1.
         11    1    5    5    0    0  0.63298281433E+02 -0.61446808540E+03 -0.22731595231E+01  0.61772394131E+03  0.00000000000E+00 0. -1.
        -11    1    5    5    0    0 -0.10802634228E+02 -0.20652247898E+02  0.11302463626E+02  0.25902855702E+02  0.00000000000E+00 0.  1.
          1    1    6    6  503    0  0.93495393708E+02  0.11941620073E+03  0.42841745004E+03  0.45447016309E+03  0.00000000000E+00 0. -1.
         -1    1    6    6    0  503  0.42896484661E+02 -0.41039417887E+01  0.63279786737E+02  0.76559010861E+02  0.00000000000E+00 0.  1.
<mgrwt>
<rscale>  0 0.16801299E+04</rscale>
<asrwt>0</asrwt>
<pdfrwt beam="1">  1        2 0.24810476E+00 0.16801299E+04</pdfrwt>
<pdfrwt beam="2">  1       -1 0.67323069E-01 0.16801299E+04</pdfrwt>
<totfact> 0.26619266E+01</totfact>
</mgrwt>
</event>
<event>
12    6  0.8914180E-008  0.2988425E+04  0.7818608E-02  0.8247044E-01
          2   -1    0    0  501    0  0.00000000000E+00  0.00000000000E+00  0.14561011723E+04  0.14561011723E+04  0.00000000000E+00 0. -1.
         -1   -1    0    0    0  501 -0.00000000000E+00 -0.00000000000E+00 -0.15333208537E+04  0.15333208537E+04  0.00000000000E+00 0.  1.
         24    2    1    2    0    0 -0.58808620929E+03  0.32510009476E+03  0.11518372619E+04  0.13359434754E+04  0.80501119934E+02 0.  0.
        254    2    1    2    0    0  0.58808620929E+03 -0.32510009476E+03 -0.12290569432E+04  0.16534785506E+04  0.87856410495E+03 0.  0.
         23    2    4    4    0    0 -0.33356355392E+02  0.15492804334E+02 -0.82756487468E+03  0.83379334401E+03  0.94842212534E+02 0.  0.
         23    2    4    4    0    0  0.62144256468E+03 -0.34059289909E+03 -0.40149206856E+03  0.81968520662E+03  0.92160581227E+02 0.  0.
          2    1    3    3  502    0 -0.47749914696E+03  0.24814554888E+03  0.85962674844E+03  0.10141695102E+04  0.00000000000E+00 0. -1.
         -1    1    3    3    0  502 -0.11058706232E+03  0.76954545881E+02  0.29221051347E+03  0.32177396518E+03  0.00000000000E+00 0.  1.
         11    1    5    5    0    0  0.21601689919E+02  0.65011131523E+00 -0.55134132325E+03  0.55176472375E+03  0.00000000000E+00 0.  1.
        -11    1    5    5    0    0 -0.54958045311E+02  0.14842693018E+02 -0.27622355143E+03  0.28202862026E+03  0.00000000000E+00 0. -1.
          1    1    6    6  503    0  0.19818994243E+03 -0.85195350740E+02 -0.16554837304E+03  0.27192602833E+03  0.00000000000E+00 0. -1.
         -1    1    6    6    0  503  0.42325262225E+03 -0.25539754835E+03 -0.23594369552E+03  0.54775917829E+03  0.00000000000E+00 0.  1.
<mgrwt>
<rscale>  0 0.29884245E+04</rscale>
<asrwt>0</asrwt>
<pdfrwt beam="1">  1        2 0.22401556E+00 0.29884245E+04</pdfrwt>
<pdfrwt beam="2">  1       -1 0.23589552E+00 0.29884245E+04</pdfrwt>
<totfact> 0.11316550E+00</totfact>
</mgrwt>
</event>
<event>
12    6  0.8914180E-008  0.2303765E+04  0.7818608E-02  0.8476438E-01
         -1   -1    0    0    0  501 -0.00000000000E+00  0.00000000000E+00  0.30554475868E+03  0.30554475868E+03  0.00000000000E+00 0.  1.
          2   -1    0    0  501    0  0.00000000000E+00 -0.00000000000E+00 -0.43425160283E+04  0.43425160283E+04  0.00000000000E+00 0. -1.
         24    2    1    2    0    0 -0.83909613496E+03  0.50861047570E+03 -0.16826833317E+04  0.19495179178E+04  0.80187140701E+02 0.  0.
        254    2    1    2    0    0  0.83909613496E+03 -0.50861047570E+03 -0.23542879380E+04  0.26985428692E+04  0.88130300251E+03 0.  0.
         23    2    4    4    0    0  0.53676264211E+03 -0.22870336865E+02 -0.18551022194E+04  0.19335382466E+04  0.92351071529E+02 0.  0.
         23    2    4    4    0    0  0.30233349285E+03 -0.48574013884E+03 -0.49918571857E+03  0.76500462257E+03  0.93255925008E+02 0.  0.
          4    1    3    3  502    0 -0.28202688016E+03  0.16166569420E+03 -0.48610107440E+03  0.58478133721E+03  0.00000000000E+00 0. -1.
         -3    1    3    3    0  502 -0.55706925480E+03  0.34694478151E+03 -0.11965822573E+04  0.13647365806E+04  0.00000000000E+00 0.  1.
         11    1    5    5    0    0  0.10782442037E+03 -0.84364205035E+01 -0.52078147523E+03  0.53189343271E+03  0.00000000000E+00 0. -1.
        -11    1    5    5    0    0  0.42893822173E+03 -0.14433916362E+02 -0.13343207442E+04  0.14016448139E+04  0.00000000000E+00 0.  1.
          3    1    6    6  503    0 -0.40326913112E+01 -0.51338283878E+00 -0.10529733690E+02  0.11287225201E+02  0.00000000000E+00 0. -1.
         -3    1    6    6    0  503  0.30636618416E+03 -0.48522675600E+03 -0.48865598488E+03  0.75371739737E+03  0.00000000000E+00 0.  1.
<mgrwt>
<rscale>  0 0.23037648E+04</rscale>
<asrwt>0</asrwt>
<pdfrwt beam="1">  1        2 0.66807938E+00 0.23037648E+04</pdfrwt>
<pdfrwt beam="2">  1       -1 0.47006887E-01 0.23037648E+04</pdfrwt>
<totfact> 0.81405211E-01</totfact>
</mgrwt>
</event>
<event>
12    6  0.8914180E-008  0.1253449E+04  0.7818608E-02  0.9067317E-01
         -1   -1    0    0    0  501 -0.00000000000E+00  0.00000000000E+00  0.15191681457E+04  0.15191681457E+04  0.00000000000E+00 0.  1.
          2   -1    0    0  501    0  0.00000000000E+00 -0.00000000000E+00 -0.25855178776E+03  0.25855178776E+03  0.00000000000E+00 0. -1.
         24    2    1    2    0    0  0.12427218962E+03 -0.38615080371E+02 -0.82667551754E+02  0.17367546773E+03  0.79965882923E+02 0.  0.
        254    2    1    2    0    0 -0.12427218962E+03  0.38615080371E+02  0.13432839097E+04  0.16040444658E+04  0.86695575692E+03 0.  0.
         23    2    4    4    0    0 -0.35087397811E+03  0.11988224186E+03  0.19753993265E+03  0.42971052240E+03  0.90248588051E+02 0.  0.
         23    2    4    4    0    0  0.22660178848E+03 -0.81267161493E+02  0.11457439771E+04  0.11743339434E+04  0.91532657701E+02 0.  0.
          2    1    3    3  502    0  0.10777603865E+03 -0.18244333992E+00 -0.74614054772E+02  0.13108380892E+03  0.00000000000E+00 0. -1.
         -1    1    3    3    0  502  0.16496150977E+02 -0.38432637032E+02 -0.80534969817E+01  0.42591658806E+02  0.00000000000E+00 0.  1.
         11    1    5    5    0    0  0.33531206051E+01  0.55669713634E+01  0.12383022629E+02  0.13984771624E+02  0.00000000000E+00 0.  1.
        -11    1    5    5    0    0 -0.35422709871E+03  0.11431527050E+03  0.18515691002E+03  0.41572575078E+03  0.00000000000E+00 0. -1.
          2    1    6    6  503    0  0.23456261441E+03 -0.79711062308E+02  0.11270445299E+04  0.11539509721E+04  0.00000000000E+00 0. -1.
         -2    1    6    6    0  503 -0.79608259281E+01 -0.15560991852E+01  0.18699447149E+02  0.20382971271E+02  0.00000000000E+00 0.  1.
<mgrwt>
<rscale>  0 0.12534491E+04</rscale>
<asrwt>0</asrwt>
<pdfrwt beam="1">  1        2 0.39777199E-01 0.12534491E+04</pdfrwt>
<pdfrwt beam="2">  1       -1 0.23371817E+00 0.12534491E+04</pdfrwt>
<totfact> 0.13044526E+01</totfact>
</mgrwt>
</event>
<event>
12    6  0.8914180E-008  0.4441398E+04  0.7818608E-02  0.7920977E-01
          2   -1    0    0  501    0  0.00000000000E+00  0.00000000000E+00  0.21672194675E+04  0.21672194675E+04  0.00000000000E+00 0. -1.
         -1   -1    0    0    0  501 -0.00000000000E+00 -0.00000000000E+00 -0.22754978689E+04  0.22754978689E+04  0.00000000000E+00 0.  1.
         24    2    1    2    0    0 -0.12638327422E+03  0.19264364414E+04  0.84360192985E+03  0.21084074525E+04  0.81164493054E+02 0.  0.
        254    2    1    2    0    0  0.12638327422E+03 -0.19264364414E+04 -0.95188033126E+03  0.23343098839E+04  0.90321446765E+03 0.  0.
         23    2    4    4    0    0 -0.14810414737E+03 -0.17380931290E+04 -0.95195644709E+03  0.19893291875E+04  0.91142610719E+02 0.  0.
         23    2    4    4    0    0  0.27448742160E+03 -0.18834331236E+03  0.76115824525E-01  0.34498069645E+03  0.90526941853E+02 0.  0.
          4    1    3    3  502    0 -0.22782256014E+02  0.62511083527E+03  0.23709413789E+03  0.66895158104E+03  0.00000000000E+00 0. -1.
         -3    1    3    3    0  502 -0.10360101821E+03  0.13013256061E+04  0.60650779195E+03  0.14394558714E+04  0.00000000000E+00 0.  1.
         11    1    5    5    0    0 -0.39540715791E+01 -0.85966103703E+02 -0.25818655201E+02  0.89846583821E+02  0.00000000000E+00 0.  1.
        -11    1    5    5    0    0 -0.14415007579E+03 -0.16521270253E+04 -0.92613779189E+03  0.18994826037E+04  0.00000000000E+00 0. -1.
          1    1    6    6  503    0  0.15649962789E+03 -0.12377929705E+03  0.42385520598E+02  0.20398524521E+03  0.00000000000E+00 0. -1.
         -1    1    6    6    0  503  0.11798779370E+03 -0.64564015318E+02 -0.42309404773E+02  0.14099545124E+03  0.00000000000E+00 0.  1.
<mgrwt>
<rscale>  0 0.44413977E+04</rscale>
<asrwt>0</asrwt>
<pdfrwt beam="1">  1        2 0.33341838E+00 0.44413977E+04</pdfrwt>
<pdfrwt beam="2">  1       -1 0.35007660E+00 0.44413977E+04</pdfrwt>
<totfact> 0.72419999E-02</totfact>
</mgrwt>
</event>
<event>
12    6  0.8914180E-008  0.1629678E+04  0.7818608E-02  0.8802520E-01
         -1   -1    0    0    0  501 -0.00000000000E+00  0.00000000000E+00  0.52054384683E+03  0.52054384683E+03  0.00000000000E+00 0.  1.
          2   -1    0    0  501    0  0.00000000000E+00 -0.00000000000E+00 -0.12755178733E+04  0.12755178733E+04  0.00000000000E+00 0. -1.
         24    2    1    2    0    0  0.34260805992E+03  0.41909805104E+03 -0.71794392262E+02  0.55035491149E+03  0.68648632434E+02 0.  0.
        254    2    1    2    0    0 -0.34260805992E+03 -0.41909805104E+03 -0.68317963419E+03  0.12457068086E+04  0.88995931444E+03 0.  0.
         23    2    4    4    0    0  0.15827132672E+01 -0.62450813582E+03 -0.44225813924E+03  0.76939358259E+03  0.79757799056E+02 0.  0.
         23    2    4    4    0    0 -0.34419077319E+03  0.20541008478E+03 -0.24092149495E+03  0.47631322603E+03  0.90390991167E+02 0.  0.
          4    1    3    3  502    0  0.22806093609E+03  0.27787219089E+03 -0.80217374745E+02  0.36831993192E+03  0.00000000000E+00 0. -1.
         -3    1    3    3    0  502  0.11454712383E+03  0.14122586016E+03  0.84229824833E+01  0.18203497958E+03  0.00000000000E+00 0.  1.
         11    1    5    5    0    0 -0.12325629501E+02 -0.22325842970E+03 -0.20310404843E+03  0.30207201470E+03  0.00000000000E+00 0.  1.
        -11    1    5    5    0    0  0.13908342768E+02 -0.40124970612E+03 -0.23915409081E+03  0.46732156789E+03  0.00000000000E+00 0. -1.
          3    1    6    6  503    0 -0.17705800542E+03  0.62474835417E+02 -0.14075311941E+03  0.23465737356E+03  0.00000000000E+00 0. -1.
         -3    1    6    6    0  503 -0.16713276777E+03  0.14293524937E+03 -0.10016837553E+03  0.24165585247E+03  0.00000000000E+00 0.  1.
<mgrwt>
<rscale>  0 0.16296785E+04</rscale>
<asrwt>0</asrwt>
<pdfrwt beam="1">  1        2 0.19623352E+00 0.16296785E+04</pdfrwt>
<pdfrwt beam="2">  1       -1 0.80083668E-01 0.16296785E+04</pdfrwt>
<totfact> 0.29008997E+01</totfact>
</mgrwt>
</event>
<event>
12    6  0.8914180E-008  0.1694412E+04  0.7818608E-02  0.8764558E-01
         -1   -1    0    0    0  501 -0.00000000000E+00  0.00000000000E+00  0.40514367443E+03  0.40514367443E+03  0.00000000000E+00 0.  1.
          2   -1    0    0  501    0  0.00000000000E+00 -0.00000000000E+00 -0.17716132862E+04  0.17716132862E+04  0.00000000000E+00 0. -1.
         24    2    1    2    0    0 -0.48421843620E+03 -0.84252910796E+02 -0.40816994995E+02  0.49961978842E+03  0.79924082538E+02 0.  0.
        254    2    1    2    0    0  0.48421843620E+03  0.84252910796E+02 -0.13256526168E+04  0.16771371722E+04  0.90214643328E+03 0.  0.
         23    2    4    4    0    0  0.55891102298E+03 -0.36920994695E+02 -0.30880495812E+03  0.64597890661E+03  0.90462998883E+02 0.  0.
         23    2    4    4    0    0 -0.74692586782E+02  0.12117390549E+03 -0.10168476587E+04  0.10311582656E+04  0.95111039781E+02 0.  0.
          2    1    3    3  502    0 -0.32503963597E+03 -0.45242927173E+02 -0.63217754651E+02  0.33420678017E+03  0.00000000000E+00 0. -1.
         -1    1    3    3    0  502 -0.15917880023E+03 -0.39009983623E+02  0.22400759656E+02  0.16541300825E+03  0.00000000000E+00 0.  1.
         11    1    5    5    0    0  0.44250035106E+03  0.69795332027E+01 -0.23064570509E+03  0.49905181680E+03  0.00000000000E+00 0.  1.
        -11    1    5    5    0    0  0.11641067192E+03 -0.43900527898E+02 -0.78159253026E+02  0.14692708981E+03  0.00000000000E+00 0. -1.
          2    1    6    6  503    0 -0.88961415303E+02  0.11024523898E+03 -0.72218110105E+03  0.73594407997E+03  0.00000000000E+00 0. -1.
         -2    1    6    6    0  503  0.14268828522E+02  0.10928666507E+02 -0.29466655760E+03  0.29521418561E+03  0.00000000000E+00 0.  1.
<mgrwt>
<rscale>  0 0.16944119E+04</rscale>
<asrwt>0</asrwt>
<pdfrwt beam="1">  1        2 0.27255589E+00 0.16944119E+04</pdfrwt>
<pdfrwt beam="2">  1       -1 0.62329796E-01 0.16944119E+04</pdfrwt>
<totfact> 0.25330954E+01</totfact>
</mgrwt>
</event>
<event>
12    6  0.8914180E-008  0.1469206E+04  0.7818608E-02  0.8905193E-01
          2   -1    0    0  501    0  0.00000000000E+00  0.00000000000E+00  0.20723680640E+04  0.20723680640E+04  0.00000000000E+00 0. -1.
         -1   -1    0    0    0  501 -0.00000000000E+00 -0.00000000000E+00 -0.26039851746E+03  0.26039851746E+03  0.00000000000E+00 0.  1.
         24    2    1    2    0    0  0.10579778489E+03 -0.21139702290E+02 -0.13188455078E+03  0.18813973046E+03  0.79768196308E+02 0.  0.
        254    2    1    2    0    0 -0.10579778489E+03  0.21139702290E+02  0.19438540973E+04  0.21446268510E+04  0.89956407221E+03 0.  0.
         23    2    4    4    0    0 -0.46950377782E+03  0.12179186959E+03  0.83506190656E+03  0.96994963464E+03  0.90591661139E+02 0.  0.
         23    2    4    4    0    0  0.36370599293E+03 -0.10065216730E+03  0.11087921907E+04  0.11746772163E+04  0.89629974012E+02 0.  0.
          2    1    3    3  502    0  0.12371095958E+02 -0.25913650931E+02 -0.29830184570E+01  0.28869702438E+02  0.00000000000E+00 0. -1.
         -1    1    3    3    0  502  0.93426688930E+02  0.47739486404E+01 -0.12890153233E+03  0.15927002802E+03  0.00000000000E+00 0.  1.
         11    1    5    5    0    0 -0.45214191127E+03  0.97076419274E+02  0.76955200392E+03  0.89781202144E+03  0.00000000000E+00 0. -1.
        -11    1    5    5    0    0 -0.17361866551E+02  0.24715450317E+02  0.65509902642E+02  0.72137613203E+02  0.00000000000E+00 0.  1.
          3    1    6    6  503    0  0.26169186001E+03 -0.46549079750E+02  0.66613603576E+03  0.71720754636E+03  0.00000000000E+00 0. -1.
         -3    1    6    6    0  503  0.10201413292E+03 -0.54103087550E+02  0.44265615496E+03  0.45746966995E+03  0.00000000000E+00 0.  1.
<mgrwt>
<rscale>  0 0.14692060E+04</rscale>
<asrwt>0</asrwt>
<pdfrwt beam="1">  1        2 0.31882585E+00 0.14692060E+04</pdfrwt>
<pdfrwt beam="2">  1       -1 0.40061312E-01 0.14692060E+04</pdfrwt>
<totfact> 0.40820404E+01</totfact>
</mgrwt>
</event>
<event>
12    6  0.8914180E-008  0.1455373E+04  0.7818608E-02  0.8914684E-01
         -1   -1    0    0    0  501 -0.00000000000E+00  0.00000000000E+00  0.23307757478E+03  0.23307757478E+03  0.00000000000E+00 0.  1.
          2   -1    0    0  501    0  0.00000000000E+00 -0.00000000000E+00 -0.22718939030E+04  0.22718939030E+04  0.00000000000E+00 0. -1.
         24    2    1    2    0    0  0.53031631058E+01 -0.27676427293E+03 -0.27984280794E+02  0.29090188905E+03  0.84936463160E+02 0.  0.
        254    2    1    2    0    0 -0.53031631058E+01  0.27676427293E+03 -0.20108320474E+04  0.22140695887E+04  0.88432575131E+03 0.  0.
         23    2    4    4    0    0  0.10244945477E+03 -0.26572827267E+03 -0.11447846167E+04  0.11831925677E+04  0.91134120095E+02 0.  0.
         23    2    4    4    0    0 -0.10775261787E+03  0.54249254560E+03 -0.86604743070E+03  0.10308770210E+04  0.82222208643E+02 0.  0.
          2    1    3    3  502    0 -0.93376089205E+01 -0.13588418612E+03 -0.54677633898E+02  0.14676970609E+03  0.00000000000E+00 0. -1.
         -1    1    3    3    0  502  0.14640772026E+02 -0.14088008681E+03  0.26693353105E+02  0.14413218296E+03  0.00000000000E+00 0.  1.
         11    1    5    5    0    0  0.68846951296E+02 -0.18736018233E+03 -0.61479139219E+03  0.64638393895E+03  0.00000000000E+00 0.  1.
        -11    1    5    5    0    0  0.33602503471E+02 -0.78368090338E+02 -0.52999322452E+03  0.53680862871E+03  0.00000000000E+00 0. -1.
          3    1    6    6  503    0 -0.23335217087E+01  0.21287195077E+02 -0.11286193709E+02  0.24206779345E+02  0.00000000000E+00 0. -1.
         -3    1    6    6    0  503 -0.10541909616E+03  0.52120535052E+03 -0.85476123700E+03  0.10066702417E+04  0.00000000000E+00 0.  1.
<mgrwt>
<rscale>  0 0.14553728E+04</rscale>
<asrwt>0</asrwt>
<pdfrwt beam="1">  1        2 0.34952213E+00 0.14553728E+04</pdfrwt>
<pdfrwt beam="2">  1       -1 0.35858089E-01 0.14553728E+04</pdfrwt>
<totfact> 0.38640521E+01</totfact>
</mgrwt>
</event>
<event>
12    6  0.8914180E-008  0.1239117E+04  0.7818608E-02  0.9079290E-01
          2   -1    0    0  501    0  0.00000000000E+00  0.00000000000E+00  0.22352527093E+04  0.22352527093E+04  0.00000000000E+00 0. -1.
         -1   -1    0    0    0  501 -0.00000000000E+00 -0.00000000000E+00 -0.17172667519E+03  0.17172667519E+03  0.00000000000E+00 0.  1.
         24    2    1    2    0    0  0.78956445208E+02  0.97662343774E+02  0.10035498288E+04  0.10152712271E+04  0.88833282878E+02 0.  0.
        254    2    1    2    0    0 -0.78956445208E+02 -0.97662343774E+02  0.10599762053E+04  0.13917081574E+04  0.89304534363E+03 0.  0.
         23    2    4    4    0    0 -0.31252498894E+03 -0.22220232359E+03  0.10384386544E+04  0.11112008964E+04  0.96782497562E+02 0.  0.
         23    2    4    4    0    0  0.23356854373E+03  0.12453997982E+03  0.21537550872E+02  0.28050726094E+03  0.90310498555E+02 0.  0.
          4    1    3    3  502    0  0.14818429620E+02  0.61090995969E+02  0.70221887322E+03  0.70502697931E+03  0.00000000000E+00 0. -1.
         -3    1    3    3    0  502  0.64138015588E+02  0.36571347806E+02  0.30133095558E+03  0.31024424784E+03  0.00000000000E+00 0.  1.
         11    1    5    5    0    0 -0.52897864929E+02  0.64404558285E+00  0.15773564174E+03  0.16637046488E+03  0.00000000000E+00 0.  1.
        -11    1    5    5    0    0 -0.25962712401E+03 -0.22284636917E+03  0.88070301271E+03  0.94483043154E+03  0.00000000000E+00 0. -1.
          3    1    6    6  503    0  0.21656595246E+03  0.13766988441E+03  0.11718388350E+02  0.25688738674E+03  0.00000000000E+00 0. -1.
         -3    1    6    6    0  503  0.17002591266E+02 -0.13129904598E+02  0.98191625220E+01  0.23619874198E+02  0.00000000000E+00 0.  1.
<mgrwt>
<rscale>  0 0.12391166E+04</rscale>
<asrwt>0</asrwt>
<pdfrwt beam="1">  1        2 0.34388501E+00 0.12391166E+04</pdfrwt>
<pdfrwt beam="2">  1       -1 0.26419490E-01 0.12391166E+04</pdfrwt>
<totfact> 0.70631711E+01</totfact>
</mgrwt>
</event>
<event>
12    6  0.8914180E-008  0.2360507E+04  0.7818608E-02  0.8454439E-01
         -1   -1    0    0    0  501 -0.00000000000E+00  0.00000000000E+00  0.84704812117E+03  0.84704812117E+03  0.00000000000E+00 0.  1.
          2   -1    0    0  501    0  0.00000000000E+00 -0.00000000000E+00 -0.16445327592E+04  0.16445327592E+04  0.00000000000E+00 0. -1.
         24    2    1    2    0    0  0.64933906813E+03 -0.53552857626E+03 -0.93062555856E+03  0.12573590031E+04  0.80347065947E+02 0.  0.
        254    2    1    2    0    0 -0.64933906813E+03  0.53552857626E+03  0.13314092057E+03  0.12342218772E+04  0.89282980245E+03 0.  0.
         23    2    4    4    0    0 -0.18747749071E+03  0.86906875024E+02 -0.35648140424E+03  0.42023213188E+03  0.82555669947E+02 0.  0.
         23    2    4    4    0    0 -0.46186157742E+03  0.44862170124E+03  0.48962232482E+03  0.81398974537E+03  0.90949090617E+02 0.  0.
          4    1    3    3  502    0  0.15154381833E+03 -0.10534655192E+03 -0.16168751181E+03  0.24536967284E+03  0.00000000000E+00 0. -1.
         -3    1    3    3    0  502  0.49779524980E+03 -0.43018202434E+03 -0.76893804675E+03  0.10119893302E+04  0.00000000000E+00 0.  1.
         11    1    5    5    0    0 -0.19094392763E+03  0.93938166817E+02 -0.35164516357E+03  0.41102102591E+03  0.00000000000E+00 0.  1.
        -11    1    5    5    0    0  0.34664369180E+01 -0.70312917929E+01 -0.48362406782E+01  0.92111059641E+01  0.00000000000E+00 0. -1.
          1    1    6    6  503    0 -0.35611619937E+03  0.34291236074E+03  0.32518489814E+03  0.59173714821E+03  0.00000000000E+00 0. -1.
         -1    1    6    6    0  503 -0.10574537805E+03  0.10570934050E+03  0.16443742668E+03  0.22225259715E+03  0.00000000000E+00 0.  1.
<mgrwt>
<rscale>  0 0.23605071E+04</rscale>
<asrwt>0</asrwt>
<pdfrwt beam="1">  1        2 0.25300504E+00 0.23605071E+04</pdfrwt>
<pdfrwt beam="2">  1       -1 0.13031510E+00 0.23605071E+04</pdfrwt>
<totfact> 0.54529840E+00</totfact>
</mgrwt>
</event>
<event>
12    6  0.8914180E-008  0.1578314E+04  0.7818608E-02  0.8833982E-01
         -1   -1    0    0    0  501 -0.00000000000E+00  0.00000000000E+00  0.81383901776E+03  0.81383901776E+03  0.00000000000E+00 0.  1.
          2   -1    0    0  501    0  0.00000000000E+00 -0.00000000000E+00 -0.76522342696E+03  0.76522342696E+03  0.00000000000E+00 0. -1.
         24    2    1    2    0    0 -0.55240767402E+02  0.40517410186E+03 -0.14691160193E+03  0.44237406209E+03  0.83031300311E+02 0.  0.
        254    2    1    2    0    0  0.55240767402E+02 -0.40517410186E+03  0.19552719274E+03  0.11366883826E+04  0.10424068308E+04 0.  0.
         23    2    4    4    0    0 -0.21527530574E+03  0.15109599567E+03  0.39250774756E+03  0.48098371245E+03  0.90052998706E+02 0.  0.
         23    2    4    4    0    0  0.27051607315E+03 -0.55627009752E+03 -0.19698055482E+03  0.65570467018E+03  0.92368329446E+02 0.  0.
          2    1    3    3  502    0  0.13170418613E+02  0.18586413141E+02  0.10987809036E+01  0.22806183358E+02  0.00000000000E+00 0. -1.
         -1    1    3    3    0  502 -0.68411186015E+02  0.38658768872E+03 -0.14801038284E+03  0.41956787873E+03  0.00000000000E+00 0.  1.
         11    1    5    5    0    0 -0.19408544132E+03  0.94078846089E+02  0.28436925672E+03  0.35691156045E+03  0.00000000000E+00 0. -1.
        -11    1    5    5    0    0 -0.21189864419E+02  0.57017149578E+02  0.10813849084E+03  0.12407215200E+03  0.00000000000E+00 0.  1.
          1    1    6    6  503    0  0.25183756364E+03 -0.53864689433E+03 -0.20474823730E+03  0.62887556473E+03  0.00000000000E+00 0. -1.
         -1    1    6    6    0  503  0.18678509506E+02 -0.17623203192E+02  0.77676824796E+01  0.26829105449E+02  0.00000000000E+00 0.  1.
<mgrwt>
<rscale>  0 0.15783139E+04</rscale>
<asrwt>0</asrwt>
<pdfrwt beam="1">  1        2 0.11772668E+00 0.15783139E+04</pdfrwt>
<pdfrwt beam="2">  1       -1 0.12520600E+00 0.15783139E+04</pdfrwt>
<totfact> 0.22334154E+01</totfact>
</mgrwt>
</event>
<event>
12    6  0.8914180E-008  0.1426250E+04  0.7818608E-02  0.8935034E-01
         -1   -1    0    0    0  501 -0.00000000000E+00  0.00000000000E+00  0.28469416371E+03  0.28469416371E+03  0.00000000000E+00 0.  1.
          2   -1    0    0  501    0  0.00000000000E+00 -0.00000000000E+00 -0.17862921482E+04  0.17862921482E+04  0.00000000000E+00 0. -1.
         24    2    1    2    0    0 -0.92705436430E+02 -0.16761419751E+03  0.90186961672E+02  0.22748623226E+03  0.83231488401E+02 0.  0.
        254    2    1    2    0    0  0.92705436430E+02  0.16761419751E+03 -0.15917849461E+04  0.18435000796E+04  0.90995846700E+03 0.  0.
         23    2    4    4    0    0  0.43573134398E+03  0.21386836205E+03 -0.12688782169E+04  0.13615471361E+04  0.90317185636E+02 0.  0.
         23    2    4    4    0    0 -0.34302590755E+03 -0.46254164536E+02 -0.32290672923E+03  0.48195294354E+03  0.90574074734E+02 0.  0.
          2    1    3    3  502    0 -0.64585235808E+02 -0.57128540445E+02  0.73047365300E+01  0.86534859990E+02  0.00000000000E+00 0. -1.
         -1    1    3    3    0  502 -0.28120200622E+02 -0.11048565707E+03  0.82882225142E+02  0.14095137227E+03  0.00000000000E+00 0.  1.
         11    1    5    5    0    0  0.24422156218E+03  0.16827619906E+03 -0.74026161298E+03  0.79746367081E+03  0.00000000000E+00 0. -1.
        -11    1    5    5    0    0  0.19150978181E+03  0.45592162991E+02 -0.52861660391E+03  0.56408346526E+03  0.00000000000E+00 0.  1.
          2    1    6    6  503    0 -0.26282124013E+03 -0.70867175991E+02 -0.26586702764E+03  0.38050287421E+03  0.00000000000E+00 0. -1.
         -2    1    6    6    0  503 -0.80204667420E+02  0.24613011455E+02 -0.57039701594E+02  0.10145006933E+03  0.00000000000E+00 0.  1.
<mgrwt>
<rscale>  0 0.14262496E+04</rscale>
<asrwt>0</asrwt>
<pdfrwt beam="1">  1        2 0.27481418E+00 0.14262496E+04</pdfrwt>
<pdfrwt beam="2">  1       -1 0.43799102E-01 0.14262496E+04</pdfrwt>
<totfact> 0.50061161E+01</totfact>
</mgrwt>
</event>
<event>
12    6  0.8914180E-008  0.2888111E+04  0.7818608E-02  0.8276424E-01
         -1   -1    0    0    0  501 -0.00000000000E+00  0.00000000000E+00  0.98426788769E+03  0.98426788769E+03  0.00000000000E+00 0.  1.
          2   -1    0    0  501    0  0.00000000000E+00 -0.00000000000E+00 -0.21186266649E+04  0.21186266649E+04  0.00000000000E+00 0. -1.
         24    2    1    2    0    0 -0.39957009747E+03  0.76398210032E+03 -0.15557419222E+04  0.17804267950E+04  0.79131102643E+02 0.  0.
        254    2    1    2    0    0  0.39957009747E+03 -0.76398210032E+03  0.42138314493E+03  0.13224677577E+04  0.90996280298E+03 0.  0.
         23    2    4    4    0    0  0.13859923832E+03 -0.73225697379E+03  0.62548633587E+03  0.97716578077E+03  0.90607848509E+02 0.  0.
         23    2    4    4    0    0  0.26097085915E+03 -0.31725126535E+02 -0.20410319094E+03  0.34530197689E+03  0.91994943968E+02 0.  0.
          2    1    3    3  502    0 -0.86708424465E+02  0.17172074560E+03 -0.28305174701E+03  0.34223479780E+03  0.00000000000E+00 0. -1.
         -1    1    3    3    0  502 -0.31286167300E+03  0.59226135473E+03 -0.12726901752E+04  0.14381919972E+04  0.00000000000E+00 0.  1.
         11    1    5    5    0    0  0.61439941161E+02 -0.32137554307E+03  0.33369499509E+03  0.46734297448E+03  0.00000000000E+00 0. -1.
        -11    1    5    5    0    0  0.77159297159E+02 -0.41088143072E+03  0.29179134079E+03  0.50982280628E+03  0.00000000000E+00 0.  1.
          4    1    6    6  503    0  0.25269555370E+03 -0.31887269767E+02 -0.16079291101E+03  0.30120790339E+03  0.00000000000E+00 0. -1.
         -4    1    6    6    0  503  0.82753054510E+01  0.16214323201E+00 -0.43310279929E+02  0.44094073505E+02  0.00000000000E+00 0.  1.
<mgrwt>
<rscale>  0 0.28881109E+04</rscale>
<asrwt>0</asrwt>
<pdfrwt beam="1">  1        2 0.32594256E+00 0.28881109E+04</pdfrwt>
<pdfrwt beam="2">  1       -1 0.15142583E+00 0.28881109E+04</pdfrwt>
<totfact> 0.19167634E+00</totfact>
</mgrwt>
</event>
<event>
12    6  0.8914180E-008  0.2102810E+04  0.7818608E-02  0.8560007E-01
         -1   -1    0    0    0  501 -0.00000000000E+00  0.00000000000E+00  0.71674188498E+03  0.71674188498E+03  0.00000000000E+00 0.  1.
          2   -1    0    0  501    0  0.00000000000E+00 -0.00000000000E+00 -0.15423296252E+04  0.15423296252E+04  0.00000000000E+00 0. -1.
         24    2    1    2    0    0 -0.32226443679E+03  0.28352349646E+03  0.45864804675E+03  0.63321418615E+03  0.79763616344E+02 0.  0.
        254    2    1    2    0    0  0.32226443679E+03 -0.28352349646E+03 -0.12842357869E+04  0.16258573240E+04  0.89995029932E+03 0.  0.
         23    2    4    4    0    0  0.14872647760E+03 -0.94263610812E+02 -0.13341826234E+04  0.13490613083E+04  0.94434885552E+02 0.  0.
         23    2    4    4    0    0  0.17353795919E+03 -0.18925988565E+03  0.49946836467E+02  0.27679601565E+03  0.90479943684E+02 0.  0.
          2    1    3    3  502    0 -0.40032981800E+02  0.26894592395E+02  0.20850351314E+02  0.52542324671E+02  0.00000000000E+00 0. -1.
         -1    1    3    3    0  502 -0.28223145499E+03  0.25662890406E+03  0.43779769544E+03  0.58067186148E+03  0.00000000000E+00 0.  1.
         11    1    5    5    0    0  0.10858231380E+03 -0.84978414582E+02 -0.69460847672E+03  0.70816127100E+03  0.00000000000E+00 0.  1.
        -11    1    5    5    0    0  0.40144163798E+02 -0.92851962299E+01 -0.63957414668E+03  0.64090003733E+03  0.00000000000E+00 0. -1.
          3    1    6    6  503    0  0.49801399352E+02 -0.92152680218E+02 -0.16509597862E+02  0.10604179681E+03  0.00000000000E+00 0. -1.
         -3    1    6    6    0  503  0.12373655984E+03 -0.97107205430E+02  0.66456434330E+02  0.17075421884E+03  0.00000000000E+00 0.  1.
<mgrwt>
<rscale>  0 0.21028098E+04</rscale>
<asrwt>0</asrwt>
<pdfrwt beam="1">  1        2 0.23728148E+00 0.21028098E+04</pdfrwt>
<pdfrwt beam="2">  1       -1 0.11026798E+00 0.21028098E+04</pdfrwt>
<totfact> 0.95690331E+00</totfact>
</mgrwt>
</event>
<event>
12    6  0.8914180E-008  0.2052215E+04  0.7818608E-02  0.8582590E-01
          2   -1    0    0  501    0  0.00000000000E+00  0.00000000000E+00  0.16361329378E+04  0.16361329378E+04  0.00000000000E+00 0. -1.
         -1   -1    0    0    0  501 -0.00000000000E+00 -0.00000000000E+00 -0.64352760234E+03  0.64352760234E+03  0.00000000000E+00 0.  1.
         24    2    1    2    0    0  0.98652800265E+02 -0.81685605056E+03  0.48486461531E+03  0.95843448574E+03  0.80726612310E+02 0.  0.
        254    2    1    2    0    0 -0.98652800265E+02  0.81685605056E+03  0.50774072012E+03  0.13212260544E+04  0.90047291215E+03 0.  0.
         23    2    4    4    0    0  0.31444056542E+02  0.95223744768E+02  0.56427708176E+03  0.58009860753E+03  0.89718889868E+02 0.  0.
         23    2    4    4    0    0 -0.13009685681E+03  0.72163230579E+03 -0.56536361647E+02  0.74112744683E+03  0.91625080276E+02 0.  0.
          4    1    3    3  502    0  0.65990219064E+02 -0.70886488347E+03  0.39479203824E+03  0.81406688023E+03  0.00000000000E+00 0. -1.
         -3    1    3    3    0  502  0.32662581201E+02 -0.10799116709E+03  0.90072577071E+02  0.14436760551E+03  0.00000000000E+00 0.  1.
         11    1    5    5    0    0  0.78863964705E+01  0.10219987848E+03  0.51422250342E+03  0.52433938764E+03  0.00000000000E+00 0. -1.
        -11    1    5    5    0    0  0.23557660072E+02 -0.69761337112E+01  0.50054578343E+02  0.55759219890E+02  0.00000000000E+00 0.  1.
          4    1    6    6  503    0  0.74776670418E+01  0.13247250850E+03 -0.26967647765E+02  0.13539621501E+03  0.00000000000E+00 0. -1.
         -4    1    6    6    0  503 -0.13757452385E+03  0.58915979730E+03 -0.29568713882E+02  0.60573123182E+03  0.00000000000E+00 0.  1.
<mgrwt>
<rscale>  0 0.20522151E+04</rscale>
<asrwt>0</asrwt>
<pdfrwt beam="1">  1        2 0.25171276E+00 0.20522151E+04</pdfrwt>
<pdfrwt beam="2">  1       -1 0.99004247E-01 0.20522151E+04</pdfrwt>
<totfact> 0.10938589E+01</totfact>
</mgrwt>
</event>
<event>
12    6  0.8914180E-008  0.1814383E+04  0.7818608E-02  0.8698688E-01
         -1   -1    0    0    0  501 -0.00000000000E+00  0.00000000000E+00  0.72534746077E+03  0.72534746077E+03  0.00000000000E+00 0.  1.
          2   -1    0    0  501    0  0.00000000000E+00 -0.00000000000E+00 -0.11346235002E+04  0.11346235002E+04  0.00000000000E+00 0. -1.
         24    2    1    2    0    0  0.42064609423E+03  0.33206732155E+03 -0.58826070468E+03  0.80002379073E+03  0.82313828915E+02 0.  0.
        254    2    1    2    0    0 -0.42064609423E+03 -0.33206732155E+03  0.17898466521E+03  0.10599471703E+04  0.89679465361E+03 0.  0.
         23    2    4    4    0    0  0.23243335768E+03  0.74928853843E+02 -0.18237884912E+02  0.26017942491E+03  0.87869868546E+02 0.  0.
         23    2    4    4    0    0 -0.65307945192E+03 -0.40699617539E+03  0.19722255013E+03  0.79976774536E+03  0.92590792939E+02 0.  0.
          2    1    3    3  502    0  0.22814368476E+03  0.20962134265E+03 -0.38743441890E+03  0.49608071635E+03  0.00000000000E+00 0. -1.
         -1    1    3    3    0  502  0.19250240947E+03  0.12244597890E+03 -0.20082628578E+03  0.30394307438E+03  0.00000000000E+00 0.  1.
         11    1    5    5    0    0  0.66171081950E+02  0.37700360436E+02 -0.43860242078E+02  0.87884299500E+02  0.00000000000E+00 0. -1.
        -11    1    5    5    0    0  0.16626227573E+03  0.37228493407E+02  0.25622357166E+02  0.17229512541E+03  0.00000000000E+00 0.  1.
          3    1    6    6  503    0 -0.30528815958E+03 -0.20939028611E+03  0.13953907945E+03  0.39562141877E+03  0.00000000000E+00 0. -1.
         -3    1    6    6    0  503 -0.34779129234E+03 -0.19760588928E+03  0.57683470678E+02  0.40414632659E+03  0.00000000000E+00 0.  1.
<mgrwt>
<rscale>  0 0.18143828E+04</rscale>
<asrwt>0</asrwt>
<pdfrwt beam="1">  1        2 0.17455746E+00 0.18143828E+04</pdfrwt>
<pdfrwt beam="2">  1       -1 0.11159192E+00 0.18143828E+04</pdfrwt>
<totfact> 0.16457401E+01</totfact>
</mgrwt>
</event>
<event>
12    6  0.8914180E-008  0.2360106E+04  0.7818608E-02  0.8454592E-01
         -1   -1    0    0    0  501 -0.00000000000E+00  0.00000000000E+00  0.18526963131E+04  0.18526963131E+04  0.00000000000E+00 0.  1.
          2   -1    0    0  501    0  0.00000000000E+00 -0.00000000000E+00 -0.75162056368E+03  0.75162056368E+03  0.00000000000E+00 0. -1.
         24    2    1    2    0    0  0.55734373979E+03 -0.14568985163E+03  0.13832760519E+04  0.15006203158E+04  0.80938984739E+02 0.  0.
        254    2    1    2    0    0 -0.55734373979E+03  0.14568985163E+03 -0.28220030244E+03  0.11036965610E+04  0.89813780177E+03 0.  0.
         23    2    4    4    0    0  0.47326316268E+02 -0.24647289250E+03 -0.26632243491E+03  0.37677619601E+03  0.89688324736E+02 0.  0.
         23    2    4    4    0    0 -0.60467005606E+03  0.39216274413E+03 -0.15877867533E+02  0.72692036501E+03  0.93507303498E+02 0.  0.
          4    1    3    3  502    0  0.87621534108E+02 -0.42750675417E+02  0.29907911083E+03  0.31456870159E+03  0.00000000000E+00 0. -1.
         -3    1    3    3    0  502  0.46972220568E+03 -0.10293917621E+03  0.10841969411E+04  0.11860516142E+04  0.00000000000E+00 0.  1.
         11    1    5    5    0    0 -0.20552243529E+02 -0.11849105434E+03 -0.10179106725E+03  0.15755616790E+03  0.00000000000E+00 0. -1.
        -11    1    5    5    0    0  0.67878559797E+02 -0.12798183817E+03 -0.16453136766E+03  0.21922002811E+03  0.00000000000E+00 0.  1.
          1    1    6    6  503    0 -0.65890682768E+02  0.58448978712E+02 -0.29878693126E+02  0.93008609769E+02  0.00000000000E+00 0. -1.
         -1    1    6    6    0  503 -0.53877937329E+03  0.33371376542E+03  0.14000825594E+02  0.63391175524E+03  0.00000000000E+00 0.  1.
<mgrwt>
<rscale>  0 0.23601056E+04</rscale>
<asrwt>0</asrwt>
<pdfrwt beam="1">  1        2 0.11563393E+00 0.23601056E+04</pdfrwt>
<pdfrwt beam="2">  1       -1 0.28503020E+00 0.23601056E+04</pdfrwt>
<totfact> 0.15894265E+00</totfact>
</mgrwt>
</event>
<event>
12    6  0.8914180E-008  0.1176555E+04  0.7818608E-02  0.9133629E-01
         -3   -1    0    0    0  501 -0.00000000000E+00  0.00000000000E+00  0.78871857390E+03  0.78871857390E+03  0.00000000000E+00 0.  1.
          4   -1    0    0  501    0  0.00000000000E+00 -0.00000000000E+00 -0.43877530461E+03  0.43877530461E+03  0.00000000000E+00 0. -1.
         24    2    1    2    0    0 -0.17921547505E+03  0.14392831321E+03  0.51425839506E+01  0.24360627410E+03  0.80523442373E+02 0.  0.
        254    2    1    2    0    0  0.17921547505E+03 -0.14392831321E+03  0.34480068534E+03  0.98388760441E+03  0.89236414073E+03 0.  0.
         23    2    4    4    0    0  0.17172117563E+03  0.34261817873E+03  0.28272003586E+03  0.48486704016E+03  0.91049708396E+02 0.  0.
         23    2    4    4    0    0  0.74942994143E+01 -0.48654649194E+03  0.62080649488E+02  0.49902056426E+03  0.91563437963E+02 0.  0.
          2    1    3    3  502    0 -0.22736056923E+02  0.42155071281E+02 -0.25787862301E+02  0.54396619023E+02  0.00000000000E+00 0. -1.
         -1    1    3    3    0  502 -0.15647941812E+03  0.10177324193E+03  0.30930446251E+02  0.18920965508E+03  0.00000000000E+00 0.  1.
         11    1    5    5    0    0  0.81355537965E+02  0.72878158292E+02  0.71383649610E+02  0.13048208668E+03  0.00000000000E+00 0. -1.
        -11    1    5    5    0    0  0.90365637669E+02  0.26974002044E+03  0.21133638625E+03  0.35438495347E+03  0.00000000000E+00 0.  1.
          2    1    6    6  503    0 -0.34628492406E+02 -0.15851084397E+03  0.42444230469E+02  0.16770907203E+03  0.00000000000E+00 0. -1.
         -2    1    6    6    0  503  0.42122791820E+02 -0.32803564797E+03  0.19636419020E+02  0.33131149223E+03  0.00000000000E+00 0.  1.
<mgrwt>
<rscale>  0 0.11765547E+04</rscale>
<asrwt>0</asrwt>
<pdfrwt beam="1">  1        4 0.67503893E-01 0.11765547E+04</pdfrwt>
<pdfrwt beam="2">  1       -3 0.12134132E+00 0.11765547E+04</pdfrwt>
<totfact> 0.25213419E+00</totfact>
</mgrwt>
</event>
<event>
12    6  0.8914180E-008  0.1636770E+04  0.7818608E-02  0.8798272E-01
          2   -1    0    0  501    0  0.00000000000E+00  0.00000000000E+00  0.20383118445E+04  0.20383118445E+04  0.00000000000E+00 0. -1.
         -1   -1    0    0    0  501 -0.00000000000E+00 -0.00000000000E+00 -0.32858270324E+03  0.32858270324E+03  0.00000000000E+00 0.  1.
         24    2    1    2    0    0 -0.51403823767E+03  0.20808812167E+03  0.43828769585E+03  0.71202500418E+03  0.85717711552E+02 0.  0.
        254    2    1    2    0    0  0.51403823767E+03 -0.20808812167E+03  0.12714414454E+04  0.16548695435E+04  0.90249314728E+03 0.  0.
         23    2    4    4    0    0  0.57681328993E+03 -0.48570634026E+03  0.88244041252E+03  0.11642793121E+04  0.90669810400E+02 0.  0.
         23    2    4    4    0    0 -0.62775052266E+02  0.27761821859E+03  0.38900103286E+03  0.49059023143E+03  0.91347627888E+02 0.  0.
          2    1    3    3  502    0 -0.42239597763E+03  0.15270676254E+03  0.38883841530E+03  0.59408166986E+03  0.00000000000E+00 0. -1.
         -1    1    3    3    0  502 -0.91642260039E+02  0.55381359130E+02  0.49449280545E+02  0.11794333432E+03  0.00000000000E+00 0.  1.
         11    1    5    5    0    0  0.36303880937E+03 -0.34800108356E+03  0.62818160085E+03  0.80468258022E+03  0.00000000000E+00 0. -1.
        -11    1    5    5    0    0  0.21377448057E+03 -0.13770525670E+03  0.25425881167E+03  0.35959673187E+03  0.00000000000E+00 0.  1.
          1    1    6    6  503    0 -0.38416379147E+02  0.26849540968E+03  0.33827944040E+03  0.43358803374E+03  0.00000000000E+00 0. -1.
         -1    1    6    6    0  503 -0.24358673120E+02  0.91228089058E+01  0.50721592464E+02  0.57002197682E+02  0.00000000000E+00 0.  1.
<mgrwt>
<rscale>  0 0.16367700E+04</rscale>
<asrwt>0</asrwt>
<pdfrwt beam="1">  1        2 0.31358643E+00 0.16367700E+04</pdfrwt>
<pdfrwt beam="2">  1       -1 0.50551186E-01 0.16367700E+04</pdfrwt>
<totfact> 0.27238342E+01</totfact>
</mgrwt>
</event>
<event>
12    6  0.8914180E-008  0.1465580E+04  0.7818608E-02  0.8907670E-01
          2   -1    0    0  501    0  0.00000000000E+00  0.00000000000E+00  0.23807309073E+04  0.23807309073E+04  0.00000000000E+00 0. -1.
         -1   -1    0    0    0  501 -0.00000000000E+00 -0.00000000000E+00 -0.22555309420E+03  0.22555309420E+03  0.00000000000E+00 0.  1.
         24    2    1    2    0    0  0.72658362315E+02 -0.20560821757E+03  0.14080967705E+04  0.14264558281E+04  0.66975649609E+02 0.  0.
        254    2    1    2    0    0 -0.72658362315E+02  0.20560821757E+03  0.74708104253E+03  0.11798281733E+04  0.88674148304E+03 0.  0.
         23    2    4    4    0    0 -0.44657810579E+03  0.93365599142E+02  0.58489536140E+03  0.74749527915E+03  0.92181716767E+02 0.  0.
         23    2    4    4    0    0  0.37391974347E+03  0.11224261843E+03  0.16218568113E+03  0.43233289418E+03  0.90516055336E+02 0.  0.
          2    1    3    3  502    0  0.62848045212E+02 -0.20454638471E+03  0.13835508458E+04  0.14000007297E+04  0.00000000000E+00 0. -1.
         -1    1    3    3    0  502  0.98103171031E+01 -0.10618328623E+01  0.24545924756E+02  0.26455098428E+02  0.00000000000E+00 0.  1.
         11    1    5    5    0    0 -0.33895441223E+03  0.11041938279E+03  0.44831482633E+03  0.57277283208E+03  0.00000000000E+00 0.  1.
        -11    1    5    5    0    0 -0.10762369355E+03 -0.17053783652E+02  0.13658053507E+03  0.17472244707E+03  0.00000000000E+00 0. -1.
          4    1    6    6  503    0  0.11277598142E+03  0.70723583545E+02  0.80564710458E+02  0.15559858555E+03  0.00000000000E+00 0. -1.
         -4    1    6    6    0  503  0.26114376205E+03  0.41519034885E+02  0.81620970673E+02  0.27673430862E+03  0.00000000000E+00 0.  1.
<mgrwt>
<rscale>  0 0.14655801E+04</rscale>
<asrwt>0</asrwt>
<pdfrwt beam="1">  1        2 0.36626628E+00 0.14655801E+04</pdfrwt>
<pdfrwt beam="2">  1       -1 0.34700478E-01 0.14655801E+04</pdfrwt>
<totfact> 0.35532078E+01</totfact>
</mgrwt>
</event>
<event>
12    6  0.8914180E-008  0.2112808E+04  0.7818608E-02  0.8555622E-01
          2   -1    0    0  501    0  0.00000000000E+00  0.00000000000E+00  0.10692848422E+04  0.10692848422E+04  0.00000000000E+00 0. -1.
         -1   -1    0    0    0  501 -0.00000000000E+00 -0.00000000000E+00 -0.10436780569E+04  0.10436780569E+04  0.00000000000E+00 0.  1.
         24    2    1    2    0    0 -0.29735868173E+03 -0.42153438733E+02  0.81255006050E+03  0.86995379973E+03  0.79893146447E+02 0.  0.
        254    2    1    2    0    0  0.29735868173E+03  0.42153438733E+02 -0.78694327519E+03  0.12430090993E+04  0.91410765480E+03 0.  0.
         23    2    4    4    0    0 -0.23854309949E+03  0.25374261121E+03 -0.18582440527E+03  0.40529603183E+03  0.91902343628E+02 0.  0.
         23    2    4    4    0    0  0.53590178123E+03 -0.21158917247E+03 -0.60111886992E+03  0.83771306746E+03  0.91970596386E+02 0.  0.
          4    1    3    3  502    0 -0.21537569021E+03 -0.49986716330E+02  0.66735953231E+03  0.70303207972E+03  0.00000000000E+00 0. -1.
         -3    1    3    3    0  502 -0.81982991524E+02  0.78332775978E+01  0.14519052818E+03  0.16692172001E+03  0.00000000000E+00 0.  1.
         11    1    5    5    0    0 -0.22621398914E+02  0.17788914520E+02 -0.50256939168E+02  0.57913151383E+02  0.00000000000E+00 0.  1.
        -11    1    5    5    0    0 -0.21592170058E+03  0.23595369669E+03 -0.13556746611E+03  0.34738288045E+03  0.00000000000E+00 0. -1.
          3    1    6    6  503    0  0.12328923821E+03 -0.91774063373E+02 -0.15155314912E+03  0.21584965132E+03  0.00000000000E+00 0.  1.
         -3    1    6    6    0  503  0.41261254302E+03 -0.11981510910E+03 -0.44956572080E+03  0.62186341615E+03  0.00000000000E+00 0. -1.
<mgrwt>
<rscale>  0 0.21128077E+04</rscale>
<asrwt>0</asrwt>
<pdfrwt beam="1">  1        2 0.16450536E+00 0.21128077E+04</pdfrwt>
<pdfrwt beam="2">  1       -1 0.16056585E+00 0.21128077E+04</pdfrwt>
<totfact> 0.69161289E+00</totfact>
</mgrwt>
</event>
<event>
12    6  0.8914180E-008  0.3538678E+04  0.7818608E-02  0.8104684E-01
          2   -1    0    0  501    0  0.00000000000E+00  0.00000000000E+00  0.43206666137E+04  0.43206666137E+04  0.00000000000E+00 0. -1.
         -1   -1    0    0    0  501 -0.00000000000E+00 -0.00000000000E+00 -0.72455500028E+03  0.72455500028E+03  0.00000000000E+00 0.  1.
         24    2    1    2    0    0  0.69588102137E+03  0.11331428511E+04  0.28449992043E+03  0.13620361889E+04  0.77066583046E+02 0.  0.
        254    2    1    2    0    0 -0.69588102137E+03 -0.11331428511E+04  0.33116116930E+04  0.36831854251E+04  0.91149314523E+03 0.  0.
         23    2    4    4    0    0  0.23855414869E+02 -0.24525756622E+03  0.11300448213E+03  0.28527657111E+03  0.88838924116E+02 0.  0.
         23    2    4    4    0    0 -0.71973643624E+03 -0.88788528484E+03  0.31986072109E+04  0.33979088540E+04  0.91299912369E+02 0.  0.
          4    1    3    3  502    0  0.87603706330E+01  0.28160668335E+01  0.19619901420E+01  0.94087050839E+01  0.00000000000E+00 0. -1.
         -3    1    3    3    0  502  0.68712065074E+03  0.11303267842E+04  0.28253793029E+03  0.13526274838E+04  0.00000000000E+00 0.  1.
         11    1    5    5    0    0 -0.35049180987E+01 -0.27637435676E+02  0.49725150388E+02  0.56997393649E+02  0.00000000000E+00 0. -1.
        -11    1    5    5    0    0  0.27360332967E+02 -0.21762013055E+03  0.63279331737E+02  0.22827917747E+03  0.00000000000E+00 0.  1.
          2    1    6    6  503    0 -0.49779316233E+03 -0.54474604490E+03  0.20646245076E+04  0.21925374896E+04  0.00000000000E+00 0.  1.
         -2    1    6    6    0  503 -0.22194327391E+03 -0.34313923994E+03  0.11339827033E+04  0.12053713644E+04  0.00000000000E+00 0. -1.
<mgrwt>
<rscale>  0 0.35386781E+04</rscale>
<asrwt>0</asrwt>
<pdfrwt beam="1">  1        2 0.66471793E+00 0.35386781E+04</pdfrwt>
<pdfrwt beam="2">  1       -1 0.11147000E+00 0.35386781E+04</pdfrwt>
<totfact> 0.12438198E-01</totfact>
</mgrwt>
</event>
<event>
12    6  0.8914180E-008  0.2211662E+04  0.7818608E-02  0.8513590E-01
         -1   -1    0    0    0  501 -0.00000000000E+00  0.00000000000E+00  0.40726997144E+03  0.40726997144E+03  0.00000000000E+00 0.  1.
          2   -1    0    0  501    0  0.00000000000E+00 -0.00000000000E+00 -0.30025829047E+04  0.30025829047E+04  0.00000000000E+00 0. -1.
         24    2    1    2    0    0 -0.75054221280E+03  0.25163141911E+02 -0.25732059347E+03  0.79802621615E+03  0.81762809000E+02 0.  0.
        254    2    1    2    0    0  0.75054221280E+03 -0.25163141911E+02 -0.23379923398E+04  0.26118266600E+04  0.88965359777E+03 0.  0.
         23    2    4    4    0    0  0.32584040137E+02 -0.13997161761E+02 -0.15055764271E+04  0.15087116203E+04  0.90513728315E+02 0.  0.
         23    2    4    4    0    0  0.71795817266E+03 -0.11165980151E+02 -0.83241591270E+03  0.11031150397E+04  0.91421673629E+02 0.  0.
          2    1    3    3  502    0 -0.66270062288E+03  0.14392521552E+02 -0.19917447993E+03  0.69213418764E+03  0.00000000000E+00 0. -1.
         -1    1    3    3    0  502 -0.87841589912E+02  0.10770620359E+02 -0.58146113540E+02  0.10589202851E+03  0.00000000000E+00 0.  1.
         11    1    5    5    0    0 -0.21089050895E+01 -0.21942162193E+02 -0.89035339673E+02  0.91723484851E+02  0.00000000000E+00 0. -1.
        -11    1    5    5    0    0  0.34692945227E+02  0.79450004319E+01 -0.14165410875E+04  0.14169881354E+04  0.00000000000E+00 0.  1.
          1    1    6    6  503    0  0.13446996579E+03 -0.31430914109E+02 -0.19210479307E+03  0.23658893799E+03  0.00000000000E+00 0. -1.
         -1    1    6    6    0  503  0.58348820687E+03  0.20264933958E+02 -0.64031111963E+03  0.86652610175E+03  0.00000000000E+00 0.  1.
<mgrwt>
<rscale>  0 0.22116617E+04</rscale>
<asrwt>0</asrwt>
<pdfrwt beam="1">  1        2 0.46193584E+00 0.22116617E+04</pdfrwt>
<pdfrwt beam="2">  1       -1 0.62656918E-01 0.22116617E+04</pdfrwt>
<totfact> 0.46621054E+00</totfact>
</mgrwt>
</event>
<event>
12    6  0.8914180E-008  0.1678306E+04  0.7818608E-02  0.8773835E-01
          2   -1    0    0  501    0  0.00000000000E+00  0.00000000000E+00  0.11147304614E+04  0.11147304614E+04  0.00000000000E+00 0. -1.
         -1   -1    0    0    0  501 -0.00000000000E+00 -0.00000000000E+00 -0.63170248719E+03  0.63170248719E+03  0.00000000000E+00 0.  1.
         24    2    1    2    0    0 -0.48062234064E+03 -0.29401733102E+03  0.36962315335E+03  0.67857307887E+03  0.79975762711E+02 0.  0.
        254    2    1    2    0    0  0.48062234064E+03  0.29401733102E+03  0.11340482082E+03  0.10678598697E+04  0.90001112360E+03 0.  0.
         23    2    4    4    0    0  0.26804927512E+03 -0.28713580912E+03  0.17266425666E+03  0.43908289548E+03  0.93185067485E+02 0.  0.
         23    2    4    4    0    0  0.21257306551E+03  0.58115314015E+03 -0.59259435843E+02  0.62877697419E+03  0.94459102524E+02 0.  0.
          2    1    3    3  502    0 -0.17972146353E+03 -0.97599404317E+02  0.90863201093E+02  0.22378911834E+03  0.00000000000E+00 0. -1.
         -1    1    3    3    0  502 -0.30090087711E+03 -0.19641792671E+03  0.27875995225E+03  0.45478396053E+03  0.00000000000E+00 0.  1.
         11    1    5    5    0    0  0.22203300562E+03 -0.22598745005E+03  0.17612487084E+03  0.36247614169E+03  0.00000000000E+00 0. -1.
        -11    1    5    5    0    0  0.46016269507E+02 -0.61148359076E+02 -0.34606141798E+01  0.76606753798E+02  0.00000000000E+00 0.  1.
          1    1    6    6  503    0  0.15983427701E+03  0.37175204788E+03  0.73769272871E+00  0.40465679952E+03  0.00000000000E+00 0.  1.
         -1    1    6    6    0  503  0.52738788505E+02  0.20940109226E+03 -0.59997128572E+02  0.22412017466E+03  0.00000000000E+00 0. -1.
<mgrwt>
<rscale>  0 0.16783063E+04</rscale>
<asrwt>0</asrwt>
<pdfrwt beam="1">  1        2 0.17149699E+00 0.16783063E+04</pdfrwt>
<pdfrwt beam="2">  1       -1 0.97184999E-01 0.16783063E+04</pdfrwt>
<totfact> 0.23596145E+01</totfact>
</mgrwt>
</event>
<event>
12    6  0.8914180E-008  0.1332687E+04  0.7818608E-02  0.9004038E-01
          2   -1    0    0  501    0  0.00000000000E+00  0.00000000000E+00  0.68388201213E+03  0.68388201213E+03  0.00000000000E+00 0. -1.
         -1   -1    0    0    0  501 -0.00000000000E+00 -0.00000000000E+00 -0.64925518637E+03  0.64925518637E+03  0.00000000000E+00 0.  1.
         24    2    1    2    0    0 -0.16425582188E+03 -0.26517752395E+03  0.18272270631E+03  0.37011389595E+03  0.79357509693E+02 0.  0.
        254    2    1    2    0    0  0.16425582188E+03  0.26517752395E+03 -0.14809588055E+03  0.96302330255E+03  0.89898965355E+03 0.  0.
         23    2    4    4    0    0  0.76819063818E+02  0.24604687893E+03 -0.51028153034E+03  0.57888275012E+03  0.90982212526E+02 0.  0.
         23    2    4    4    0    0  0.87436758059E+02  0.19130645020E+02  0.36218564978E+03  0.38414055243E+03  0.91511479470E+02 0.  0.
          4    1    3    3  502    0 -0.36361436231E+02 -0.35842873620E+02  0.64175694106E+02  0.82008446809E+02  0.00000000000E+00 0. -1.
         -3    1    3    3    0  502 -0.12789438565E+03 -0.22933465033E+03  0.11854701220E+03  0.28810544914E+03  0.00000000000E+00 0.  1.
         11    1    5    5    0    0  0.77838462775E+02  0.23256127747E+03 -0.41041488458E+03  0.47810454040E+03  0.00000000000E+00 0.  1.
        -11    1    5    5    0    0 -0.10193989565E+01  0.13485601451E+02 -0.99866645754E+02  0.10077820972E+03  0.00000000000E+00 0. -1.
          4    1    6    6  503    0  0.11593864717E+02  0.16510444567E+02  0.76536964065E+01  0.21577570474E+02  0.00000000000E+00 0. -1.
         -4    1    6    6    0  503  0.75842893343E+02  0.26202004530E+01  0.35453195337E+03  0.36256298195E+03  0.00000000000E+00 0.  1.
<mgrwt>
<rscale>  0 0.13326874E+04</rscale>
<asrwt>0</asrwt>
<pdfrwt beam="1">  1        2 0.10521262E+00 0.13326874E+04</pdfrwt>
<pdfrwt beam="2">  1       -1 0.99885413E-01 0.13326874E+04</pdfrwt>
<totfact> 0.45070523E+01</totfact>
</mgrwt>
</event>
<event>
12    6  0.8914180E-008  0.2509652E+04  0.7818608E-02  0.8399555E-01
          2   -1    0    0  501    0  0.00000000000E+00  0.00000000000E+00  0.13813227624E+04  0.13813227624E+04  0.00000000000E+00 0. -1.
         -1   -1    0    0    0  501 -0.00000000000E+00 -0.00000000000E+00 -0.11399133634E+04  0.11399133634E+04  0.00000000000E+00 0.  1.
         24    2    1    2    0    0 -0.10818284733E+04  0.88880123232E+02  0.33557062391E+02  0.10888453807E+04  0.78776040087E+02 0.  0.
        254    2    1    2    0    0  0.10818284733E+04 -0.88880123232E+02  0.20785233667E+03  0.14323907451E+04  0.91120147652E+03 0.  0.
         23    2    4    4    0    0 -0.96340895958E+02  0.15715891110E+03 -0.14731749851E+01  0.20737280573E+03  0.94977990809E+02 0.  0.
         23    2    4    4    0    0  0.11781693693E+04 -0.24603903434E+03  0.20932551165E+03  0.12250179394E+04  0.90738706394E+02 0.  0.
          2    1    3    3  502    0 -0.75678462811E+03  0.85630580876E+02 -0.39878246864E+01  0.76162423311E+03  0.00000000000E+00 0. -1.
         -1    1    3    3    0  502 -0.32504384523E+03  0.32495423560E+01  0.37544887078E+02  0.32722114754E+03  0.00000000000E+00 0.  1.
         11    1    5    5    0    0 -0.39442492460E+02  0.64983725431E+00 -0.97552307798E+01  0.40636154191E+02  0.00000000000E+00 0.  1.
        -11    1    5    5    0    0 -0.56898403498E+02  0.15650907385E+03  0.82820557947E+01  0.16673665154E+03  0.00000000000E+00 0. -1.
          2    1    6    6  503    0  0.10708924721E+04 -0.20182897069E+03  0.17270187299E+03  0.11033456200E+04  0.00000000000E+00 0. -1.
         -2    1    6    6    0  503  0.10727689715E+03 -0.44210063642E+02  0.36623638663E+02  0.12167231936E+03  0.00000000000E+00 0.  1.
<mgrwt>
<rscale>  0 0.25096520E+04</rscale>
<asrwt>0</asrwt>
<pdfrwt beam="1">  1        2 0.21251119E+00 0.25096520E+04</pdfrwt>
<pdfrwt beam="2">  1       -1 0.17537129E+00 0.25096520E+04</pdfrwt>
<totfact> 0.33851749E+00</totfact>
</mgrwt>
</event>
<event>
12    6  0.8914180E-008  0.1470499E+04  0.7818608E-02  0.8904311E-01
          2   -1    0    0  501    0  0.00000000000E+00  0.00000000000E+00  0.13781531793E+04  0.13781531793E+04  0.00000000000E+00 0. -1.
         -1   -1    0    0    0  501 -0.00000000000E+00 -0.00000000000E+00 -0.39225806565E+03  0.39225806565E+03  0.00000000000E+00 0.  1.
         24    2    1    2    0    0  0.15050167855E+03 -0.29207449075E+03  0.68737624527E+03  0.76582322554E+03  0.77722884867E+02 0.  0.
        254    2    1    2    0    0 -0.15050167855E+03  0.29207449075E+03  0.29851886840E+03  0.10045880194E+04  0.90117995460E+03 0.  0.
         23    2    4    4    0    0  0.10317755551E+03  0.30097442741E+03  0.54596057158E+03  0.63857259710E+03  0.92036960657E+02 0.  0.
         23    2    4    4    0    0 -0.25367923406E+03 -0.88999366584E+01 -0.24744170318E+03  0.36601542232E+03  0.91145653976E+02 0.  0.
          4    1    3    3  502    0  0.12756962036E+03 -0.19145582848E+03  0.52809275906E+03  0.57603064542E+03  0.00000000000E+00 0. -1.
         -3    1    3    3    0  502  0.22932058185E+02 -0.10061866227E+03  0.15928348621E+03  0.18979258012E+03  0.00000000000E+00 0.  1.
         11    1    5    5    0    0  0.77487682460E+02  0.10955256931E+03  0.17696406312E+03  0.22208643815E+03  0.00000000000E+00 0. -1.
        -11    1    5    5    0    0  0.25689873048E+02  0.19142185809E+03  0.36899650846E+03  0.41648615894E+03  0.00000000000E+00 0.  1.
          3    1    6    6  503    0 -0.14603930257E+03 -0.31214838055E+02 -0.91223369910E+02  0.17499584917E+03  0.00000000000E+00 0. -1.
         -3    1    6    6    0  503 -0.10763993148E+03  0.22314901397E+02 -0.15621833327E+03  0.19101957315E+03  0.00000000000E+00 0.  1.
<mgrwt>
<rscale>  0 0.14704988E+04</rscale>
<asrwt>0</asrwt>
<pdfrwt beam="1">  1        2 0.21202356E+00 0.14704988E+04</pdfrwt>
<pdfrwt beam="2">  1       -1 0.60347395E-01 0.14704988E+04</pdfrwt>
<totfact> 0.45769738E+01</totfact>
</mgrwt>
</event>
<event>
12    6  0.8914180E-008  0.2370404E+04  0.7818608E-02  0.8450668E-01
          2   -1    0    0  501    0  0.00000000000E+00  0.00000000000E+00  0.38902041199E+04  0.38902041199E+04  0.00000000000E+00 0. -1.
         -1   -1    0    0    0  501 -0.00000000000E+00 -0.00000000000E+00 -0.36108732435E+03  0.36108732435E+03  0.00000000000E+00 0.  1.
         24    2    1    2    0    0  0.22043180016E+03 -0.32818308966E+03 -0.15808293054E+03  0.43299633171E+03  0.78748279252E+02 0.  0.
        254    2    1    2    0    0 -0.22043180016E+03  0.32818308966E+03  0.36871997261E+04  0.38182951126E+04  0.90974800227E+03 0.  0.
         23    2    4    4    0    0  0.29378682249E+02  0.56124244149E+03  0.28995272772E+04  0.29548639416E+04  0.90034976195E+02 0.  0.
         23    2    4    4    0    0 -0.24981048241E+03 -0.23305935184E+03  0.78767244892E+03  0.86343117100E+03  0.91452510458E+02 0.  0.
          4    1    3    3  502    0  0.12240740328E+03 -0.22996604137E+03 -0.13106641995E+03  0.29162708893E+03  0.00000000000E+00 0. -1.
         -3    1    3    3    0  502  0.98024396883E+02 -0.98217048285E+02 -0.27016510591E+02  0.14136924277E+03  0.00000000000E+00 0.  1.
         11    1    5    5    0    0 -0.14087005475E+02  0.36823592756E+03  0.20227181598E+04  0.20560118910E+04  0.00000000000E+00 0. -1.
        -11    1    5    5    0    0  0.43465687724E+02  0.19300651393E+03  0.87680911744E+03  0.89885205060E+03  0.00000000000E+00 0.  1.
          2    1    6    6  503    0 -0.16287279282E+03 -0.13659495152E+03  0.58801285951E+03  0.62525582794E+03  0.00000000000E+00 0.  1.
         -2    1    6    6    0  503 -0.86937689593E+02 -0.96464400318E+02  0.19965958941E+03  0.23817534306E+03  0.00000000000E+00 0. -1.
<mgrwt>
<rscale>  0 0.23704037E+04</rscale>
<asrwt>0</asrwt>
<pdfrwt beam="1">  1        2 0.59849291E+00 0.23704037E+04</pdfrwt>
<pdfrwt beam="2">  1       -1 0.55551899E-01 0.23704037E+04</pdfrwt>
<totfact> 0.14118056E+00</totfact>
</mgrwt>
</event>
<event>
12    6  0.8914180E-008  0.1024192E+04  0.7818608E-02  0.9282402E-01
          2   -1    0    0  501    0  0.00000000000E+00  0.00000000000E+00  0.14263184431E+04  0.14263184431E+04  0.00000000000E+00 0. -1.
         -1   -1    0    0    0  501 -0.00000000000E+00 -0.00000000000E+00 -0.18385962714E+03  0.18385962714E+03  0.00000000000E+00 0.  1.
         24    2    1    2    0    0 -0.10665123316E+02 -0.68790781175E+02  0.46107529743E+02  0.11381952355E+03  0.77350263167E+02 0.  0.
        254    2    1    2    0    0  0.10665123316E+02  0.68790781175E+02  0.11963512862E+04  0.14963585467E+04  0.89609518677E+03 0.  0.
         23    2    4    4    0    0 -0.40676462328E+03  0.15381839940E+03  0.45067394801E+03  0.63231404968E+03  0.87157852559E+02 0.  0.
         23    2    4    4    0    0  0.41742974659E+03 -0.85027618221E+02  0.74567733819E+03  0.86404449698E+03  0.95188817008E+02 0.  0.
          4    1    3    3  502    0  0.20084834418E+02 -0.19304500010E+02  0.48031796597E+02  0.55525829833E+02  0.00000000000E+00 0. -1.
         -3    1    3    3    0  502 -0.30749957734E+02 -0.49486281165E+02 -0.19242668544E+01  0.58293693716E+02  0.00000000000E+00 0.  1.
         11    1    5    5    0    0 -0.17486054927E+03  0.72423541498E+02  0.13613015120E+03  0.23313686778E+03  0.00000000000E+00 0. -1.
        -11    1    5    5    0    0 -0.23190407401E+03  0.81394857897E+02  0.31454379681E+03  0.39917718189E+03  0.00000000000E+00 0.  1.
          2    1    6    6  503    0  0.30481392391E+03 -0.32697845080E+02  0.46298740823E+03  0.55528192611E+03  0.00000000000E+00 0. -1.
         -2    1    6    6    0  503  0.11261582268E+03 -0.52329773141E+02  0.28268992995E+03  0.30876257087E+03  0.00000000000E+00 0.  1.
<mgrwt>
<rscale>  0 0.10241921E+04</rscale>
<asrwt>0</asrwt>
<pdfrwt beam="1">  1        2 0.21943360E+00 0.10241921E+04</pdfrwt>
<pdfrwt beam="2">  1       -1 0.28286097E-01 0.10241921E+04</pdfrwt>
<totfact> 0.17944004E+02</totfact>
</mgrwt>
</event>
<event>
12    6  0.8914180E-008  0.1309021E+04  0.7818608E-02  0.9022442E-01
         -1   -1    0    0    0  501 -0.00000000000E+00  0.00000000000E+00  0.16674373733E+03  0.16674373733E+03  0.00000000000E+00 0.  1.
          2   -1    0    0  501    0  0.00000000000E+00 -0.00000000000E+00 -0.25691162828E+04  0.25691162828E+04  0.00000000000E+00 0. -1.
         24    2    1    2    0    0 -0.94136656644E+02  0.29536123915E+03 -0.96733220239E+03  0.10191011175E+04  0.82070251222E+02 0.  0.
        254    2    1    2    0    0  0.94136656644E+02 -0.29536123915E+03 -0.14350403431E+04  0.17167589026E+04  0.88984289169E+03 0.  0.
         23    2    4    4    0    0 -0.43025825336E+02 -0.30653749523E+03 -0.15039470242E+04  0.15381744368E+04  0.91145427817E+02 0.  0.
         23    2    4    4    0    0  0.13716248198E+03  0.11176256085E+02  0.68906681110E+02  0.17858446580E+03  0.90586011955E+02 0.  0.
          2    1    3    3  502    0 -0.80623829276E+02  0.27393438541E+03 -0.93719319672E+03  0.97973023703E+03  0.00000000000E+00 0. -1.
         -1    1    3    3    0  502 -0.13512827368E+02  0.21426853736E+02 -0.30139005668E+02  0.39370880447E+02  0.00000000000E+00 0.  1.
         11    1    5    5    0    0 -0.66917750421E+02 -0.15623137238E+03 -0.74932169650E+03  0.76835488668E+03  0.00000000000E+00 0. -1.
        -11    1    5    5    0    0  0.23891925085E+02 -0.15030612285E+03 -0.75462532766E+03  0.76981955016E+03  0.00000000000E+00 0.  1.
          3    1    6    6  503    0  0.73572033274E+02 -0.12749497536E+02 -0.90047018763E+01  0.75209563377E+02  0.00000000000E+00 0. -1.
         -3    1    6    6    0  503  0.63590448707E+02  0.23925753621E+02  0.77911382987E+02  0.10337490243E+03  0.00000000000E+00 0.  1.
<mgrwt>
<rscale>  0 0.13090211E+04</rscale>
<asrwt>0</asrwt>
<pdfrwt beam="1">  1        2 0.39524861E+00 0.13090211E+04</pdfrwt>
<pdfrwt beam="2">  1       -1 0.25652886E-01 0.13090211E+04</pdfrwt>
<totfact> 0.47689279E+01</totfact>
</mgrwt>
</event>
<event>
12    6  0.8914180E-008  0.1229766E+04  0.7818608E-02  0.9087194E-01
          2   -1    0    0  501    0  0.00000000000E+00  0.00000000000E+00  0.22758824447E+04  0.22758824447E+04  0.00000000000E+00 0. -1.
         -1   -1    0    0    0  501 -0.00000000000E+00 -0.00000000000E+00 -0.16612514598E+03  0.16612514598E+03  0.00000000000E+00 0.  1.
         24    2    1    2    0    0  0.21813769809E+03 -0.69174553186E+02  0.31234502172E+03  0.39513275971E+03  0.78748403556E+02 0.  0.
        254    2    1    2    0    0 -0.21813769809E+03  0.69174553186E+02  0.17974122770E+04  0.20468748310E+04  0.95217461949E+03 0.  0.
         23    2    4    4    0    0 -0.44519349252E+03 -0.18263457821E+03  0.48849629614E+03  0.69165773663E+03  0.90604405912E+02 0.  0.
         23    2    4    4    0    0  0.22705579443E+03  0.25180913139E+03  0.13089159809E+04  0.13552170943E+04  0.91597791382E+02 0.  0.
          4    1    3    3  502    0  0.10783928532E+02 -0.22295009641E+02  0.12971859700E+02  0.27957641416E+02  0.00000000000E+00 0. -1.
         -3    1    3    3    0  502  0.20735376956E+03 -0.46879543545E+02  0.29937316202E+03  0.36717511829E+03  0.00000000000E+00 0.  1.
         11    1    5    5    0    0 -0.39777267474E+03 -0.19139883328E+03  0.44133090195E+03  0.62420315536E+03  0.00000000000E+00 0. -1.
        -11    1    5    5    0    0 -0.47420817780E+02  0.87642550711E+01  0.47165394187E+02  0.67454581273E+02  0.00000000000E+00 0.  1.
          2    1    6    6  503    0  0.19224200441E+03  0.25080632438E+03  0.11589690632E+04  0.12012785231E+04  0.00000000000E+00 0. -1.
         -2    1    6    6    0  503  0.34813790020E+02  0.10028070119E+01  0.14994691762E+03  0.15393857120E+03  0.00000000000E+00 0.  1.
<mgrwt>
<rscale>  0 0.12297663E+04</rscale>
<asrwt>0</asrwt>
<pdfrwt beam="1">  1        2 0.35013574E+00 0.12297663E+04</pdfrwt>
<pdfrwt beam="2">  1       -1 0.25557716E-01 0.12297663E+04</pdfrwt>
<totfact> 0.71015944E+01</totfact>
</mgrwt>
</event>
<event>
12    6  0.8914180E-008  0.1138906E+04  0.7818608E-02  0.9168079E-01
         -1   -1    0    0    0  501 -0.00000000000E+00  0.00000000000E+00  0.31948460131E+03  0.31948460131E+03  0.00000000000E+00 0.  1.
          2   -1    0    0  501    0  0.00000000000E+00 -0.00000000000E+00 -0.10150001640E+04  0.10150001640E+04  0.00000000000E+00 0. -1.
         24    2    1    2    0    0 -0.14475587988E+03  0.10679120609E+03  0.78563012883E+01  0.19693971535E+03  0.79780345680E+02 0.  0.
        254    2    1    2    0    0  0.14475587988E+03 -0.10679120609E+03 -0.70337186396E+03  0.11375450499E+04  0.87573862264E+03 0.  0.
         23    2    4    4    0    0 -0.34328386453E+03  0.16508463472E+01 -0.43901422158E+03  0.56479581370E+03  0.91729425344E+02 0.  0.
         23    2    4    4    0    0  0.48803974441E+03 -0.10844205243E+03 -0.26435764238E+03  0.57274923624E+03  0.90632519963E+02 0.  0.
          4    1    3    3  502    0 -0.61641769618E+01 -0.21348046510E+01  0.19222871158E+02  0.20299587288E+02  0.00000000000E+00 0. -1.
         -3    1    3    3    0  502 -0.13859170291E+03  0.10892601074E+03 -0.11366569870E+02  0.17664012806E+03  0.00000000000E+00 0.  1.
         11    1    5    5    0    0 -0.32738198952E+03  0.20647979846E+02 -0.42302985848E+03  0.53531258840E+03  0.00000000000E+00 0. -1.
        -11    1    5    5    0    0 -0.15901875011E+02 -0.18997133498E+02 -0.15984363106E+02  0.29483225297E+02  0.00000000000E+00 0.  1.
          1    1    6    6  503    0  0.34627404706E+03 -0.51936163969E+02 -0.22115180122E+03  0.41413910704E+03  0.00000000000E+00 0. -1.
         -1    1    6    6    0  503  0.14176569735E+03 -0.56505888464E+02 -0.43205841152E+02  0.15861012920E+03  0.00000000000E+00 0.  1.
<mgrwt>
<rscale>  0 0.11389064E+04</rscale>
<asrwt>0</asrwt>
<pdfrwt beam="1">  1        2 0.15615387E+00 0.11389064E+04</pdfrwt>
<pdfrwt beam="2">  1       -1 0.49151478E-01 0.11389064E+04</pdfrwt>
<totfact> 0.11537604E+02</totfact>
</mgrwt>
</event>
<event>
12    6  0.8914180E-008  0.1933658E+04  0.7818608E-02  0.8638281E-01
          2   -1    0    0  501    0  0.00000000000E+00  0.00000000000E+00  0.16416473468E+04  0.16416473468E+04  0.00000000000E+00 0. -1.
         -1   -1    0    0    0  501 -0.00000000000E+00 -0.00000000000E+00 -0.56940292222E+03  0.56940292222E+03  0.00000000000E+00 0.  1.
         24    2    1    2    0    0 -0.84286620915E+02 -0.35062373475E+03 -0.34543360208E+03  0.50557404349E+03  0.78990519483E+02 0.  0.
        254    2    1    2    0    0  0.84286620915E+02  0.35062373475E+03  0.14176780267E+04  0.17054762256E+04  0.87681065844E+03 0.  0.
         23    2    4    4    0    0  0.28805276125E+03  0.52009748571E+03  0.12270923364E+04  0.13665320037E+04  0.90434104017E+02 0.  0.
         23    2    4    4    0    0 -0.20376614034E+03 -0.16947375096E+03  0.19058569029E+03  0.33894422186E+03  0.91204648873E+02 0.  0.
          4    1    3    3  502    0 -0.54543173751E+02 -0.88768473100E+02 -0.78353916724E+02  0.13036155831E+03  0.00000000000E+00 0. -1.
         -3    1    3    3    0  502 -0.29743447164E+02 -0.26185526165E+03 -0.26707968536E+03  0.37521248518E+03  0.00000000000E+00 0.  1.
         11    1    5    5    0    0  0.55999354286E+02  0.64075918901E+02  0.12215584607E+03  0.14887478562E+03  0.00000000000E+00 0. -1.
        -11    1    5    5    0    0  0.23205340697E+03  0.45602156681E+03  0.11049364903E+04  0.12176572181E+04  0.00000000000E+00 0.  1.
          3    1    6    6  503    0 -0.16369302783E+03 -0.12760935916E+03  0.18939364931E+03  0.28097955496E+03  0.00000000000E+00 0. -1.
         -3    1    6    6    0  503 -0.40073112511E+02 -0.41864391802E+02  0.11920409745E+01  0.57964666901E+02  0.00000000000E+00 0.  1.
<mgrwt>
<rscale>  0 0.19336585E+04</rscale>
<asrwt>0</asrwt>
<pdfrwt beam="1">  1        2 0.25256113E+00 0.19336585E+04</pdfrwt>
<pdfrwt beam="2">  1       -1 0.87600451E-01 0.19336585E+04</pdfrwt>
<totfact> 0.14416543E+01</totfact>
</mgrwt>
</event>
<event>
12    6  0.8914180E-008  0.1811749E+04  0.7818608E-02  0.8700076E-01
         -1   -1    0    0    0  501 -0.00000000000E+00  0.00000000000E+00  0.18844316240E+04  0.18844316240E+04  0.00000000000E+00 0.  1.
          2   -1    0    0  501    0  0.00000000000E+00 -0.00000000000E+00 -0.43546737616E+03  0.43546737616E+03  0.00000000000E+00 0. -1.
         24    2    1    2    0    0  0.70860367559E+02 -0.62627136924E+03  0.24084284575E+03  0.67969086304E+03  0.82081504193E+02 0.  0.
        254    2    1    2    0    0 -0.70860367559E+02  0.62627136924E+03  0.12081214021E+04  0.16402081371E+04  0.91295585396E+03 0.  0.
         23    2    4    4    0    0 -0.45271659392E+03  0.52407707151E+03  0.83671065599E+03  0.10900621832E+04  0.92421589220E+02 0.  0.
         23    2    4    4    0    0  0.38185622636E+03  0.10219429773E+03  0.37141074612E+03  0.55014595392E+03  0.91960731716E+02 0.  0.
          4    1    3    3  502    0  0.75337761875E+02 -0.56595127236E+03  0.19337266466E+03  0.60280146690E+03  0.00000000000E+00 0. -1.
         -3    1    3    3    0  502 -0.44773943166E+01 -0.60320096878E+02  0.47470181081E+02  0.76889396142E+02  0.00000000000E+00 0.  1.
         11    1    5    5    0    0 -0.26216233761E+02  0.73176842939E+02  0.83498493589E+02  0.11407953229E+03  0.00000000000E+00 0.  1.
        -11    1    5    5    0    0 -0.42650036016E+03  0.45090022857E+03  0.75321216240E+03  0.97598265093E+03  0.00000000000E+00 0. -1.
          3    1    6    6  503    0  0.38003777310E+03  0.10368090578E+03  0.34503977129E+03  0.52367058632E+03  0.00000000000E+00 0. -1.
         -3    1    6    6    0  503  0.18184532589E+01 -0.14866080484E+01  0.26370974830E+02  0.26475367593E+02  0.00000000000E+00 0.  1.
<mgrwt>
<rscale>  0 0.18117489E+04</rscale>
<asrwt>0</asrwt>
<pdfrwt beam="1">  1        2 0.66994982E-01 0.18117489E+04</pdfrwt>
<pdfrwt beam="2">  1       -1 0.28991255E+00 0.18117489E+04</pdfrwt>
<totfact> 0.29913885E+00</totfact>
</mgrwt>
</event>
<event>
12    6  0.8914180E-008  0.1668224E+04  0.7818608E-02  0.8779698E-01
         -1   -1    0    0    0  501 -0.00000000000E+00  0.00000000000E+00  0.55841072407E+03  0.55841072407E+03  0.00000000000E+00 0.  1.
          2   -1    0    0  501    0  0.00000000000E+00 -0.00000000000E+00 -0.12459344836E+04  0.12459344836E+04  0.00000000000E+00 0. -1.
         24    2    1    2    0    0  0.54976407035E+03 -0.20511053674E+03 -0.28622264536E+03  0.65774642111E+03  0.79975536467E+02 0.  0.
        254    2    1    2    0    0 -0.54976407035E+03  0.20511053674E+03 -0.40130111422E+03  0.11465987866E+04  0.89963066191E+03 0.  0.
         23    2    4    4    0    0 -0.33312566185E+03  0.29589029296E+03  0.19827271622E+03  0.49581004270E+03  0.89396624058E+02 0.  0.
         23    2    4    4    0    0 -0.21663840850E+03 -0.90779756219E+02 -0.59957383044E+03  0.65078874391E+03  0.94149067356E+02 0.  0.
          4    1    3    3  502    0  0.35971638478E+03 -0.15916826818E+03 -0.15784794142E+03  0.42384712773E+03  0.00000000000E+00 0. -1.
         -3    1    3    3    0  502  0.19004768557E+03 -0.45942268563E+02 -0.12837470394E+03  0.23389929338E+03  0.00000000000E+00 0.  1.
         11    1    5    5    0    0 -0.31829903594E+03  0.29311378896E+03  0.20557371451E+03  0.47905168996E+03  0.00000000000E+00 0. -1.
        -11    1    5    5    0    0 -0.14826625913E+02  0.27765039959E+01 -0.73009982893E+01  0.16758352736E+02  0.00000000000E+00 0.  1.
          1    1    6    6  503    0 -0.18992408216E+03 -0.62930086294E+02 -0.56348679962E+03  0.59795378258E+03  0.00000000000E+00 0. -1.
         -1    1    6    6    0  503 -0.26714326343E+02 -0.27849669925E+02 -0.36087030812E+02  0.52834961339E+02  0.00000000000E+00 0.  1.
<mgrwt>
<rscale>  0 0.16682244E+04</rscale>
<asrwt>0</asrwt>
<pdfrwt beam="1">  1        2 0.19168223E+00 0.16682244E+04</pdfrwt>
<pdfrwt beam="2">  1       -1 0.85909343E-01 0.16682244E+04</pdfrwt>
<totfact> 0.25879823E+01</totfact>
</mgrwt>
</event>
<event>
12    6  0.8914180E-008  0.1635566E+04  0.7818608E-02  0.8798991E-01
          2   -1    0    0  501    0  0.00000000000E+00  0.00000000000E+00  0.16870081945E+04  0.16870081945E+04  0.00000000000E+00 0. -1.
         -1   -1    0    0    0  501 -0.00000000000E+00 -0.00000000000E+00 -0.39642328869E+03  0.39642328869E+03  0.00000000000E+00 0.  1.
         24    2    1    2    0    0  0.17664401562E+03  0.13098421545E+03 -0.21452187336E+03  0.31785758395E+03  0.81571052317E+02 0.  0.
        254    2    1    2    0    0 -0.17664401562E+03 -0.13098421545E+03  0.15051067792E+04  0.17655738992E+04  0.89640660641E+03 0.  0.
         23    2    4    4    0    0 -0.39591464695E+03  0.13834784561E+03  0.34328896552E+03  0.54965998336E+03  0.91598304593E+02 0.  0.
         23    2    4    4    0    0  0.21927063133E+03 -0.26933206106E+03  0.11618178136E+04  0.12159139159E+04  0.89479885065E+02 0.  0.
          4    1    3    3  502    0  0.10320662825E+03  0.94993767641E+02 -0.83010886524E+02  0.16299150679E+03  0.00000000000E+00 0. -1.
         -3    1    3    3    0  502  0.73437387376E+02  0.35990447812E+02 -0.13151098683E+03  0.15486607716E+03  0.00000000000E+00 0.  1.
         11    1    5    5    0    0 -0.38011208015E+03  0.14541490635E+03  0.30811223837E+03  0.51045454244E+03  0.00000000000E+00 0. -1.
        -11    1    5    5    0    0 -0.15802566802E+02 -0.70670607358E+01  0.35176727145E+02  0.39205440918E+02  0.00000000000E+00 0.  1.
          4    1    6    6  503    0  0.16234967090E+03 -0.13018791019E+03  0.69477416731E+03  0.72527060547E+03  0.00000000000E+00 0. -1.
         -4    1    6    6    0  503  0.56920960427E+02 -0.13914415088E+03  0.46704364633E+03  0.49064331039E+03  0.00000000000E+00 0.  1.
<mgrwt>
<rscale>  0 0.16355664E+04</rscale>
<asrwt>0</asrwt>
<pdfrwt beam="1">  1        2 0.25953972E+00 0.16355664E+04</pdfrwt>
<pdfrwt beam="2">  1       -1 0.60988200E-01 0.16355664E+04</pdfrwt>
<totfact> 0.29619761E+01</totfact>
</mgrwt>
</event>
<event>
12    6  0.8914180E-008  0.1377952E+04  0.7818608E-02  0.8969934E-01
         -1   -1    0    0    0  501 -0.00000000000E+00  0.00000000000E+00  0.33278563590E+03  0.33278563590E+03  0.00000000000E+00 0.  1.
          2   -1    0    0  501    0  0.00000000000E+00 -0.00000000000E+00 -0.14264082376E+04  0.14264082376E+04  0.00000000000E+00 0. -1.
         24    2    1    2    0    0 -0.19033862028E+03  0.31023852772E+03 -0.57593408528E+03  0.68648671155E+03  0.84185510036E+02 0.  0.
        254    2    1    2    0    0  0.19033862028E+03 -0.31023852772E+03 -0.51768851647E+03  0.10727071620E+04  0.86615386674E+03 0.  0.
         23    2    4    4    0    0  0.42951698358E+03 -0.59012237937E+01 -0.25920327078E+02  0.44004063254E+03  0.91892498621E+02 0.  0.
         23    2    4    4    0    0 -0.23917836330E+03 -0.30433730392E+03 -0.49176818939E+03  0.63266652945E+03  0.92755061126E+02 0.  0.
          4    1    3    3  502    0 -0.18560473767E+03  0.24665802575E+03 -0.45599323303E+03  0.55065336545E+03  0.00000000000E+00 0. -1.
         -3    1    3    3    0  502 -0.47338826126E+01  0.63580501971E+02 -0.11994085225E+03  0.13583334610E+03  0.00000000000E+00 0.  1.
         11    1    5    5    0    0  0.27440770231E+03 -0.39353157378E+02 -0.42683983481E+02  0.28048205028E+03  0.00000000000E+00 0.  1.
        -11    1    5    5    0    0  0.15510928127E+03  0.33451933584E+02  0.16763656404E+02  0.15955858226E+03  0.00000000000E+00 0. -1.
          2    1    6    6  503    0 -0.11105511781E+03 -0.16808910848E+03 -0.32339975387E+03  0.38101783210E+03  0.00000000000E+00 0. -1.
         -2    1    6    6    0  503 -0.12812324549E+03 -0.13624819545E+03 -0.16836843552E+03  0.25164869735E+03  0.00000000000E+00 0.  1.
<mgrwt>
<rscale>  0 0.13779524E+04</rscale>
<asrwt>0</asrwt>
<pdfrwt beam="1">  1        2 0.21944742E+00 0.13779524E+04</pdfrwt>
<pdfrwt beam="2">  1       -1 0.51197791E-01 0.13779524E+04</pdfrwt>
<totfact> 0.59556299E+01</totfact>
</mgrwt>
</event>
<event>
12    6  0.8914180E-008  0.1451882E+04  0.7818608E-02  0.8917097E-01
          2   -1    0    0  501    0  0.00000000000E+00  0.00000000000E+00  0.12647904513E+04  0.12647904513E+04  0.00000000000E+00 0. -1.
         -1   -1    0    0    0  501 -0.00000000000E+00 -0.00000000000E+00 -0.41666216522E+03  0.41666216522E+03  0.00000000000E+00 0.  1.
         24    2    1    2    0    0 -0.16682678079E+03 -0.39943998561E+02 -0.20520308477E+03  0.27896142009E+03  0.79274649745E+02 0.  0.
        254    2    1    2    0    0  0.16682678079E+03  0.39943998561E+02  0.10533313708E+04  0.14024911964E+04  0.90997136295E+03 0.  0.
         23    2    4    4    0    0  0.34918594080E+03 -0.32148880372E+03  0.39695920972E+03  0.62565896439E+03  0.92664196765E+02 0.  0.
         23    2    4    4    0    0 -0.18235916002E+03  0.36143280229E+03  0.65637216110E+03  0.77683223201E+03  0.93570128805E+02 0.  0.
          4    1    3    3  502    0 -0.14397805338E+03 -0.10072325208E+02 -0.12727063359E+03  0.19242906684E+03  0.00000000000E+00 0. -1.
         -3    1    3    3    0  502 -0.22848727410E+02 -0.29871673354E+02 -0.77932451179E+02  0.86532353256E+02  0.00000000000E+00 0.  1.
         11    1    5    5    0    0  0.21562655427E+03 -0.14890883619E+03  0.17983249836E+03  0.31781815535E+03  0.00000000000E+00 0. -1.
        -11    1    5    5    0    0  0.13355938653E+03 -0.17257996753E+03  0.21712671136E+03  0.30784080904E+03  0.00000000000E+00 0.  1.
          1    1    6    6  503    0 -0.19286625328E+03  0.34423842875E+03  0.61314942670E+03  0.72914313200E+03  0.00000000000E+00 0. -1.
         -1    1    6    6    0  503  0.10507093263E+02  0.17194373539E+02  0.43222734406E+02  0.47689100010E+02  0.00000000000E+00 0.  1.
<mgrwt>
<rscale>  0 0.14518820E+04</rscale>
<asrwt>0</asrwt>
<pdfrwt beam="1">  1        2 0.19458314E+00 0.14518820E+04</pdfrwt>
<pdfrwt beam="2">  1       -1 0.64101873E-01 0.14518820E+04</pdfrwt>
<totfact> 0.47296261E+01</totfact>
</mgrwt>
</event>
<event>
12    6  0.8914180E-008  0.1586317E+04  0.7818608E-02  0.8828998E-01
          2   -1    0    0  501    0  0.00000000000E+00  0.00000000000E+00  0.14707650988E+04  0.14707650988E+04  0.00000000000E+00 0. -1.
         -1   -1    0    0    0  501 -0.00000000000E+00 -0.00000000000E+00 -0.42773709070E+03  0.42773709070E+03  0.00000000000E+00 0.  1.
         24    2    1    2    0    0 -0.14361717056E+03  0.48327947144E+03  0.22922338678E+03  0.55978998917E+03  0.81464911074E+02 0.  0.
        254    2    1    2    0    0  0.14361717056E+03 -0.48327947144E+03  0.81380462135E+03  0.13387122004E+04  0.93578173442E+03 0.  0.
         23    2    4    4    0    0  0.28326690822E+03 -0.10426864538E+03  0.86429038450E+03  0.91992010443E+03  0.90238783693E+02 0.  0.
         23    2    4    4    0    0 -0.13964973766E+03 -0.37901082605E+03 -0.50485763149E+02  0.41879209594E+03  0.98421297724E+02 0.  0.
          2    1    3    3  502    0 -0.40085541148E+02  0.27676143683E+03  0.12198221884E+03  0.30509573127E+03  0.00000000000E+00 0. -1.
         -1    1    3    3    0  502 -0.10353162941E+03  0.20651803460E+03  0.10724116794E+03  0.25469425790E+03  0.00000000000E+00 0.  1.
         11    1    5    5    0    0  0.20822682723E+03 -0.40174616338E+02  0.51493461882E+03  0.55689323306E+03  0.00000000000E+00 0. -1.
        -11    1    5    5    0    0  0.75040080995E+02 -0.64094029046E+02  0.34935576569E+03  0.36302687136E+03  0.00000000000E+00 0.  1.
          3    1    6    6  503    0 -0.11317863618E+03 -0.18690401580E+03 -0.37783632068E+00  0.21850093265E+03  0.00000000000E+00 0. -1.
         -3    1    6    6    0  503 -0.26471101480E+02 -0.19210681025E+03 -0.50107926828E+02  0.20029116329E+03  0.00000000000E+00 0.  1.
<mgrwt>
<rscale>  0 0.15863175E+04</rscale>
<asrwt>0</asrwt>
<pdfrwt beam="1">  1        2 0.22627155E+00 0.15863175E+04</pdfrwt>
<pdfrwt beam="2">  1       -1 0.65805707E-01 0.15863175E+04</pdfrwt>
<totfact> 0.33763671E+01</totfact>
</mgrwt>
</event>
<event>
12    6  0.8914180E-008  0.2803736E+04  0.7818608E-02  0.8302109E-01
          2   -1    0    0  501    0  0.00000000000E+00  0.00000000000E+00  0.24111734931E+04  0.24111734931E+04  0.00000000000E+00 0. -1.
         -1   -1    0    0    0  501 -0.00000000000E+00 -0.00000000000E+00 -0.81505295417E+03  0.81505295417E+03  0.00000000000E+00 0.  1.
         24    2    1    2    0    0 -0.39552196133E+03 -0.18728505593E+03 -0.63804616966E+03  0.77761407451E+03  0.77893646662E+02 0.  0.
        254    2    1    2    0    0  0.39552196133E+03  0.18728505593E+03  0.22341667086E+04  0.24486123728E+04  0.90149229403E+03 0.  0.
         23    2    4    4    0    0  0.58360264227E+03  0.39030305363E+03  0.15305935454E+04  0.16858403283E+04  0.80078046375E+02 0.  0.
         23    2    4    4    0    0 -0.18808068094E+03 -0.20301799770E+03  0.70357316314E+03  0.76277204443E+03  0.10107099456E+03 0.  0.
          4    1    3    3  502    0 -0.20453362434E+02 -0.13243839312E+01 -0.99394745279E+01  0.22779095275E+02  0.00000000000E+00 0. -1.
         -3    1    3    3    0  502 -0.37506859889E+03 -0.18596067200E+03 -0.62810669514E+03  0.75483497924E+03  0.00000000000E+00 0.  1.
         11    1    5    5    0    0  0.43563079869E+03  0.28907957716E+03  0.10516097934E+04  0.11744038284E+04  0.00000000000E+00 0. -1.
        -11    1    5    5    0    0  0.14797184357E+03  0.10122347647E+03  0.47898375209E+03  0.51143649991E+03  0.00000000000E+00 0.  1.
          1    1    6    6  503    0 -0.33704559319E+02 -0.13196005464E+02  0.33092439161E+02  0.49043260584E+02  0.00000000000E+00 0.  1.
         -1    1    6    6    0  503 -0.15437612162E+03 -0.18982199224E+03  0.67048072398E+03  0.71372878385E+03  0.00000000000E+00 0. -1.
<mgrwt>
<rscale>  0 0.28037361E+04</rscale>
<asrwt>0</asrwt>
<pdfrwt beam="1">  1        2 0.37094977E+00 0.28037361E+04</pdfrwt>
<pdfrwt beam="2">  1       -1 0.12539276E+00 0.28037361E+04</pdfrwt>
<totfact> 0.21508021E+00</totfact>
</mgrwt>
</event>
<event>
12    6  0.8914180E-008  0.1796250E+04  0.7818608E-02  0.8708296E-01
          2   -1    0    0  501    0  0.00000000000E+00  0.00000000000E+00  0.11900681472E+04  0.11900681472E+04  0.00000000000E+00 0. -1.
         -1   -1    0    0    0  501 -0.00000000000E+00 -0.00000000000E+00 -0.67780037844E+03  0.67780037844E+03  0.00000000000E+00 0.  1.
         24    2    1    2    0    0 -0.57987635851E+02  0.42710910913E+03  0.73279336305E+03  0.85387663946E+03  0.79589229660E+02 0.  0.
        254    2    1    2    0    0  0.57987635851E+02 -0.42710910913E+03 -0.22052559434E+03  0.10139918861E+04  0.89093392032E+03 0.  0.
         23    2    4    4    0    0  0.27698726261E+03  0.17281404090E+03 -0.12685278616E+03  0.36217646579E+03  0.92160331126E+02 0.  0.
         23    2    4    4    0    0 -0.21899962676E+03 -0.59992315004E+03 -0.93672808179E+02  0.65181542035E+03  0.90664903605E+02 0.  0.
          2    1    3    3  502    0 -0.26298896399E+02  0.30480725342E+03  0.45006271994E+03  0.54420175079E+03  0.00000000000E+00 0. -1.
         -1    1    3    3    0  502 -0.31688739452E+02  0.12230185571E+03  0.28273064311E+03  0.30967488867E+03  0.00000000000E+00 0.  1.
         11    1    5    5    0    0  0.59296080048E+02  0.70184141522E+02 -0.68302651679E+02  0.11448620466E+03  0.00000000000E+00 0.  1.
        -11    1    5    5    0    0  0.21769118256E+03  0.10262989938E+03 -0.58550134480E+02  0.24769026113E+03  0.00000000000E+00 0. -1.
          2    1    6    6  503    0 -0.11139417066E+03 -0.18784268501E+03 -0.16784923956E+02  0.21903257576E+03  0.00000000000E+00 0. -1.
         -2    1    6    6    0  503 -0.10760545610E+03 -0.41208046502E+03 -0.76887884223E+02  0.43278284459E+03  0.00000000000E+00 0.  1.
<mgrwt>
<rscale>  0 0.17962501E+04</rscale>
<asrwt>0</asrwt>
<pdfrwt beam="1">  1        2 0.18308741E+00 0.17962501E+04</pdfrwt>
<pdfrwt beam="2">  1       -1 0.10427698E+00 0.17962501E+04</pdfrwt>
<totfact> 0.17891804E+01</totfact>
</mgrwt>
</event>
<event>
12    6  0.8914180E-008  0.1920890E+04  0.7818608E-02  0.8644528E-01
         -1   -1    0    0    0  501 -0.00000000000E+00  0.00000000000E+00  0.11089617001E+04  0.11089617001E+04  0.00000000000E+00 0.  1.
          2   -1    0    0  501    0  0.00000000000E+00 -0.00000000000E+00 -0.83181806317E+03  0.83181806317E+03  0.00000000000E+00 0. -1.
         24    2    1    2    0    0  0.23990504427E+03  0.49550423823E+03  0.61005794599E+03  0.82560270132E+03  0.79813799528E+02 0.  0.
        254    2    1    2    0    0 -0.23990504427E+03 -0.49550423823E+03 -0.33291430911E+03  0.11151770619E+04  0.91088367085E+03 0.  0.
         23    2    4    4    0    0  0.31024848523E+03 -0.91157466061E+02  0.27532577904E+02  0.33709451608E+03  0.91163938710E+02 0.  0.
         23    2    4    4    0    0 -0.55015352950E+03 -0.40434677217E+03 -0.36044688701E+03  0.77808254582E+03  0.96567445709E+02 0.  0.
          4    1    3    3  502    0  0.90260096614E+02  0.26276031309E+03  0.33836486061E+03  0.43781348320E+03  0.00000000000E+00 0. -1.
         -3    1    3    3    0  502  0.14964494766E+03  0.23274392514E+03  0.27169308538E+03  0.38778921812E+03  0.00000000000E+00 0.  1.
         11    1    5    5    0    0  0.29461541979E+03 -0.99810542875E+02  0.42283895846E+02  0.31392406390E+03  0.00000000000E+00 0. -1.
        -11    1    5    5    0    0  0.15633065441E+02  0.86530768141E+01 -0.14751317942E+02  0.23170452185E+02  0.00000000000E+00 0.  1.
          2    1    6    6  503    0 -0.40006676989E+03 -0.24796756596E+03 -0.27477135289E+03  0.54501433973E+03  0.00000000000E+00 0. -1.
         -2    1    6    6    0  503 -0.15008675961E+03 -0.15637920621E+03 -0.85675534122E+02  0.23306820609E+03  0.00000000000E+00 0.  1.
<mgrwt>
<rscale>  0 0.19208898E+04</rscale>
<asrwt>0</asrwt>
<pdfrwt beam="1">  1        2 0.12797201E+00 0.19208898E+04</pdfrwt>
<pdfrwt beam="2">  1       -1 0.17060949E+00 0.19208898E+04</pdfrwt>
<totfact> 0.84942681E+00</totfact>
</mgrwt>
</event>
<event>
12    6  0.8914180E-008  0.2103579E+04  0.7818608E-02  0.8559668E-01
         -1   -1    0    0    0  501 -0.00000000000E+00  0.00000000000E+00  0.65137015936E+03  0.65137015936E+03  0.00000000000E+00 0.  1.
          2   -1    0    0  501    0  0.00000000000E+00 -0.00000000000E+00 -0.16983603362E+04  0.16983603362E+04  0.00000000000E+00 0. -1.
         24    2    1    2    0    0  0.35041144030E+02  0.69869998811E+03  0.12476753582E+03  0.71513701666E+03  0.80277390567E+02 0.  0.
        254    2    1    2    0    0 -0.35041144030E+02 -0.69869998811E+03 -0.11717577127E+04  0.16345934789E+04  0.89970559016E+03 0.  0.
         23    2    4    4    0    0  0.41811900524E+03 -0.29965677017E+03 -0.62865405152E+03  0.81735216165E+03  0.90779718094E+02 0.  0.
         23    2    4    4    0    0 -0.45316014927E+03 -0.39904321795E+03 -0.54310366119E+03  0.81724131730E+03  0.91280738522E+02 0.  0.
          4    1    3    3  502    0 -0.11427189793E+02  0.51209401759E+02  0.25839140853E+02  0.58486277835E+02  0.00000000000E+00 0. -1.
         -3    1    3    3    0  502  0.46468333823E+02  0.64749058635E+03  0.98928394969E+02  0.65665073882E+03  0.00000000000E+00 0.  1.
         11    1    5    5    0    0  0.29657635807E+03 -0.25301448158E+03 -0.50336937637E+03  0.63667463679E+03  0.00000000000E+00 0. -1.
        -11    1    5    5    0    0  0.12154264717E+03 -0.46642288586E+02 -0.12528467515E+03  0.18067752487E+03  0.00000000000E+00 0.  1.
          1    1    6    6  503    0 -0.44672540052E+03 -0.37385544162E+03 -0.50403274342E+03  0.77031193755E+03  0.00000000000E+00 0. -1.
         -1    1    6    6    0  503 -0.64347487499E+01 -0.25187776328E+02 -0.39070917769E+02  0.46929379744E+02  0.00000000000E+00 0.  1.
<mgrwt>
<rscale>  0 0.21035791E+04</rscale>
<asrwt>0</asrwt>
<pdfrwt beam="1">  1        2 0.26128620E+00 0.21035791E+04</pdfrwt>
<pdfrwt beam="2">  1       -1 0.10021080E+00 0.21035791E+04</pdfrwt>
<totfact> 0.97802191E+00</totfact>
</mgrwt>
</event>
<event>
12    6  0.8914180E-008  0.2162694E+04  0.7818608E-02  0.8534118E-01
          2   -1    0    0  501    0  0.00000000000E+00  0.00000000000E+00  0.11012044222E+04  0.11012044222E+04  0.00000000000E+00 0. -1.
         -1   -1    0    0    0  501 -0.00000000000E+00 -0.00000000000E+00 -0.10618478035E+04  0.10618478035E+04  0.00000000000E+00 0.  1.
         24    2    1    2    0    0 -0.88834790290E+03 -0.62985775194E+02 -0.46834165748E+02  0.89546159242E+03  0.80801113566E+02 0.  0.
        254    2    1    2    0    0  0.88834790290E+03  0.62985775194E+02  0.86190784483E+02  0.12675906333E+04  0.89790197557E+03 0.  0.
         23    2    4    4    0    0  0.12696076535E+03  0.39815280694E+03  0.38785574989E+02  0.42942248585E+03  0.90855142480E+02 0.  0.
         23    2    4    4    0    0  0.76138713755E+03 -0.33516703174E+03  0.47405209494E+02  0.83816814741E+03  0.90726385630E+02 0.  0.
          2    1    3    3  502    0 -0.66646871217E+03 -0.60692820471E+02 -0.67438996880E+02  0.67261592389E+03  0.00000000000E+00 0. -1.
         -1    1    3    3    0  502 -0.22187919073E+03 -0.22929547232E+01  0.20604831132E+02  0.22284566853E+03  0.00000000000E+00 0.  1.
         11    1    5    5    0    0 -0.84491511338E+01  0.98233026126E+02  0.86332070715E+01  0.98972965203E+02  0.00000000000E+00 0. -1.
        -11    1    5    5    0    0  0.13540991648E+03  0.29991978081E+03  0.30152367917E+02  0.33044952064E+03  0.00000000000E+00 0.  1.
          1    1    6    6  503    0  0.36063832884E+03 -0.11113956143E+03  0.33186780092E+02  0.37883158358E+03  0.00000000000E+00 0. -1.
         -1    1    6    6    0  503  0.40074880871E+03 -0.22402747031E+03  0.14218429403E+02  0.45933656383E+03  0.00000000000E+00 0.  1.
<mgrwt>
<rscale>  0 0.21626942E+04</rscale>
<asrwt>0</asrwt>
<pdfrwt beam="1">  1        2 0.16941607E+00 0.21626942E+04</pdfrwt>
<pdfrwt beam="2">  1       -1 0.16336120E+00 0.21626942E+04</pdfrwt>
<totfact> 0.62681025E+00</totfact>
</mgrwt>
</event>
<event>
12    6  0.8914180E-008  0.1979781E+04  0.7818608E-02  0.8616132E-01
         -3   -1    0    0    0  501 -0.00000000000E+00  0.00000000000E+00  0.73467621916E+03  0.73467621916E+03  0.00000000000E+00 0.  1.
          4   -1    0    0  501    0  0.00000000000E+00 -0.00000000000E+00 -0.13337625947E+04  0.13337625947E+04  0.00000000000E+00 0. -1.
         24    2    1    2    0    0 -0.60122782018E+03 -0.47645401519E+03 -0.77702204060E+02  0.77506895914E+03  0.78809508113E+02 0.  0.
        254    2    1    2    0    0  0.60122782018E+03  0.47645401519E+03 -0.52138417151E+03  0.12933698548E+04  0.90137717219E+03 0.  0.
         23    2    4    4    0    0 -0.38816440090E+02  0.52180209465E+03 -0.28693193514E+03  0.60417728203E+03  0.94425159362E+02 0.  0.
         23    2    4    4    0    0  0.64004426027E+03 -0.45348079460E+02 -0.23445223637E+03  0.68919257272E+03  0.91134229270E+02 0.  0.
          2    1    3    3  502    0 -0.52116448730E+03 -0.41816860829E+03 -0.40970924561E+02  0.66944456413E+03  0.00000000000E+00 0. -1.
         -1    1    3    3    0  502 -0.80063332878E+02 -0.58285406892E+02 -0.36731279499E+02  0.10562439501E+03  0.00000000000E+00 0.  1.
         11    1    5    5    0    0 -0.31659930693E+02  0.19180201885E+03 -0.59379452921E+02  0.20326407719E+03  0.00000000000E+00 0.  1.
        -11    1    5    5    0    0 -0.71565093973E+01  0.33000007580E+03 -0.22755248222E+03  0.40091320484E+03  0.00000000000E+00 0. -1.
          2    1    6    6  503    0  0.26536862586E+03 -0.16928532945E+02 -0.14526934828E+03  0.30300208971E+03  0.00000000000E+00 0.  1.
         -2    1    6    6    0  503  0.37467563441E+03 -0.28419546515E+02 -0.89182888096E+02  0.38619048302E+03  0.00000000000E+00 0. -1.
<mgrwt>
<rscale>  0 0.19797815E+04</rscale>
<asrwt>0</asrwt>
<pdfrwt beam="1">  1        4 0.20519424E+00 0.19797815E+04</pdfrwt>
<pdfrwt beam="2">  1       -3 0.11302711E+00 0.19797815E+04</pdfrwt>
<totfact> 0.16881468E-01</totfact>
</mgrwt>
</event>
<event>
12    6  0.8914180E-008  0.1223427E+04  0.7818608E-02  0.9092595E-01
         -1   -1    0    0    0  501 -0.00000000000E+00  0.00000000000E+00  0.28320326431E+03  0.28320326431E+03  0.00000000000E+00 0.  1.
          2   -1    0    0  501    0  0.00000000000E+00 -0.00000000000E+00 -0.13212883079E+04  0.13212883079E+04  0.00000000000E+00 0. -1.
         24    2    1    2    0    0 -0.16273278622E+03 -0.20938317595E+03 -0.24537050531E+03  0.36989251417E+03  0.79312754855E+02 0.  0.
        254    2    1    2    0    0  0.16273278622E+03  0.20938317595E+03 -0.79271453827E+03  0.12345990580E+04  0.90857868170E+03 0.  0.
         23    2    4    4    0    0 -0.31525697665E+03  0.20223702811E+03 -0.59566270700E+03  0.70952527503E+03  0.91242964286E+02 0.  0.
         23    2    4    4    0    0  0.47798976287E+03  0.71461478373E+01 -0.19705183127E+03  0.52507378301E+03  0.91366145571E+02 0.  0.
          2    1    3    3  502    0 -0.79184696445E-02 -0.26084552815E+02 -0.49379775499E+01  0.26547835703E+02  0.00000000000E+00 0. -1.
         -1    1    3    3    0  502 -0.16272486775E+03 -0.18329862313E+03 -0.24043252776E+03  0.34334467846E+03  0.00000000000E+00 0.  1.
         11    1    5    5    0    0 -0.22046859392E+03  0.10731437484E+03 -0.32178502884E+03  0.40455948974E+03  0.00000000000E+00 0. -1.
        -11    1    5    5    0    0 -0.94788382731E+02  0.94922653268E+02 -0.27387767816E+03  0.30496578529E+03  0.00000000000E+00 0.  1.
          4    1    6    6  503    0  0.26596723059E+03  0.26512482434E+02 -0.15190148393E+03  0.30743379822E+03  0.00000000000E+00 0. -1.
         -4    1    6    6    0  503  0.21202253229E+03 -0.19366334597E+02 -0.45150347348E+02  0.21763998479E+03  0.00000000000E+00 0.  1.
<mgrwt>
<rscale>  0 0.12234266E+04</rscale>
<asrwt>0</asrwt>
<pdfrwt beam="1">  1        2 0.20327513E+00 0.12234266E+04</pdfrwt>
<pdfrwt beam="2">  1       -1 0.43569733E-01 0.12234266E+04</pdfrwt>
<totfact> 0.93795769E+01</totfact>
</mgrwt>
</event>
<event>
12    6  0.8914180E-008  0.1913828E+04  0.7818608E-02  0.8648004E-01
          2   -1    0    0  501    0  0.00000000000E+00  0.00000000000E+00  0.21624481272E+04  0.21624481272E+04  0.00000000000E+00 0. -1.
         -1   -1    0    0    0  501 -0.00000000000E+00 -0.00000000000E+00 -0.42344787212E+03  0.42344787212E+03  0.00000000000E+00 0.  1.
         24    2    1    2    0    0 -0.65149435249E+03  0.36161980740E+03  0.70552904351E+03  0.10292278835E+04  0.79530048132E+02 0.  0.
        254    2    1    2    0    0  0.65149435249E+03 -0.36161980740E+03  0.10334712116E+04  0.15566681158E+04  0.89439314690E+03 0.  0.
         23    2    4    4    0    0  0.20494999880E+03 -0.32626877668E+03 -0.32180083264E+02  0.39697542979E+03  0.89989540846E+02 0.  0.
         23    2    4    4    0    0  0.44654435370E+03 -0.35351030720E+02  0.10656512949E+04  0.11596926860E+04  0.92859510054E+02 0.  0.
          4    1    3    3  502    0 -0.11516803561E+02  0.77788082480E+01  0.32617785493E+02  0.35455134360E+02  0.00000000000E+00 0. -1.
         -3    1    3    3    0  502 -0.63997754893E+03  0.35384099915E+03  0.67291125802E+03  0.99377274917E+03  0.00000000000E+00 0.  1.
         11    1    5    5    0    0  0.95281451648E+02 -0.22643356384E+03 -0.22147466004E+01  0.24567380602E+03  0.00000000000E+00 0. -1.
        -11    1    5    5    0    0  0.10966854715E+03 -0.99835212834E+02 -0.29965336664E+02  0.15130162377E+03  0.00000000000E+00 0.  1.
          2    1    6    6  503    0  0.17875744250E+03  0.14353081545E+02  0.33593967011E+03  0.38080926480E+03  0.00000000000E+00 0. -1.
         -2    1    6    6    0  503  0.26778691120E+03 -0.49704112265E+02  0.72971162476E+03  0.77888342125E+03  0.00000000000E+00 0.  1.
<mgrwt>
<rscale>  0 0.19138276E+04</rscale>
<asrwt>0</asrwt>
<pdfrwt beam="1">  1        2 0.33268432E+00 0.19138276E+04</pdfrwt>
<pdfrwt beam="2">  1       -1 0.65145828E-01 0.19138276E+04</pdfrwt>
<totfact> 0.13795320E+01</totfact>
</mgrwt>
</event>
<event>
12    6  0.8914180E-008  0.1748463E+04  0.7818608E-02  0.8734197E-01
         -1   -1    0    0    0  501 -0.00000000000E+00  0.00000000000E+00  0.11409546903E+04  0.11409546903E+04  0.00000000000E+00 0.  1.
          2   -1    0    0  501    0  0.00000000000E+00 -0.00000000000E+00 -0.66986041955E+03  0.66986041955E+03  0.00000000000E+00 0. -1.
         24    2    1    2    0    0 -0.31912755649E+01 -0.38735808767E+02 -0.47939941653E+03  0.48839886023E+03  0.84846915005E+02 0.  0.
        254    2    1    2    0    0  0.31912755649E+01  0.38735808767E+02  0.95049368728E+03  0.13224162496E+04  0.91860537803E+03 0.  0.
         23    2    4    4    0    0 -0.32620799596E+02 -0.32901903993E+03  0.86857201976E+03  0.93317206460E+03  0.84113634160E+02 0.  0.
         23    2    4    4    0    0  0.35812075161E+02  0.36775484869E+03  0.81921667521E+02  0.38924418500E+03  0.90960114793E+02 0.  0.
          4    1    3    3  502    0  0.36770145037E+02  0.64712605506E+00 -0.21354215835E+03  0.21668575341E+03  0.00000000000E+00 0. -1.
         -3    1    3    3    0  502 -0.39961420602E+02 -0.39382934822E+02 -0.26585725819E+03  0.27171310683E+03  0.00000000000E+00 0.  1.
         11    1    5    5    0    0 -0.54640758389E+02 -0.14013061919E+03  0.41098825669E+03  0.43764546159E+03  0.00000000000E+00 0. -1.
        -11    1    5    5    0    0  0.22019958793E+02 -0.18888842073E+03  0.45758376307E+03  0.49552660301E+03  0.00000000000E+00 0.  1.
          1    1    6    6  503    0  0.18304701061E+02  0.74067868393E+01  0.47463156708E+01  0.20308867143E+02  0.00000000000E+00 0. -1.
         -1    1    6    6    0  503  0.17507374100E+02  0.36034806185E+03  0.77175351850E+02  0.36893531786E+03  0.00000000000E+00 0.  1.
<mgrwt>
<rscale>  0 0.17484626E+04</rscale>
<asrwt>0</asrwt>
<pdfrwt beam="1">  1        2 0.10305545E+00 0.17484626E+04</pdfrwt>
<pdfrwt beam="2">  1       -1 0.17553149E+00 0.17484626E+04</pdfrwt>
<totfact> 0.10509903E+01</totfact>
</mgrwt>
</event>
<event>
12    6  0.8914180E-008  0.1961677E+04  0.7818608E-02  0.8624750E-01
         -1   -1    0    0    0  501 -0.00000000000E+00  0.00000000000E+00  0.71537083568E+03  0.71537083568E+03  0.00000000000E+00 0.  1.
          2   -1    0    0  501    0  0.00000000000E+00 -0.00000000000E+00 -0.13448193868E+04  0.13448193868E+04  0.00000000000E+00 0. -1.
         24    2    1    2    0    0  0.18313247113E+03  0.66148964907E+03 -0.60678886464E+03  0.91969217968E+03  0.80838860040E+02 0.  0.
        254    2    1    2    0    0 -0.18313247113E+03 -0.66148964907E+03 -0.22659686509E+02  0.11404980428E+04  0.91055821698E+03 0.  0.
         23    2    4    4    0    0 -0.36415796364E+03 -0.67671165031E+03 -0.27078340595E+03  0.81971741720E+03  0.89795940735E+02 0.  0.
         23    2    4    4    0    0  0.18102549251E+03  0.15222001232E+02  0.24812371944E+03  0.32078062565E+03  0.91284672210E+02 0.  0.
          2    1    3    3  502    0  0.80292626891E+02  0.31402055974E+03 -0.23369249676E+03  0.39958478564E+03  0.00000000000E+00 0. -1.
         -3    1    3    3    0  502  0.10283984424E+03  0.34746908933E+03 -0.37309636789E+03  0.52010739404E+03  0.00000000000E+00 0.  1.
         11    1    5    5    0    0 -0.31024639611E+03 -0.60593167488E+03 -0.21163841864E+03  0.71287926128E+03  0.00000000000E+00 0.  1.
        -11    1    5    5    0    0 -0.53911567525E+02 -0.70779975431E+02 -0.59144987316E+02  0.10683815592E+03  0.00000000000E+00 0. -1.
          1    1    6    6  503    0  0.14100958095E+03  0.53948451738E+01  0.24054993271E+03  0.27888541805E+03  0.00000000000E+00 0. -1.
         -1    1    6    6    0  503  0.40015911557E+02  0.98271560580E+01  0.75737867317E+01  0.41895207594E+02  0.00000000000E+00 0.  1.
<mgrwt>
<rscale>  0 0.19616774E+04</rscale>
<asrwt>0</asrwt>
<pdfrwt beam="1">  1        2 0.20689529E+00 0.19616774E+04</pdfrwt>
<pdfrwt beam="2">  1       -1 0.11005705E+00 0.19616774E+04</pdfrwt>
<totfact> 0.12606377E+01</totfact>
</mgrwt>
</event>
<event>
12    6  0.8914180E-008  0.1545469E+04  0.7818608E-02  0.8854767E-01
         -1   -1    0    0    0  501 -0.00000000000E+00  0.00000000000E+00  0.14954585037E+04  0.14954585037E+04  0.00000000000E+00 0.  1.
          2   -1    0    0  501    0  0.00000000000E+00 -0.00000000000E+00 -0.39928783540E+03  0.39928783540E+03  0.00000000000E+00 0. -1.
         24    2    1    2    0    0 -0.50251702695E+03 -0.32233974632E+02  0.35748628462E+03  0.62299542558E+03  0.82246368341E+02 0.  0.
        254    2    1    2    0    0  0.50251702695E+03  0.32233974632E+02  0.73868438366E+03  0.12717509135E+04  0.90450725582E+03 0.  0.
         23    2    4    4    0    0  0.17312818830E+03  0.12530193756E+03  0.86403406390E+03  0.89595639025E+03  0.10251363082E+03 0.  0.
         23    2    4    4    0    0  0.32938883865E+03 -0.93067962930E+02 -0.12534968024E+03  0.37579452325E+03  0.91380132514E+02 0.  0.
          4    1    3    3  502    0 -0.46624050606E+03 -0.37675140574E+02  0.35306022463E+03  0.58604705266E+03  0.00000000000E+00 0. -1.
         -3    1    3    3    0  502 -0.36276520886E+02  0.54411659420E+01  0.44260599865E+01  0.36948372919E+02  0.00000000000E+00 0.  1.
         11    1    5    5    0    0  0.34137706393E+02  0.86091253881E+02  0.33606305828E+03  0.34859068566E+03  0.00000000000E+00 0. -1.
        -11    1    5    5    0    0  0.13899048191E+03  0.39210683682E+02  0.52797100562E+03  0.54736570459E+03  0.00000000000E+00 0.  1.
          4    1    6    6  503    0  0.33865230572E+02 -0.20782662136E+02  0.12684717067E+02  0.41709410619E+02  0.00000000000E+00 0. -1.
         -4    1    6    6    0  503  0.29552360808E+03 -0.72285300794E+02 -0.13803439731E+03  0.33408511263E+03  0.00000000000E+00 0.  1.
<mgrwt>
<rscale>  0 0.15454687E+04</rscale>
<asrwt>0</asrwt>
<pdfrwt beam="1">  1        2 0.61428898E-01 0.15454687E+04</pdfrwt>
<pdfrwt beam="2">  1       -1 0.23007054E+00 0.15454687E+04</pdfrwt>
<totfact> 0.82765546E+00</totfact>
</mgrwt>
</event>
<event>
12    6  0.8914180E-008  0.1983279E+04  0.7818608E-02  0.8614478E-01
         -3   -1    0    0    0  501 -0.00000000000E+00  0.00000000000E+00  0.11392031905E+04  0.11392031905E+04  0.00000000000E+00 0.  1.
          2   -1    0    0  501    0  0.00000000000E+00 -0.00000000000E+00 -0.86319043870E+03  0.86319043870E+03  0.00000000000E+00 0. -1.
         24    2    1    2    0    0 -0.30006540459E+02  0.78114209835E+03  0.20372062139E+03  0.81196449744E+03  0.81858922723E+02 0.  0.
        254    2    1    2    0    0  0.30006540459E+02 -0.78114209835E+03  0.72292130402E+02  0.11904291318E+04  0.89488099506E+03 0.  0.
         23    2    4    4    0    0  0.19144816378E+03 -0.81778088718E+03  0.29889176758E+03  0.89622763703E+03  0.92031026243E+02 0.  0.
         23    2    4    4    0    0 -0.16144162332E+03  0.36638788829E+02 -0.22659963717E+03  0.29420149472E+03  0.88325111630E+02 0.  0.
          4    1    3    3  502    0 -0.56992640072E+01  0.60630173552E+03  0.18770065821E+03  0.63471711273E+03  0.00000000000E+00 0. -1.
         -3    1    3    3    0  502 -0.24307276452E+02  0.17484036283E+03  0.16019963184E+02  0.17724738471E+03  0.00000000000E+00 0.  1.
         11    1    5    5    0    0  0.77053756158E+02 -0.43867047623E+03  0.11724492850E+03  0.46055992152E+03  0.00000000000E+00 0. -1.
        -11    1    5    5    0    0  0.11439440762E+03 -0.37911041095E+03  0.18164683907E+03  0.43566771550E+03  0.00000000000E+00 0.  1.
          3    1    6    6  503    0 -0.11197690718E+03  0.48762275892E+02 -0.10036792869E+03  0.15808323251E+03  0.00000000000E+00 0. -1.
         -3    1    6    6    0  503 -0.49464716141E+02 -0.12123487062E+02 -0.12623170849E+03  0.13611826222E+03  0.00000000000E+00 0.  1.
<mgrwt>
<rscale>  0 0.19832794E+04</rscale>
<asrwt>0</asrwt>
<pdfrwt beam="1">  1        2 0.13279853E+00 0.19832794E+04</pdfrwt>
<pdfrwt beam="2">  1       -3 0.17526203E+00 0.19832794E+04</pdfrwt>
<totfact> 0.38733174E+00</totfact>
</mgrwt>
</event>
<event>
12    6  0.8914180E-008  0.4142689E+04  0.7818608E-02  0.7976364E-01
          2   -1    0    0  501    0  0.00000000000E+00  0.00000000000E+00  0.26532917420E+04  0.26532917420E+04  0.00000000000E+00 0. -1.
         -1   -1    0    0    0  501 -0.00000000000E+00 -0.00000000000E+00 -0.16170359562E+04  0.16170359562E+04  0.00000000000E+00 0.  1.
         24    2    1    2    0    0  0.83820683559E+03  0.16707604949E+04 -0.15581109144E+03  0.18774810986E+04  0.81405459144E+02 0.  0.
        254    2    1    2    0    0 -0.83820683559E+03 -0.16707604949E+04  0.11920668773E+04  0.23928465996E+04  0.90036663574E+03 0.  0.
         23    2    4    4    0    0 -0.24985600468E+03 -0.77062811518E+03  0.10110380166E+04  0.12988594349E+04  0.92424269153E+02 0.  0.
         23    2    4    4    0    0 -0.58835083091E+03 -0.90013237973E+03  0.18102886062E+03  0.10939871647E+04  0.87415484310E+02 0.  0.
          2    1    3    3  502    0  0.25964831273E+03  0.53336179514E+03 -0.86851166333E+02  0.59952912849E+03  0.00000000000E+00 0. -1.
         -1    1    3    3    0  502  0.57855852286E+03  0.11373986998E+04 -0.68959925110E+02  0.12779519701E+04  0.00000000000E+00 0.  1.
         11    1    5    5    0    0  0.22354672142E+01 -0.76429396096E+02  0.83953961647E+02  0.11355490997E+03  0.00000000000E+00 0. -1.
        -11    1    5    5    0    0 -0.25209147190E+03 -0.69419871908E+03  0.92708405499E+03  0.11853045249E+04  0.00000000000E+00 0.  1.
          3    1    6    6  503    0 -0.25277051662E+03 -0.43794919503E+03  0.11892905797E+03  0.51945794086E+03  0.00000000000E+00 0. -1.
         -3    1    6    6    0  503 -0.33558031429E+03 -0.46218318470E+03  0.62099802650E+02  0.57452922384E+03  0.00000000000E+00 0.  1.
<mgrwt>
<rscale>  0 0.41426891E+04</rscale>
<asrwt>0</asrwt>
<pdfrwt beam="1">  1        2 0.40819873E+00 0.41426891E+04</pdfrwt>
<pdfrwt beam="2">  1       -1 0.24877476E+00 0.41426891E+04</pdfrwt>
<totfact> 0.17814495E-01</totfact>
</mgrwt>
</event>
<event>
12    6  0.8914180E-008  0.1834100E+04  0.7818608E-02  0.8688373E-01
         -1   -1    0    0    0  501 -0.00000000000E+00  0.00000000000E+00  0.83363115132E+03  0.83363115132E+03  0.00000000000E+00 0.  1.
          2   -1    0    0  501    0  0.00000000000E+00 -0.00000000000E+00 -0.10088159629E+04  0.10088159629E+04  0.00000000000E+00 0. -1.
         24    2    1    2    0    0 -0.69258746243E+03  0.29496477919E+02 -0.68913917601E+02  0.70145847971E+03  0.82142774412E+02 0.  0.
        254    2    1    2    0    0  0.69258746243E+03 -0.29496477919E+02 -0.10627089398E+03  0.11409886345E+04  0.90000784767E+03 0.  0.
         23    2    4    4    0    0  0.54346941334E+02 -0.38355394378E+03 -0.63065722607E+02  0.40406299225E+03  0.96033319859E+02 0.  0.
         23    2    4    4    0    0  0.63824052109E+03  0.35405746586E+03 -0.43205171373E+02  0.73692564226E+03  0.92114404368E+02 0.  0.
          2    1    3    3  502    0 -0.39011087868E+03 -0.11534460171E+02 -0.89873337671E+01  0.39038482758E+03  0.00000000000E+00 0. -1.
         -3    1    3    3    0  502 -0.30247658374E+03  0.41030938090E+02 -0.59926583834E+02  0.31107365212E+03  0.00000000000E+00 0.  1.
         11    1    5    5    0    0  0.24089332376E+02 -0.63566303041E+02 -0.46228385590E+02  0.82207265195E+02  0.00000000000E+00 0. -1.
        -11    1    5    5    0    0  0.30257608958E+02 -0.31998764073E+03 -0.16837337017E+02  0.32185572706E+03  0.00000000000E+00 0.  1.
          1    1    6    6  503    0  0.69096327863E+02  0.68774860178E+02  0.10342831933E+02  0.98037024073E+02  0.00000000000E+00 0. -1.
         -1    1    6    6    0  503  0.56914419323E+03  0.28528260568E+03 -0.53548003305E+02  0.63888861819E+03  0.00000000000E+00 0.  1.
<mgrwt>
<rscale>  0 0.18340997E+04</rscale>
<asrwt>0</asrwt>
<pdfrwt beam="1">  1        2 0.15520246E+00 0.18340997E+04</pdfrwt>
<pdfrwt beam="2">  1       -1 0.12825095E+00 0.18340997E+04</pdfrwt>
<totfact> 0.14015159E+01</totfact>
</mgrwt>
</event>
<event>
12    6  0.1288765E-007  0.3796520E+04  0.7818608E-02  0.8046902E-01
          2   -1    0    0  501    0  0.00000000000E+00  0.00000000000E+00  0.28146520857E+04  0.28146520857E+04  0.00000000000E+00 0. -1.
         -1   -1    0    0    0  501 -0.00000000000E+00 -0.00000000000E+00 -0.12802262801E+04  0.12802262801E+04  0.00000000000E+00 0.  1.
         24    2    1    2    0    0  0.36541269132E+03  0.17220203014E+04  0.36479090535E+03  0.17995985762E+04  0.81254398309E+02 0.  0.
        254    2    1    2    0    0 -0.36541269132E+03 -0.17220203014E+04  0.11696349002E+04  0.22952797897E+04  0.89520006676E+03 0.  0.
         23    2    4    4    0    0 -0.62211859311E+03 -0.14761068819E+04  0.89918977785E+03  0.18393016846E+04  0.92549228745E+02 0.  0.
         23    2    4    4    0    0  0.25670590178E+03 -0.24591341952E+03  0.27044512238E+03  0.45597810506E+03  0.91674086640E+02 0.  0.
          2    1    3    3  502    0  0.11951175614E+03  0.54671241097E+03  0.77619884855E+02  0.56497997016E+03  0.00000000000E+00 0. -1.
         -1    1    3    3    0  502  0.24590093518E+03  0.11753078904E+04  0.28717102050E+03  0.12346186060E+04  0.00000000000E+00 0.  1.
         11    1    5    5    0    0 -0.41419857883E+03 -0.86991943477E+03  0.52674748443E+03  0.10980815990E+04  0.00000000000E+00 0.  1.
        -11    1    5    5    0    0 -0.20792001428E+03 -0.60618744712E+03  0.37244229342E+03  0.74122008561E+03  0.00000000000E+00 0. -1.
          4    1    6    6  503    0  0.27475302837E+02 -0.26532707840E+02 -0.13071009839E+01  0.38217605423E+02  0.00000000000E+00 0. -1.
         -4    1    6    6    0  503  0.22923059895E+03 -0.21938071168E+03  0.27175222336E+03  0.41776049963E+03  0.00000000000E+00 0.  1.
<mgrwt>
<rscale>  0 0.37965203E+04</rscale>
<asrwt>0</asrwt>
<pdfrwt beam="1">  1        2 0.43302340E+00 0.37965203E+04</pdfrwt>
<pdfrwt beam="2">  1       -1 0.19695789E+00 0.37965203E+04</pdfrwt>
<totfact> 0.32596693E-01</totfact>
</mgrwt>
</event>
<event>
12    6  0.8914180E-008  0.1770098E+04  0.7818608E-02  0.8722365E-01
         -1   -1    0    0    0  501 -0.00000000000E+00  0.00000000000E+00  0.39932811492E+03  0.39932811492E+03  0.00000000000E+00 0.  1.
          2   -1    0    0  501    0  0.00000000000E+00 -0.00000000000E+00 -0.19615736790E+04  0.19615736790E+04  0.00000000000E+00 0. -1.
         24    2    1    2    0    0 -0.42974192707E+03  0.52109381153E+03 -0.61636290638E+03  0.91756501223E+03  0.76193405270E+02 0.  0.
        254    2    1    2    0    0  0.42974192707E+03 -0.52109381153E+03 -0.94588265768E+03  0.14433367817E+04  0.85575123660E+03 0.  0.
         23    2    4    4    0    0  0.40797158223E+01  0.22645922054E+02  0.13145390326E+03  0.16034594058E+03  0.88888751316E+02 0.  0.
         23    2    4    4    0    0  0.42566221125E+03 -0.54373973358E+03 -0.10773365609E+04  0.12829908411E+04  0.92575465594E+02 0.  0.
          2    1    3    3  502    0 -0.76180524580E+02  0.93377896508E+02 -0.72915988871E+02  0.14085327584E+03  0.00000000000E+00 0. -1.
         -1    1    3    3    0  502 -0.35356140249E+03  0.42771591502E+03 -0.54344691751E+03  0.77671173639E+03  0.00000000000E+00 0.  1.
         11    1    5    5    0    0 -0.38342113153E+02  0.11675506152E+02  0.95831433477E+02  0.10387540001E+03  0.00000000000E+00 0. -1.
        -11    1    5    5    0    0  0.42421828975E+02  0.10970415901E+02  0.35622469787E+02  0.56470540571E+02  0.00000000000E+00 0.  1.
          4    1    6    6  503    0  0.17855174123E+02 -0.43842317044E+01 -0.48287311573E+02  0.51669073821E+02  0.00000000000E+00 0.  1.
         -4    1    6    6    0  503  0.40780703713E+03 -0.53935550188E+03 -0.10290492494E+04  0.12313217673E+04  0.00000000000E+00 0. -1.
<mgrwt>
<rscale>  0 0.17700978E+04</rscale>
<asrwt>0</asrwt>
<pdfrwt beam="1">  1        2 0.30178056E+00 0.17700978E+04</pdfrwt>
<pdfrwt beam="2">  1       -1 0.61435096E-01 0.17700978E+04</pdfrwt>
<totfact> 0.20326468E+01</totfact>
</mgrwt>
</event>
<event>
12    6  0.8914180E-008  0.1820825E+04  0.7818608E-02  0.8695303E-01
         -1   -1    0    0    0  501 -0.00000000000E+00  0.00000000000E+00  0.66281885086E+03  0.66281885086E+03  0.00000000000E+00 0.  1.
          2   -1    0    0  501    0  0.00000000000E+00 -0.00000000000E+00 -0.12504941219E+04  0.12504941219E+04  0.00000000000E+00 0. -1.
         24    2    1    2    0    0 -0.10291498172E+01 -0.35726458276E+03  0.39550801108E+03  0.53929856694E+03  0.82324457079E+02 0.  0.
        254    2    1    2    0    0  0.10291498172E+01  0.35726458276E+03 -0.98318328209E+03  0.13740144058E+04  0.89085755311E+03 0.  0.
         23    2    4    4    0    0 -0.36241145158E+03 -0.82055988975E+02 -0.38498539895E+03  0.54263407216E+03  0.90347846133E+02 0.  0.
         23    2    4    4    0    0  0.36344060140E+03  0.43932057173E+03 -0.59819788314E+03  0.83138033365E+03  0.90889582942E+02 0.  0.
          4    1    3    3  502    0 -0.29094986167E+02 -0.15015877108E+03  0.12547538646E+03  0.19783388829E+03  0.00000000000E+00 0. -1.
         -3    1    3    3    0  502  0.28065836349E+02 -0.20710581168E+03  0.27003262462E+03  0.34146467864E+03  0.00000000000E+00 0.  1.
         11    1    5    5    0    0 -0.30222237980E+03 -0.43065072467E+02 -0.27234848577E+03  0.40910471156E+03  0.00000000000E+00 0.  1.
        -11    1    5    5    0    0 -0.60189071780E+02 -0.38990916508E+02 -0.11263691318E+03  0.13352936060E+03  0.00000000000E+00 0. -1.
          2    1    6    6  503    0  0.34394294086E+03  0.43852359721E+03 -0.58397010128E+03  0.80723030856E+03  0.00000000000E+00 0.  1.
         -2    1    6    6    0  503  0.19497660535E+02  0.79697452458E+00 -0.14227781864E+02  0.24150025083E+02  0.00000000000E+00 0. -1.
<mgrwt>
<rscale>  0 0.18208252E+04</rscale>
<asrwt>0</asrwt>
<pdfrwt beam="1">  1        2 0.19238371E+00 0.18208252E+04</pdfrwt>
<pdfrwt beam="2">  1       -1 0.10197213E+00 0.18208252E+04</pdfrwt>
<totfact> 0.17308611E+01</totfact>
</mgrwt>
</event>
<event>
12    6  0.8914180E-008  0.1390330E+04  0.7818608E-02  0.8960848E-01
          2   -1    0    0  501    0  0.00000000000E+00  0.00000000000E+00  0.11313671375E+04  0.11313671375E+04  0.00000000000E+00 0. -1.
         -1   -1    0    0    0  501 -0.00000000000E+00 -0.00000000000E+00 -0.42714172271E+03  0.42714172271E+03  0.00000000000E+00 0.  1.
         24    2    1    2    0    0 -0.23015591439E+03 -0.30973101111E+03  0.83510131183E+02  0.40278313748E+03  0.79719945170E+02 0.  0.
        254    2    1    2    0    0  0.23015591439E+03  0.30973101111E+03  0.62071528365E+03  0.11557257228E+04  0.89527059525E+03 0.  0.
         23    2    4    4    0    0  0.55791528133E+03  0.14865777770E+03  0.27998883922E+03  0.64822067571E+03  0.91802496294E+02 0.  0.
         23    2    4    4    0    0 -0.32775936694E+03  0.16107323341E+03  0.34072644444E+03  0.50750504705E+03  0.89978184605E+02 0.  0.
          2    1    3    3  502    0 -0.10788273920E+03 -0.19223425328E+03  0.18647068642E+02  0.22122478776E+03  0.00000000000E+00 0. -1.
         -1    1    3    3    0  502 -0.12227317519E+03 -0.11749675784E+03  0.64863062541E+02  0.18155834972E+03  0.00000000000E+00 0.  1.
         11    1    5    5    0    0  0.33760940273E+03  0.13527875097E+03  0.18280195263E+03  0.40705896767E+03  0.00000000000E+00 0. -1.
        -11    1    5    5    0    0  0.22030587860E+03  0.13379026730E+02  0.97186886583E+02  0.24116170804E+03  0.00000000000E+00 0.  1.
          4    1    6    6  503    0 -0.12802319640E+02  0.33761507718E+02  0.38920881147E+02  0.53090241861E+02  0.00000000000E+00 0.  1.
         -4    1    6    6    0  503 -0.31495704730E+03  0.12731172569E+03  0.30180556329E+03  0.45441480519E+03  0.00000000000E+00 0. -1.
<mgrwt>
<rscale>  0 0.13903296E+04</rscale>
<asrwt>0</asrwt>
<pdfrwt beam="1">  1        2 0.17405648E+00 0.13903296E+04</pdfrwt>
<pdfrwt beam="2">  1       -1 0.65714112E-01 0.13903296E+04</pdfrwt>
<totfact> 0.54337850E+01</totfact>
</mgrwt>
</event>
<event>
12    6  0.8914180E-008  0.2121141E+04  0.7818608E-02  0.8551987E-01
         -1   -1    0    0    0  501 -0.00000000000E+00  0.00000000000E+00  0.82802085750E+03  0.82802085750E+03  0.00000000000E+00 0.  1.
          2   -1    0    0  501    0  0.00000000000E+00 -0.00000000000E+00 -0.13584319049E+04  0.13584319049E+04  0.00000000000E+00 0. -1.
         24    2    1    2    0    0 -0.33586508855E+03 -0.24251546687E+03  0.56770287024E+03  0.70740189478E+03  0.80695616244E+02 0.  0.
        254    2    1    2    0    0  0.33586508855E+03  0.24251546687E+03 -0.10981139177E+04  0.14790508676E+04  0.90006565511E+03 0.  0.
         23    2    4    4    0    0 -0.18126247666E+03 -0.15864435580E+03 -0.89415884755E+02  0.27308631347E+03  0.92503065305E+02 0.  0.
         23    2    4    4    0    0  0.51712756521E+03  0.40115982267E+03 -0.10086980329E+04  0.12059645542E+04  0.92350756769E+02 0.  0.
          4    1    3    3  502    0 -0.18445383125E+02 -0.43219503927E+02  0.55620553194E+02  0.72813485125E+02  0.00000000000E+00 0. -1.
         -3    1    3    3    0  502 -0.31741970543E+03 -0.19929596295E+03  0.51208231705E+03  0.63458840966E+03  0.00000000000E+00 0.  1.
         11    1    5    5    0    0 -0.96985554935E+02 -0.10624291332E+03 -0.97087784778E+02  0.17355054725E+03  0.00000000000E+00 0. -1.
        -11    1    5    5    0    0 -0.84276921721E+02 -0.52401442475E+02  0.76719000228E+01  0.99535766226E+02  0.00000000000E+00 0.  1.
          2    1    6    6  503    0  0.27357624851E+03  0.15409274645E+03 -0.48672985230E+03  0.57921885965E+03  0.00000000000E+00 0.  1.
         -2    1    6    6    0  503  0.24355131670E+03  0.24706707622E+03 -0.52196818062E+03  0.62674569452E+03  0.00000000000E+00 0. -1.
<mgrwt>
<rscale>  0 0.21211412E+04</rscale>
<asrwt>0</asrwt>
<pdfrwt beam="1">  1        2 0.20898952E+00 0.21211412E+04</pdfrwt>
<pdfrwt beam="2">  1       -1 0.12738783E+00 0.21211412E+04</pdfrwt>
<totfact> 0.85566337E+00</totfact>
</mgrwt>
</event>
<event>
12    6  0.8914180E-008  0.1954699E+04  0.7818608E-02  0.8628098E-01
          2   -1    0    0  501    0  0.00000000000E+00  0.00000000000E+00  0.16374434648E+04  0.16374434648E+04  0.00000000000E+00 0. -1.
         -1   -1    0    0    0  501 -0.00000000000E+00 -0.00000000000E+00 -0.58335568896E+03  0.58335568896E+03  0.00000000000E+00 0.  1.
         24    2    1    2    0    0 -0.51188796457E+03 -0.36551184426E+03  0.92057143495E+03  0.11177342015E+04  0.79055562123E+02 0.  0.
        254    2    1    2    0    0  0.51188796457E+03  0.36551184426E+03  0.13351634087E+03  0.11030649522E+04  0.89626864217E+03 0.  0.
         23    2    4    4    0    0  0.37809699718E+03  0.63892230078E+03 -0.22156334600E+02  0.74840806687E+03  0.91894970853E+02 0.  0.
         23    2    4    4    0    0  0.13379096738E+03 -0.27341045653E+03  0.15567267547E+03  0.35465688534E+03  0.94309192214E+02 0.  0.
          2    1    3    3  502    0 -0.30914110782E+03 -0.26078980868E+03  0.62227710434E+03  0.74216463365E+03  0.00000000000E+00 0. -1.
         -1    1    3    3    0  502 -0.20274685675E+03 -0.10472203557E+03  0.29829433061E+03  0.37556956789E+03  0.00000000000E+00 0.  1.
         11    1    5    5    0    0  0.23815767080E+02  0.68469735487E+02 -0.25612569626E+02  0.76884973578E+02  0.00000000000E+00 0. -1.
        -11    1    5    5    0    0  0.35428123010E+03  0.57045256530E+03  0.34562350254E+01  0.67152309329E+03  0.00000000000E+00 0.  1.
          1    1    6    6  503    0  0.86422995576E+00 -0.18011169855E+02 -0.11821419517E+02  0.21561426027E+02  0.00000000000E+00 0. -1.
         -1    1    6    6    0  503  0.13292673743E+03 -0.25539928667E+03  0.16749409499E+03  0.33309545931E+03  0.00000000000E+00 0.  1.
<mgrwt>
<rscale>  0 0.19546989E+04</rscale>
<asrwt>0</asrwt>
<pdfrwt beam="1">  1        2 0.25191438E+00 0.19546989E+04</pdfrwt>
<pdfrwt beam="2">  1       -1 0.89747030E-01 0.19546989E+04</pdfrwt>
<totfact> 0.13719615E+01</totfact>
</mgrwt>
</event>
<event>
12    6  0.8914180E-008  0.1691642E+04  0.7818608E-02  0.8766145E-01
          2   -1    0    0  501    0  0.00000000000E+00  0.00000000000E+00  0.24213833980E+04  0.24213833980E+04  0.00000000000E+00 0. -1.
         -1   -1    0    0    0  501 -0.00000000000E+00 -0.00000000000E+00 -0.29545650204E+03  0.29545650204E+03  0.00000000000E+00 0.  1.
         24    2    1    2    0    0  0.40948933651E+03 -0.16392607221E+03  0.14242460139E+04  0.14931510469E+04  0.80436725770E+02 0.  0.
        254    2    1    2    0    0 -0.40948933651E+03  0.16392607221E+03  0.70168088210E+03  0.12236888532E+04  0.90028055362E+03 0.  0.
         23    2    4    4    0    0 -0.90594627477E+02  0.10262046041E+03 -0.20135496502E+03  0.25975607877E+03  0.90504436896E+02 0.  0.
         23    2    4    4    0    0 -0.31889470904E+03  0.61305611800E+02  0.90303584711E+03  0.96393277442E+03  0.90776863420E+02 0.  0.
          4    1    3    3  502    0  0.29927535574E+03 -0.87833483091E+02  0.10658639936E+04  0.11105613501E+04  0.00000000000E+00 0. -1.
         -3    1    3    3    0  502  0.11021398078E+03 -0.76092589116E+02  0.35838202025E+03  0.38258969682E+03  0.00000000000E+00 0.  1.
         11    1    5    5    0    0 -0.66037372010E+02  0.85457580156E+01 -0.74374383707E+02  0.99827418247E+02  0.00000000000E+00 0.  1.
        -11    1    5    5    0    0 -0.24557255467E+02  0.94074702391E+02 -0.12698058131E+03  0.15992866052E+03  0.00000000000E+00 0. -1.
          1    1    6    6  503    0 -0.23999811485E+03  0.56742696318E+02  0.55977045952E+03  0.61168766218E+03  0.00000000000E+00 0. -1.
         -1    1    6    6    0  503 -0.78896594189E+02  0.45629154818E+01  0.34326538760E+03  0.35224511224E+03  0.00000000000E+00 0.  1.
<mgrwt>
<rscale>  0 0.16916424E+04</rscale>
<asrwt>0</asrwt>
<pdfrwt beam="1">  1        2 0.37252051E+00 0.16916424E+04</pdfrwt>
<pdfrwt beam="2">  1       -1 0.45454848E-01 0.16916424E+04</pdfrwt>
<totfact> 0.20165979E+01</totfact>
</mgrwt>
</event>
<event>
12    6  0.8914180E-008  0.1898634E+04  0.7818608E-02  0.8655537E-01
          2   -1    0    0  501    0  0.00000000000E+00  0.00000000000E+00  0.27839642474E+04  0.27839642474E+04  0.00000000000E+00 0. -1.
         -1   -1    0    0    0  501 -0.00000000000E+00 -0.00000000000E+00 -0.32371212433E+03  0.32371212433E+03  0.00000000000E+00 0.  1.
         24    2    1    2    0    0  0.44368988431E+02 -0.19913576806E+03 -0.19658142857E+03  0.29441638848E+03  0.80081773797E+02 0.  0.
        254    2    1    2    0    0 -0.44368988431E+02  0.19913576806E+03  0.26568335516E+04  0.28132599832E+04  0.90224362064E+03 0.  0.
         23    2    4    4    0    0 -0.35221849071E+03  0.31087981894E+03  0.85633085927E+03  0.98088940172E+03  0.90207266062E+02 0.  0.
         23    2    4    4    0    0  0.30784950228E+03 -0.11174405088E+03  0.18005026924E+04  0.18323705815E+04  0.92271088978E+02 0.  0.
          4    1    3    3  502    0  0.81040890009E+01 -0.15776871649E+03 -0.17381442466E+03  0.23487890153E+03  0.00000000000E+00 0. -1.
         -3    1    3    3    0  502  0.36264899430E+02 -0.41367051562E+02 -0.22767003904E+02  0.59537486951E+02  0.00000000000E+00 0.  1.
         11    1    5    5    0    0 -0.28477308728E+03  0.20343913765E+03  0.66202966380E+03  0.74884342136E+03  0.00000000000E+00 0. -1.
        -11    1    5    5    0    0 -0.67445403428E+02  0.10744068129E+03  0.19430119547E+03  0.23204598036E+03  0.00000000000E+00 0.  1.
          2    1    6    6  503    0  0.26566221473E+03 -0.63668604289E+02  0.15461796252E+04  0.15701278727E+04  0.00000000000E+00 0. -1.
         -2    1    6    6    0  503  0.42187287551E+02 -0.48075446593E+02  0.25432306720E+03  0.26224270877E+03  0.00000000000E+00 0.  1.
<mgrwt>
<rscale>  0 0.18986342E+04</rscale>
<asrwt>0</asrwt>
<pdfrwt beam="1">  1        2 0.42830218E+00 0.18986342E+04</pdfrwt>
<pdfrwt beam="2">  1       -1 0.49801867E-01 0.18986342E+04</pdfrwt>
<totfact> 0.10217254E+01</totfact>
</mgrwt>
</event>
<event>
12    6  0.8914180E-008  0.1624803E+04  0.7818608E-02  0.8805454E-01
          2   -1    0    0  501    0  0.00000000000E+00  0.00000000000E+00  0.30404349005E+04  0.30404349005E+04  0.00000000000E+00 0. -1.
         -1   -1    0    0    0  501 -0.00000000000E+00 -0.00000000000E+00 -0.21707308753E+03  0.21707308753E+03  0.00000000000E+00 0.  1.
         24    2    1    2    0    0  0.12919305743E+03 -0.28366884396E+03  0.19152499317E+04  0.19420975812E+04  0.80011592327E+02 0.  0.
        254    2    1    2    0    0 -0.12919305743E+03  0.28366884396E+03  0.90811188123E+03  0.13154104068E+04  0.89915431953E+03 0.  0.
         23    2    4    4    0    0 -0.23349326005E+02  0.54098107309E+03  0.26804835189E+03  0.61143324763E+03  0.93781580732E+02 0.  0.
         23    2    4    4    0    0 -0.10584373142E+03 -0.25731222913E+03  0.64006352934E+03  0.70397715916E+03  0.92141414613E+02 0.  0.
          2    1    3    3  502    0  0.10945203412E+03 -0.22694879802E+03  0.13205354891E+04  0.13443583907E+04  0.00000000000E+00 0. -1.
         -1    1    3    3    0  502  0.19741023311E+02 -0.56720045942E+02  0.59471444265E+03  0.59773919054E+03  0.00000000000E+00 0.  1.
         11    1    5    5    0    0 -0.35041395875E+02  0.33531279052E+03  0.21083479225E+03  0.39763535625E+03  0.00000000000E+00 0. -1.
        -11    1    5    5    0    0  0.11692069870E+02  0.20566828257E+03  0.57213559641E+02  0.21379789138E+03  0.00000000000E+00 0.  1.
          4    1    6    6  503    0 -0.11053646465E+03 -0.21496063360E+03  0.46823929020E+03  0.52694821083E+03  0.00000000000E+00 0. -1.
         -4    1    6    6    0  503  0.46927332298E+01 -0.42351595532E+02  0.17182423914E+03  0.17702894833E+03  0.00000000000E+00 0.  1.
<mgrwt>
<rscale>  0 0.16248035E+04</rscale>
<asrwt>0</asrwt>
<pdfrwt beam="1">  1        2 0.46775919E+00 0.16248035E+04</pdfrwt>
<pdfrwt beam="2">  1       -1 0.33395862E-01 0.16248035E+04</pdfrwt>
<totfact> 0.15193843E+01</totfact>
</mgrwt>
</event>
<event>
12    6  0.8914180E-008  0.4138961E+04  0.7818608E-02  0.7977086E-01
          2   -1    0    0  501    0  0.00000000000E+00  0.00000000000E+00  0.38856361950E+04  0.38856361950E+04  0.00000000000E+00 0. -1.
         -1   -1    0    0    0  501 -0.00000000000E+00 -0.00000000000E+00 -0.11022001058E+04  0.11022001058E+04  0.00000000000E+00 0.  1.
         24    2    1    2    0    0  0.54239509387E+03  0.65845879873E+03  0.34646988261E+04  0.35690644320E+04  0.79514380579E+02 0.  0.
        254    2    1    2    0    0 -0.54239509387E+03 -0.65845879873E+03 -0.68126273687E+03  0.14187718688E+04  0.90610941479E+03 0.  0.
         23    2    4    4    0    0  0.99081171503E+02  0.54233918637E+02  0.10140229233E+03  0.17773448157E+03  0.92459313072E+02 0.  0.
         23    2    4    4    0    0 -0.64147626538E+03 -0.71269271737E+03 -0.78266502919E+03  0.12410373872E+04  0.90479501248E+02 0.  0.
          2    1    3    3  502    0  0.33052085021E+03  0.43871205691E+03  0.21005699159E+04  0.21711992706E+04  0.00000000000E+00 0. -1.
         -1    1    3    3    0  502  0.21187424366E+03  0.21974674183E+03  0.13641289102E+04  0.13978651614E+04  0.00000000000E+00 0.  1.
         11    1    5    5    0    0  0.80359757225E+02  0.77202786806E+02  0.59247881178E+02  0.12620725928E+03  0.00000000000E+00 0. -1.
        -11    1    5    5    0    0  0.18721414277E+02 -0.22968868169E+02  0.42154411148E+02  0.51527222288E+02  0.00000000000E+00 0.  1.
          4    1    6    6  503    0 -0.56138368551E+03 -0.66226843128E+03 -0.71465236769E+03  0.11244906065E+04  0.00000000000E+00 0. -1.
         -4    1    6    6    0  503 -0.80092579868E+02 -0.50424286094E+02 -0.68012661501E+02  0.11654678075E+03  0.00000000000E+00 0.  1.
<mgrwt>
<rscale>  0 0.41389606E+04</rscale>
<asrwt>0</asrwt>
<pdfrwt beam="1">  1        2 0.59779018E+00 0.41389606E+04</pdfrwt>
<pdfrwt beam="2">  1       -1 0.16956925E+00 0.41389606E+04</pdfrwt>
<totfact> 0.92230838E-02</totfact>
</mgrwt>
</event>
<event>
12    6  0.8914180E-008  0.1686566E+04  0.7818608E-02  0.8769064E-01
          2   -1    0    0  501    0  0.00000000000E+00  0.00000000000E+00  0.10542301662E+04  0.10542301662E+04  0.00000000000E+00 0. -1.
         -1   -1    0    0    0  501 -0.00000000000E+00 -0.00000000000E+00 -0.67454529040E+03  0.67454529040E+03  0.00000000000E+00 0.  1.
         24    2    1    2    0    0  0.47156388685E+03  0.12810005563E+03 -0.21014583669E+03  0.53810014199E+03  0.81291859975E+02 0.  0.
        254    2    1    2    0    0 -0.47156388685E+03 -0.12810005563E+03  0.58983071245E+03  0.11906753146E+04  0.91160589715E+03 0.  0.
         23    2    4    4    0    0 -0.68816150220E+03  0.15126429564E+02  0.59638466066E+03  0.91528990830E+03  0.91026868448E+02 0.  0.
         23    2    4    4    0    0  0.21659761535E+03 -0.14322648519E+03 -0.65539482093E+01  0.27538540626E+03  0.91464827710E+02 0.  0.
          4    1    3    3  502    0  0.31204816488E+02  0.26586449853E+02 -0.33735765861E+01  0.41133452406E+02  0.00000000000E+00 0. -1.
         -3    1    3    3    0  502  0.44035907036E+03  0.10151360578E+03 -0.20677226011E+03  0.49696668958E+03  0.00000000000E+00 0.  1.
         11    1    5    5    0    0 -0.59980608198E+03  0.90552364351E+01  0.55614247494E+03  0.81801209388E+03  0.00000000000E+00 0. -1.
        -11    1    5    5    0    0 -0.88355420215E+02  0.60711931293E+01  0.40242185721E+02  0.97277814423E+02  0.00000000000E+00 0.  1.
          1    1    6    6  503    0  0.17259324793E+03 -0.67690173940E+02 -0.21719584319E+02  0.18666046507E+03  0.00000000000E+00 0. -1.
         -1    1    6    6    0  503  0.44004367422E+02 -0.75536311255E+02  0.15165636110E+02  0.88724941188E+02  0.00000000000E+00 0.  1.
<mgrwt>
<rscale>  0 0.16865657E+04</rscale>
<asrwt>0</asrwt>
<pdfrwt beam="1">  1        2 0.16218926E+00 0.16865657E+04</pdfrwt>
<pdfrwt beam="2">  1       -1 0.10377620E+00 0.16865657E+04</pdfrwt>
<totfact> 0.22122059E+01</totfact>
</mgrwt>
</event>
<event>
12    6  0.8914180E-008  0.1935667E+04  0.7818608E-02  0.8637303E-01
         -1   -1    0    0    0  501 -0.00000000000E+00  0.00000000000E+00  0.54064257882E+03  0.54064257882E+03  0.00000000000E+00 0.  1.
          2   -1    0    0  501    0  0.00000000000E+00 -0.00000000000E+00 -0.17325717566E+04  0.17325717566E+04  0.00000000000E+00 0. -1.
         24    2    1    2    0    0 -0.49444831252E+03  0.51803873970E+03 -0.74638628423E+03  0.10373701713E+04  0.78747174267E+02 0.  0.
        254    2    1    2    0    0  0.49444831252E+03 -0.51803873970E+03 -0.44554289353E+03  0.12358441641E+04  0.90330452138E+03 0.  0.
         23    2    4    4    0    0  0.29370094008E+03 -0.41737840024E+03 -0.70859059690E+03  0.87806992142E+03  0.91875903850E+02 0.  0.
         23    2    4    4    0    0  0.20074737244E+03 -0.10066033946E+03  0.26304770337E+03  0.35777424266E+03  0.91522144770E+02 0.  0.
          4    1    3    3  502    0 -0.34317794434E+03  0.37632332921E+03 -0.57749099886E+03  0.76999104109E+03  0.00000000000E+00 0. -1.
         -3    1    3    3    0  502 -0.15127036818E+03  0.14171541048E+03 -0.16889528538E+03  0.26737913023E+03  0.00000000000E+00 0.  1.
         11    1    5    5    0    0  0.18504081314E+03 -0.30865299701E+03 -0.54947074199E+03  0.65682940814E+03  0.00000000000E+00 0.  1.
        -11    1    5    5    0    0  0.10866012694E+03 -0.10872540322E+03 -0.15911985491E+03  0.22124051328E+03  0.00000000000E+00 0. -1.
          2    1    6    6  503    0  0.78486689311E+02 -0.32594407951E+02  0.16902932501E+03  0.18919161859E+03  0.00000000000E+00 0. -1.
         -2    1    6    6    0  503  0.12226068313E+03 -0.68065931510E+02  0.94018378352E+02  0.16858262408E+03  0.00000000000E+00 0.  1.
<mgrwt>
<rscale>  0 0.19356674E+04</rscale>
<asrwt>0</asrwt>
<pdfrwt beam="1">  1        2 0.26654950E+00 0.19356674E+04</pdfrwt>
<pdfrwt beam="2">  1       -1 0.83175781E-01 0.19356674E+04</pdfrwt>
<totfact> 0.14355557E+01</totfact>
</mgrwt>
</event>
<event>
12    6  0.8914180E-008  0.2074533E+04  0.7818608E-02  0.8572546E-01
          2   -1    0    0  501    0  0.00000000000E+00  0.00000000000E+00  0.21285945311E+04  0.21285945311E+04  0.00000000000E+00 0. -1.
         -1   -1    0    0    0  501 -0.00000000000E+00 -0.00000000000E+00 -0.50546106532E+03  0.50546106532E+03  0.00000000000E+00 0.  1.
         24    2    1    2    0    0 -0.24746422409E+03 -0.64078896297E+03  0.12751683326E+04  0.14504988941E+04  0.77741417791E+02 0.  0.
        254    2    1    2    0    0  0.24746422409E+03  0.64078896297E+03  0.34796513324E+03  0.11835567024E+04  0.89882016918E+03 0.  0.
         23    2    4    4    0    0  0.28840919028E+03  0.28110214344E+03 -0.24706819624E+03  0.48116575679E+03  0.90991844804E+02 0.  0.
         23    2    4    4    0    0 -0.40944966191E+02  0.35968681953E+03  0.59503332949E+03  0.70239094559E+03  0.90759455949E+02 0.  0.
          4    1    3    3  502    0 -0.19859406845E+03 -0.53521202170E+03  0.99496608955E+03  0.11471046297E+04  0.00000000000E+00 0. -1.
         -3    1    3    3    0  502 -0.48870155641E+02 -0.10557694127E+03  0.28020224301E+03  0.30339426433E+03  0.00000000000E+00 0.  1.
         11    1    5    5    0    0  0.57340179964E+02  0.24491402355E+02 -0.12163561395E+02  0.63526980516E+02  0.00000000000E+00 0. -1.
        -11    1    5    5    0    0  0.23106901032E+03  0.25661074108E+03 -0.23490463485E+03  0.41763877627E+03  0.00000000000E+00 0.  1.
          3    1    6    6  503    0 -0.50932376849E+02  0.13486182805E+03  0.28383746170E+03  0.31834811817E+03  0.00000000000E+00 0. -1.
         -3    1    6    6    0  503  0.99874106576E+01  0.22482499148E+03  0.31119586778E+03  0.38404282742E+03  0.00000000000E+00 0.  1.
<mgrwt>
<rscale>  0 0.20745329E+04</rscale>
<asrwt>0</asrwt>
<pdfrwt beam="1">  1        2 0.32747608E+00 0.20745329E+04</pdfrwt>
<pdfrwt beam="2">  1       -1 0.77763242E-01 0.20745329E+04</pdfrwt>
<totfact> 0.98628947E+00</totfact>
</mgrwt>
</event>
<event>
12    6  0.8914180E-008  0.2245416E+04  0.7818608E-02  0.8499759E-01
         -1   -1    0    0    0  501 -0.00000000000E+00  0.00000000000E+00  0.39271759789E+03  0.39271759789E+03  0.00000000000E+00 0.  1.
          2   -1    0    0  501    0  0.00000000000E+00 -0.00000000000E+00 -0.32096173345E+04  0.32096173345E+04  0.00000000000E+00 0. -1.
         24    2    1    2    0    0  0.34197740663E+03  0.51788235096E+03 -0.22238701726E+04  0.23101877487E+04  0.78855650225E+02 0.  0.
        254    2    1    2    0    0 -0.34197740663E+03 -0.51788235096E+03 -0.59302956399E+03  0.12921471837E+04  0.96582068957E+03 0.  0.
         23    2    4    4    0    0 -0.41512247490E+03  0.26174910586E+02  0.64951923912E+02  0.43056090550E+03  0.90289234205E+02 0.  0.
         23    2    4    4    0    0  0.73145068266E+02 -0.54405726155E+03 -0.65798148790E+03  0.86158627817E+03  0.89681500029E+02 0.  0.
          2    1    3    3  502    0  0.81404311741E+02  0.11804814124E+03 -0.40057041779E+03  0.42546290700E+03  0.00000000000E+00 0. -1.
         -1    1    3    3    0  502  0.26057309489E+03  0.39983420973E+03 -0.18232997548E+04  0.18847248417E+04  0.00000000000E+00 0.  1.
         11    1    5    5    0    0 -0.10297916381E+03  0.39760758311E+02  0.38883119403E+02  0.11703641765E+03  0.00000000000E+00 0. -1.
        -11    1    5    5    0    0 -0.31214331109E+03 -0.13585847724E+02  0.26068804508E+02  0.31352448785E+03  0.00000000000E+00 0.  1.
          3    1    6    6  503    0 -0.97102522547E+01 -0.25873094931E+03 -0.29478172461E+03  0.39234201698E+03  0.00000000000E+00 0. -1.
         -3    1    6    6    0  503  0.82855320520E+02 -0.28532631224E+03 -0.36319976329E+03  0.46924426118E+03  0.00000000000E+00 0.  1.
<mgrwt>
<rscale>  0 0.22454160E+04</rscale>
<asrwt>0</asrwt>
<pdfrwt beam="1">  1        2 0.49378729E+00 0.22454160E+04</pdfrwt>
<pdfrwt beam="2">  1       -1 0.60418092E-01 0.22454160E+04</pdfrwt>
<totfact> 0.36852928E+00</totfact>
</mgrwt>
</event>
<event>
12    6  0.8914180E-008  0.1480699E+04  0.7818608E-02  0.8897390E-01
         -1   -1    0    0    0  501 -0.00000000000E+00  0.00000000000E+00  0.31540087397E+03  0.31540087397E+03  0.00000000000E+00 0.  1.
          2   -1    0    0  501    0  0.00000000000E+00 -0.00000000000E+00 -0.17378430393E+04  0.17378430393E+04  0.00000000000E+00 0. -1.
         24    2    1    2    0    0  0.42077441700E+03  0.12009073024E+03 -0.24175128549E+03  0.50644527231E+03  0.81056994244E+02 0.  0.
        254    2    1    2    0    0 -0.42077441700E+03 -0.12009073024E+03 -0.11806908798E+04  0.15467986409E+04  0.89837753113E+03 0.  0.
         23    2    4    4    0    0 -0.36656401635E+03 -0.43798350140E+03 -0.10244710901E+04  0.11768992507E+04  0.96706289623E+02 0.  0.
         23    2    4    4    0    0 -0.54210400645E+02  0.31789277116E+03 -0.15621978976E+03  0.36989939020E+03  0.91795177775E+02 0.  0.
          4    1    3    3  502    0  0.33893241298E+03  0.95728082779E+02 -0.15523465748E+03  0.38488549633E+03  0.00000000000E+00 0. -1.
         -3    1    3    3    0  502  0.81842004014E+02  0.24362647461E+02 -0.86516628016E+02  0.12155977598E+03  0.00000000000E+00 0.  1.
         11    1    5    5    0    0 -0.25511233961E+02 -0.64760922095E+02 -0.83510014442E+02  0.10871394851E+03  0.00000000000E+00 0. -1.
        -11    1    5    5    0    0 -0.34105278239E+03 -0.37322257930E+03 -0.94096107562E+03  0.10681853022E+04  0.00000000000E+00 0.  1.
          4    1    6    6  503    0 -0.56477094191E+02  0.25755599935E+03 -0.16164047356E+03  0.30927721814E+03  0.00000000000E+00 0. -1.
         -4    1    6    6    0  503  0.22666935460E+01  0.60336771811E+02  0.54206837970E+01  0.60622172058E+02  0.00000000000E+00 0.  1.
<mgrwt>
<rscale>  0 0.14806988E+04</rscale>
<asrwt>0</asrwt>
<pdfrwt beam="1">  1        2 0.26736046E+00 0.14806988E+04</pdfrwt>
<pdfrwt beam="2">  1       -1 0.48523212E-01 0.14806988E+04</pdfrwt>
<totfact> 0.43761475E+01</totfact>
</mgrwt>
</event>
<event>
12    6  0.8914180E-008  0.1748273E+04  0.7818608E-02  0.8734302E-01
         -1   -1    0    0    0  501 -0.00000000000E+00  0.00000000000E+00  0.10601422366E+04  0.10601422366E+04  0.00000000000E+00 0.  1.
          2   -1    0    0  501    0  0.00000000000E+00 -0.00000000000E+00 -0.72076590005E+03  0.72076590005E+03  0.00000000000E+00 0. -1.
         24    2    1    2    0    0  0.66221676651E+02 -0.15941996250E+03 -0.49322956159E+03  0.52862659995E+03  0.79816331979E+02 0.  0.
        254    2    1    2    0    0 -0.66221676651E+02  0.15941996250E+03  0.83260589811E+03  0.12522815367E+04  0.91933477613E+03 0.  0.
         23    2    4    4    0    0  0.12938726093E+03  0.15414523775E+02 -0.16024196188E+03  0.22602600425E+03  0.91823730130E+02 0.  0.
         23    2    4    4    0    0 -0.19560893758E+03  0.14400543872E+03  0.99284785999E+03  0.10262555324E+04  0.91940860712E+02 0.  0.
          2    1    3    3  502    0  0.42964656660E+02 -0.28229701222E+02 -0.20077644514E+03  0.20725360956E+03  0.00000000000E+00 0. -1.
         -1    1    3    3    0  502  0.23257019991E+02 -0.13119026128E+03 -0.29245311645E+03  0.32137299039E+03  0.00000000000E+00 0.  1.
         11    1    5    5    0    0  0.11863094486E+03  0.34155387688E+02 -0.16274962439E+03  0.20427268986E+03  0.00000000000E+00 0. -1.
        -11    1    5    5    0    0  0.10756316070E+02 -0.18740863914E+02  0.25076625010E+01  0.21753314387E+02  0.00000000000E+00 0.  1.
          4    1    6    6  503    0 -0.81282603743E+02  0.71168270623E+02  0.62407185223E+03  0.63335413566E+03  0.00000000000E+00 0. -1.
         -4    1    6    6    0  503 -0.11432633384E+03  0.72837168100E+02  0.36877600777E+03  0.39290139675E+03  0.00000000000E+00 0.  1.
<mgrwt>
<rscale>  0 0.17482727E+04</rscale>
<asrwt>0</asrwt>
<pdfrwt beam="1">  1        2 0.11088706E+00 0.17482727E+04</pdfrwt>
<pdfrwt beam="2">  1       -1 0.16309880E+00 0.17482727E+04</pdfrwt>
<totfact> 0.11831708E+01</totfact>
</mgrwt>
</event>
<event>
12    6  0.8914180E-008  0.1567930E+04  0.7818608E-02  0.8840496E-01
         -1   -1    0    0    0  501 -0.00000000000E+00  0.00000000000E+00  0.54041559292E+03  0.54041559292E+03  0.00000000000E+00 0.  1.
          2   -1    0    0  501    0  0.00000000000E+00 -0.00000000000E+00 -0.11372751992E+04  0.11372751992E+04  0.00000000000E+00 0. -1.
         24    2    1    2    0    0 -0.37736822665E+03 -0.34798536654E+03 -0.23891065651E+03  0.57175774810E+03  0.79548896298E+02 0.  0.
        254    2    1    2    0    0  0.37736822665E+03  0.34798536654E+03 -0.35794894979E+03  0.11059330440E+04  0.91184420459E+03 0.  0.
         23    2    4    4    0    0  0.13829937737E+03 -0.27226709247E+03 -0.29039224136E+03  0.43149589734E+03  0.92762967605E+02 0.  0.
         23    2    4    4    0    0  0.23906884928E+03  0.62025245901E+03 -0.67556708433E+02  0.67443714671E+03  0.91839688571E+02 0.  0.
          2    1    3    3  502    0 -0.11773239191E+01 -0.15388686729E+01  0.48486488417E+01  0.52214561181E+01  0.00000000000E+00 0. -1.
         -1    1    3    3    0  502 -0.37619090273E+03 -0.34644649787E+03 -0.24375930535E+03  0.56653629198E+03  0.00000000000E+00 0.  1.
         11    1    5    5    0    0  0.95536776400E+02 -0.14161534521E+03 -0.21534340880E+03  0.27487263479E+03  0.00000000000E+00 0. -1.
        -11    1    5    5    0    0  0.42762600969E+02 -0.13065174726E+03 -0.75048832558E+02  0.15662326255E+03  0.00000000000E+00 0.  1.
          2    1    6    6  503    0  0.11707740191E+03  0.22961462734E+03  0.98927149911E+01  0.25792995355E+03  0.00000000000E+00 0. -1.
         -2    1    6    6    0  503  0.12199144737E+03  0.39063783167E+03 -0.77449423424E+02  0.41650719316E+03  0.00000000000E+00 0.  1.
<mgrwt>
<rscale>  0 0.15679302E+04</rscale>
<asrwt>0</asrwt>
<pdfrwt beam="1">  1        2 0.17496542E+00 0.15679302E+04</pdfrwt>
<pdfrwt beam="2">  1       -1 0.83140860E-01 0.15679302E+04</pdfrwt>
<totfact> 0.32546990E+01</totfact>
</mgrwt>
</event>
<event>
12    6  0.8914180E-008  0.2439413E+04  0.7818608E-02  0.8424894E-01
          2   -1    0    0  501    0  0.00000000000E+00  0.00000000000E+00  0.29070371817E+04  0.29070371817E+04  0.00000000000E+00 0. -1.
         -1   -1    0    0    0  501 -0.00000000000E+00 -0.00000000000E+00 -0.51175245215E+03  0.51175245215E+03  0.00000000000E+00 0.  1.
         24    2    1    2    0    0  0.51816498416E+03  0.37785780186E+03 -0.13194644316E+03  0.65941222482E+03  0.78378244123E+02 0.  0.
        254    2    1    2    0    0 -0.51816498416E+03 -0.37785780186E+03  0.25272311727E+04  0.27593774090E+04  0.90332431383E+03 0.  0.
         23    2    4    4    0    0 -0.66731920332E+03 -0.11102203164E+03  0.10835834945E+04  0.12810295008E+04  0.96138347007E+02 0.  0.
         23    2    4    4    0    0  0.14915421916E+03 -0.26683577022E+03  0.14436476782E+04  0.14783479082E+04  0.89138148895E+02 0.  0.
          2    1    3    3  502    0  0.52320618405E+02  0.11932755535E+02 -0.91028364290E+01  0.54430684325E+02  0.00000000000E+00 0. -1.
         -1    1    3    3    0  502  0.46584436575E+03  0.36592504632E+03 -0.12284360673E+03  0.60498154050E+03  0.00000000000E+00 0.  1.
         11    1    5    5    0    0 -0.57446318133E+03 -0.82811876786E+02  0.86270858613E+03  0.10397749075E+04  0.00000000000E+00 0.  1.
        -11    1    5    5    0    0 -0.92856021989E+02 -0.28210154856E+02  0.22087490835E+03  0.24125459332E+03  0.00000000000E+00 0. -1.
          4    1    6    6  503    0  0.75329465356E+02 -0.11777158402E+03  0.46140392458E+03  0.48211850822E+03  0.00000000000E+00 0. -1.
         -4    1    6    6    0  503  0.73824753807E+02 -0.14906418620E+03  0.98224375365E+03  0.99622940003E+03  0.00000000000E+00 0.  1.
<mgrwt>
<rscale>  0 0.24394126E+04</rscale>
<asrwt>0</asrwt>
<pdfrwt beam="1">  1        2 0.44723648E+00 0.24394126E+04</pdfrwt>
<pdfrwt beam="2">  1       -1 0.78731148E-01 0.24394126E+04</pdfrwt>
<totfact> 0.32733124E+00</totfact>
</mgrwt>
</event>
<event>
12    6  0.8914180E-008  0.3159748E+04  0.7818608E-02  0.8199529E-01
          2   -1    0    0  501    0  0.00000000000E+00  0.00000000000E+00  0.32727866052E+04  0.32727866052E+04  0.00000000000E+00 0. -1.
         -1   -1    0    0    0  501 -0.00000000000E+00 -0.00000000000E+00 -0.76265339178E+03  0.76265339178E+03  0.00000000000E+00 0.  1.
         24    2    1    2    0    0  0.12257321967E+04  0.72865527275E+03  0.12371791885E+04  0.18904957627E+04  0.10001979622E+03 0.  0.
        254    2    1    2    0    0 -0.12257321967E+04 -0.72865527275E+03  0.12729540249E+04  0.21449442343E+04  0.97314741646E+03 0.  0.
         23    2    4    4    0    0 -0.26687391826E+03 -0.34079861670E+03 -0.68414135809E+02  0.44863629283E+03  0.96065830932E+02 0.  0.
         23    2    4    4    0    0 -0.95885827845E+03 -0.38785665605E+03  0.13413681607E+04  0.16963079414E+04  0.91378914098E+02 0.  0.
          4    1    3    3  502    0  0.78455028734E+03  0.48448026281E+03  0.73919914074E+03  0.11818018650E+04  0.00000000000E+00 0. -1.
         -1    1    3    3    0  502  0.44118190937E+03  0.24417500994E+03  0.49798004780E+03  0.70869389771E+03  0.00000000000E+00 0.  1.
         11    1    5    5    0    0 -0.18929243960E+03 -0.29823724966E+03 -0.70120758491E+02  0.36013053959E+03  0.00000000000E+00 0.  1.
        -11    1    5    5    0    0 -0.77581478663E+02 -0.42561367045E+02  0.17066226824E+01  0.88505753244E+02  0.00000000000E+00 0. -1.
          2    1    6    6  503    0 -0.85795271309E+03 -0.37469609316E+03  0.12233745521E+04  0.15404951525E+04  0.00000000000E+00 0. -1.
         -2    1    6    6    0  503 -0.10090556536E+03 -0.13160562887E+02  0.11799360856E+03  0.15581278894E+03  0.00000000000E+00 0.  1.
<mgrwt>
<rscale>  0 0.31597480E+04</rscale>
<asrwt>0</asrwt>
<pdfrwt beam="1">  1        2 0.50350562E+00 0.31597480E+04</pdfrwt>
<pdfrwt beam="2">  1       -1 0.11733129E+00 0.31597480E+04</pdfrwt>
<totfact> 0.72804162E-01</totfact>
</mgrwt>
</event>
<event>
12    6  0.8914180E-008  0.1845141E+04  0.7818608E-02  0.8682655E-01
         -3   -1    0    0    0  501 -0.00000000000E+00  0.00000000000E+00  0.93747756181E+03  0.93747756181E+03  0.00000000000E+00 0.  1.
          2   -1    0    0  501    0  0.00000000000E+00 -0.00000000000E+00 -0.90790084130E+03  0.90790084130E+03  0.00000000000E+00 0. -1.
         24    2    1    2    0    0  0.11613456717E+03 -0.69364690393E+03 -0.27445969965E+01  0.70800756433E+03  0.81448838640E+02 0.  0.
        254    2    1    2    0    0 -0.11613456717E+03  0.69364690393E+03  0.32321317503E+02  0.11373708388E+04  0.89327179085E+03 0.  0.
         23    2    4    4    0    0 -0.47342509619E+02  0.56689963036E+02  0.38354389644E+03  0.40097933931E+03  0.90683211976E+02 0.  0.
         23    2    4    4    0    0 -0.68792057555E+02  0.63695694089E+03 -0.35122257893E+03  0.73639149947E+03  0.92025261778E+02 0.  0.
          2    1    3    3  502    0  0.30741884724E+02 -0.29105632449E+03  0.34868814283E+02  0.29474511313E+03  0.00000000000E+00 0. -1.
         -1    1    3    3    0  502  0.85392682450E+02 -0.40259057943E+03 -0.37613411279E+02  0.41326245120E+03  0.00000000000E+00 0.  1.
         11    1    5    5    0    0 -0.43955689538E+02  0.30081532583E+02  0.36378670194E+03  0.36766529039E+03  0.00000000000E+00 0.  1.
        -11    1    5    5    0    0 -0.33868200810E+01  0.26608430453E+02  0.19757194495E+02  0.33314048924E+02  0.00000000000E+00 0. -1.
          2    1    6    6  503    0 -0.89279485287E+02  0.42869519202E+03 -0.23234419658E+03  0.49571586603E+03  0.00000000000E+00 0.  1.
         -2    1    6    6    0  503  0.20487427732E+02  0.20826174887E+03 -0.11887838236E+03  0.24067563344E+03  0.00000000000E+00 0. -1.
<mgrwt>
<rscale>  0 0.18451414E+04</rscale>
<asrwt>0</asrwt>
<pdfrwt beam="1">  1        2 0.13967705E+00 0.18451414E+04</pdfrwt>
<pdfrwt beam="2">  1       -3 0.14422732E+00 0.18451414E+04</pdfrwt>
<totfact> 0.61377974E+00</totfact>
</mgrwt>
</event>
<event>
12    6  0.8914180E-008  0.1835778E+04  0.7818608E-02  0.8687501E-01
          2   -1    0    0  501    0  0.00000000000E+00  0.00000000000E+00  0.29272667776E+04  0.29272667776E+04  0.00000000000E+00 0. -1.
         -1   -1    0    0    0  501 -0.00000000000E+00 -0.00000000000E+00 -0.28781817103E+03  0.28781817103E+03  0.00000000000E+00 0.  1.
         24    2    1    2    0    0  0.37929352951E+03  0.51972847665E+03  0.55522322295E+03  0.85427576701E+03  0.86792786753E+02 0.  0.
        254    2    1    2    0    0 -0.37929352951E+03 -0.51972847665E+03  0.20842253836E+04  0.23608091816E+04  0.90301897616E+03 0.  0.
         23    2    4    4    0    0  0.45751053279E+02 -0.11359776916E+03 -0.37637077694E+02  0.15707771493E+03  0.90880398736E+02 0.  0.
         23    2    4    4    0    0 -0.42504458279E+03 -0.40613070749E+03  0.21218624613E+04  0.22037314667E+04  0.92341884397E+02 0.  0.
          4    1    3    3  502    0  0.32988795726E+03  0.40376531635E+03  0.42099655998E+03  0.67014222262E+03  0.00000000000E+00 0. -1.
         -3    1    3    3    0  502  0.49405572256E+02  0.11596316030E+03  0.13422666297E+03  0.18413354439E+03  0.00000000000E+00 0.  1.
         11    1    5    5    0    0  0.11191443197E+02 -0.27667271025E+02  0.30056479537E+02  0.42357033052E+02  0.00000000000E+00 0. -1.
        -11    1    5    5    0    0  0.34559610082E+02 -0.85930498140E+02 -0.67693557231E+02  0.11472068188E+03  0.00000000000E+00 0.  1.
          1    1    6    6  503    0 -0.28344554287E+03 -0.22185582260E+03  0.13905992062E+04  0.14364287431E+04  0.00000000000E+00 0.  1.
         -1    1    6    6    0  503 -0.14159903992E+03 -0.18427488489E+03  0.73126325516E+03  0.76730272361E+03  0.00000000000E+00 0. -1.
<mgrwt>
<rscale>  0 0.18357784E+04</rscale>
<asrwt>0</asrwt>
<pdfrwt beam="1">  1        2 0.45034872E+00 0.18357784E+04</pdfrwt>
<pdfrwt beam="2">  1       -1 0.44279721E-01 0.18357784E+04</pdfrwt>
<totfact> 0.10486422E+01</totfact>
</mgrwt>
</event>
<event>
12    6  0.8914180E-008  0.1227529E+04  0.7818608E-02  0.9089096E-01
         -1   -1    0    0    0  501 -0.00000000000E+00  0.00000000000E+00  0.26097261832E+03  0.26097261832E+03  0.00000000000E+00 0.  1.
          2   -1    0    0  501    0  0.00000000000E+00 -0.00000000000E+00 -0.14434721934E+04  0.14434721934E+04  0.00000000000E+00 0. -1.
         24    2    1    2    0    0  0.24127588179E+03 -0.11250511234E+03 -0.22318912035E+03  0.35659139703E+03  0.80452405521E+02 0.  0.
        254    2    1    2    0    0 -0.24127588179E+03  0.11250511234E+03 -0.95931045475E+03  0.13478534147E+04  0.90860377918E+03 0.  0.
         23    2    4    4    0    0  0.24076905852E+03 -0.15487697680E+03 -0.63357188591E+03  0.70120349790E+03  0.91194261686E+02 0.  0.
         23    2    4    4    0    0 -0.48204494032E+03  0.26738208914E+03 -0.32573856884E+03  0.64664991682E+03  0.90498583505E+02 0.  0.
          2    1    3    3  502    0  0.33107417913E+02  0.11615211005E+02 -0.20441055019E+02  0.40606046075E+02  0.00000000000E+00 0. -1.
         -1    1    3    3    0  502  0.20816846388E+03 -0.12412032334E+03 -0.20274806533E+03  0.31598535095E+03  0.00000000000E+00 0.  1.
         11    1    5    5    0    0  0.19994089239E+03 -0.16250808730E+03 -0.56602758078E+03  0.62191033203E+03  0.00000000000E+00 0.  1.
        -11    1    5    5    0    0  0.40828166134E+02  0.76311105006E+01 -0.67544305138E+02  0.79293165871E+02  0.00000000000E+00 0. -1.
          4    1    6    6  503    0 -0.76863960428E+02  0.53287739222E+02 -0.95973949281E+02  0.13400988958E+03  0.00000000000E+00 0. -1.
         -4    1    6    6    0  503 -0.40518097989E+03  0.21409434991E+03 -0.22976461956E+03  0.51264002724E+03  0.00000000000E+00 0.  1.
<mgrwt>
<rscale>  0 0.12275288E+04</rscale>
<asrwt>0</asrwt>
<pdfrwt beam="1">  1        2 0.22207264E+00 0.12275288E+04</pdfrwt>
<pdfrwt beam="2">  1       -1 0.40149634E-01 0.12275288E+04</pdfrwt>
<totfact> 0.92748954E+01</totfact>
</mgrwt>
</event>
<event>
12    6  0.8914180E-008  0.2499393E+04  0.7818608E-02  0.8403202E-01
         -1   -1    0    0    0  501 -0.00000000000E+00  0.00000000000E+00  0.89148836382E+03  0.89148836382E+03  0.00000000000E+00 0.  1.
          2   -1    0    0  501    0  0.00000000000E+00 -0.00000000000E+00 -0.17518359238E+04  0.17518359238E+04  0.00000000000E+00 0. -1.
         24    2    1    2    0    0 -0.28058803066E+03  0.92674609358E+03  0.15323797779E+03  0.98358533622E+03  0.79813976695E+02 0.  0.
        254    2    1    2    0    0  0.28058803066E+03 -0.92674609358E+03 -0.10135855378E+04  0.16597389514E+04  0.88870117559E+03 0.  0.
         23    2    4    4    0    0 -0.28193825983E+03 -0.44038990833E+03 -0.61024026866E+03  0.80901857107E+03  0.93195542422E+02 0.  0.
         23    2    4    4    0    0  0.56252629049E+03 -0.48635618525E+03 -0.40334526913E+03  0.85072038034E+03  0.89775235838E+02 0.  0.
          2    1    3    3  502    0  0.16773153739E+01  0.34337474050E+02 -0.35449470775E+01  0.34560702551E+02  0.00000000000E+00 0. -1.
         -1    1    3    3    0  502 -0.28226534603E+03  0.89240861953E+03  0.15678292486E+03  0.94902463367E+03  0.00000000000E+00 0.  1.
         11    1    5    5    0    0 -0.18273163984E+03 -0.28654884642E+03 -0.46160338758E+03  0.57321791756E+03  0.00000000000E+00 0.  1.
        -11    1    5    5    0    0 -0.99206619992E+02 -0.15384106191E+03 -0.14863688107E+03  0.23580065351E+03  0.00000000000E+00 0. -1.
          3    1    6    6  503    0  0.13401362464E+03 -0.92763493262E+02 -0.12680879576E+03  0.20650711357E+03  0.00000000000E+00 0. -1.
         -3    1    6    6    0  503  0.42851266585E+03 -0.39359269199E+03 -0.27653647336E+03  0.64421326677E+03  0.00000000000E+00 0.  1.
<mgrwt>
<rscale>  0 0.24993930E+04</rscale>
<asrwt>0</asrwt>
<pdfrwt beam="1">  1        2 0.26951322E+00 0.24993930E+04</pdfrwt>
<pdfrwt beam="2">  1       -1 0.13715206E+00 0.24993930E+04</pdfrwt>
<totfact> 0.41208185E+00</totfact>
</mgrwt>
</event>
<event>
12    6  0.8914180E-008  0.1659630E+04  0.7818608E-02  0.8784730E-01
          2   -1    0    0  501    0  0.00000000000E+00  0.00000000000E+00  0.24398014481E+04  0.24398014481E+04  0.00000000000E+00 0. -1.
         -1   -1    0    0    0  501 -0.00000000000E+00 -0.00000000000E+00 -0.28223321922E+03  0.28223321922E+03  0.00000000000E+00 0.  1.
         24    2    1    2    0    0 -0.14994554332E+03 -0.16957747615E+03 -0.11559679251E+03  0.26614793771E+03  0.78942510264E+02 0.  0.
        254    2    1    2    0    0  0.14994554332E+03  0.16957747615E+03  0.22731650214E+04  0.24558867297E+04  0.90158761520E+03 0.  0.
         23    2    4    4    0    0  0.43347347321E+02  0.78972542691E+02  0.22843123531E+04  0.22880030913E+04  0.93592544014E+02 0.  0.
         23    2    4    4    0    0  0.10659819600E+03  0.90604933455E+02 -0.11147331634E+02  0.16788363839E+03  0.92131556364E+02 0.  0.
          2    1    3    3  502    0 -0.33847935342E+02 -0.22086453906E+02  0.82761383343E+01  0.41255164995E+02  0.00000000000E+00 0. -1.
         -1    1    3    3    0  502 -0.11609760798E+03 -0.14749102224E+03 -0.12387293085E+03  0.22489277271E+03  0.00000000000E+00 0.  1.
         11    1    5    5    0    0 -0.13405064557E+02 -0.14956713815E+02  0.32586313948E+03  0.32648152278E+03  0.00000000000E+00 0. -1.
        -11    1    5    5    0    0  0.56752411878E+02  0.93929256506E+02  0.19584492136E+04  0.19615215685E+04  0.00000000000E+00 0.  1.
          2    1    6    6  503    0  0.88213582421E+02  0.74104012015E+02 -0.46931112416E+02  0.12440084418E+03  0.00000000000E+00 0.  1.
         -2    1    6    6    0  503  0.18384613582E+02  0.16500921439E+02  0.35783780782E+02  0.43482794206E+02  0.00000000000E+00 0. -1.
<mgrwt>
<rscale>  0 0.16596301E+04</rscale>
<asrwt>0</asrwt>
<pdfrwt beam="1">  1        2 0.37535406E+00 0.16596301E+04</pdfrwt>
<pdfrwt beam="2">  1       -1 0.43420497E-01 0.16596301E+04</pdfrwt>
<totfact> 0.21493936E+01</totfact>
</mgrwt>
</event>
<event>
12    6  0.8914180E-008  0.2507075E+04  0.7818608E-02  0.8400469E-01
         -1   -1    0    0    0  501 -0.00000000000E+00  0.00000000000E+00  0.67319376370E+03  0.67319376370E+03  0.00000000000E+00 0.  1.
          2   -1    0    0  501    0  0.00000000000E+00 -0.00000000000E+00 -0.23341817316E+04  0.23341817316E+04  0.00000000000E+00 0. -1.
         24    2    1    2    0    0  0.67867256189E+03  0.30002215084E+03  0.23458738597E+03  0.78231052716E+03  0.79804648955E+02 0.  0.
        254    2    1    2    0    0 -0.67867256189E+03 -0.30002215084E+03 -0.18955753539E+04  0.22250649681E+04  0.89838658328E+03 0.  0.
         23    2    4    4    0    0 -0.74764973515E+03 -0.51189412183E+03 -0.16211480634E+04  0.18593698623E+04  0.90108394524E+02 0.  0.
         23    2    4    4    0    0  0.68977173255E+02  0.21187197099E+03 -0.27442729044E+03  0.36569510587E+03  0.93674917643E+02 0.  0.
          2    1    3    3  502    0  0.29522193145E+02 -0.22749974505E+00  0.19737160174E+02  0.35512915058E+02  0.00000000000E+00 0. -1.
         -1    1    3    3    0  502  0.64915036875E+03  0.30024965058E+03  0.21485022579E+03  0.74679761210E+03  0.00000000000E+00 0.  1.
         11    1    5    5    0    0 -0.64460347347E+03 -0.40395060135E+03 -0.13799447631E+04  0.15757338848E+04  0.00000000000E+00 0. -1.
        -11    1    5    5    0    0 -0.10304626168E+03 -0.10794352048E+03 -0.24120330028E+03  0.28363597749E+03  0.00000000000E+00 0.  1.
          4    1    6    6  503    0  0.87841214824E+02  0.20063619972E+03 -0.24053570269E+03  0.32531275403E+03  0.00000000000E+00 0. -1.
         -4    1    6    6    0  503 -0.18864041569E+02  0.11235771266E+02 -0.33891587748E+02  0.40382351842E+02  0.00000000000E+00 0.  1.
<mgrwt>
<rscale>  0 0.25070753E+04</rscale>
<asrwt>0</asrwt>
<pdfrwt beam="1">  1        2 0.35910489E+00 0.25070753E+04</pdfrwt>
<pdfrwt beam="2">  1       -1 0.10356827E+00 0.25070753E+04</pdfrwt>
<totfact> 0.38629046E+00</totfact>
</mgrwt>
</event>
<event>
12    6  0.8914180E-008  0.1753171E+04  0.7818608E-02  0.8731607E-01
          2   -1    0    0  501    0  0.00000000000E+00  0.00000000000E+00  0.12007129651E+04  0.12007129651E+04  0.00000000000E+00 0. -1.
         -1   -1    0    0    0  501 -0.00000000000E+00 -0.00000000000E+00 -0.63995493533E+03  0.63995493533E+03  0.00000000000E+00 0.  1.
         24    2    1    2    0    0 -0.52043820353E+03 -0.20380747962E+03  0.52835749528E+03  0.77329950711E+03  0.80231368076E+02 0.  0.
        254    2    1    2    0    0  0.52043820353E+03  0.20380747962E+03  0.32400534438E+02  0.10673683933E+04  0.90875303571E+03 0.  0.
         23    2    4    4    0    0  0.76398491908E+02  0.50661906010E+03  0.46648672892E+02  0.52243075474E+03  0.90874601465E+02 0.  0.
         23    2    4    4    0    0  0.44403971162E+03 -0.30281158048E+03 -0.14248138455E+02  0.54493763854E+03  0.88813859721E+02 0.  0.
          2    1    3    3  502    0 -0.43357691245E+03 -0.13611216281E+03  0.43059219373E+03  0.62603921377E+03  0.00000000000E+00 0. -1.
         -1    1    3    3    0  502 -0.86861291082E+02 -0.67695316804E+02  0.97765301557E+02  0.14726029334E+03  0.00000000000E+00 0.  1.
         11    1    5    5    0    0  0.62215751934E+02  0.25026934582E+03 -0.15234736686E+02  0.25833629719E+03  0.00000000000E+00 0. -1.
        -11    1    5    5    0    0  0.14182739974E+02  0.25634971428E+03  0.61883409579E+02  0.26409445755E+03  0.00000000000E+00 0.  1.
          2    1    6    6  503    0  0.84424746443E+02 -0.83507922873E+02  0.26795201744E+02  0.12173370047E+03  0.00000000000E+00 0. -1.
         -2    1    6    6    0  503  0.35961496518E+03 -0.21930365761E+03 -0.41043340199E+02  0.42320393807E+03  0.00000000000E+00 0.  1.
<mgrwt>
<rscale>  0 0.17531711E+04</rscale>
<asrwt>0</asrwt>
<pdfrwt beam="1">  1        2 0.18472507E+00 0.17531711E+04</pdfrwt>
<pdfrwt beam="2">  1       -1 0.98454606E-01 0.17531711E+04</pdfrwt>
<totfact> 0.20194634E+01</totfact>
</mgrwt>
</event>
<event>
12    6  0.8914180E-008  0.3134594E+04  0.7818608E-02  0.8206308E-01
         -1   -1    0    0    0  501 -0.00000000000E+00  0.00000000000E+00  0.10672324547E+04  0.10672324547E+04  0.00000000000E+00 0.  1.
          2   -1    0    0  501    0  0.00000000000E+00 -0.00000000000E+00 -0.23016728910E+04  0.23016728910E+04  0.00000000000E+00 0. -1.
         24    2    1    2    0    0  0.10011766004E+04 -0.10220818519E+04 -0.69423253077E+03  0.15919256147E+04  0.72542806353E+02 0.  0.
        254    2    1    2    0    0 -0.10011766004E+04  0.10220818519E+04 -0.54020790551E+03  0.17769797311E+04  0.90489031723E+03 0.  0.
         23    2    4    4    0    0  0.93676165519E+02  0.15967240647E+03 -0.29216200876E+03  0.35830374524E+03  0.93554439316E+02 0.  0.
         23    2    4    4    0    0 -0.10948527660E+04  0.86240944539E+03 -0.24804589675E+03  0.14186759858E+04  0.93070699934E+02 0.  0.
          4    1    3    3  502    0  0.63780707895E+03 -0.67179605794E+03 -0.41416299261E+03  0.10147111894E+04  0.00000000000E+00 0. -1.
         -3    1    3    3    0  502  0.36336952149E+03 -0.35028579393E+03 -0.28006953817E+03  0.57721442531E+03  0.00000000000E+00 0.  1.
         11    1    5    5    0    0  0.37711138436E+02  0.88005614277E+02 -0.22720786957E+03  0.24655736473E+03  0.00000000000E+00 0. -1.
        -11    1    5    5    0    0  0.55965027083E+02  0.71666792195E+02 -0.64954139189E+02  0.11174638051E+03  0.00000000000E+00 0.  1.
          1    1    6    6  503    0 -0.77864798477E+03  0.58859807917E+03 -0.13489224580E+03  0.98536100032E+03  0.00000000000E+00 0. -1.
         -1    1    6    6    0  503 -0.31620478119E+03  0.27381136623E+03 -0.11315365095E+03  0.43331498549E+03  0.00000000000E+00 0.  1.
<mgrwt>
<rscale>  0 0.31345941E+04</rscale>
<asrwt>0</asrwt>
<pdfrwt beam="1">  1        2 0.35410352E+00 0.31345941E+04</pdfrwt>
<pdfrwt beam="2">  1       -1 0.16418961E+00 0.31345941E+04</pdfrwt>
<totfact> 0.11830605E+00</totfact>
</mgrwt>
</event>
<event>
12    6  0.8914180E-008  0.2121294E+04  0.7818608E-02  0.8551921E-01
         -1   -1    0    0    0  501 -0.00000000000E+00  0.00000000000E+00  0.63710150615E+03  0.63710150615E+03  0.00000000000E+00 0.  1.
          2   -1    0    0  501    0  0.00000000000E+00 -0.00000000000E+00 -0.17657656058E+04  0.17657656058E+04  0.00000000000E+00 0. -1.
         24    2    1    2    0    0 -0.28019286664E+03  0.64715512154E+03 -0.10415409906E+04  0.12603374404E+04  0.79530086703E+02 0.  0.
        254    2    1    2    0    0  0.28019286664E+03 -0.64715512154E+03 -0.87123109082E+02  0.11425296716E+04  0.89468755467E+03 0.  0.
         23    2    4    4    0    0 -0.22414159499E+03 -0.40835903893E+03 -0.27307968929E+03  0.54711972473E+03  0.88152805971E+02 0.  0.
         23    2    4    4    0    0  0.50433446163E+03 -0.23879608261E+03  0.18595658020E+03  0.59540994686E+03  0.92500469428E+02 0.  0.
          4    1    3    3  502    0 -0.26043051337E+03  0.61540527530E+03 -0.95030928563E+03  0.11617381131E+04  0.00000000000E+00 0. -1.
         -3    1    3    3    0  502 -0.19762353263E+02  0.31749846247E+02 -0.91231704953E+02  0.98599327238E+02  0.00000000000E+00 0.  1.
         11    1    5    5    0    0 -0.99321852456E+02 -0.12067222956E+03 -0.57329206611E+02  0.16647298668E+03  0.00000000000E+00 0. -1.
        -11    1    5    5    0    0 -0.12481974254E+03 -0.28768680937E+03 -0.21575048267E+03  0.38064673805E+03  0.00000000000E+00 0.  1.
          2    1    6    6  503    0  0.43434714107E+03 -0.18350944226E+03  0.12642287909E+03  0.48817609396E+03  0.00000000000E+00 0. -1.
         -2    1    6    6    0  503  0.69987320562E+02 -0.55286640354E+02  0.59533701117E+02  0.10723385291E+03  0.00000000000E+00 0.  1.
<mgrwt>
<rscale>  0 0.21212939E+04</rscale>
<asrwt>0</asrwt>
<pdfrwt beam="1">  1        2 0.27165625E+00 0.21212939E+04</pdfrwt>
<pdfrwt beam="2">  1       -1 0.98015616E-01 0.21212939E+04</pdfrwt>
<totfact> 0.94217251E+00</totfact>
</mgrwt>
</event>
<event>
12    6  0.8914180E-008  0.1403015E+04  0.7818608E-02  0.8951639E-01
         -3   -1    0    0    0  501 -0.00000000000E+00  0.00000000000E+00  0.64770309939E+03  0.64770309939E+03  0.00000000000E+00 0.  1.
          4   -1    0    0  501    0  0.00000000000E+00 -0.00000000000E+00 -0.75978192632E+03  0.75978192632E+03  0.00000000000E+00 0. -1.
         24    2    1    2    0    0 -0.61741562369E+02 -0.22772005096E+03 -0.36641980264E+03  0.44283703963E+03  0.78566721772E+02 0.  0.
        254    2    1    2    0    0  0.61741562369E+02  0.22772005096E+03  0.25434097570E+03  0.96464798608E+03  0.90010441782E+03 0.  0.
         23    2    4    4    0    0 -0.59544304624E+02 -0.30820666118E+03  0.24342445611E+03  0.40781510506E+03  0.92308308811E+02 0.  0.
         23    2    4    4    0    0  0.12128586699E+03  0.53592671214E+03  0.10916519598E+02  0.55683288102E+03  0.89532031501E+02 0.  0.
          2    1    3    3  502    0 -0.27626394893E+02 -0.14125385872E+03 -0.28493875644E+03  0.31922713735E+03  0.00000000000E+00 0. -1.
         -1    1    3    3    0  502 -0.34115167476E+02 -0.86466192241E+02 -0.81481046195E+02  0.12360990228E+03  0.00000000000E+00 0.  1.
         11    1    5    5    0    0 -0.34924274043E+02 -0.95337514679E+02  0.13126185023E+03  0.16594764219E+03  0.00000000000E+00 0. -1.
        -11    1    5    5    0    0 -0.24620030581E+02 -0.21286914650E+03  0.11216260587E+03  0.24186746287E+03  0.00000000000E+00 0.  1.
          4    1    6    6  503    0  0.61275718080E+02  0.38116681523E+03 -0.25484466134E+02  0.38690090808E+03  0.00000000000E+00 0. -1.
         -4    1    6    6    0  503  0.60010148913E+02  0.15475989691E+03  0.36400985732E+02  0.16993197293E+03  0.00000000000E+00 0.  1.
<mgrwt>
<rscale>  0 0.14030155E+04</rscale>
<asrwt>0</asrwt>
<pdfrwt beam="1">  1        4 0.11688953E+00 0.14030155E+04</pdfrwt>
<pdfrwt beam="2">  1       -3 0.99646631E-01 0.14030155E+04</pdfrwt>
<totfact> 0.11080699E+00</totfact>
</mgrwt>
</event>
<event>
12    6  0.8914180E-008  0.1345005E+04  0.7818608E-02  0.8994618E-01
         -1   -1    0    0    0  501 -0.00000000000E+00  0.00000000000E+00  0.46202475268E+03  0.46202475268E+03  0.00000000000E+00 0.  1.
          2   -1    0    0  501    0  0.00000000000E+00 -0.00000000000E+00 -0.97886415729E+03  0.97886415729E+03  0.00000000000E+00 0. -1.
         24    2    1    2    0    0 -0.11569201896E+03 -0.11318489044E+03  0.20788517429E+03  0.27643899780E+03  0.83706697119E+02 0.  0.
        254    2    1    2    0    0  0.11569201896E+03  0.11318489044E+03 -0.72472457890E+03  0.11644499122E+04  0.89695173783E+03 0.  0.
         23    2    4    4    0    0 -0.12334576283E+03 -0.31675097176E+03 -0.10377284743E+03  0.36700366240E+03  0.91528842604E+02 0.  0.
         23    2    4    4    0    0  0.23903778180E+03  0.42993586219E+03 -0.62095173147E+03  0.79744624976E+03  0.91408761715E+02 0.  0.
          2    1    3    3  502    0 -0.32631770174E+02 -0.62811333954E+02  0.36991073499E+02  0.79865108879E+02  0.00000000000E+00 0. -1.
         -1    1    3    3    0  502 -0.83060248787E+02 -0.50373556482E+02  0.17089410079E+03  0.19657388893E+03  0.00000000000E+00 0.  1.
         11    1    5    5    0    0 -0.73700857157E+02 -0.13012965727E+03 -0.39171376180E+01  0.14960243318E+03  0.00000000000E+00 0. -1.
        -11    1    5    5    0    0 -0.49644905677E+02 -0.18662131449E+03 -0.99855709812E+02  0.21740122921E+03  0.00000000000E+00 0.  1.
          3    1    6    6  503    0  0.97138409519E+02  0.23435635756E+03 -0.37418052983E+03  0.45207282802E+03  0.00000000000E+00 0. -1.
         -3    1    6    6    0  503  0.14189937228E+03  0.19557950464E+03 -0.24677120164E+03  0.34537342174E+03  0.00000000000E+00 0.  1.
<mgrwt>
<rscale>  0 0.13450048E+04</rscale>
<asrwt>0</asrwt>
<pdfrwt beam="1">  1        2 0.15059448E+00 0.13450048E+04</pdfrwt>
<pdfrwt beam="2">  1       -1 0.71080732E-01 0.13450048E+04</pdfrwt>
<totfact> 0.57942805E+01</totfact>
</mgrwt>
</event>
<event>
12    6  0.8914180E-008  0.1158492E+04  0.7818608E-02  0.9149985E-01
          2   -1    0    0  501    0  0.00000000000E+00  0.00000000000E+00  0.28930906924E+04  0.28930906924E+04  0.00000000000E+00 0. -1.
         -1   -1    0    0    0  501 -0.00000000000E+00 -0.00000000000E+00 -0.11597484406E+03  0.11597484406E+03  0.00000000000E+00 0.  1.
         24    2    1    2    0    0  0.21141085942E+03  0.36516032138E+02  0.54282312691E+03  0.58949310145E+03  0.82566321612E+02 0.  0.
        254    2    1    2    0    0 -0.21141085942E+03 -0.36516032138E+02  0.22342927214E+04  0.24195724350E+04  0.90345936884E+03 0.  0.
         23    2    4    4    0    0  0.27899136770E+03  0.10721012294E+03  0.36939249705E+03  0.48377810656E+03  0.90885894379E+02 0.  0.
         23    2    4    4    0    0 -0.49040222712E+03 -0.14372615508E+03  0.18649002244E+04  0.19357943284E+04  0.91078445059E+02 0.  0.
          2    1    3    3  502    0  0.58078699366E+02  0.47802781025E+02  0.20372483910E+03  0.21716825565E+03  0.00000000000E+00 0. -1.
         -1    1    3    3    0  502  0.15333216006E+03 -0.11286748887E+02  0.33909828781E+03  0.37232484580E+03  0.00000000000E+00 0.  1.
         11    1    5    5    0    0  0.18008799692E+02 -0.13855160954E+02  0.43420796812E+02  0.49006611260E+02  0.00000000000E+00 0. -1.
        -11    1    5    5    0    0  0.26098256801E+03  0.12106528390E+03  0.32597170024E+03  0.43477149530E+03  0.00000000000E+00 0.  1.
          1    1    6    6  503    0 -0.21780803034E+02  0.22190471356E+01  0.35613437351E+02  0.41804837889E+02  0.00000000000E+00 0. -1.
         -1    1    6    6    0  503 -0.46862142409E+03 -0.14594520222E+03  0.18292867870E+04  0.18939894905E+04  0.00000000000E+00 0.  1.
<mgrwt>
<rscale>  0 0.11584917E+04</rscale>
<asrwt>0</asrwt>
<pdfrwt beam="1">  1        2 0.44509082E+00 0.11584917E+04</pdfrwt>
<pdfrwt beam="2">  1       -1 0.17842286E-01 0.11584917E+04</pdfrwt>
<totfact> 0.57361557E+01</totfact>
</mgrwt>
</event>
<event>
12    6  0.8914180E-008  0.1749752E+04  0.7818608E-02  0.8733487E-01
         -1   -1    0    0    0  501 -0.00000000000E+00  0.00000000000E+00  0.31126604206E+03  0.31126604206E+03  0.00000000000E+00 0.  1.
          2   -1    0    0  501    0  0.00000000000E+00 -0.00000000000E+00 -0.24590164663E+04  0.24590164663E+04  0.00000000000E+00 0. -1.
         24    2    1    2    0    0  0.32646630122E+03  0.20794856476E+01 -0.16476595899E+04  0.16818390908E+04  0.84947237443E+02 0.  0.
        254    2    1    2    0    0 -0.32646630122E+03 -0.20794856476E+01 -0.50009083435E+03  0.10884434175E+04  0.90996354900E+03 0.  0.
         23    2    4    4    0    0  0.18108563575E+03  0.19463410206E+03 -0.45496476109E+03  0.53456798412E+03  0.89975300224E+02 0.  0.
         23    2    4    4    0    0 -0.50755193697E+03 -0.19671358770E+03 -0.45126073253E+02  0.55387543342E+03  0.91850035092E+02 0.  0.
          2    1    3    3  502    0  0.69083016074E+02  0.34908372163E+02 -0.41730423231E+03  0.42442181831E+03  0.00000000000E+00 0. -1.
         -1    1    3    3    0  502  0.25738328514E+03 -0.32828886516E+02 -0.12303553576E+04  0.12574172725E+04  0.00000000000E+00 0.  1.
         11    1    5    5    0    0  0.17500155488E+03  0.19687406584E+03 -0.45724852641E+03  0.52769418882E+03  0.00000000000E+00 0. -1.
        -11    1    5    5    0    0  0.60840808747E+01 -0.22399637837E+01  0.22837653147E+01  0.68737953021E+01  0.00000000000E+00 0.  1.
          3    1    6    6  503    0 -0.38383841354E+03 -0.15105875272E+03  0.57482915173E+01  0.41253329240E+03  0.00000000000E+00 0. -1.
         -3    1    6    6    0  503 -0.12371352343E+03 -0.45654834986E+02 -0.50874364770E+02  0.14134214102E+03  0.00000000000E+00 0.  1.
<mgrwt>
<rscale>  0 0.17497524E+04</rscale>
<asrwt>0</asrwt>
<pdfrwt beam="1">  1        2 0.37831024E+00 0.17497524E+04</pdfrwt>
<pdfrwt beam="2">  1       -1 0.47887082E-01 0.17497524E+04</pdfrwt>
<totfact> 0.17309278E+01</totfact>
</mgrwt>
</event>
<event>
12    6  0.8914180E-008  0.2042470E+04  0.7818608E-02  0.8587018E-01
         -1   -1    0    0    0  501 -0.00000000000E+00  0.00000000000E+00  0.58441886093E+03  0.58441886093E+03  0.00000000000E+00 0.  1.
          2   -1    0    0  501    0  0.00000000000E+00 -0.00000000000E+00 -0.17845437489E+04  0.17845437489E+04  0.00000000000E+00 0. -1.
         24    2    1    2    0    0  0.23480461678E+03 -0.72810058148E+03 -0.14422711896E+03  0.78268567413E+03  0.80819167454E+02 0.  0.
        254    2    1    2    0    0 -0.23480461678E+03  0.72810058148E+03 -0.10558977690E+04  0.15862769357E+04  0.90337741462E+03 0.  0.
         23    2    4    4    0    0 -0.24198237295E+03  0.81487016690E+03 -0.11481382053E+04  0.14314751329E+04  0.91273543396E+02 0.  0.
         23    2    4    4    0    0  0.71777561757E+01 -0.86769585415E+02  0.92240436361E+02  0.15480180280E+03  0.88740176427E+02 0.  0.
          4    1    3    3  502    0  0.16940447062E+03 -0.58858454492E+03 -0.88526817268E+02  0.61884298377E+03  0.00000000000E+00 0. -1.
         -1    1    3    3    0  502  0.65400146161E+02 -0.13951603656E+03 -0.55700301691E+02  0.16384269036E+03  0.00000000000E+00 0.  1.
         11    1    5    5    0    0 -0.79847462921E+02  0.42858266836E+03 -0.59201223454E+03  0.73521235490E+03  0.00000000000E+00 0. -1.
        -11    1    5    5    0    0 -0.16213491003E+03  0.38628749854E+03 -0.55612597079E+03  0.69626277796E+03  0.00000000000E+00 0.  1.
          2    1    6    6  503    0 -0.11014435738E+02 -0.86993354028E+02  0.34445184488E+02  0.94210573579E+02  0.00000000000E+00 0. -1.
         -2    1    6    6    0  503  0.18192191914E+02  0.22376861327E+00  0.57795251873E+02  0.60591229218E+02  0.00000000000E+00 0.  1.
<mgrwt>
<rscale>  0 0.20424701E+04</rscale>
<asrwt>0</asrwt>
<pdfrwt beam="1">  1        2 0.27454519E+00 0.20424701E+04</pdfrwt>
<pdfrwt beam="2">  1       -1 0.89910594E-01 0.20424701E+04</pdfrwt>
<totfact> 0.11233057E+01</totfact>
</mgrwt>
</event>
<event>
12    6  0.8914180E-008  0.2070319E+04  0.7818608E-02  0.8574432E-01
         -1   -1    0    0    0  501 -0.00000000000E+00  0.00000000000E+00  0.61112690006E+03  0.61112690006E+03  0.00000000000E+00 0.  1.
          2   -1    0    0  501    0  0.00000000000E+00 -0.00000000000E+00 -0.17534080128E+04  0.17534080128E+04  0.00000000000E+00 0. -1.
         24    2    1    2    0    0  0.35094132642E+03  0.63091867365E+03  0.17066241186E+02  0.72716128475E+03  0.85170946436E+02 0.  0.
        254    2    1    2    0    0 -0.35094132642E+03 -0.63091867365E+03 -0.11593473539E+04  0.16373736281E+04  0.90315442955E+03 0.  0.
         23    2    4    4    0    0 -0.46347045155E+03 -0.46632316413E+03 -0.26190585295E+03  0.71365462774E+03  0.91902660620E+02 0.  0.
         23    2    4    4    0    0  0.11252912513E+03 -0.16459550952E+03 -0.89744150096E+03  0.92371900035E+03  0.90005878707E+02 0.  0.
          2    1    3    3  502    0  0.45389636090E+02  0.53014884338E+02 -0.19397953688E+02  0.72436714676E+02  0.00000000000E+00 0. -1.
         -1    1    3    3    0  502  0.30555169033E+03  0.57790378931E+03  0.36464194874E+02  0.65472457008E+03  0.00000000000E+00 0.  1.
         11    1    5    5    0    0 -0.88047291792E+02 -0.77644718538E+02 -0.85423819474E+02  0.14518352814E+03  0.00000000000E+00 0.  1.
        -11    1    5    5    0    0 -0.37542315975E+03 -0.38867844559E+03 -0.17648203348E+03  0.56847109961E+03  0.00000000000E+00 0. -1.
          2    1    6    6  503    0  0.11416887111E+03 -0.17385578169E+03 -0.83193027772E+03  0.85753620970E+03  0.00000000000E+00 0. -1.
         -2    1    6    6    0  503 -0.16397459739E+01  0.92602721761E+01 -0.65511223244E+02  0.66182790653E+02  0.00000000000E+00 0.  1.
<mgrwt>
<rscale>  0 0.20703186E+04</rscale>
<asrwt>0</asrwt>
<pdfrwt beam="1">  1        2 0.26975507E+00 0.20703186E+04</pdfrwt>
<pdfrwt beam="2">  1       -1 0.94019525E-01 0.20703186E+04</pdfrwt>
<totfact> 0.10559230E+01</totfact>
</mgrwt>
</event>
<event>
12    6  0.8914180E-008  0.3391859E+04  0.7818608E-02  0.8139907E-01
         -1   -1    0    0    0  501 -0.00000000000E+00  0.00000000000E+00  0.91569216380E+03  0.91569216380E+03  0.00000000000E+00 0.  1.
          2   -1    0    0  501    0  0.00000000000E+00 -0.00000000000E+00 -0.31409866067E+04  0.31409866067E+04  0.00000000000E+00 0. -1.
         24    2    1    2    0    0  0.52909532459E+03 -0.12035076677E+04 -0.20812901577E+04  0.24633453873E+04  0.89046100196E+02 0.  0.
        254    2    1    2    0    0 -0.52909532459E+03  0.12035076677E+04 -0.14400428524E+03  0.15933333832E+04  0.88859522116E+03 0.  0.
         23    2    4    4    0    0 -0.32180035078E+03  0.12795308988E+04 -0.22483938923E+03  0.13412280462E+04  0.87092676731E+02 0.  0.
         23    2    4    4    0    0 -0.20729497381E+03 -0.76023231026E+02  0.80835103990E+02  0.25210533700E+03  0.90950805837E+02 0.  0.
          4    1    3    3  502    0  0.45022688873E+03 -0.10897651985E+04 -0.18745820756E+04  0.22145767987E+04  0.00000000000E+00 0. -1.
         -1    1    3    3    0  502  0.78868435855E+02 -0.11374246918E+03 -0.20670808209E+03  0.24876858859E+03  0.00000000000E+00 0.  1.
         11    1    5    5    0    0 -0.19987394575E+03  0.66236970621E+03 -0.88182775529E+02  0.69746643202E+03  0.00000000000E+00 0. -1.
        -11    1    5    5    0    0 -0.12192640503E+03  0.61716119255E+03 -0.13665661370E+03  0.64376161419E+03  0.00000000000E+00 0.  1.
          4    1    6    6  503    0 -0.18258350727E+02 -0.39690829010E+02  0.97295173596E+00  0.43699838831E+02  0.00000000000E+00 0. -1.
         -4    1    6    6    0  503 -0.18903662308E+03 -0.36332402016E+02  0.79862152254E+02  0.20840549817E+03  0.00000000000E+00 0.  1.
<mgrwt>
<rscale>  0 0.33918590E+04</rscale>
<asrwt>0</asrwt>
<pdfrwt beam="1">  1        2 0.48322871E+00 0.33918590E+04</pdfrwt>
<pdfrwt beam="2">  1       -1 0.14087572E+00 0.33918590E+04</pdfrwt>
<totfact> 0.54927697E-01</totfact>
</mgrwt>
</event>
<event>
12    6  0.8914180E-008  0.1651216E+04  0.7818608E-02  0.8789687E-01
         -1   -1    0    0    0  501 -0.00000000000E+00  0.00000000000E+00  0.64068805550E+03  0.64068805550E+03  0.00000000000E+00 0.  1.
          2   -1    0    0  501    0  0.00000000000E+00 -0.00000000000E+00 -0.10639013137E+04  0.10639013137E+04  0.00000000000E+00 0. -1.
         24    2    1    2    0    0  0.10469230812E+03  0.56511004100E+03 -0.22200730717E+03  0.62107014468E+03  0.78300972895E+02 0.  0.
        254    2    1    2    0    0 -0.10469230812E+03 -0.56511004100E+03 -0.20120595099E+03  0.10835192245E+04  0.89622555046E+03 0.  0.
         23    2    4    4    0    0 -0.30357767288E+03 -0.60056204000E+03 -0.39819070576E+03  0.78707599220E+03  0.89992288500E+02 0.  0.
         23    2    4    4    0    0  0.19888536476E+03  0.35451999000E+02  0.19698475477E+03  0.29644323228E+03  0.90903046186E+02 0.  0.
          2    1    3    3  502    0  0.10009379232E+03  0.54771285999E+03 -0.22862808751E+03  0.60189612614E+03  0.00000000000E+00 0. -1.
         -1    1    3    3    0  502  0.45985158006E+01  0.17397181011E+02  0.66207803440E+01  0.19174018542E+02  0.00000000000E+00 0.  1.
         11    1    5    5    0    0 -0.14978615396E+03 -0.20017198478E+03 -0.14713449961E+03  0.29009184129E+03  0.00000000000E+00 0. -1.
        -11    1    5    5    0    0 -0.15379151892E+03 -0.40039005522E+03 -0.25105620615E+03  0.49698415091E+03  0.00000000000E+00 0.  1.
          4    1    6    6  503    0  0.82282629320E+02 -0.28715553013E+02  0.62571452147E+02  0.10728560340E+03  0.00000000000E+00 0. -1.
         -4    1    6    6    0  503  0.11660273544E+03  0.64167552013E+02  0.13441330262E+03  0.18915762888E+03  0.00000000000E+00 0.  1.
<mgrwt>
<rscale>  0 0.16512164E+04</rscale>
<asrwt>0</asrwt>
<pdfrwt beam="1">  1        2 0.16367712E+00 0.16512164E+04</pdfrwt>
<pdfrwt beam="2">  1       -1 0.98567394E-01 0.16512164E+04</pdfrwt>
<totfact> 0.24628056E+01</totfact>
</mgrwt>
</event>
<event>
12    6  0.8914180E-008  0.2343754E+04  0.7818608E-02  0.8460867E-01
         -1   -1    0    0    0  501 -0.00000000000E+00  0.00000000000E+00  0.15628940152E+04  0.15628940152E+04  0.00000000000E+00 0.  1.
          2   -1    0    0  501    0  0.00000000000E+00 -0.00000000000E+00 -0.87868749101E+03  0.87868749101E+03  0.00000000000E+00 0. -1.
         24    2    1    2    0    0 -0.34124276073E+03  0.90982508255E+03  0.42940161387E+03  0.10654408016E+04  0.80932398793E+02 0.  0.
        254    2    1    2    0    0  0.34124276073E+03 -0.90982508255E+03  0.25480491033E+03  0.13761407046E+04  0.94053675841E+03 0.  0.
         23    2    4    4    0    0  0.45011156508E+03 -0.59302325723E+03  0.53986548291E+03  0.92423936960E+03  0.92123113524E+02 0.  0.
         23    2    4    4    0    0 -0.10886880436E+03 -0.31680182532E+03 -0.28506057258E+03  0.45190133499E+03  0.10363143075E+03 0.  0.
          4    1    3    3  502    0 -0.15599306993E+02  0.33224062297E+02  0.34404260964E+02  0.50307354002E+02  0.00000000000E+00 0. -1.
         -3    1    3    3    0  502 -0.32564345374E+03  0.87660102025E+03  0.39499735291E+03  0.10151334476E+04  0.00000000000E+00 0.  1.
         11    1    5    5    0    0  0.77896165947E+02 -0.69856335563E+02  0.46432034744E+02  0.11447119349E+03  0.00000000000E+00 0.  1.
        -11    1    5    5    0    0  0.37221539914E+03 -0.52316692166E+03  0.49343344817E+03  0.80976817611E+03  0.00000000000E+00 0. -1.
          2    1    6    6  503    0  0.20727698359E+01 -0.11692493274E+03 -0.13421892470E+03  0.17801813396E+03  0.00000000000E+00 0. -1.
         -2    1    6    6    0  503 -0.11094157419E+03 -0.19987689259E+03 -0.15084164788E+03  0.27388320103E+03  0.00000000000E+00 0.  1.
<mgrwt>
<rscale>  0 0.23437538E+04</rscale>
<asrwt>0</asrwt>
<pdfrwt beam="1">  1        2 0.13518269E+00 0.23437538E+04</pdfrwt>
<pdfrwt beam="2">  1       -1 0.24044523E+00 0.23437538E+04</pdfrwt>
<totfact> 0.25156121E+00</totfact>
</mgrwt>
</event>
<event>
12    6  0.8914180E-008  0.2100680E+04  0.7818608E-02  0.8560944E-01
         -1   -1    0    0    0  501 -0.00000000000E+00  0.00000000000E+00  0.69349554095E+03  0.69349554095E+03  0.00000000000E+00 0.  1.
          2   -1    0    0  501    0  0.00000000000E+00 -0.00000000000E+00 -0.15908015777E+04  0.15908015777E+04  0.00000000000E+00 0. -1.
         24    2    1    2    0    0 -0.16981891510E+03  0.81682122897E+03 -0.18849012299E+03  0.85901951609E+03  0.79690768089E+02 0.  0.
        254    2    1    2    0    0  0.16981891510E+03 -0.81682122897E+03 -0.70881591379E+03  0.14252776026E+04  0.91266689477E+03 0.  0.
         23    2    4    4    0    0 -0.47640144676E+02  0.58587315503E+02 -0.47443649220E+03  0.48888062353E+03  0.90621311006E+02 0.  0.
         23    2    4    4    0    0  0.21745905978E+03 -0.87540854448E+03 -0.23437942159E+03  0.93639697907E+03  0.90978166236E+02 0.  0.
          4    1    3    3  502    0 -0.15759763570E+02  0.14768444369E+03 -0.64843777587E+01  0.14866442820E+03  0.00000000000E+00 0. -1.
         -3    1    3    3    0  502 -0.15405915153E+03  0.66913678528E+03 -0.18200574524E+03  0.71035508789E+03  0.00000000000E+00 0.  1.
         11    1    5    5    0    0 -0.56659999830E+02  0.75485209140E+02 -0.33178123927E+03  0.34494515957E+03  0.00000000000E+00 0. -1.
        -11    1    5    5    0    0  0.90198551538E+01 -0.16897893637E+02 -0.14265525293E+03  0.14393546396E+03  0.00000000000E+00 0.  1.
          4    1    6    6  503    0  0.20046254125E+03 -0.81865781410E+03 -0.24142214945E+03  0.87673855925E+03  0.00000000000E+00 0. -1.
         -4    1    6    6    0  503  0.16996518531E+02 -0.56750730379E+02  0.70427278546E+01  0.59658419828E+02  0.00000000000E+00 0.  1.
<mgrwt>
<rscale>  0 0.21006797E+04</rscale>
<asrwt>0</asrwt>
<pdfrwt beam="1">  1        2 0.24473870E+00 0.21006797E+04</pdfrwt>
<pdfrwt beam="2">  1       -1 0.10669162E+00 0.21006797E+04</pdfrwt>
<totfact> 0.97147881E+00</totfact>
</mgrwt>
</event>
<event>
12    6  0.8914180E-008  0.1467279E+04  0.7818608E-02  0.8906508E-01
          2   -1    0    0  501    0  0.00000000000E+00  0.00000000000E+00  0.46916546849E+03  0.46916546849E+03  0.00000000000E+00 0. -1.
         -1   -1    0    0    0  501 -0.00000000000E+00 -0.00000000000E+00 -0.11472008542E+04  0.11472008542E+04  0.00000000000E+00 0.  1.
         24    2    1    2    0    0 -0.36182488279E+03  0.51421256926E+02 -0.64593742995E+03  0.74630173602E+03  0.78547605393E+02 0.  0.
        254    2    1    2    0    0  0.36182488279E+03 -0.51421256926E+02 -0.32097955716E+02  0.87006458663E+03  0.78893644528E+03 0.  0.
         23    2    4    4    0    0  0.38550497711E+03  0.24664180412E+03  0.17078681617E+03  0.49683833619E+03  0.90740998523E+02 0.  0.
         23    2    4    4    0    0 -0.23680094326E+02 -0.29806306104E+03 -0.20288477188E+03  0.37322625045E+03  0.93451956283E+02 0.  0.
          4    1    3    3  502    0 -0.37961805327E+02  0.74522828540E+01 -0.12929809530E+03  0.13496159688E+03  0.00000000000E+00 0. -1.
         -3    1    3    3    0  502 -0.32386307746E+03  0.43968974072E+02 -0.51663933464E+03  0.61134013914E+03  0.00000000000E+00 0.  1.
         11    1    5    5    0    0  0.31005995392E+03  0.23662722485E+03  0.15057111461E+03  0.41809242892E+03  0.00000000000E+00 0. -1.
        -11    1    5    5    0    0  0.75445023186E+02  0.10014579270E+02  0.20215701553E+02  0.78745907264E+02  0.00000000000E+00 0.  1.
          2    1    6    6  503    0 -0.44809149879E+02 -0.27924221288E+03 -0.17055306335E+03  0.33026114029E+03  0.00000000000E+00 0. -1.
         -2    1    6    6    0  503  0.21129055553E+02 -0.18820848167E+02 -0.32331708534E+02  0.42965110159E+02  0.00000000000E+00 0.  1.
<mgrwt>
<rscale>  0 0.14672792E+04</rscale>
<asrwt>0</asrwt>
<pdfrwt beam="1">  1        2 0.72179304E-01 0.14672792E+04</pdfrwt>
<pdfrwt beam="2">  1       -1 0.17649244E+00 0.14672792E+04</pdfrwt>
<totfact> 0.16196343E+01</totfact>
</mgrwt>
</event>
<event>
12    6  0.8914180E-008  0.1412040E+04  0.7818608E-02  0.8945149E-01
          4   -1    0    0  501    0  0.00000000000E+00  0.00000000000E+00  0.12492071034E+04  0.12492071034E+04  0.00000000000E+00 0. -1.
         -3   -1    0    0    0  501 -0.00000000000E+00 -0.00000000000E+00 -0.39902467025E+03  0.39902467025E+03  0.00000000000E+00 0.  1.
         24    2    1    2    0    0 -0.24626091382E+03  0.23535313506E+03 -0.18124660450E+02  0.35023557255E+03  0.79378316328E+02 0.  0.
        254    2    1    2    0    0  0.24626091382E+03 -0.23535313506E+03  0.86830709358E+03  0.12979962011E+04  0.90266349954E+03 0.  0.
         23    2    4    4    0    0 -0.30123292009E+03 -0.25559549618E+03  0.42667106432E+03  0.58866880627E+03  0.91719335643E+02 0.  0.
         23    2    4    4    0    0  0.54749383391E+03  0.20242361119E+02  0.44163602926E+03  0.70932739481E+03  0.89127545326E+02 0.  0.
          4    1    3    3  502    0 -0.58727993217E+02  0.10110122019E+03 -0.24727322808E+02  0.11950679648E+03  0.00000000000E+00 0. -1.
         -3    1    3    3    0  502 -0.18753292060E+03  0.13425191487E+03  0.66026623589E+01  0.23072877607E+03  0.00000000000E+00 0.  1.
         11    1    5    5    0    0 -0.29280168571E+03 -0.23004650672E+03  0.36516520748E+03  0.52153604972E+03  0.00000000000E+00 0.  1.
        -11    1    5    5    0    0 -0.84312343835E+01 -0.25548989461E+02  0.61505856838E+02  0.67132756543E+02  0.00000000000E+00 0. -1.
          1    1    6    6  503    0  0.27462741235E+03 -0.34427769559E+02  0.22156720841E+03  0.35453845317E+03  0.00000000000E+00 0. -1.
         -1    1    6    6    0  503  0.27286642157E+03  0.54670130678E+02  0.22006882084E+03  0.35478894165E+03  0.00000000000E+00 0.  1.
<mgrwt>
<rscale>  0 0.14120403E+04</rscale>
<asrwt>0</asrwt>
<pdfrwt beam="1">  1        4 0.19218571E+00 0.14120403E+04</pdfrwt>
<pdfrwt beam="2">  1       -3 0.61388411E-01 0.14120403E+04</pdfrwt>
<totfact> 0.85332784E-01</totfact>
</mgrwt>
</event>
<event>
12    6  0.8914180E-008  0.1968493E+04  0.7818608E-02  0.8621495E-01
          2   -1    0    0  501    0  0.00000000000E+00  0.00000000000E+00  0.30011065320E+04  0.30011065320E+04  0.00000000000E+00 0. -1.
         -1   -1    0    0    0  501 -0.00000000000E+00 -0.00000000000E+00 -0.32279452780E+03  0.32279452780E+03  0.00000000000E+00 0.  1.
         24    2    1    2    0    0 -0.18039829414E+03 -0.72543989444E+03  0.67941416015E+03  0.10133131696E+04  0.79958700542E+02 0.  0.
        254    2    1    2    0    0  0.18039829414E+03  0.72543989444E+03  0.19988978440E+04  0.23105878901E+04  0.88567331573E+03 0.  0.
         23    2    4    4    0    0  0.38012664039E+03  0.48385211421E+03  0.18508232326E+04  0.19524796149E+04  0.89559349581E+02 0.  0.
         23    2    4    4    0    0 -0.19972834625E+03  0.24158778023E+03  0.14807461142E+03  0.35810827523E+03  0.89774040741E+02 0.  0.
          2    1    3    3  502    0 -0.10227173366E+03 -0.36780386670E+03  0.29477188278E+03  0.48231696501E+03  0.00000000000E+00 0. -1.
         -1    1    3    3    0  502 -0.78126560480E+02 -0.35763602774E+03  0.38464227737E+03  0.53099620463E+03  0.00000000000E+00 0.  1.
         11    1    5    5    0    0  0.25296084650E+03  0.26573894978E+03  0.11798021233E+04  0.12355320430E+04  0.00000000000E+00 0.  1.
        -11    1    5    5    0    0  0.12716579389E+03  0.21811316443E+03  0.67102110934E+03  0.71694757187E+03  0.00000000000E+00 0. -1.
          1    1    6    6  503    0 -0.44959278638E+02  0.12329431271E+03  0.57416274110E+02  0.14324612670E+03  0.00000000000E+00 0. -1.
         -1    1    6    6    0  503 -0.15476906761E+03  0.11829346751E+03  0.90658337308E+02  0.21486214852E+03  0.00000000000E+00 0.  1.
<mgrwt>
<rscale>  0 0.19684926E+04</rscale>
<asrwt>0</asrwt>
<pdfrwt beam="1">  1        2 0.46170868E+00 0.19684926E+04</pdfrwt>
<pdfrwt beam="2">  1       -1 0.49660699E-01 0.19684926E+04</pdfrwt>
<totfact> 0.75139161E+00</totfact>
</mgrwt>
</event>
<event>
12    6  0.8914180E-008  0.1804454E+04  0.7818608E-02  0.8703934E-01
         -1   -1    0    0    0  501 -0.00000000000E+00  0.00000000000E+00  0.29111801604E+03  0.29111801604E+03  0.00000000000E+00 0.  1.
          2   -1    0    0  501    0  0.00000000000E+00 -0.00000000000E+00 -0.27961645908E+04  0.27961645908E+04  0.00000000000E+00 0. -1.
         24    2    1    2    0    0 -0.25278459221E+03 -0.47381399176E+03 -0.24245555231E+03  0.59458948227E+03  0.79700744875E+02 0.  0.
        254    2    1    2    0    0  0.25278459221E+03  0.47381399176E+03 -0.22625910224E+04  0.24926931245E+04  0.89766426328E+03 0.  0.
         23    2    4    4    0    0  0.41422352720E+03  0.65720623372E+03 -0.16051532069E+04  0.17855965905E+04  0.91308282250E+02 0.  0.
         23    2    4    4    0    0 -0.16143893499E+03 -0.18339224196E+03 -0.65743781551E+03  0.70709653399E+03  0.89809704274E+02 0.  0.
          4    1    3    3  502    0  0.27481118084E+01 -0.11299854421E+01  0.26610005142E+01  0.39887227714E+01  0.00000000000E+00 0. -1.
         -3    1    3    3    0  502 -0.25553270401E+03 -0.47268400632E+03 -0.24511655283E+03  0.59060075950E+03  0.00000000000E+00 0.  1.
         11    1    5    5    0    0  0.72219475953E+02  0.15569950016E+03 -0.28733020456E+03  0.33468886075E+03  0.00000000000E+00 0. -1.
        -11    1    5    5    0    0  0.34200405125E+03  0.50150673356E+03 -0.13178230024E+04  0.14509077298E+04  0.00000000000E+00 0.  1.
          2    1    6    6  503    0 -0.16708163500E+03 -0.18131459605E+03 -0.65615275155E+03  0.70094770766E+03  0.00000000000E+00 0.  1.
         -2    1    6    6    0  503  0.56427000101E+01 -0.20776459076E+01 -0.12850639511E+01  0.61488263335E+01  0.00000000000E+00 0. -1.
<mgrwt>
<rscale>  0 0.18044544E+04</rscale>
<asrwt>0</asrwt>
<pdfrwt beam="1">  1        2 0.43017917E+00 0.18044544E+04</pdfrwt>
<pdfrwt beam="2">  1       -1 0.44787386E-01 0.18044544E+04</pdfrwt>
<totfact> 0.12373593E+01</totfact>
</mgrwt>
</event>
<event>
12    6  0.8914180E-008  0.2417284E+04  0.7818608E-02  0.8433061E-01
         -1   -1    0    0    0  501 -0.00000000000E+00  0.00000000000E+00  0.84275718121E+03  0.84275718121E+03  0.00000000000E+00 0.  1.
          2   -1    0    0  501    0  0.00000000000E+00 -0.00000000000E+00 -0.17333771757E+04  0.17333771757E+04  0.00000000000E+00 0. -1.
         24    2    1    2    0    0 -0.69723281949E+03  0.74523720342E+03 -0.17596836884E+03  0.10387010983E+04  0.80143688937E+02 0.  0.
        254    2    1    2    0    0  0.69723281949E+03 -0.74523720342E+03 -0.71465162568E+03  0.15374332586E+04  0.90081184753E+03 0.  0.
         23    2    4    4    0    0  0.19846078359E+03 -0.24297032166E+03 -0.75503366364E+03  0.82257107011E+03  0.90144729848E+02 0.  0.
         23    2    4    4    0    0  0.49877203590E+03 -0.50226688177E+03  0.40382037960E+02  0.71486218850E+03  0.91387500442E+02 0.  0.
          4    1    3    3  502    0 -0.25246485790E+03  0.30339329457E+03 -0.36014905684E+02  0.39633706500E+03  0.00000000000E+00 0. -1.
         -3    1    3    3    0  502 -0.44476796159E+03  0.44184390886E+03 -0.13995346315E+03  0.64236403332E+03  0.00000000000E+00 0.  1.
         11    1    5    5    0    0  0.20788400245E+03 -0.22747621365E+03 -0.71800835193E+03  0.78134318944E+03  0.00000000000E+00 0.  1.
        -11    1    5    5    0    0 -0.94232188626E+01 -0.15494108007E+02 -0.37025311718E+02  0.41227880669E+02  0.00000000000E+00 0. -1.
          4    1    6    6  503    0  0.55036087923E+02 -0.45504700389E+02  0.31331917452E+02  0.77982932636E+02  0.00000000000E+00 0. -1.
         -4    1    6    6    0  503  0.44373594798E+03 -0.45676218138E+03  0.90501205083E+01  0.63687925586E+03  0.00000000000E+00 0.  1.
<mgrwt>
<rscale>  0 0.24172845E+04</rscale>
<asrwt>0</asrwt>
<pdfrwt beam="1">  1        2 0.26667341E+00 0.24172845E+04</pdfrwt>
<pdfrwt beam="2">  1       -1 0.12965495E+00 0.24172845E+04</pdfrwt>
<totfact> 0.49046000E+00</totfact>
</mgrwt>
</event>
<event>
12    6  0.8914180E-008  0.1813023E+04  0.7818608E-02  0.8699405E-01
         -1   -1    0    0    0  501 -0.00000000000E+00  0.00000000000E+00  0.85043916387E+03  0.85043916387E+03  0.00000000000E+00 0.  1.
          2   -1    0    0  501    0  0.00000000000E+00 -0.00000000000E+00 -0.96628039951E+03  0.96628039951E+03  0.00000000000E+00 0. -1.
         24    2    1    2    0    0  0.31086862726E+03 -0.31539991029E+03 -0.54456514780E+03  0.70644245127E+03  0.79958301174E+02 0.  0.
        254    2    1    2    0    0 -0.31086862726E+03  0.31539991029E+03  0.42872391216E+03  0.11102771121E+04  0.92346882243E+03 0.  0.
         23    2    4    4    0    0  0.23308478519E+03 -0.15332183877E+03  0.17982732694E+03  0.34474169129E+03  0.93128206632E+02 0.  0.
         23    2    4    4    0    0 -0.54395341245E+03  0.46872174907E+03  0.24889658522E+03  0.76553542082E+03  0.92247370894E+02 0.  0.
          2    1    3    3  502    0  0.25437431675E+03 -0.29595234071E+03 -0.47034757893E+03  0.61116358367E+03  0.00000000000E+00 0. -1.
         -1    1    3    3    0  502  0.56494310504E+02 -0.19447569584E+02 -0.74217568873E+02  0.95278867602E+02  0.00000000000E+00 0.  1.
         11    1    5    5    0    0  0.23028093450E+03 -0.13176585753E+03  0.14152431899E+03  0.30070032070E+03  0.00000000000E+00 0. -1.
        -11    1    5    5    0    0  0.28038506920E+01 -0.21555981242E+02  0.38303007943E+02  0.44041370590E+02  0.00000000000E+00 0.  1.
          3    1    6    6  503    0 -0.21967250185E+03  0.21409858259E+03  0.15039461078E+03  0.34163247809E+03  0.00000000000E+00 0. -1.
         -3    1    6    6    0  503 -0.32428091060E+03  0.25462316648E+03  0.98501974436E+02  0.42390294273E+03  0.00000000000E+00 0.  1.
<mgrwt>
<rscale>  0 0.18130226E+04</rscale>
<asrwt>0</asrwt>
<pdfrwt beam="1">  1        2 0.14865852E+00 0.18130226E+04</pdfrwt>
<pdfrwt beam="2">  1       -1 0.13083680E+00 0.18130226E+04</pdfrwt>
<totfact> 0.14224073E+01</totfact>
</mgrwt>
</event>
<event>
12    6  0.8914180E-008  0.1172585E+04  0.7818608E-02  0.9137197E-01
         -1   -1    0    0    0  501 -0.00000000000E+00  0.00000000000E+00  0.12555521595E+03  0.12555521595E+03  0.00000000000E+00 0.  1.
          2   -1    0    0  501    0  0.00000000000E+00 -0.00000000000E+00 -0.27377531391E+04  0.27377531391E+04  0.00000000000E+00 0. -1.
         24    2    1    2    0    0 -0.20834955958E+02 -0.12877508753E+02 -0.11282956518E+04  0.11313980117E+04  0.80065331956E+02 0.  0.
        254    2    1    2    0    0  0.20834955958E+02  0.12877508753E+02 -0.14839022713E+04  0.17319103433E+04  0.89271919483E+03 0.  0.
         23    2    4    4    0    0 -0.32147585275E+03 -0.14521957612E+03 -0.25599520668E+03  0.44432203324E+03  0.86331188993E+02 0.  0.
         23    2    4    4    0    0  0.34231080870E+03  0.15809708487E+03 -0.12279070646E+04  0.12875883100E+04  0.89199320904E+02 0.  0.
          4    1    3    3  502    0 -0.28337228193E+02 -0.21444738658E+02 -0.11039374326E+04  0.11045092714E+04  0.00000000000E+00 0. -1.
         -3    1    3    3    0  502  0.75022722356E+01  0.85672299050E+01 -0.24358219199E+02  0.26888740385E+02  0.00000000000E+00 0.  1.
         11    1    5    5    0    0 -0.60271099502E+02 -0.42951956673E+02 -0.96581749074E+02  0.12167789557E+03  0.00000000000E+00 0. -1.
        -11    1    5    5    0    0 -0.26120475325E+03 -0.10226761944E+03 -0.15941345761E+03  0.32264413767E+03  0.00000000000E+00 0.  1.
          3    1    6    6  503    0  0.28430979563E+03  0.94051270143E+02 -0.99890442580E+03  0.10428268088E+04  0.00000000000E+00 0.  1.
         -3    1    6    6    0  503  0.58001013077E+02  0.64045814726E+02 -0.22900263878E+03  0.24476150120E+03  0.00000000000E+00 0. -1.
<mgrwt>
<rscale>  0 0.11725855E+04</rscale>
<asrwt>0</asrwt>
<pdfrwt beam="1">  1        2 0.42119277E+00 0.11725855E+04</pdfrwt>
<pdfrwt beam="2">  1       -1 0.19316188E-01 0.11725855E+04</pdfrwt>
<totfact> 0.62199585E+01</totfact>
</mgrwt>
</event>
<event>
12    6  0.8914180E-008  0.3206422E+04  0.7818608E-02  0.8187123E-01
         -1   -1    0    0    0  501 -0.00000000000E+00  0.00000000000E+00  0.70093495861E+03  0.70093495861E+03  0.00000000000E+00 0.  1.
          2   -1    0    0  501    0  0.00000000000E+00 -0.00000000000E+00 -0.36669393212E+04  0.36669393212E+04  0.00000000000E+00 0. -1.
         24    2    1    2    0    0  0.14063101287E+03 -0.70177163003E+03  0.39081985311E+03  0.81929032463E+03  0.78968195874E+02 0.  0.
        254    2    1    2    0    0 -0.14063101287E+03  0.70177163003E+03 -0.33568242157E+04  0.35485839552E+04  0.90106535245E+03 0.  0.
         23    2    4    4    0    0 -0.30854975748E+03  0.31403051064E+03 -0.28368582623E+04  0.28722572687E+04  0.90988476787E+02 0.  0.
         23    2    4    4    0    0  0.16791874461E+03  0.38774111939E+03 -0.51996595342E+03  0.67632668648E+03  0.92267619849E+02 0.  0.
          4    1    3    3  502    0  0.31149766374E+02 -0.77397440721E+02  0.69593076834E+02  0.10864560791E+03  0.00000000000E+00 0. -1.
         -3    1    3    3    0  502  0.10948124650E+03 -0.62437418931E+03  0.32122677628E+03  0.71064471672E+03  0.00000000000E+00 0.  1.
         11    1    5    5    0    0 -0.85178250774E+02  0.37220765239E+02 -0.66488894903E+03  0.67135537110E+03  0.00000000000E+00 0.  1.
        -11    1    5    5    0    0 -0.22337150670E+03  0.27680974540E+03 -0.21719693133E+04  0.22009018976E+04  0.00000000000E+00 0. -1.
          3    1    6    6  503    0  0.87215505666E+02  0.23745453139E+03 -0.24130376447E+03  0.34959791998E+03  0.00000000000E+00 0. -1.
         -3    1    6    6    0  503  0.80703238939E+02  0.15028658800E+03 -0.27866218896E+03  0.32672876650E+03  0.00000000000E+00 0.  1.
<mgrwt>
<rscale>  0 0.32064223E+04</rscale>
<asrwt>0</asrwt>
<pdfrwt beam="1">  1        2 0.56414451E+00 0.32064223E+04</pdfrwt>
<pdfrwt beam="2">  1       -1 0.10783615E+00 0.32064223E+04</pdfrwt>
<totfact> 0.47119882E-01</totfact>
</mgrwt>
</event>
<event>
12    6  0.8914180E-008  0.1536949E+04  0.7818608E-02  0.8860248E-01
         -3   -1    0    0    0  501 -0.00000000000E+00  0.00000000000E+00  0.71979119675E+03  0.71979119675E+03  0.00000000000E+00 0.  1.
          2   -1    0    0  501    0  0.00000000000E+00 -0.00000000000E+00 -0.82045012051E+03  0.82045012051E+03  0.00000000000E+00 0. -1.
         24    2    1    2    0    0  0.31587799169E+03  0.15003542957E+03  0.32039020374E+03  0.48102716321E+03  0.80297654582E+02 0.  0.
        254    2    1    2    0    0 -0.31587799169E+03 -0.15003542957E+03 -0.42104912751E+03  0.10592141541E+04  0.90684216963E+03 0.  0.
         23    2    4    4    0    0 -0.51451099955E+03 -0.34339712526E+03 -0.11226179065E+03  0.63453903396E+03  0.85987915896E+02 0.  0.
         23    2    4    4    0    0  0.19863300786E+03  0.19336169569E+03 -0.30878733686E+03  0.42467512010E+03  0.90307923526E+02 0.  0.
          2    1    3    3  502    0  0.67760946640E+02  0.47470074645E+02  0.12110518083E+03  0.14666771526E+03  0.00000000000E+00 0. -1.
         -1    1    3    3    0  502  0.24811704505E+03  0.10256535492E+03  0.19928502292E+03  0.33435944795E+03  0.00000000000E+00 0.  1.
         11    1    5    5    0    0 -0.30492448149E+03 -0.19334956328E+03 -0.10754590872E+03  0.37673480794E+03  0.00000000000E+00 0. -1.
        -11    1    5    5    0    0 -0.20958651806E+03 -0.15004756198E+03 -0.47158819283E+01  0.25780422602E+03  0.00000000000E+00 0.  1.
          3    1    6    6  503    0  0.19956034947E+03  0.20087174197E+03 -0.30514231718E+03  0.41627589834E+03  0.00000000000E+00 0. -1.
         -3    1    6    6    0  503 -0.92734161483E+00 -0.75100462821E+01 -0.36450196814E+01  0.83992217560E+01  0.00000000000E+00 0.  1.
<mgrwt>
<rscale>  0 0.15369486E+04</rscale>
<asrwt>0</asrwt>
<pdfrwt beam="1">  1        2 0.12622309E+00 0.15369486E+04</pdfrwt>
<pdfrwt beam="2">  1       -3 0.11073711E+00 0.15369486E+04</pdfrwt>
<totfact> 0.13919449E+01</totfact>
</mgrwt>
</event>
<event>
12    6  0.8914180E-008  0.1240673E+04  0.7818608E-02  0.9077982E-01
          2   -1    0    0  501    0  0.00000000000E+00  0.00000000000E+00  0.26935934189E+03  0.26935934189E+03  0.00000000000E+00 0. -1.
         -1   -1    0    0    0  501 -0.00000000000E+00 -0.00000000000E+00 -0.14286401569E+04  0.14286401569E+04  0.00000000000E+00 0.  1.
         24    2    1    2    0    0 -0.48060220194E+02 -0.27332099559E+03 -0.35202145575E+03  0.45510330410E+03  0.78649607138E+02 0.  0.
        254    2    1    2    0    0  0.48060220194E+02  0.27332099559E+03 -0.80725935928E+03  0.12428961947E+04  0.90338758363E+03 0.  0.
         23    2    4    4    0    0  0.21338335832E+03 -0.80263421616E+02  0.89104175749E+02  0.26095793460E+03  0.90469967598E+02 0.  0.
         23    2    4    4    0    0 -0.16532313813E+03  0.35358441720E+03 -0.89636353503E+03  0.98193826010E+03  0.91550421212E+02 0.  0.
          2    1    3    3  502    0 -0.16709081370E+02 -0.18275065468E+03 -0.28181076756E+03  0.33629496562E+03  0.00000000000E+00 0. -1.
         -1    1    3    3    0  502 -0.31351138825E+02 -0.90570340903E+02 -0.70210688183E+02  0.11880833848E+03  0.00000000000E+00 0.  1.
         11    1    5    5    0    0  0.26921473483E+02 -0.42313103061E+02 -0.15646715983E+01  0.50175817107E+02  0.00000000000E+00 0. -1.
        -11    1    5    5    0    0  0.18646188484E+03 -0.37950318555E+02  0.90668847347E+02  0.21078211750E+03  0.00000000000E+00 0.  1.
          3    1    6    6  503    0  0.94446261856E+00  0.84902105085E+02 -0.18399306796E+03  0.20263935579E+03  0.00000000000E+00 0. -1.
         -3    1    6    6    0  503 -0.16626760075E+03  0.26868231212E+03 -0.71237046706E+03  0.77929890430E+03  0.00000000000E+00 0.  1.
<mgrwt>
<rscale>  0 0.12406733E+04</rscale>
<asrwt>0</asrwt>
<pdfrwt beam="1">  1        2 0.41439899E-01 0.12406733E+04</pdfrwt>
<pdfrwt beam="2">  1       -1 0.21979079E+00 0.12406733E+04</pdfrwt>
<totfact> 0.15430362E+01</totfact>
</mgrwt>
</event>
<event>
12    6  0.8914180E-008  0.1528158E+04  0.7818608E-02  0.8865941E-01
          2   -1    0    0  501    0  0.00000000000E+00  0.00000000000E+00  0.13198722529E+04  0.13198722529E+04  0.00000000000E+00 0. -1.
         -1   -1    0    0    0  501 -0.00000000000E+00 -0.00000000000E+00 -0.44232826441E+03  0.44232826441E+03  0.00000000000E+00 0.  1.
         24    2    1    2    0    0 -0.28049565425E+03  0.90953313728E+02  0.74410089521E+03  0.80439964140E+03  0.80139400426E+02 0.  0.
        254    2    1    2    0    0  0.28049565425E+03 -0.90953313728E+02  0.13344309333E+03  0.95780087596E+03  0.90145723221E+03 0.  0.
         23    2    4    4    0    0  0.16840902304E+03  0.38579595846E+03 -0.34158620593E+02  0.43099417421E+03  0.85959561637E+02 0.  0.
         23    2    4    4    0    0  0.11208663121E+03 -0.47674927218E+03  0.16760171392E+03  0.52680670175E+03  0.97886082160E+02 0.  0.
          4    1    3    3  502    0 -0.24534973217E+03  0.92653701273E+02  0.70281512565E+03  0.75015351781E+03  0.00000000000E+00 0. -1.
         -3    1    3    3    0  502 -0.35145922081E+02 -0.17003875445E+01  0.41285769558E+02  0.54246123592E+02  0.00000000000E+00 0.  1.
         11    1    5    5    0    0  0.17371355865E+03  0.38149836102E+03 -0.41175700095E+02  0.42120403393E+03  0.00000000000E+00 0.  1.
        -11    1    5    5    0    0 -0.53045356163E+01  0.42975974319E+01  0.70170795021E+01  0.97901402712E+01  0.00000000000E+00 0. -1.
          2    1    6    6  503    0  0.57008188602E+02 -0.40490119801E+03  0.13597681156E+03  0.43091136792E+03  0.00000000000E+00 0.  1.
         -2    1    6    6    0  503  0.55078442606E+02 -0.71848074171E+02  0.31624902366E+02  0.95895333836E+02  0.00000000000E+00 0. -1.
<mgrwt>
<rscale>  0 0.15281581E+04</rscale>
<asrwt>0</asrwt>
<pdfrwt beam="1">  1        2 0.20305727E+00 0.15281581E+04</pdfrwt>
<pdfrwt beam="2">  1       -1 0.68050503E-01 0.15281581E+04</pdfrwt>
<totfact> 0.38676973E+01</totfact>
</mgrwt>
</event>
<event>
12    6  0.8914180E-008  0.4490444E+04  0.7818608E-02  0.7912312E-01
         -1   -1    0    0    0  501 -0.00000000000E+00  0.00000000000E+00  0.37303133126E+04  0.37303133126E+04  0.00000000000E+00 0.  1.
          2   -1    0    0  501    0  0.00000000000E+00 -0.00000000000E+00 -0.13513670474E+04  0.13513670474E+04  0.00000000000E+00 0. -1.
         24    2    1    2    0    0  0.20735481640E+04 -0.38915364065E+03  0.16538707670E+04  0.26819214932E+04  0.79823790291E+02 0.  0.
        254    2    1    2    0    0 -0.20735481640E+04  0.38915364065E+03  0.72507549824E+03  0.23997588668E+04  0.88434472703E+03 0.  0.
         23    2    4    4    0    0 -0.12025138340E+04 -0.15226852928E+03  0.62064249682E+03  0.13647319379E+04  0.89838340168E+02 0.  0.
         23    2    4    4    0    0 -0.87103432997E+03  0.54142216992E+03  0.10443300142E+03  0.10350269289E+04  0.92388969902E+02 0.  0.
          4    1    3    3  502    0  0.29749958247E+03 -0.42764927811E+02  0.26772011032E+03  0.40250328954E+03  0.00000000000E+00 0. -1.
         -3    1    3    3    0  502  0.17760485815E+04 -0.34638871283E+03  0.13861506567E+04  0.22794182037E+04  0.00000000000E+00 0.  1.
         11    1    5    5    0    0 -0.84786205547E+03 -0.13012791834E+03  0.47663846259E+03  0.98131929782E+03  0.00000000000E+00 0.  1.
        -11    1    5    5    0    0 -0.35465177854E+03 -0.22140610931E+02  0.14400403423E+03  0.38341264005E+03  0.00000000000E+00 0. -1.
          4    1    6    6  503    0 -0.62975673042E+03  0.43247375575E+03  0.97988201417E+02  0.77021346167E+03  0.00000000000E+00 0.  1.
         -4    1    6    6    0  503 -0.24127759955E+03  0.10894841417E+03  0.64447999988E+01  0.26481346726E+03  0.00000000000E+00 0. -1.
<mgrwt>
<rscale>  0 0.44904443E+04</rscale>
<asrwt>0</asrwt>
<pdfrwt beam="1">  1        2 0.20790262E+00 0.44904443E+04</pdfrwt>
<pdfrwt beam="2">  1       -1 0.57389435E+00 0.44904443E+04</pdfrwt>
<totfact> 0.76573270E-03</totfact>
</mgrwt>
</event>
<event>
12    6  0.8914180E-008  0.2493091E+04  0.7818608E-02  0.8405451E-01
          2   -1    0    0  501    0  0.00000000000E+00  0.00000000000E+00  0.26056003742E+04  0.26056003742E+04  0.00000000000E+00 0. -1.
         -1   -1    0    0    0  501 -0.00000000000E+00 -0.00000000000E+00 -0.59635986076E+03  0.59635986076E+03  0.00000000000E+00 0.  1.
         24    2    1    2    0    0  0.10495188046E+04 -0.25470733800E+03  0.77441527769E+03  0.13315517826E+04  0.83340135791E+02 0.  0.
        254    2    1    2    0    0 -0.10495188046E+04  0.25470733800E+03  0.12348252358E+04  0.18704084524E+04  0.89848142250E+03 0.  0.
         23    2    4    4    0    0 -0.32585504552E+02 -0.20968767183E+02  0.65656465318E+03  0.66505362076E+03  0.98578244951E+02 0.  0.
         23    2    4    4    0    0 -0.10169333000E+04  0.27567610518E+03  0.57826058258E+03  0.12053548316E+04  0.91347233207E+02 0.  0.
          2    1    3    3  502    0  0.10416110209E+04 -0.24614180151E+03  0.75846694299E+03  0.13117970151E+04  0.00000000000E+00 0. -1.
         -1    1    3    3    0  502  0.79077836877E+01 -0.85655364878E+01  0.15948334700E+02  0.19754767472E+02  0.00000000000E+00 0.  1.
         11    1    5    5    0    0  0.30505158632E+02 -0.97710314511E+01  0.10493905378E+03  0.10971892620E+03  0.00000000000E+00 0.  1.
        -11    1    5    5    0    0 -0.63090663184E+02 -0.11197735732E+02  0.55162559940E+03  0.55533469456E+03  0.00000000000E+00 0. -1.
          4    1    6    6  503    0 -0.19855963492E+03  0.56173684894E+02  0.73231225112E+02  0.21896169488E+03  0.00000000000E+00 0. -1.
         -4    1    6    6    0  503 -0.81837366512E+03  0.21950242029E+03  0.50502935747E+03  0.98639313673E+03  0.00000000000E+00 0.  1.
<mgrwt>
<rscale>  0 0.24930908E+04</rscale>
<asrwt>0</asrwt>
<pdfrwt beam="1">  1        2 0.40086159E+00 0.24930908E+04</pdfrwt>
<pdfrwt beam="2">  1       -1 0.91747672E-01 0.24930908E+04</pdfrwt>
<totfact> 0.35477071E+00</totfact>
</mgrwt>
</event>
<event>
12    6  0.8914180E-008  0.1867442E+04  0.7818608E-02  0.8671235E-01
         -1   -1    0    0    0  501 -0.00000000000E+00  0.00000000000E+00  0.62775290398E+03  0.62775290398E+03  0.00000000000E+00 0.  1.
          2   -1    0    0  501    0  0.00000000000E+00 -0.00000000000E+00 -0.13888178902E+04  0.13888178902E+04  0.00000000000E+00 0. -1.
         24    2    1    2    0    0  0.67932837415E+03  0.23053420535E+03 -0.25369415815E+03  0.76514681304E+03  0.80348365664E+02 0.  0.
        254    2    1    2    0    0 -0.67932837415E+03 -0.23053420535E+03 -0.50737082803E+03  0.12514239811E+04  0.89106888823E+03 0.  0.
         23    2    4    4    0    0 -0.16707370597E+03 -0.46037323539E+03 -0.46425018519E+03  0.68093074857E+03  0.91001707726E+02 0.  0.
         23    2    4    4    0    0 -0.51225466818E+03  0.22983903004E+03 -0.43120642849E+02  0.57049323253E+03  0.91500348191E+02 0.  0.
          2    1    3    3  502    0  0.52378700062E+03  0.14559451491E+03 -0.17383200159E+03  0.57076102667E+03  0.00000000000E+00 0. -1.
         -1    1    3    3    0  502  0.15554137353E+03  0.84939690440E+02 -0.79862156562E+02  0.19438578637E+03  0.00000000000E+00 0.  1.
         11    1    5    5    0    0  0.29726170808E+01 -0.70726996193E+02 -0.45219336402E+02  0.83999600163E+02  0.00000000000E+00 0.  1.
        -11    1    5    5    0    0 -0.17004632305E+03 -0.38964623920E+03 -0.41903084878E+03  0.59693114840E+03  0.00000000000E+00 0. -1.
          2    1    6    6  503    0 -0.42240760780E+03  0.21275402913E+03 -0.95138400244E+01  0.47305705490E+03  0.00000000000E+00 0. -1.
         -2    1    6    6    0  503 -0.89847060383E+02  0.17085000915E+02 -0.33606802824E+02  0.97436177633E+02  0.00000000000E+00 0.  1.
<mgrwt>
<rscale>  0 0.18674415E+04</rscale>
<asrwt>0</asrwt>
<pdfrwt beam="1">  1        2 0.21366429E+00 0.18674415E+04</pdfrwt>
<pdfrwt beam="2">  1       -1 0.96577371E-01 0.18674415E+04</pdfrwt>
<totfact> 0.16215944E+01</totfact>
</mgrwt>
</event>
<event>
12    6  0.8914180E-008  0.2694832E+04  0.7818608E-02  0.8336684E-01
         -1   -1    0    0    0  501 -0.00000000000E+00  0.00000000000E+00  0.95223443841E+03  0.95223443841E+03  0.00000000000E+00 0.  1.
          2   -1    0    0  501    0  0.00000000000E+00 -0.00000000000E+00 -0.19065990232E+04  0.19065990232E+04  0.00000000000E+00 0. -1.
         24    2    1    2    0    0  0.77757456139E+03 -0.83416747950E+03 -0.32347347048E+02  0.11436038522E+04  0.79535133327E+02 0.  0.
        254    2    1    2    0    0 -0.77757456139E+03  0.83416747950E+03 -0.92201723773E+03  0.17152296094E+04  0.88962871132E+03 0.  0.
         23    2    4    4    0    0 -0.48486979094E+03  0.16850771017E+03 -0.82559896569E+03  0.97630252458E+03  0.89774187818E+02 0.  0.
         23    2    4    4    0    0 -0.29270477045E+03  0.66565976934E+03 -0.96418272032E+02  0.73892708484E+03  0.89094008623E+02 0.  0.
          4    1    3    3  502    0  0.28673370014E+03 -0.26949071460E+03  0.16299948137E+02  0.39383644875E+03  0.00000000000E+00 0. -1.
         -3    1    3    3    0  502  0.49084086125E+03 -0.56467676490E+03 -0.48647295185E+02  0.74976740341E+03  0.00000000000E+00 0.  1.
         11    1    5    5    0    0 -0.22837322854E+02  0.31995377249E+02 -0.64581582780E+02  0.75604419942E+02  0.00000000000E+00 0.  1.
        -11    1    5    5    0    0 -0.46203246809E+03  0.13651233292E+03 -0.76101738291E+03  0.90069810464E+03  0.00000000000E+00 0. -1.
          3    1    6    6  503    0 -0.19150213533E+03  0.51528228308E+03 -0.51098364335E+02  0.55208689708E+03  0.00000000000E+00 0. -1.
         -3    1    6    6    0  503 -0.10120263512E+03  0.15037748626E+03 -0.45319907697E+02  0.18684018777E+03  0.00000000000E+00 0.  1.
<mgrwt>
<rscale>  0 0.26948315E+04</rscale>
<asrwt>0</asrwt>
<pdfrwt beam="1">  1        2 0.29332293E+00 0.26948315E+04</pdfrwt>
<pdfrwt beam="2">  1       -1 0.14649761E+00 0.26948315E+04</pdfrwt>
<totfact> 0.27955475E+00</totfact>
</mgrwt>
</event>
<event>
12    6  0.8914180E-008  0.2165926E+04  0.7818608E-02  0.8532746E-01
          2   -1    0    0  501    0  0.00000000000E+00  0.00000000000E+00  0.18740388238E+04  0.18740388238E+04  0.00000000000E+00 0. -1.
         -1   -1    0    0    0  501 -0.00000000000E+00 -0.00000000000E+00 -0.62581900087E+03  0.62581900087E+03  0.00000000000E+00 0.  1.
         24    2    1    2    0    0  0.31508117303E+03  0.44376132369E+02  0.14817663633E+04  0.15176553453E+04  0.80005031101E+02 0.  0.
        254    2    1    2    0    0 -0.31508117303E+03 -0.44376132369E+02 -0.23354654040E+03  0.98220247935E+03  0.89940665841E+03 0.  0.
         23    2    4    4    0    0 -0.58090147643E+03 -0.18349158149E+03 -0.25920699912E+03  0.66716558538E+03  0.82498267389E+02 0.  0.
         23    2    4    4    0    0  0.26582030340E+03  0.13911544912E+03  0.25660458724E+02  0.31503689397E+03  0.92608010121E+02 0.  0.
          2    1    3    3  502    0  0.18741881882E+03  0.62822065451E+02  0.82586509626E+03  0.84919113442E+03  0.00000000000E+00 0. -1.
         -1    1    3    3    0  502  0.12766235421E+03 -0.18445933082E+02  0.65590126704E+03  0.66846421088E+03  0.00000000000E+00 0.  1.
         11    1    5    5    0    0 -0.17755102795E+02  0.80675784584E+01 -0.12717001075E+02  0.23282001928E+02  0.00000000000E+00 0. -1.
        -11    1    5    5    0    0 -0.56314637363E+03 -0.19155915995E+03 -0.24648999804E+03  0.64388358345E+03  0.00000000000E+00 0.  1.
          4    1    6    6  503    0  0.22320411585E+03  0.98364679989E+02 -0.13438651462E+02  0.24428730003E+03  0.00000000000E+00 0. -1.
         -4    1    6    6    0  503  0.42616187549E+02  0.40750769134E+02  0.39099110185E+02  0.70749593946E+02  0.00000000000E+00 0.  1.
<mgrwt>
<rscale>  0 0.21659262E+04</rscale>
<asrwt>0</asrwt>
<pdfrwt beam="1">  1        2 0.28831366E+00 0.21659262E+04</pdfrwt>
<pdfrwt beam="2">  1       -1 0.96279847E-01 0.21659262E+04</pdfrwt>
<totfact> 0.85098363E+00</totfact>
</mgrwt>
</event>
<event>
12    6  0.8914180E-008  0.2697797E+04  0.7818608E-02  0.8335720E-01
          2   -1    0    0  501    0  0.00000000000E+00  0.00000000000E+00  0.17147611257E+04  0.17147611257E+04  0.00000000000E+00 0. -1.
         -1   -1    0    0    0  501 -0.00000000000E+00 -0.00000000000E+00 -0.10610967244E+04  0.10610967244E+04  0.00000000000E+00 0.  1.
         24    2    1    2    0    0  0.89932831937E+03  0.69575288965E+03  0.79879284966E+03  0.13918136907E+04  0.78815121333E+02 0.  0.
        254    2    1    2    0    0 -0.89932831937E+03 -0.69575288965E+03 -0.14512844837E+03  0.13840441595E+04  0.77566259378E+03 0.  0.
         23    2    4    4    0    0 -0.98824660361E+03 -0.60843855680E+03  0.11371877006E+02  0.11639698913E+04  0.88700402285E+02 0.  0.
         23    2    4    4    0    0  0.88918284237E+02 -0.87314332841E+02 -0.15650032537E+03  0.22007426816E+03  0.91706475633E+02 0.  0.
          2    1    3    3  502    0  0.73954256189E+03  0.56703228407E+03  0.61671343673E+03  0.11174901678E+04  0.00000000000E+00 0. -1.
         -1    1    3    3    0  502  0.15978575748E+03  0.12872060558E+03  0.18207941293E+03  0.27432352288E+03  0.00000000000E+00 0.  1.
         11    1    5    5    0    0 -0.14938966290E+03 -0.57553046327E+02 -0.67495383392E+01  0.16023476773E+03  0.00000000000E+00 0. -1.
        -11    1    5    5    0    0 -0.83885694071E+03 -0.55088551048E+03  0.18121415345E+02  0.10037351236E+04  0.00000000000E+00 0.  1.
          1    1    6    6  503    0 -0.11672016106E+02 -0.39541614148E+02 -0.59531221767E+02  0.72413683613E+02  0.00000000000E+00 0. -1.
         -1    1    6    6    0  503  0.10059030034E+03 -0.47772718693E+02 -0.96969103606E+02  0.14766058455E+03  0.00000000000E+00 0.  1.
<mgrwt>
<rscale>  0 0.26977972E+04</rscale>
<asrwt>0</asrwt>
<pdfrwt beam="1">  1        2 0.26380940E+00 0.26977972E+04</pdfrwt>
<pdfrwt beam="2">  1       -1 0.16324565E+00 0.26977972E+04</pdfrwt>
<totfact> 0.26550715E+00</totfact>
</mgrwt>
</event>
<event>
12    6  0.8914180E-008  0.1971338E+04  0.7818608E-02  0.8620140E-01
         -1   -1    0    0    0  501 -0.00000000000E+00  0.00000000000E+00  0.77576237564E+03  0.77576237564E+03  0.00000000000E+00 0.  1.
          2   -1    0    0  501    0  0.00000000000E+00 -0.00000000000E+00 -0.12523720395E+04  0.12523720395E+04  0.00000000000E+00 0. -1.
         24    2    1    2    0    0  0.23794012215E+03  0.57772670245E+03 -0.67003183522E+03  0.91962382157E+03  0.79885346197E+02 0.  0.
        254    2    1    2    0    0 -0.23794012215E+03 -0.57772670245E+03  0.19342217132E+03  0.11085105936E+04  0.89498600847E+03 0.  0.
         23    2    4    4    0    0 -0.40651054854E+03  0.95851195629E+01  0.25476092239E+03  0.48766073931E+03  0.86989473486E+02 0.  0.
         23    2    4    4    0    0  0.16857042639E+03 -0.58731182201E+03 -0.61338751074E+02  0.62084985431E+03  0.91328715558E+02 0.  0.
          4    1    3    3  502    0  0.15267708318E+03  0.36725175755E+03 -0.48113960326E+03  0.62424311208E+03  0.00000000000E+00 0. -1.
         -3    1    3    3    0  502  0.85263038975E+02  0.21047494490E+03 -0.18889223196E+03  0.29538070949E+03  0.00000000000E+00 0.  1.
         11    1    5    5    0    0 -0.35847744098E+03  0.12059006717E+02  0.25408827325E+03  0.43955926328E+03  0.00000000000E+00 0. -1.
        -11    1    5    5    0    0 -0.48033107560E+02 -0.24738871538E+01  0.67264914486E+00  0.48101476031E+02  0.00000000000E+00 0.  1.
          4    1    6    6  503    0  0.66876220028E+02 -0.22523850910E+03 -0.68364035172E+02  0.24470074804E+03  0.00000000000E+00 0. -1.
         -4    1    6    6    0  503  0.10169420636E+03 -0.36207331291E+03  0.70252840980E+01  0.37614910627E+03  0.00000000000E+00 0.  1.
<mgrwt>
<rscale>  0 0.19713377E+04</rscale>
<asrwt>0</asrwt>
<pdfrwt beam="1">  1        2 0.19267262E+00 0.19713377E+04</pdfrwt>
<pdfrwt beam="2">  1       -1 0.11934806E+00 0.19713377E+04</pdfrwt>
<totfact> 0.11744160E+01</totfact>
</mgrwt>
</event>
<event>
12    6  0.8914180E-008  0.1799364E+04  0.7818608E-02  0.8706638E-01
          2   -1    0    0  501    0  0.00000000000E+00  0.00000000000E+00  0.13443922448E+04  0.13443922448E+04  0.00000000000E+00 0. -1.
         -1   -1    0    0    0  501 -0.00000000000E+00 -0.00000000000E+00 -0.60207713583E+03  0.60207713583E+03  0.00000000000E+00 0.  1.
         24    2    1    2    0    0 -0.59882468936E+03  0.47305074804E+01  0.61179915022E+03  0.86004016084E+03  0.82203964348E+02 0.  0.
        254    2    1    2    0    0  0.59882468936E+03 -0.47305074804E+01  0.13051595878E+03  0.10864292198E+04  0.89703993660E+03 0.  0.
         23    2    4    4    0    0 -0.16484075100E+03 -0.53046969755E+02 -0.16534542436E+03  0.26061862476E+03  0.10293932205E+03 0.  0.
         23    2    4    4    0    0  0.76366544037E+03  0.48316462274E+02  0.29586138314E+03  0.82581059505E+03  0.94391713211E+02 0.  0.
          2    1    3    3  502    0 -0.53144584376E+03  0.30460804036E+02  0.54084293706E+03  0.75886337901E+03  0.00000000000E+00 0. -1.
         -1    1    3    3    0  502 -0.67378845602E+02 -0.25730296555E+02  0.70956213152E+02  0.10117678182E+03  0.00000000000E+00 0.  1.
         11    1    5    5    0    0 -0.12915346567E+03 -0.83808089773E+02 -0.13317411846E+03  0.20356757952E+03  0.00000000000E+00 0.  1.
        -11    1    5    5    0    0 -0.35687285334E+02  0.30761120018E+02 -0.32171305905E+02  0.57051045239E+02  0.00000000000E+00 0. -1.
          1    1    6    6  503    0  0.21459923890E+03 -0.38769643194E+01  0.12514208284E+03  0.24845201767E+03  0.00000000000E+00 0. -1.
         -1    1    6    6    0  503  0.54906620147E+03  0.52193426594E+02  0.17071930030E+03  0.57735857738E+03  0.00000000000E+00 0.  1.
<mgrwt>
<rscale>  0 0.17993641E+04</rscale>
<asrwt>0</asrwt>
<pdfrwt beam="1">  1        2 0.20682958E+00 0.17993641E+04</pdfrwt>
<pdfrwt beam="2">  1       -1 0.92627252E-01 0.17993641E+04</pdfrwt>
<totfact> 0.18997748E+01</totfact>
</mgrwt>
</event>
<event>
12    6  0.8914180E-008  0.2917583E+04  0.7818608E-02  0.8267665E-01
         -1   -1    0    0    0  501 -0.00000000000E+00  0.00000000000E+00  0.21891023729E+04  0.21891023729E+04  0.00000000000E+00 0.  1.
          2   -1    0    0  501    0  0.00000000000E+00 -0.00000000000E+00 -0.97212104432E+03  0.97212104432E+03  0.00000000000E+00 0. -1.
         24    2    1    2    0    0 -0.26142021421E+03 -0.11769097804E+04 -0.27806248165E+02  0.12083959776E+04  0.77398266621E+02 0.  0.
        254    2    1    2    0    0  0.26142021421E+03  0.11769097804E+04  0.12447875767E+04  0.19528274396E+04  0.90032312991E+03 0.  0.
         23    2    4    4    0    0  0.45165630427E+03  0.11088227355E+04  0.76311826597E+03  0.14225816827E+04  0.88926262941E+02 0.  0.
         23    2    4    4    0    0 -0.19023609006E+03  0.68087044868E+02  0.48166931075E+03  0.53024575689E+03  0.91266763594E+02 0.  0.
          2    1    3    3  502    0 -0.17852088359E+03 -0.63908500749E+03 -0.82136302405E+00  0.66355107363E+03  0.00000000000E+00 0. -1.
         -1    1    3    3    0  502 -0.82899330623E+02 -0.53782477287E+03 -0.26984885141E+02  0.54484490394E+03  0.00000000000E+00 0.  1.
         11    1    5    5    0    0  0.43953201810E+03  0.10755475995E+04  0.72043936178E+03  0.13671224918E+04  0.00000000000E+00 0. -1.
        -11    1    5    5    0    0  0.12124286169E+02  0.33275136024E+02  0.42678904183E+02  0.55459190896E+02  0.00000000000E+00 0.  1.
          4    1    6    6  503    0 -0.17209246775E+03  0.40143585074E+02  0.32362813838E+03  0.36873092741E+03  0.00000000000E+00 0. -1.
         -4    1    6    6    0  503 -0.18143622310E+02  0.27943459794E+02  0.15804117237E+03  0.16151482947E+03  0.00000000000E+00 0.  1.
<mgrwt>
<rscale>  0 0.29175829E+04</rscale>
<asrwt>0</asrwt>
<pdfrwt beam="1">  1        2 0.14955708E+00 0.29175829E+04</pdfrwt>
<pdfrwt beam="2">  1       -1 0.33678498E+00 0.29175829E+04</pdfrwt>
<totfact> 0.48992368E-01</totfact>
</mgrwt>
</event>
<event>
12    6  0.1237926E-007  0.3040017E+04  0.7818608E-02  0.8232395E-01
         -1   -1    0    0    0  501 -0.00000000000E+00  0.00000000000E+00  0.10365756530E+04  0.10365756530E+04  0.00000000000E+00 0.  1.
          2   -1    0    0  501    0  0.00000000000E+00 -0.00000000000E+00 -0.22289017419E+04  0.22289017419E+04  0.00000000000E+00 0. -1.
         24    2    1    2    0    0 -0.13496943461E+04  0.84902072129E+02 -0.86884164811E+03  0.16093997993E+04  0.79991967419E+02 0.  0.
        254    2    1    2    0    0  0.13496943461E+04 -0.84902072129E+02 -0.32348444077E+03  0.16560775956E+04  0.89948186726E+03 0.  0.
         23    2    4    4    0    0  0.15915240328E+03  0.28437421087E+03 -0.21570020106E+03  0.40159452013E+03  0.92484607252E+02 0.  0.
         23    2    4    4    0    0  0.11905419428E+04 -0.36927628300E+03 -0.10778423971E+03  0.12544830755E+04  0.91407076089E+02 0.  0.
          4    1    3    3  502    0 -0.11135783643E+04  0.66028748319E+02 -0.67985105449E+03  0.13063743818E+04  0.00000000000E+00 0. -1.
         -3    1    3    3    0  502 -0.23611598177E+03  0.18873323810E+02 -0.18899059362E+03  0.30302541754E+03  0.00000000000E+00 0.  1.
         11    1    5    5    0    0  0.73794785734E+02  0.49536591656E+02 -0.57106730571E+02  0.10564432304E+03  0.00000000000E+00 0. -1.
        -11    1    5    5    0    0  0.85357617546E+02  0.23483761922E+03 -0.15859347049E+03  0.29595019709E+03  0.00000000000E+00 0.  1.
          1    1    6    6  503    0  0.25515078504E+03 -0.10563435456E+03  0.44467355203E+01  0.27618890895E+03  0.00000000000E+00 0. -1.
         -1    1    6    6    0  503  0.93539115777E+03 -0.26364192844E+03 -0.11223097523E+03  0.97829416653E+03  0.00000000000E+00 0.  1.
<mgrwt>
<rscale>  0 0.30400166E+04</rscale>
<asrwt>0</asrwt>
<pdfrwt beam="1">  1        2 0.34290796E+00 0.30400166E+04</pdfrwt>
<pdfrwt beam="2">  1       -1 0.15947318E+00 0.30400166E+04</pdfrwt>
<totfact> 0.14230417E+00</totfact>
</mgrwt>
</event>
<event>
12    6  0.8914180E-008  0.1502353E+04  0.7818608E-02  0.8882890E-01
         -1   -1    0    0    0  501 -0.00000000000E+00  0.00000000000E+00  0.56226161265E+03  0.56226161265E+03  0.00000000000E+00 0.  1.
          2   -1    0    0  501    0  0.00000000000E+00 -0.00000000000E+00 -0.10035645536E+04  0.10035645536E+04  0.00000000000E+00 0. -1.
         24    2    1    2    0    0  0.20048932423E+03  0.26155141608E+03 -0.50090932222E+03  0.60453529642E+03  0.77121094034E+02 0.  0.
        254    2    1    2    0    0 -0.20048932423E+03 -0.26155141608E+03  0.59606381300E+02  0.96129086980E+03  0.90106720243E+03 0.  0.
         23    2    4    4    0    0  0.21547338323E+03  0.20825271878E+03  0.90028588170E+02  0.32645850592E+03  0.93123765155E+02 0.  0.
         23    2    4    4    0    0 -0.41596270746E+03 -0.46980413485E+03 -0.30422206869E+02  0.63483236388E+03  0.91354914687E+02 0.  0.
          2    1    3    3  502    0  0.99000939971E+02  0.78039054524E+02 -0.15219813753E+03  0.19762477884E+03  0.00000000000E+00 0. -1.
         -1    1    3    3    0  502  0.10148838426E+03  0.18351236155E+03 -0.34871118470E+03  0.40691051758E+03  0.00000000000E+00 0.  1.
         11    1    5    5    0    0  0.47732878538E+02  0.94943872383E+02  0.59363489363E+02  0.12172423943E+03  0.00000000000E+00 0. -1.
        -11    1    5    5    0    0  0.16774050470E+03  0.11330884639E+03  0.30665098807E+02  0.20473426648E+03  0.00000000000E+00 0.  1.
          3    1    6    6  503    0 -0.39355132832E+03 -0.46033268388E+03 -0.43534174106E+02  0.60719358707E+03  0.00000000000E+00 0. -1.
         -3    1    6    6    0  503 -0.22411379145E+02 -0.94714509750E+01  0.13111967236E+02  0.27638776810E+02  0.00000000000E+00 0.  1.
<mgrwt>
<rscale>  0 0.15023526E+04</rscale>
<asrwt>0</asrwt>
<pdfrwt beam="1">  1        2 0.15439455E+00 0.15023526E+04</pdfrwt>
<pdfrwt beam="2">  1       -1 0.86501787E-01 0.15023526E+04</pdfrwt>
<totfact> 0.36401678E+01</totfact>
</mgrwt>
</event>
<event>
12    6  0.8914180E-008  0.1453693E+04  0.7818608E-02  0.8915844E-01
         -1   -1    0    0    0  501 -0.00000000000E+00  0.00000000000E+00  0.28357445310E+03  0.28357445310E+03  0.00000000000E+00 0.  1.
          2   -1    0    0  501    0  0.00000000000E+00 -0.00000000000E+00 -0.18630237070E+04  0.18630237070E+04  0.00000000000E+00 0. -1.
         24    2    1    2    0    0 -0.45142836773E+02  0.34604621336E+03 -0.10490622067E+03  0.37698373814E+03  0.96568971199E+02 0.  0.
        254    2    1    2    0    0  0.45142836773E+02 -0.34604621336E+03 -0.14745430333E+04  0.17696144220E+04  0.91404167745E+03 0.  0.
         23    2    4    4    0    0  0.14800167019E+03 -0.46328867400E+03 -0.29447054111E+03  0.57578887727E+03  0.90989239822E+02 0.  0.
         23    2    4    4    0    0 -0.10285883342E+03  0.11724246065E+03 -0.11800724921E+04  0.11938255447E+04  0.91228341710E+02 0.  0.
          2    1    3    3  502    0 -0.56689937745E+02  0.94575730865E+02 -0.35894899890E+02  0.11596017311E+03  0.00000000000E+00 0. -1.
         -1    1    3    3    0  502  0.11547100972E+02  0.25147048249E+03 -0.69011320785E+02  0.26102356503E+03  0.00000000000E+00 0.  1.
         11    1    5    5    0    0  0.91079712439E+02 -0.18719151819E+03 -0.86294956572E+02  0.22535083321E+03  0.00000000000E+00 0.  1.
        -11    1    5    5    0    0  0.56921957755E+02 -0.27609715582E+03 -0.20817558454E+03  0.35043804406E+03  0.00000000000E+00 0. -1.
          1    1    6    6  503    0 -0.58668107388E+02  0.11016293322E+03 -0.10202228593E+04  0.10278290234E+04  0.00000000000E+00 0. -1.
         -1    1    6    6    0  503 -0.44190726032E+02  0.70795274256E+01 -0.15984963287E+03  0.16599652137E+03  0.00000000000E+00 0.  1.
<mgrwt>
<rscale>  0 0.14536931E+04</rscale>
<asrwt>0</asrwt>
<pdfrwt beam="1">  1        2 0.28661904E+00 0.14536931E+04</pdfrwt>
<pdfrwt beam="2">  1       -1 0.43626838E-01 0.14536931E+04</pdfrwt>
<totfact> 0.45629537E+01</totfact>
</mgrwt>
</event>
<event>
12    6  0.8914180E-008  0.2071010E+04  0.7818608E-02  0.8574122E-01
         -1   -1    0    0    0  501 -0.00000000000E+00  0.00000000000E+00  0.12395900883E+04  0.12395900883E+04  0.00000000000E+00 0.  1.
          2   -1    0    0  501    0  0.00000000000E+00 -0.00000000000E+00 -0.86502015647E+03  0.86502015647E+03  0.00000000000E+00 0. -1.
         24    2    1    2    0    0  0.75333815587E+02  0.82181895332E+03  0.16469590369E+02  0.82938137889E+03  0.80874275529E+02 0.  0.
        254    2    1    2    0    0 -0.75333815587E+02 -0.82181895332E+03  0.35810034142E+03  0.12752288658E+04  0.90383141676E+03 0.  0.
         23    2    4    4    0    0 -0.26979751561E+03 -0.89966149783E+01 -0.11829474587E+03  0.30849826269E+03  0.91136670284E+02 0.  0.
         23    2    4    4    0    0  0.19446370003E+03 -0.81282233834E+03  0.47639508730E+03  0.96673060314E+03  0.95496049743E+02 0.  0.
          4    1    3    3  502    0  0.34178762490E+01  0.25837392595E+03  0.36787523225E+02  0.26100208688E+03  0.00000000000E+00 0. -1.
         -1    1    3    3    0  502  0.71915939338E+02  0.56344502737E+03 -0.20317932855E+02  0.56837929201E+03  0.00000000000E+00 0.  1.
         11    1    5    5    0    0 -0.90297861831E+02  0.34330888324E+02 -0.17671337529E+02  0.98206873051E+02  0.00000000000E+00 0. -1.
        -11    1    5    5    0    0 -0.17949965378E+03 -0.43327503302E+02 -0.10062340835E+03  0.21029138964E+03  0.00000000000E+00 0.  1.
          4    1    6    6  503    0  0.63219395928E+02 -0.46711868028E+03  0.26209737222E+03  0.53934366225E+03  0.00000000000E+00 0. -1.
         -4    1    6    6    0  503  0.13124430410E+03 -0.34570365806E+03  0.21429771508E+03  0.42738694089E+03  0.00000000000E+00 0.  1.
<mgrwt>
<rscale>  0 0.20710098E+04</rscale>
<asrwt>0</asrwt>
<pdfrwt beam="1">  1        2 0.13308002E+00 0.20710098E+04</pdfrwt>
<pdfrwt beam="2">  1       -1 0.19070617E+00 0.20710098E+04</pdfrwt>
<totfact> 0.57044255E+00</totfact>
</mgrwt>
</event>
<event>
12    6  0.8914180E-008  0.1902710E+04  0.7818608E-02  0.8653508E-01
         -1   -1    0    0    0  501 -0.00000000000E+00  0.00000000000E+00  0.56465799775E+03  0.56465799775E+03  0.00000000000E+00 0.  1.
          2   -1    0    0  501    0  0.00000000000E+00 -0.00000000000E+00 -0.16028757505E+04  0.16028757505E+04  0.00000000000E+00 0. -1.
         24    2    1    2    0    0  0.37676620312E+03  0.24627928646E+03  0.27992439184E+03  0.53600474830E+03  0.79606320685E+02 0.  0.
        254    2    1    2    0    0 -0.37676620312E+03 -0.24627928646E+03 -0.13181421446E+04  0.16315289999E+04  0.84957748648E+03 0.  0.
         23    2    4    4    0    0 -0.87443334677E+02 -0.19673591339E+03  0.41691023830E+02  0.23740938808E+03  0.90959989481E+02 0.  0.
         23    2    4    4    0    0 -0.28932286845E+03 -0.49543373073E+02 -0.13598331684E+04  0.13941196118E+04  0.90889923578E+02 0.  0.
          2    1    3    3  502    0  0.13410081003E+03  0.45178085754E+02  0.97628580532E+02  0.17191691720E+03  0.00000000000E+00 0. -1.
         -1    1    3    3    0  502  0.24266539309E+03  0.20110120071E+03  0.18229581131E+03  0.36408783110E+03  0.00000000000E+00 0.  1.
         11    1    5    5    0    0 -0.72295340583E+02 -0.64858264970E+02  0.38928855473E+02  0.10463587622E+03  0.00000000000E+00 0. -1.
        -11    1    5    5    0    0 -0.15147994094E+02 -0.13187764842E+03  0.27621683570E+01  0.13277351186E+03  0.00000000000E+00 0.  1.
          3    1    6    6  503    0 -0.20622780499E+03 -0.76064593996E+02 -0.99842559606E+03  0.10223352683E+04  0.00000000000E+00 0. -1.
         -3    1    6    6    0  503 -0.83095063456E+02  0.26521220923E+02 -0.36140757234E+03  0.37178434350E+03  0.00000000000E+00 0.  1.
<mgrwt>
<rscale>  0 0.19027103E+04</rscale>
<asrwt>0</asrwt>
<pdfrwt beam="1">  1        2 0.24659627E+00 0.19027103E+04</pdfrwt>
<pdfrwt beam="2">  1       -1 0.86870462E-01 0.19027103E+04</pdfrwt>
<totfact> 0.15474198E+01</totfact>
</mgrwt>
</event>
<event>
12    6  0.8914180E-008  0.2779776E+04  0.7818608E-02  0.8309575E-01
          2   -1    0    0  501    0  0.00000000000E+00  0.00000000000E+00  0.49077246743E+04  0.49077246743E+04  0.00000000000E+00 0. -1.
         -1   -1    0    0    0  501 -0.00000000000E+00 -0.00000000000E+00 -0.39362202424E+03  0.39362202424E+03  0.00000000000E+00 0.  1.
         24    2    1    2    0    0 -0.70014405014E+01  0.10695275736E+04  0.81379559461E+03  0.13463286259E+04  0.79995300723E+02 0.  0.
        254    2    1    2    0    0  0.70014405014E+01 -0.10695275736E+04  0.37003070555E+04  0.39550180727E+04  0.89775130170E+03 0.  0.
         23    2    4    4    0    0 -0.53288316027E+02 -0.10467295503E+04  0.36975261589E+04  0.38442771071E+04  0.91018593540E+02 0.  0.
         23    2    4    4    0    0  0.60289756529E+02 -0.22798023327E+02  0.27808966297E+01  0.11074096565E+03  0.90006796840E+02 0.  0.
          4    1    3    3  502    0  0.24264736196E+02  0.58701864322E+03  0.41091038878E+03  0.71695677173E+03  0.00000000000E+00 0. -1.
         -1    1    3    3    0  502 -0.31266176697E+02  0.48250893039E+03  0.40288520584E+03  0.62937185415E+03  0.00000000000E+00 0.  1.
         11    1    5    5    0    0 -0.48512933845E+02 -0.31279164192E+03  0.10207062348E+04  0.10686595968E+04  0.00000000000E+00 0.  1.
        -11    1    5    5    0    0 -0.47753821826E+01 -0.73393790837E+03  0.26768199241E+04  0.27756175103E+04  0.00000000000E+00 0. -1.
          1    1    6    6  503    0 -0.21370697302E+02 -0.85373535233E+01 -0.12889193460E+02  0.26376588415E+02  0.00000000000E+00 0. -1.
         -1    1    6    6    0  503  0.81660453831E+02 -0.14260669804E+02  0.15670090090E+02  0.84364377236E+02  0.00000000000E+00 0.  1.
<mgrwt>
<rscale>  0 0.27797759E+04</rscale>
<asrwt>0</asrwt>
<pdfrwt beam="1">  1        2 0.75503452E+00 0.27797759E+04</pdfrwt>
<pdfrwt beam="2">  1       -1 0.60557238E-01 0.27797759E+04</pdfrwt>
<totfact> 0.12255889E-01</totfact>
</mgrwt>
</event>
<event>
12    6  0.8914180E-008  0.2081081E+04  0.7818608E-02  0.8569623E-01
         -1   -1    0    0    0  501 -0.00000000000E+00  0.00000000000E+00  0.88157928621E+03  0.88157928621E+03  0.00000000000E+00 0.  1.
          2   -1    0    0  501    0  0.00000000000E+00 -0.00000000000E+00 -0.12281648287E+04  0.12281648287E+04  0.00000000000E+00 0. -1.
         24    2    1    2    0    0 -0.70947428462E+03 -0.35123917881E+03  0.15051459795E+03  0.80983274503E+03  0.80322533924E+02 0.  0.
        254    2    1    2    0    0  0.70947428462E+03  0.35123917881E+03 -0.49710014042E+03  0.12999113699E+04  0.90329303033E+03 0.  0.
         23    2    4    4    0    0  0.89884746128E+03  0.38461926297E+03 -0.45671074879E+03  0.10829742003E+04  0.91595165994E+02 0.  0.
         23    2    4    4    0    0 -0.18937317666E+03 -0.33380084151E+02 -0.40389391632E+02  0.21693716954E+03  0.91945649778E+02 0.  0.
          2    1    3    3  502    0 -0.34151768151E+03 -0.12690983981E+03  0.82369921069E+02  0.37353077266E+03  0.00000000000E+00 0. -1.
         -1    1    3    3    0  502 -0.36795660311E+03 -0.22432933900E+03  0.68144676876E+02  0.43630197237E+03  0.00000000000E+00 0.  1.
         11    1    5    5    0    0  0.68174352046E+03  0.30599125190E+03 -0.30752882354E+03  0.80807106818E+03  0.00000000000E+00 0.  1.
        -11    1    5    5    0    0  0.21710394082E+03  0.78628011064E+02 -0.14918192525E+03  0.27490313215E+03  0.00000000000E+00 0. -1.
          2    1    6    6  503    0 -0.76093789979E+02 -0.13302027401E+02  0.29085346106E+02  0.82541905505E+02  0.00000000000E+00 0. -1.
         -2    1    6    6    0  503 -0.11327938668E+03 -0.20078056750E+02 -0.69474737738E+02  0.13439526403E+03  0.00000000000E+00 0.  1.
<mgrwt>
<rscale>  0 0.20810811E+04</rscale>
<asrwt>0</asrwt>
<pdfrwt beam="1">  1        2 0.18894843E+00 0.20810811E+04</pdfrwt>
<pdfrwt beam="2">  1       -1 0.13562758E+00 0.20810811E+04</pdfrwt>
<totfact> 0.87282180E+00</totfact>
</mgrwt>
</event>
<event>
12    6  0.8914180E-008  0.1692587E+04  0.7818608E-02  0.8765604E-01
          2   -1    0    0  501    0  0.00000000000E+00  0.00000000000E+00  0.64644063055E+03  0.64644063055E+03  0.00000000000E+00 0. -1.
         -1   -1    0    0    0  501 -0.00000000000E+00 -0.00000000000E+00 -0.11079324093E+04  0.11079324093E+04  0.00000000000E+00 0.  1.
         24    2    1    2    0    0 -0.40464077256E+03 -0.15493410343E+03  0.29084135591E+03  0.52777205165E+03  0.78841061492E+02 0.  0.
        254    2    1    2    0    0  0.40464077256E+03  0.15493410343E+03 -0.75233313462E+03  0.12266009882E+04  0.86649068517E+03 0.  0.
         23    2    4    4    0    0  0.51306250394E+03  0.29142556699E+03 -0.18360629031E+03  0.62510418621E+03  0.94244255700E+02 0.  0.
         23    2    4    4    0    0 -0.10842173139E+03 -0.13649146356E+03 -0.56872684431E+03  0.60149680195E+03  0.89235575048E+02 0.  0.
          2    1    3    3  502    0 -0.29217993668E+03 -0.13970712632E+03  0.18715529029E+03  0.37405119867E+03  0.00000000000E+00 0. -1.
         -1    1    3    3    0  502 -0.11246083588E+03 -0.15226977112E+02  0.10368606562E+03  0.15372085298E+03  0.00000000000E+00 0.  1.
         11    1    5    5    0    0 -0.20145541831E+01  0.87671997081E+01  0.14511886293E+01  0.91119793522E+01  0.00000000000E+00 0. -1.
        -11    1    5    5    0    0  0.51507705812E+03  0.28265836728E+03 -0.18505747894E+03  0.61599220686E+03  0.00000000000E+00 0.  1.
          4    1    6    6  503    0 -0.42498374115E+02 -0.48080756645E+02 -0.91927560198E+02  0.11210953254E+03  0.00000000000E+00 0. -1.
         -4    1    6    6    0  503 -0.65923357271E+02 -0.88410706911E+02 -0.47679928411E+03  0.48938726941E+03  0.00000000000E+00 0.  1.
<mgrwt>
<rscale>  0 0.16925868E+04</rscale>
<asrwt>0</asrwt>
<pdfrwt beam="1">  1        2 0.99452406E-01 0.16925868E+04</pdfrwt>
<pdfrwt beam="2">  1       -1 0.17045114E+00 0.16925868E+04</pdfrwt>
<totfact> 0.12020813E+01</totfact>
</mgrwt>
</event>
<event>
12    6  0.8914180E-008  0.1944955E+04  0.7818608E-02  0.8632797E-01
          2   -1    0    0  501    0  0.00000000000E+00  0.00000000000E+00  0.13669629158E+04  0.13669629158E+04  0.00000000000E+00 0. -1.
         -1   -1    0    0    0  501 -0.00000000000E+00 -0.00000000000E+00 -0.69183462452E+03  0.69183462452E+03  0.00000000000E+00 0.  1.
         24    2    1    2    0    0  0.41999057892E+03 -0.27370969946E+03 -0.34406465343E+03  0.61331476655E+03  0.80407904861E+02 0.  0.
        254    2    1    2    0    0 -0.41999057892E+03  0.27370969946E+03  0.10191929447E+04  0.14454827738E+04  0.89406772939E+03 0.  0.
         23    2    4    4    0    0 -0.13649001463E+03 -0.31818772917E+03  0.41854901080E+03  0.55178695340E+03  0.97018618918E+02 0.  0.
         23    2    4    4    0    0 -0.28350056429E+03  0.59189742863E+03  0.60064393392E+03  0.89369582037E+03  0.84876074512E+02 0.  0.
          4    1    3    3  502    0  0.12757559830E+03 -0.50889780125E+02 -0.66123268420E+02  0.15243880618E+03  0.00000000000E+00 0. -1.
         -3    1    3    3    0  502  0.29241498062E+03 -0.22281991933E+03 -0.27794138501E+03  0.46087596037E+03  0.00000000000E+00 0.  1.
         11    1    5    5    0    0  0.98412799027E+00 -0.77929376128E+00  0.36085065356E+02  0.36106893364E+02  0.00000000000E+00 0.  1.
        -11    1    5    5    0    0 -0.13747414262E+03 -0.31740843541E+03  0.38246394544E+03  0.51568006004E+03  0.00000000000E+00 0. -1.
          3    1    6    6  503    0 -0.16415651449E+03  0.41724201329E+03  0.43864549580E+03  0.62725443792E+03  0.00000000000E+00 0. -1.
         -3    1    6    6    0  503 -0.11934404980E+03  0.17465541534E+03  0.16199843813E+03  0.26644138246E+03  0.00000000000E+00 0.  1.
<mgrwt>
<rscale>  0 0.19449548E+04</rscale>
<asrwt>0</asrwt>
<pdfrwt beam="1">  1        2 0.21030199E+00 0.19449548E+04</pdfrwt>
<pdfrwt beam="2">  1       -1 0.10643610E+00 0.19449548E+04</pdfrwt>
<totfact> 0.13261464E+01</totfact>
</mgrwt>
</event>
<event>
12    6  0.8914180E-008  0.1905876E+04  0.7818608E-02  0.8651937E-01
         -1   -1    0    0    0  501 -0.00000000000E+00  0.00000000000E+00  0.51861617019E+03  0.51861617019E+03  0.00000000000E+00 0.  1.
          2   -1    0    0  501    0  0.00000000000E+00 -0.00000000000E+00 -0.17509878576E+04  0.17509878576E+04  0.00000000000E+00 0. -1.
         24    2    1    2    0    0  0.60955878774E+03  0.29669228692E+03 -0.84384429578E+03  0.10852082948E+04  0.77560420708E+02 0.  0.
        254    2    1    2    0    0 -0.60955878774E+03 -0.29669228692E+03 -0.38852739163E+03  0.11843957329E+04  0.89008510229E+03 0.  0.
         23    2    4    4    0    0 -0.13479320381E+03  0.29189964490E+03 -0.22631524997E+03  0.40545805266E+03  0.99010250045E+02 0.  0.
         23    2    4    4    0    0 -0.47476558394E+03 -0.58859193182E+03 -0.16221214166E+03  0.77893768028E+03  0.92673129655E+02 0.  0.
          2    1    3    3  502    0  0.56038763485E+03  0.27367718354E+03 -0.73772895220E+03  0.96601113295E+03  0.00000000000E+00 0. -1.
         -1    1    3    3    0  502  0.49171152897E+02  0.23015103374E+02 -0.10611534358E+03  0.11919716190E+03  0.00000000000E+00 0.  1.
         11    1    5    5    0    0 -0.13995168466E+03  0.28266016488E+03 -0.19132287855E+03  0.36890064612E+03  0.00000000000E+00 0. -1.
        -11    1    5    5    0    0  0.51584808476E+01  0.92394800171E+01 -0.34992371420E+02  0.36557406544E+02  0.00000000000E+00 0.  1.
          2    1    6    6  503    0 -0.24485131816E+03 -0.33642770952E+03 -0.13118695290E+03  0.43628636049E+03  0.00000000000E+00 0. -1.
         -2    1    6    6    0  503 -0.22991426578E+03 -0.25216422230E+03 -0.31025188763E+02  0.34265131979E+03  0.00000000000E+00 0.  1.
<mgrwt>
<rscale>  0 0.19058758E+04</rscale>
<asrwt>0</asrwt>
<pdfrwt beam="1">  1        2 0.26938274E+00 0.19058758E+04</pdfrwt>
<pdfrwt beam="2">  1       -1 0.79787104E-01 0.19058758E+04</pdfrwt>
<totfact> 0.15365695E+01</totfact>
</mgrwt>
</event>
<event>
12    6  0.8914180E-008  0.3214081E+04  0.7818608E-02  0.8185108E-01
          2   -1    0    0  501    0  0.00000000000E+00  0.00000000000E+00  0.11818988470E+04  0.11818988470E+04  0.00000000000E+00 0. -1.
         -1   -1    0    0    0  501 -0.00000000000E+00 -0.00000000000E+00 -0.21851096928E+04  0.21851096928E+04  0.00000000000E+00 0.  1.
         24    2    1    2    0    0  0.85011784237E+03  0.52709457898E+03  0.67441965041E+03  0.12087675023E+04  0.75815359664E+02 0.  0.
        254    2    1    2    0    0 -0.85011784237E+03 -0.52709457898E+03 -0.16776304962E+04  0.21582410375E+04  0.91816733390E+03 0.  0.
         23    2    4    4    0    0 -0.66978377291E+03 -0.72867864822E+03 -0.94377853596E+03  0.13707148874E+04  0.92512176724E+02 0.  0.
         23    2    4    4    0    0 -0.18033406946E+03  0.20158406924E+03 -0.73385196024E+03  0.78752615007E+03  0.92207504648E+02 0.  0.
          4    1    3    3  502    0  0.43693974257E+03  0.31211806850E+03  0.34395356742E+03  0.63768180456E+03  0.00000000000E+00 0. -1.
         -3    1    3    3    0  502  0.41317809980E+03  0.21497651048E+03  0.33046608298E+03  0.57108569779E+03  0.00000000000E+00 0.  1.
         11    1    5    5    0    0 -0.62297767086E+03 -0.67364391814E+03 -0.83810914853E+03  0.12427084339E+04  0.00000000000E+00 0. -1.
        -11    1    5    5    0    0 -0.46806102055E+02 -0.55034730087E+02 -0.10566938744E+03  0.12800645353E+03  0.00000000000E+00 0.  1.
          2    1    6    6  503    0 -0.13261280175E+03  0.13984284632E+03 -0.62178356213E+03  0.65096618575E+03  0.00000000000E+00 0. -1.
         -2    1    6    6    0  503 -0.47721267711E+02  0.61741222921E+02 -0.11206839811E+03  0.13655996432E+03  0.00000000000E+00 0.  1.
<mgrwt>
<rscale>  0 0.32140807E+04</rscale>
<asrwt>0</asrwt>
<pdfrwt beam="1">  1        2 0.18183059E+00 0.32140807E+04</pdfrwt>
<pdfrwt beam="2">  1       -1 0.33617072E+00 0.32140807E+04</pdfrwt>
<totfact> 0.35671092E-01</totfact>
</mgrwt>
</event>
<event>
12    6  0.8914180E-008  0.2511237E+04  0.7818608E-02  0.8398993E-01
         -1   -1    0    0    0  501 -0.00000000000E+00  0.00000000000E+00  0.79208123659E+03  0.79208123659E+03  0.00000000000E+00 0.  1.
          2   -1    0    0  501    0  0.00000000000E+00 -0.00000000000E+00 -0.19904241391E+04  0.19904241391E+04  0.00000000000E+00 0. -1.
         24    2    1    2    0    0  0.77357522163E+03  0.26474651003E+03 -0.13234536758E+04  0.15577568462E+04  0.81039631098E+02 0.  0.
        254    2    1    2    0    0 -0.77357522163E+03 -0.26474651003E+03  0.12511077325E+03  0.12247485295E+04  0.90324244635E+03 0.  0.
         23    2    4    4    0    0 -0.92140916155E+03 -0.36268410481E+03  0.11445714862E+02  0.99455024233E+03  0.92003137315E+02 0.  0.
         23    2    4    4    0    0  0.14783393991E+03  0.97937594779E+02  0.11366505839E+03  0.23019828718E+03  0.92870122547E+02 0.  0.
          2    1    3    3  502    0  0.49516678397E+03  0.15204983038E+03 -0.76913761401E+03  0.92729820670E+03  0.00000000000E+00 0. -1.
         -1    1    3    3    0  502  0.27840843766E+03  0.11269667965E+03 -0.55431606176E+03  0.63045863947E+03  0.00000000000E+00 0.  1.
         11    1    5    5    0    0 -0.86011921545E+03 -0.35928341135E+03  0.21268278271E+02  0.93238509969E+03  0.00000000000E+00 0. -1.
        -11    1    5    5    0    0 -0.61289946098E+02 -0.34006934603E+01 -0.98225634087E+01  0.62165142649E+02  0.00000000000E+00 0.  1.
          4    1    6    6  503    0  0.10419770014E+03  0.18756904446E+02  0.38602450879E+02  0.11269042281E+03  0.00000000000E+00 0. -1.
         -4    1    6    6    0  503  0.43636239771E+02  0.79180690334E+02  0.75062607511E+02  0.11750786437E+03  0.00000000000E+00 0.  1.
<mgrwt>
<rscale>  0 0.25112368E+04</rscale>
<asrwt>0</asrwt>
<pdfrwt beam="1">  1        2 0.30621910E+00 0.25112368E+04</pdfrwt>
<pdfrwt beam="2">  1       -1 0.12185865E+00 0.25112368E+04</pdfrwt>
<totfact> 0.40877740E+00</totfact>
</mgrwt>
</event>
<event>
12    6  0.8914180E-008  0.2012667E+04  0.7818608E-02  0.8600721E-01
         -1   -1    0    0    0  501 -0.00000000000E+00  0.00000000000E+00  0.66522072655E+03  0.66522072655E+03  0.00000000000E+00 0.  1.
          2   -1    0    0  501    0  0.00000000000E+00 -0.00000000000E+00 -0.15223620027E+04  0.15223620027E+04  0.00000000000E+00 0. -1.
         24    2    1    2    0    0 -0.23650777877E+03 -0.58797479889E+03 -0.88174619754E+03  0.10887737842E+04  0.79383264275E+02 0.  0.
        254    2    1    2    0    0  0.23650777877E+03  0.58797479889E+03  0.24604921378E+02  0.10988089451E+04  0.89728780340E+03 0.  0.
         23    2    4    4    0    0  0.40963555442E+03  0.20141712025E+03  0.32844321676E+03  0.56964431775E+03  0.90827079299E+02 0.  0.
         23    2    4    4    0    0 -0.17312777565E+03  0.38655767864E+03 -0.30383829539E+03  0.52916462735E+03  0.91090216158E+02 0.  0.
          4    1    3    3  502    0 -0.11899280986E+03 -0.19407402942E+03 -0.31646769572E+03  0.38984076252E+03  0.00000000000E+00 0. -1.
         -3    1    3    3    0  502 -0.11751496891E+03 -0.39390076947E+03 -0.56527850182E+03  0.69893302164E+03  0.00000000000E+00 0.  1.
         11    1    5    5    0    0  0.40952019584E+03  0.19430822667E+03  0.30805353945E+03  0.54805060069E+03  0.00000000000E+00 0.  1.
        -11    1    5    5    0    0  0.11535858048E+00  0.71088935824E+01  0.20389677310E+02  0.21593717058E+02  0.00000000000E+00 0. -1.
          3    1    6    6  503    0  0.97420111631E+01  0.17913331318E+02 -0.24139105761E+02  0.31598902629E+02  0.00000000000E+00 0. -1.
         -3    1    6    6    0  503 -0.18286978681E+03  0.36864434732E+03 -0.27969918962E+03  0.49756572472E+03  0.00000000000E+00 0.  1.
<mgrwt>
<rscale>  0 0.20126666E+04</rscale>
<asrwt>0</asrwt>
<pdfrwt beam="1">  1        2 0.23420954E+00 0.20126666E+04</pdfrwt>
<pdfrwt beam="2">  1       -1 0.10234165E+00 0.20126666E+04</pdfrwt>
<totfact> 0.11781512E+01</totfact>
</mgrwt>
</event>
<event>
12    6  0.8914180E-008  0.2247782E+04  0.7818608E-02  0.8498799E-01
          2   -1    0    0  501    0  0.00000000000E+00  0.00000000000E+00  0.61195664390E+03  0.61195664390E+03  0.00000000000E+00 0. -1.
         -1   -1    0    0    0  501 -0.00000000000E+00 -0.00000000000E+00 -0.20640860503E+04  0.20640860503E+04  0.00000000000E+00 0.  1.
         24    2    1    2    0    0  0.73174349687E+03  0.45930436636E+03 -0.17581077174E+03  0.88537518706E+03  0.81060151906E+02 0.  0.
        254    2    1    2    0    0 -0.73174349687E+03 -0.45930436636E+03 -0.12763186347E+04  0.17906675072E+04  0.91164237387E+03 0.  0.
         23    2    4    4    0    0 -0.64653290307E+03 -0.70324295525E+03 -0.83831438016E+03  0.12741182513E+04  0.89726637854E+02 0.  0.
         23    2    4    4    0    0 -0.85210593793E+02  0.24393858889E+03 -0.43800425452E+03  0.51654925583E+03  0.90600917647E+02 0.  0.
          2    1    3    3  502    0  0.61864679941E+03  0.39429151636E+03 -0.17802287393E+03  0.75490516353E+03  0.00000000000E+00 0. -1.
         -1    1    3    3    0  502  0.11309669746E+03  0.65012850005E+02  0.22121021815E+01  0.13047002352E+03  0.00000000000E+00 0.  1.
         11    1    5    5    0    0 -0.58767447543E+03 -0.59949871200E+03 -0.71743122444E+03  0.11042950496E+04  0.00000000000E+00 0.  1.
        -11    1    5    5    0    0 -0.58858427642E+02 -0.10374424326E+03 -0.12088315573E+03  0.16982320175E+03  0.00000000000E+00 0. -1.
          2    1    6    6  503    0 -0.68332963904E+02  0.65778759393E+02 -0.14959210288E+03  0.17712717575E+03  0.00000000000E+00 0. -1.
         -2    1    6    6    0  503 -0.16877629889E+02  0.17815982950E+03 -0.28841215163E+03  0.33942208008E+03  0.00000000000E+00 0.  1.
<mgrwt>
<rscale>  0 0.22477822E+04</rscale>
<asrwt>0</asrwt>
<pdfrwt beam="1">  1        2 0.94147174E-01 0.22477822E+04</pdfrwt>
<pdfrwt beam="2">  1       -1 0.31755171E+00 0.22477822E+04</pdfrwt>
<totfact> 0.12784081E+00</totfact>
</mgrwt>
</event>
<event>
12    6  0.8914180E-008  0.1327838E+04  0.7818608E-02  0.9007776E-01
         -1   -1    0    0    0  501 -0.00000000000E+00  0.00000000000E+00  0.59935527941E+03  0.59935527941E+03  0.00000000000E+00 0.  1.
          2   -1    0    0  501    0  0.00000000000E+00 -0.00000000000E+00 -0.73543723921E+03  0.73543723921E+03  0.00000000000E+00 0. -1.
         24    2    1    2    0    0 -0.23968071308E+03 -0.15503944622E+03  0.17844182497E+03  0.34596859099E+03  0.79804178748E+02 0.  0.
        254    2    1    2    0    0  0.23968071308E+03  0.15503944622E+03 -0.31452378477E+03  0.98882392763E+03  0.89295211214E+03 0.  0.
         23    2    4    4    0    0  0.44989195798E+01  0.50074309533E+03 -0.17806701024E+03  0.53941796568E+03  0.92195410768E+02 0.  0.
         23    2    4    4    0    0  0.23518179351E+03 -0.34570364912E+03 -0.13645677452E+03  0.44940596195E+03  0.92324310521E+02 0.  0.
          4    1    3    3  502    0 -0.80700934521E+02 -0.10704915891E+02  0.55675118868E+02  0.98625325945E+02  0.00000000000E+00 0. -1.
         -3    1    3    3    0  502 -0.15897977856E+03 -0.14433453032E+03  0.12276670610E+03  0.24734326504E+03  0.00000000000E+00 0.  1.
         11    1    5    5    0    0  0.17709442434E+02  0.47285074422E+03 -0.18452187711E+03  0.50788756018E+03  0.00000000000E+00 0.  1.
        -11    1    5    5    0    0 -0.13210522855E+02  0.27892351115E+02  0.64548668653E+01  0.31530405501E+02  0.00000000000E+00 0. -1.
          4    1    6    6  503    0  0.79222686619E+02 -0.49636894127E+02 -0.26505774078E+02  0.97173100152E+02  0.00000000000E+00 0. -1.
         -4    1    6    6    0  503  0.15595910689E+03 -0.29606675499E+03 -0.10995100045E+03  0.35223286180E+03  0.00000000000E+00 0.  1.
<mgrwt>
<rscale>  0 0.13278376E+04</rscale>
<asrwt>0</asrwt>
<pdfrwt beam="1">  1        2 0.11314419E+00 0.13278376E+04</pdfrwt>
<pdfrwt beam="2">  1       -1 0.92208505E-01 0.13278376E+04</pdfrwt>
<totfact> 0.49214979E+01</totfact>
</mgrwt>
</event>
<event>
12    6  0.8914180E-008  0.4037188E+04  0.7818608E-02  0.7997086E-01
          2   -1    0    0  501    0  0.00000000000E+00  0.00000000000E+00  0.12715485044E+04  0.12715485044E+04  0.00000000000E+00 0. -1.
         -1   -1    0    0    0  501 -0.00000000000E+00 -0.00000000000E+00 -0.32045355355E+04  0.32045355355E+04  0.00000000000E+00 0.  1.
         24    2    1    2    0    0 -0.45164474645E+03 -0.13915389432E+04  0.45401851261E+03  0.15340163363E+04  0.81912775385E+02 0.  0.
        254    2    1    2    0    0  0.45164474645E+03  0.13915389432E+04 -0.23870055437E+04  0.29420677037E+04  0.90421418919E+03 0.  0.
         23    2    4    4    0    0 -0.83691797011E+02  0.10895386355E+04 -0.15883729288E+04  0.19301593031E+04  0.92128276705E+02 0.  0.
         23    2    4    4    0    0  0.53533654346E+03  0.30200030769E+03 -0.79863261488E+03  0.10119084005E+04  0.91406547363E+02 0.  0.
          2    1    3    3  502    0 -0.24093657932E+03 -0.61093123830E+03  0.19961110093E+03  0.68639056287E+03  0.00000000000E+00 0. -1.
         -1    1    3    3    0  502 -0.21070816714E+03 -0.78060770490E+03  0.25440741168E+03  0.84762577341E+03  0.00000000000E+00 0.  1.
         11    1    5    5    0    0 -0.65304996445E+02  0.31389785284E+03 -0.45015595691E+03  0.55266354152E+03  0.00000000000E+00 0.  1.
        -11    1    5    5    0    0 -0.18386800565E+02  0.77564078267E+03 -0.11382169719E+04  0.13774957616E+04  0.00000000000E+00 0. -1.
          1    1    6    6  503    0  0.46863954593E+03  0.22601148058E+03 -0.67018991115E+03  0.84844488941E+03  0.00000000000E+00 0. -1.
         -1    1    6    6    0  503  0.66696997539E+02  0.75988827110E+02 -0.12844270373E+03  0.16346351112E+03  0.00000000000E+00 0.  1.
<mgrwt>
<rscale>  0 0.40371883E+04</rscale>
<asrwt>0</asrwt>
<pdfrwt beam="1">  1        2 0.19562285E+00 0.40371883E+04</pdfrwt>
<pdfrwt beam="2">  1       -1 0.49300547E+00 0.40371883E+04</pdfrwt>
<totfact> 0.25507397E-02</totfact>
</mgrwt>
</event>
<event>
12    6  0.8914180E-008  0.1625439E+04  0.7818608E-02  0.8805070E-01
         -1   -1    0    0    0  501 -0.00000000000E+00  0.00000000000E+00  0.25259096995E+03  0.25259096995E+03  0.00000000000E+00 0.  1.
          2   -1    0    0  501    0  0.00000000000E+00 -0.00000000000E+00 -0.26149510004E+04  0.26149510004E+04  0.00000000000E+00 0. -1.
         24    2    1    2    0    0 -0.37367578861E+02 -0.30997733274E+03 -0.16090921333E+04  0.16410163828E+04  0.79214850909E+02 0.  0.
        254    2    1    2    0    0  0.37367578861E+02  0.30997733274E+03 -0.75326789716E+03  0.12265255875E+04  0.91622606879E+03 0.  0.
         23    2    4    4    0    0  0.20461180966E+03 -0.69326249432E+02 -0.76691681783E+03  0.80202089038E+03  0.91673232892E+02 0.  0.
         23    2    4    4    0    0 -0.16724423080E+03  0.37930358218E+03  0.13648920668E+02  0.42450469712E+03  0.90421815140E+02 0.  0.
          2    1    3    3  502    0 -0.51850775123E+02 -0.24005980912E+03 -0.13552439470E+04  0.13773174546E+04  0.00000000000E+00 0. -1.
         -1    1    3    3    0  502  0.14483196262E+02 -0.69917523623E+02 -0.25384818627E+03  0.26369892825E+03  0.00000000000E+00 0.  1.
         11    1    5    5    0    0  0.19875891540E+03 -0.52343314395E+02 -0.74884720670E+03  0.77654173615E+03  0.00000000000E+00 0.  1.
        -11    1    5    5    0    0  0.58528942600E+01 -0.16982935037E+02 -0.18069611131E+02  0.25479154227E+02  0.00000000000E+00 0. -1.
          4    1    6    6  503    0 -0.57155046088E+02  0.15149412296E+03 -0.37894902116E+02  0.16629248989E+03  0.00000000000E+00 0. -1.
         -4    1    6    6    0  503 -0.11008918471E+03  0.22780945921E+03  0.51543822785E+02  0.25821220723E+03  0.00000000000E+00 0.  1.
<mgrwt>
<rscale>  0 0.16254390E+04</rscale>
<asrwt>0</asrwt>
<pdfrwt beam="1">  1        2 0.40230013E+00 0.16254390E+04</pdfrwt>
<pdfrwt beam="2">  1       -1 0.38860152E-01 0.16254390E+04</pdfrwt>
<totfact> 0.20927422E+01</totfact>
</mgrwt>
</event>
<event>
12    6  0.8914180E-008  0.3905506E+04  0.7818608E-02  0.8023885E-01
          2   -1    0    0  501    0  0.00000000000E+00  0.00000000000E+00  0.28830797204E+04  0.28830797204E+04  0.00000000000E+00 0. -1.
         -1   -1    0    0    0  501 -0.00000000000E+00 -0.00000000000E+00 -0.13226290656E+04  0.13226290656E+04  0.00000000000E+00 0.  1.
         24    2    1    2    0    0  0.27387013228E+03  0.14288584991E+04  0.19637652963E+04  0.24452984709E+04  0.80430174569E+02 0.  0.
        254    2    1    2    0    0 -0.27387013228E+03 -0.14288584991E+04 -0.40331464145E+03  0.17604103151E+04  0.90539511677E+03 0.  0.
         23    2    4    4    0    0  0.82835078806E+02 -0.79841843659E+03  0.17822396156E+03  0.82724408795E+03  0.90748831401E+02 0.  0.
         23    2    4    4    0    0 -0.35670521109E+03 -0.63044006253E+03 -0.58153860301E+03  0.93316622710E+03  0.88987530371E+02 0.  0.
          4    1    3    3  502    0  0.26734252239E+03  0.14166450448E+04  0.19315829295E+04  0.24102630190E+04  0.00000000000E+00 0. -1.
         -3    1    3    3    0  502  0.65276098930E+01  0.12213454363E+02  0.32182366845E+02  0.35035451962E+02  0.00000000000E+00 0.  1.
         11    1    5    5    0    0  0.97295992868E+02 -0.70051583104E+03  0.17326549384E+03  0.72815511474E+03  0.00000000000E+00 0.  1.
        -11    1    5    5    0    0 -0.14460914062E+02 -0.97902605551E+02  0.49584677184E+01  0.99088973207E+02  0.00000000000E+00 0. -1.
          3    1    6    6  503    0 -0.10331545696E+03 -0.11864377174E+03 -0.10250490032E+03  0.18777029266E+03  0.00000000000E+00 0. -1.
         -3    1    6    6    0  503 -0.25338975413E+03 -0.51179629079E+03 -0.47903370269E+03  0.74539593444E+03  0.00000000000E+00 0.  1.
<mgrwt>
<rscale>  0 0.39055064E+04</rscale>
<asrwt>0</asrwt>
<pdfrwt beam="1">  1        2 0.44355073E+00 0.39055064E+04</pdfrwt>
<pdfrwt beam="2">  1       -1 0.20348139E+00 0.39055064E+04</pdfrwt>
<totfact> 0.26450158E-01</totfact>
</mgrwt>
</event>
<event>
12    6  0.8914180E-008  0.2930495E+04  0.7818608E-02  0.8263862E-01
          2   -1    0    0  501    0  0.00000000000E+00  0.00000000000E+00  0.26727585830E+04  0.26727585830E+04  0.00000000000E+00 0. -1.
         -1   -1    0    0    0  501 -0.00000000000E+00 -0.00000000000E+00 -0.80327138409E+03  0.80327138409E+03  0.00000000000E+00 0.  1.
         24    2    1    2    0    0  0.37243699831E+03  0.98180197746E+03 -0.11115309902E+03  0.10588495354E+04  0.78504054379E+02 0.  0.
        254    2    1    2    0    0 -0.37243699831E+03 -0.98180197746E+03  0.19806402979E+04  0.24171804317E+04  0.90398053568E+03 0.  0.
         23    2    4    4    0    0 -0.42261088636E+03 -0.61059106684E+02  0.44164048048E+03  0.62077848896E+03  0.89394868881E+02 0.  0.
         23    2    4    4    0    0  0.50173888056E+02 -0.92074287078E+03  0.15389998174E+04  0.17964019427E+04  0.90855096550E+02 0.  0.
          4    1    3    3  502    0  0.19237049263E+03  0.60769381045E+03 -0.53105883370E+02  0.63962364601E+03  0.00000000000E+00 0. -1.
         -3    1    3    3    0  502  0.18006650567E+03  0.37410816702E+03 -0.58047215654E+02  0.41922588939E+03  0.00000000000E+00 0.  1.
         11    1    5    5    0    0 -0.12964986906E+03  0.21196713425E+02  0.14829842894E+03  0.19811817997E+03  0.00000000000E+00 0.  1.
        -11    1    5    5    0    0 -0.29296101730E+03 -0.82255820109E+02  0.29334205153E+03  0.42266030899E+03  0.00000000000E+00 0. -1.
          2    1    6    6  503    0  0.48780779079E+02 -0.90865004660E+03  0.15332455943E+04  0.17829376108E+04  0.00000000000E+00 0. -1.
         -2    1    6    6    0  503  0.13931089762E+01 -0.12092824179E+02  0.57542231016E+01  0.13464331872E+02  0.00000000000E+00 0.  1.
<mgrwt>
<rscale>  0 0.29304952E+04</rscale>
<asrwt>0</asrwt>
<pdfrwt beam="1">  1        2 0.41119362E+00 0.29304952E+04</pdfrwt>
<pdfrwt beam="2">  1       -1 0.12358021E+00 0.29304952E+04</pdfrwt>
<totfact> 0.15523009E+00</totfact>
</mgrwt>
</event>
<event>
12    6  0.8914180E-008  0.1748390E+04  0.7818608E-02  0.8734237E-01
          4   -1    0    0  501    0  0.00000000000E+00  0.00000000000E+00  0.14456780946E+04  0.14456780946E+04  0.00000000000E+00 0. -1.
         -3   -1    0    0    0  501 -0.00000000000E+00 -0.00000000000E+00 -0.52862148907E+03  0.52862148907E+03  0.00000000000E+00 0.  1.
         24    2    1    2    0    0  0.32523105925E+03 -0.95205763105E+02  0.94590396829E+03  0.10079562917E+04  0.80013683516E+02 0.  0.
        254    2    1    2    0    0 -0.32523105925E+03  0.95205763105E+02 -0.28847362791E+02  0.96634329192E+03  0.90451523386E+03 0.  0.
         23    2    4    4    0    0 -0.33099721387E+03 -0.27281177469E+03 -0.27090695788E+03  0.51599097701E+03  0.94184332722E+02 0.  0.
         23    2    4    4    0    0  0.57661546162E+01  0.36801753779E+03  0.24205959508E+03  0.45035231492E+03  0.93563899646E+02 0.  0.
          4    1    3    3  502    0  0.31138976010E+03 -0.73823122009E+02  0.90336349404E+03  0.95837312066E+03  0.00000000000E+00 0. -1.
         -3    1    3    3    0  502  0.13841299151E+02 -0.21382641096E+02  0.42540474246E+02  0.49583171051E+02  0.00000000000E+00 0.  1.
         11    1    5    5    0    0 -0.57438043321E+02 -0.59710973497E+02 -0.98557553079E+02  0.12875605013E+03  0.00000000000E+00 0. -1.
        -11    1    5    5    0    0 -0.27355917055E+03 -0.21310080119E+03 -0.17234940480E+03  0.38723492688E+03  0.00000000000E+00 0.  1.
          3    1    6    6  503    0 -0.25977264611E+02  0.26820707670E+03  0.20737832205E+03  0.34002297382E+03  0.00000000000E+00 0. -1.
         -3    1    6    6    0  503  0.31743419227E+02  0.99810461092E+02  0.34681273032E+02  0.11032934110E+03  0.00000000000E+00 0.  1.
<mgrwt>
<rscale>  0 0.17483896E+04</rscale>
<asrwt>0</asrwt>
<pdfrwt beam="1">  1        4 0.22241201E+00 0.17483896E+04</pdfrwt>
<pdfrwt beam="2">  1       -3 0.81326384E-01 0.17483896E+04</pdfrwt>
<totfact> 0.28585625E-01</totfact>
</mgrwt>
</event>
<event>
12    6  0.8914180E-008  0.2665199E+04  0.7818608E-02  0.8346386E-01
          2   -1    0    0  501    0  0.00000000000E+00  0.00000000000E+00  0.23229763848E+04  0.23229763848E+04  0.00000000000E+00 0. -1.
         -1   -1    0    0    0  501 -0.00000000000E+00 -0.00000000000E+00 -0.76445932059E+03  0.76445932059E+03  0.00000000000E+00 0.  1.
         24    2    1    2    0    0 -0.48394472390E+03 -0.10672702593E+04  0.69211771759E+03  0.13631664090E+04  0.76989749452E+02 0.  0.
        254    2    1    2    0    0  0.48394472390E+03  0.10672702593E+04  0.86639934658E+03  0.17242692963E+04  0.92151423013E+03 0.  0.
         23    2    4    4    0    0 -0.12163174316E+03  0.61738006221E+03  0.70206828351E+03  0.94694844488E+03  0.88651341761E+02 0.  0.
         23    2    4    4    0    0  0.60557646706E+03  0.44989019708E+03  0.16433106308E+03  0.77732085145E+03  0.89994227100E+02 0.  0.
          4    1    3    3  502    0 -0.11558591849E+03 -0.22723726757E+03  0.11683533366E+03  0.28044139409E+03  0.00000000000E+00 0. -1.
         -3    1    3    3    0  502 -0.36835880541E+03 -0.84003299173E+03  0.57528238393E+03  0.10827250149E+04  0.00000000000E+00 0.  1.
         11    1    5    5    0    0 -0.38621510979E+02  0.36088919870E+03  0.44723625255E+03  0.57597994795E+03  0.00000000000E+00 0. -1.
        -11    1    5    5    0    0 -0.83010232183E+02  0.25649086352E+03  0.25483203096E+03  0.37096849694E+03  0.00000000000E+00 0.  1.
          2    1    6    6  503    0  0.40188713651E+03  0.34947018957E+03  0.12012396477E+03  0.54596011832E+03  0.00000000000E+00 0. -1.
         -2    1    6    6    0  503  0.20368933055E+03  0.10042000752E+03  0.44207098303E+02  0.23136073312E+03  0.00000000000E+00 0.  1.
<mgrwt>
<rscale>  0 0.26651986E+04</rscale>
<asrwt>0</asrwt>
<pdfrwt beam="1">  1        2 0.35738098E+00 0.26651986E+04</pdfrwt>
<pdfrwt beam="2">  1       -1 0.11760913E+00 0.26651986E+04</pdfrwt>
<totfact> 0.28616923E+00</totfact>
</mgrwt>
</event>
<event>
12    6  0.8914180E-008  0.4888294E+04  0.7818608E-02  0.7845974E-01
          2   -1    0    0  501    0  0.00000000000E+00  0.00000000000E+00  0.44728511747E+04  0.44728511747E+04  0.00000000000E+00 0. -1.
         -1   -1    0    0    0  501 -0.00000000000E+00 -0.00000000000E+00 -0.13355808233E+04  0.13355808233E+04  0.00000000000E+00 0.  1.
         24    2    1    2    0    0  0.25314814857E+03 -0.19662867644E+04 -0.86561045616E+01  0.19837147760E+04  0.68423383169E+02 0.  0.
        254    2    1    2    0    0 -0.25314814857E+03  0.19662867644E+04  0.31459264560E+04  0.38247172219E+04  0.89512062649E+03 0.  0.
         23    2    4    4    0    0 -0.45143793410E+03  0.10302625391E+04  0.22188006740E+04  0.24893520976E+04  0.92522036250E+02 0.  0.
         23    2    4    4    0    0  0.19828978553E+03  0.93602422530E+03  0.92712578203E+03  0.13353651243E+04  0.90430139393E+02 0.  0.
          4    1    3    3  502    0  0.76740389301E+02 -0.63466355923E+03 -0.34396231874E+02  0.64021091957E+03  0.00000000000E+00 0. -1.
         -3    1    3    3    0  502  0.17640775927E+03 -0.13316232052E+04  0.25740127312E+02  0.13435038565E+04  0.00000000000E+00 0.  1.
         11    1    5    5    0    0 -0.31059201694E+03  0.80580303784E+03  0.17074559839E+04  0.19134241228E+04  0.00000000000E+00 0. -1.
        -11    1    5    5    0    0 -0.14084591716E+03  0.22445950129E+03  0.51134469002E+03  0.57592797476E+03  0.00000000000E+00 0.  1.
          4    1    6    6  503    0  0.11559567762E+03  0.42144713593E+03  0.47443936386E+03  0.64503702145E+03  0.00000000000E+00 0.  1.
         -4    1    6    6    0  503  0.82694107909E+02  0.51457708938E+03  0.45268641817E+03  0.69032810286E+03  0.00000000000E+00 0. -1.
<mgrwt>
<rscale>  0 0.48882939E+04</rscale>
<asrwt>0</asrwt>
<pdfrwt beam="1">  1        2 0.68813094E+00 0.48882939E+04</pdfrwt>
<pdfrwt beam="2">  1       -1 0.20547397E+00 0.48882939E+04</pdfrwt>
<totfact> 0.14899074E-02</totfact>
</mgrwt>
</event>
<event>
12    6  0.8914180E-008  0.1679751E+04  0.7818608E-02  0.8772998E-01
         -1   -1    0    0    0  501 -0.00000000000E+00  0.00000000000E+00  0.74799311864E+03  0.74799311864E+03  0.00000000000E+00 0.  1.
          2   -1    0    0  501    0  0.00000000000E+00 -0.00000000000E+00 -0.94304405989E+03  0.94304405989E+03  0.00000000000E+00 0. -1.
         24    2    1    2    0    0  0.45593779273E+03 -0.10886127160E+03 -0.42754149932E+03  0.64000113755E+03  0.84140805456E+02 0.  0.
        254    2    1    2    0    0 -0.45593779273E+03  0.10886127160E+03  0.23249055806E+03  0.10510360410E+04  0.91153433976E+03 0.  0.
         23    2    4    4    0    0  0.26408990391E+03  0.39462179072E+01 -0.42608387959E+01  0.27966254861E+03  0.91836465326E+02 0.  0.
         23    2    4    4    0    0 -0.72002769664E+03  0.10491505369E+03  0.23675139686E+03  0.77137349237E+03  0.97564278267E+02 0.  0.
          4    1    3    3  502    0  0.43447139299E+03 -0.10739299541E+03 -0.37737420424E+03  0.58541432919E+03  0.00000000000E+00 0. -1.
         -3    1    3    3    0  502  0.21466399734E+02 -0.14682761870E+01 -0.50167295072E+02  0.54586808364E+02  0.00000000000E+00 0.  1.
         11    1    5    5    0    0  0.26065834142E+03  0.11201781063E+02  0.12374485435E+02  0.26119222565E+03  0.00000000000E+00 0. -1.
        -11    1    5    5    0    0  0.34315624899E+01 -0.72555631558E+01 -0.16635324231E+02  0.18470322956E+02  0.00000000000E+00 0.  1.
          1    1    6    6  503    0 -0.42488263981E+03  0.10979018036E+03  0.13471912407E+03  0.45905161333E+03  0.00000000000E+00 0. -1.
         -1    1    6    6    0  503 -0.29514505683E+03 -0.48751266749E+01  0.10203227279E+03  0.31232187903E+03  0.00000000000E+00 0.  1.
<mgrwt>
<rscale>  0 0.16797505E+04</rscale>
<asrwt>0</asrwt>
<pdfrwt beam="1">  1        2 0.14508370E+00 0.16797505E+04</pdfrwt>
<pdfrwt beam="2">  1       -1 0.11507586E+00 0.16797505E+04</pdfrwt>
<totfact> 0.20454293E+01</totfact>
</mgrwt>
</event>
<event>
12    6  0.8914180E-008  0.2814268E+04  0.7818608E-02  0.8298852E-01
         -1   -1    0    0    0  501 -0.00000000000E+00  0.00000000000E+00  0.15879354312E+04  0.15879354312E+04  0.00000000000E+00 0.  1.
          2   -1    0    0  501    0  0.00000000000E+00 -0.00000000000E+00 -0.12469188901E+04  0.12469188901E+04  0.00000000000E+00 0. -1.
         24    2    1    2    0    0 -0.59328860704E+03  0.33417006740E+03  0.12281232024E+04  0.14064640697E+04  0.78699261156E+02 0.  0.
        254    2    1    2    0    0  0.59328860704E+03 -0.33417006740E+03 -0.88710666135E+03  0.14283902516E+04  0.88863911515E+03 0.  0.
         23    2    4    4    0    0  0.76096375941E+03 -0.20440780008E+03 -0.89680728028E+03  0.11972031328E+04  0.90463536554E+02 0.  0.
         23    2    4    4    0    0 -0.16767515237E+03 -0.12976226732E+03  0.97006189295E+01  0.23118711873E+03  0.91652491075E+02 0.  0.
          4    1    3    3  502    0 -0.78846432478E+02  0.17939474203E+02  0.16705542087E+03  0.18559660097E+03  0.00000000000E+00 0. -1.
         -3    1    3    3    0  502 -0.51444217457E+03  0.31623059320E+03  0.10610677816E+04  0.12208674687E+04  0.00000000000E+00 0.  1.
         11    1    5    5    0    0  0.48815387161E+02  0.88828963154E+01 -0.60700175300E+02  0.78398719071E+02  0.00000000000E+00 0. -1.
        -11    1    5    5    0    0  0.71214837225E+03 -0.21329069640E+03 -0.83610710498E+03  0.11188044138E+04  0.00000000000E+00 0.  1.
          2    1    6    6  503    0 -0.29825731658E+02 -0.51267544854E+02 -0.31686694611E+02  0.67245684172E+02  0.00000000000E+00 0. -1.
         -2    1    6    6    0  503 -0.13784942071E+03 -0.78494722465E+02  0.41387313541E+02  0.16394143456E+03  0.00000000000E+00 0.  1.
<mgrwt>
<rscale>  0 0.28142684E+04</rscale>
<asrwt>0</asrwt>
<pdfrwt beam="1">  1        2 0.19183368E+00 0.28142684E+04</pdfrwt>
<pdfrwt beam="2">  1       -1 0.24429776E+00 0.28142684E+04</pdfrwt>
<totfact> 0.13362350E+00</totfact>
</mgrwt>
</event>
<event>
12    6  0.8914180E-008  0.1688330E+04  0.7818608E-02  0.8768048E-01
         -1   -1    0    0    0  501 -0.00000000000E+00  0.00000000000E+00  0.12910887969E+04  0.12910887969E+04  0.00000000000E+00 0.  1.
          2   -1    0    0  501    0  0.00000000000E+00 -0.00000000000E+00 -0.55194874943E+03  0.55194874943E+03  0.00000000000E+00 0. -1.
         24    2    1    2    0    0  0.15526132040E+03 -0.50312604005E+03 -0.52954625914E+02  0.53403213792E+03  0.71723372296E+02 0.  0.
        254    2    1    2    0    0 -0.15526132040E+03  0.50312604005E+03  0.79209467337E+03  0.13090054084E+04  0.89935493428E+03 0.  0.
         23    2    4    4    0    0 -0.23437565380E+03 -0.20417370166E+03  0.23887376753E+03  0.40187413016E+03  0.88449376135E+02 0.  0.
         23    2    4    4    0    0  0.79114333393E+02  0.70729974171E+03  0.55322090584E+03  0.90713127823E+03  0.10149769904E+03 0.  0.
          4    1    3    3  502    0  0.15469595188E+03 -0.45573798111E+03 -0.63595043114E+02  0.48546088871E+03  0.00000000000E+00 0. -1.
         -3    1    3    3    0  502  0.56536851819E+00 -0.47388058940E+02  0.10640417200E+02  0.48571249211E+02  0.00000000000E+00 0.  1.
         11    1    5    5    0    0 -0.10737542998E+03 -0.43145566615E+02  0.63298412989E+02  0.13190038654E+03  0.00000000000E+00 0.  1.
        -11    1    5    5    0    0 -0.12700022382E+03 -0.16102813504E+03  0.17557535454E+03  0.26997374362E+03  0.00000000000E+00 0. -1.
          1    1    6    6  503    0  0.57717928016E+02  0.68667106008E+03  0.52729610554E+03  0.86769216136E+03  0.00000000000E+00 0. -1.
         -1    1    6    6    0  503  0.21396405376E+02  0.20628681628E+02  0.25924800294E+02  0.39439116864E+02  0.00000000000E+00 0.  1.
<mgrwt>
<rscale>  0 0.16883304E+04</rscale>
<asrwt>0</asrwt>
<pdfrwt beam="1">  1        2 0.84915193E-01 0.16883304E+04</pdfrwt>
<pdfrwt beam="2">  1       -1 0.19862904E+00 0.16883304E+04</pdfrwt>
<totfact> 0.91758586E+00</totfact>
</mgrwt>
</event>
<event>
12    6  0.8914180E-008  0.1584578E+04  0.7818608E-02  0.8830078E-01
          2   -1    0    0  501    0  0.00000000000E+00  0.00000000000E+00  0.20229740361E+04  0.20229740361E+04  0.00000000000E+00 0. -1.
         -1   -1    0    0    0  501 -0.00000000000E+00 -0.00000000000E+00 -0.31029670246E+03  0.31029670246E+03  0.00000000000E+00 0.  1.
         24    2    1    2    0    0  0.12284468752E+03  0.48333305791E+03  0.86034408420E+03  0.99770380293E+03  0.80742015408E+02 0.  0.
        254    2    1    2    0    0 -0.12284468752E+03 -0.48333305791E+03  0.85233324945E+03  0.13355669356E+04  0.89920265198E+03 0.  0.
         23    2    4    4    0    0 -0.22856014238E+03 -0.66237274018E+03  0.36220169060E+03  0.79403200289E+03  0.91210587778E+02 0.  0.
         23    2    4    4    0    0  0.10571545485E+03  0.17903968227E+03  0.49013155886E+03  0.54153493275E+03  0.98995824067E+02 0.  0.
          2    1    3    3  502    0  0.32950870294E+02  0.12398498382E+03  0.29656239044E+03  0.32312116534E+03  0.00000000000E+00 0. -1.
         -1    1    3    3    0  502  0.89893817229E+02  0.35934807409E+03  0.56378169376E+03  0.67458263759E+03  0.00000000000E+00 0.  1.
         11    1    5    5    0    0 -0.17375832834E+03 -0.36586319739E+03  0.21228780620E+03  0.45728978617E+03  0.00000000000E+00 0. -1.
        -11    1    5    5    0    0 -0.54801814039E+02 -0.29650954279E+03  0.14991388439E+03  0.33674221672E+03  0.00000000000E+00 0.  1.
          2    1    6    6  503    0  0.11875103127E+02  0.11706209217E+03  0.24044320889E+03  0.26768916340E+03  0.00000000000E+00 0.  1.
         -2    1    6    6    0  503  0.93840351726E+02  0.61977590100E+02  0.24968834996E+03  0.27384576936E+03  0.00000000000E+00 0. -1.
<mgrwt>
<rscale>  0 0.15845784E+04</rscale>
<asrwt>0</asrwt>
<pdfrwt beam="1">  1        2 0.31122677E+00 0.15845784E+04</pdfrwt>
<pdfrwt beam="2">  1       -1 0.47737956E-01 0.15845784E+04</pdfrwt>
<totfact> 0.31100036E+01</totfact>
</mgrwt>
</event>
<event>
12    6  0.8914180E-008  0.1894457E+04  0.7818608E-02  0.8657620E-01
         -1   -1    0    0    0  501 -0.00000000000E+00  0.00000000000E+00  0.47900252549E+03  0.47900252549E+03  0.00000000000E+00 0.  1.
          2   -1    0    0  501    0  0.00000000000E+00 -0.00000000000E+00 -0.18731473311E+04  0.18731473311E+04  0.00000000000E+00 0. -1.
         24    2    1    2    0    0 -0.11518813450E+02 -0.57964397707E+03 -0.12134855214E+04  0.13470887897E+04  0.77338692428E+02 0.  0.
        254    2    1    2    0    0  0.11518813450E+02  0.57964397707E+03 -0.18065928417E+03  0.10050610669E+04  0.80086837122E+03 0.  0.
         23    2    4    4    0    0 -0.39364480307E+02  0.73745881942E+03 -0.27595019280E+03  0.79357517914E+03  0.90653093689E+02 0.  0.
         23    2    4    4    0    0  0.50883293757E+02 -0.15781484235E+03  0.95290908627E+02  0.21148588776E+03  0.90284491501E+02 0.  0.
          4    1    3    3  502    0 -0.16502536666E+02 -0.42970432675E+03 -0.81879173290E+03  0.92484487565E+03  0.00000000000E+00 0. -1.
         -3    1    3    3    0  502  0.49837232157E+01 -0.14993965032E+03 -0.39469378851E+03  0.42224391402E+03  0.00000000000E+00 0.  1.
         11    1    5    5    0    0 -0.53405601474E+02  0.70720091064E+03 -0.27351699123E+03  0.76012948290E+03  0.00000000000E+00 0. -1.
        -11    1    5    5    0    0  0.14041121168E+02  0.30257908778E+02 -0.24332015670E+01  0.33445696242E+02  0.00000000000E+00 0.  1.
          3    1    6    6  503    0  0.31798518517E+02 -0.14849815525E+03  0.47388117882E+02  0.15908639668E+03  0.00000000000E+00 0. -1.
         -3    1    6    6    0  503  0.19084775239E+02 -0.93166871010E+01  0.47902790745E+02  0.52399491082E+02  0.00000000000E+00 0.  1.
<mgrwt>
<rscale>  0 0.18944575E+04</rscale>
<asrwt>0</asrwt>
<pdfrwt beam="1">  1        2 0.28817651E+00 0.18944575E+04</pdfrwt>
<pdfrwt beam="2">  1       -1 0.73692697E-01 0.18944575E+04</pdfrwt>
<totfact> 0.15552834E+01</totfact>
</mgrwt>
</event>
<event>
12    6  0.8914180E-008  0.1821109E+04  0.7818608E-02  0.8695154E-01
          2   -1    0    0  501    0  0.00000000000E+00  0.00000000000E+00  0.62513073999E+03  0.62513073999E+03  0.00000000000E+00 0. -1.
         -1   -1    0    0    0  501 -0.00000000000E+00 -0.00000000000E+00 -0.13262980125E+04  0.13262980125E+04  0.00000000000E+00 0.  1.
         24    2    1    2    0    0  0.45989175477E+03  0.45037190703E+03 -0.50237718755E+03  0.82032946379E+03  0.78881619186E+02 0.  0.
        254    2    1    2    0    0 -0.45989175477E+03 -0.45037190703E+03 -0.19879008494E+03  0.11310992887E+04  0.90858836788E+03 0.  0.
         23    2    4    4    0    0 -0.12896367944E+03 -0.35552556140E+03  0.31832250963E+03  0.50324909090E+03  0.94341782528E+02 0.  0.
         23    2    4    4    0    0 -0.33092807533E+03 -0.94846345633E+02 -0.51711259458E+03  0.62785019778E+03  0.91001181677E+02 0.  0.
          4    1    3    3  502    0  0.37220082487E+03  0.37412637643E+03 -0.37191420789E+03  0.64561922029E+03  0.00000000000E+00 0. -1.
         -3    1    3    3    0  502  0.87690929895E+02  0.76245530607E+02 -0.13046297966E+03  0.17471024350E+03  0.00000000000E+00 0.  1.
         11    1    5    5    0    0 -0.10951547093E+03 -0.35232743950E+03  0.29290663149E+03  0.47108657141E+03  0.00000000000E+00 0.  1.
        -11    1    5    5    0    0 -0.19448208513E+02 -0.31981219037E+01  0.25415878145E+02  0.32162519490E+02  0.00000000000E+00 0. -1.
          3    1    6    6  503    0 -0.11225142853E+01  0.99023840110E+01 -0.16631266647E+02  0.19388560486E+02  0.00000000000E+00 0. -1.
         -3    1    6    6    0  503 -0.32980556104E+03 -0.10474872964E+03 -0.50048132793E+03  0.60846163730E+03  0.00000000000E+00 0.  1.
<mgrwt>
<rscale>  0 0.18211092E+04</rscale>
<asrwt>0</asrwt>
<pdfrwt beam="1">  1        2 0.96173960E-01 0.18211092E+04</pdfrwt>
<pdfrwt beam="2">  1       -1 0.20404585E+00 0.18211092E+04</pdfrwt>
<totfact> 0.71672874E+00</totfact>
</mgrwt>
</event>
<event>
12    6  0.8914180E-008  0.1150010E+04  0.7818608E-02  0.9157774E-01
          2   -1    0    0  501    0  0.00000000000E+00  0.00000000000E+00  0.24771250627E+04  0.24771250627E+04  0.00000000000E+00 0. -1.
         -1   -1    0    0    0  501 -0.00000000000E+00 -0.00000000000E+00 -0.13347364395E+03  0.13347364395E+03  0.00000000000E+00 0.  1.
         24    2    1    2    0    0  0.17011809921E+03  0.98774273811E+02  0.23158600760E+03  0.31489777470E+03  0.82655942008E+02 0.  0.
        254    2    1    2    0    0 -0.17011809921E+03 -0.98774273811E+02  0.21120654111E+04  0.22957009319E+04  0.87790998579E+03 0.  0.
         23    2    4    4    0    0 -0.43418336851E+03  0.15400342382E+03  0.15435769373E+04  0.16135354672E+04  0.92923036117E+02 0.  0.
         23    2    4    4    0    0  0.26406526930E+03 -0.25277769763E+03  0.56848847383E+03  0.68216546470E+03  0.92431301343E+02 0.  0.
          4    1    3    3  502    0  0.14497611140E+01 -0.86068422425E+01 -0.27082686456E+00  0.87322899554E+01  0.00000000000E+00 0. -1.
         -3    1    3    3    0  502  0.16866833810E+03  0.10738111605E+03  0.23185683447E+03  0.30616548475E+03  0.00000000000E+00 0.  1.
         11    1    5    5    0    0 -0.27542070184E+03  0.50652378913E+02  0.88441295216E+03  0.92768987083E+03  0.00000000000E+00 0.  1.
        -11    1    5    5    0    0 -0.15876266668E+03  0.10335104491E+03  0.65916398514E+03  0.68584559641E+03  0.00000000000E+00 0. -1.
          3    1    6    6  503    0  0.68195917634E+02 -0.12462312457E+03  0.19191242171E+03  0.23877182406E+03  0.00000000000E+00 0. -1.
         -3    1    6    6    0  503  0.19586935167E+03 -0.12815457306E+03  0.37657605213E+03  0.44339364064E+03  0.00000000000E+00 0.  1.
<mgrwt>
<rscale>  0 0.11500103E+04</rscale>
<asrwt>0</asrwt>
<pdfrwt beam="1">  1        2 0.38109613E+00 0.11500103E+04</pdfrwt>
<pdfrwt beam="2">  1       -1 0.20534409E-01 0.11500103E+04</pdfrwt>
<totfact> 0.79756384E+01</totfact>
</mgrwt>
</event>
<event>
12    6  0.8914180E-008  0.1390682E+04  0.7818608E-02  0.8960591E-01
         -1   -1    0    0    0  501 -0.00000000000E+00  0.00000000000E+00  0.18182898236E+03  0.18182898236E+03  0.00000000000E+00 0.  1.
          2   -1    0    0  501    0  0.00000000000E+00 -0.00000000000E+00 -0.26590880691E+04  0.26590880691E+04  0.00000000000E+00 0. -1.
         24    2    1    2    0    0  0.21912302193E+03 -0.18275596303E+03 -0.12638957510E+04  0.12981863665E+04  0.80254171955E+02 0.  0.
        254    2    1    2    0    0 -0.21912302193E+03  0.18275596303E+03 -0.12133633357E+04  0.15427306849E+04  0.90903946057E+03 0.  0.
         23    2    4    4    0    0  0.16895250864E+03 -0.16144660226E+03 -0.36326134243E+02  0.25329482365E+03  0.90712315053E+02 0.  0.
         23    2    4    4    0    0 -0.38807553056E+03  0.34420256529E+03 -0.11770372015E+04  0.12894358613E+04  0.90278697539E+02 0.  0.
          4    1    3    3  502    0  0.73080686450E+02 -0.65303540276E+02 -0.61531169239E+03  0.62306806843E+03  0.00000000000E+00 0. -1.
         -1    1    3    3    0  502  0.14604233548E+03 -0.11745242275E+03 -0.64858405861E+03  0.67511829811E+03  0.00000000000E+00 0.  1.
         11    1    5    5    0    0  0.20999138696E+02  0.49267762596E+01  0.13093034542E+02  0.25232211632E+02  0.00000000000E+00 0. -1.
        -11    1    5    5    0    0  0.14795336994E+03 -0.16637337852E+03 -0.49419168785E+02  0.22806261202E+03  0.00000000000E+00 0.  1.
          1    1    6    6  503    0 -0.18167558406E+03  0.14792801075E+03 -0.64016211307E+03  0.68168632465E+03  0.00000000000E+00 0. -1.
         -1    1    6    6    0  503 -0.20639994650E+03  0.19627455454E+03 -0.53687508842E+03  0.60774953660E+03  0.00000000000E+00 0.  1.
<mgrwt>
<rscale>  0 0.13906822E+04</rscale>
<asrwt>0</asrwt>
<pdfrwt beam="1">  1        2 0.40909044E+00 0.13906822E+04</pdfrwt>
<pdfrwt beam="2">  1       -1 0.27973692E-01 0.13906822E+04</pdfrwt>
<totfact> 0.36115523E+01</totfact>
</mgrwt>
</event>
<event>
12    6  0.8922506E-008  0.2666305E+04  0.7818608E-02  0.8346021E-01
         -1   -1    0    0    0  501 -0.00000000000E+00  0.00000000000E+00  0.81254596857E+03  0.81254596857E+03  0.00000000000E+00 0.  1.
          2   -1    0    0  501    0  0.00000000000E+00 -0.00000000000E+00 -0.21873162326E+04  0.21873162326E+04  0.00000000000E+00 0. -1.
         24    2    1    2    0    0  0.11385393390E+04  0.18959411974E+03 -0.89266334595E+03  0.14613194266E+04  0.79930348592E+02 0.  0.
        254    2    1    2    0    0 -0.11385393390E+04 -0.18959411974E+03 -0.48210691806E+03  0.15385427746E+04  0.89580635860E+03 0.  0.
         23    2    4    4    0    0 -0.38887980148E+03 -0.33751114788E+02  0.25156580254E+03  0.47404522034E+03  0.95220166805E+02 0.  0.
         23    2    4    4    0    0 -0.74965953750E+03 -0.15584300495E+03 -0.73367272060E+03  0.10644975542E+04  0.92751914666E+02 0.  0.
          2    1    3    3  502    0  0.53546590230E+03  0.68476667151E+02 -0.37406441657E+03  0.65676249453E+03  0.00000000000E+00 0. -1.
         -1    1    3    3    0  502  0.60307343668E+03  0.12111745259E+03 -0.51859892938E+03  0.80455693205E+03  0.00000000000E+00 0.  1.
         11    1    5    5    0    0 -0.33317120184E+03 -0.56474174666E+01  0.23983646797E+03  0.41055629873E+03  0.00000000000E+00 0. -1.
        -11    1    5    5    0    0 -0.55708599645E+02 -0.28103697322E+02  0.11729334571E+02  0.63488921609E+02  0.00000000000E+00 0.  1.
          1    1    6    6  503    0 -0.68428711443E+03 -0.16831893952E+03 -0.67364488393E+03  0.97487309431E+03  0.00000000000E+00 0. -1.
         -1    1    6    6    0  503 -0.65372423075E+02  0.12475934570E+02 -0.60027836666E+02  0.89624459925E+02  0.00000000000E+00 0.  1.
<mgrwt>
<rscale>  0 0.26663045E+04</rscale>
<asrwt>0</asrwt>
<pdfrwt beam="1">  1        2 0.33651018E+00 0.26663045E+04</pdfrwt>
<pdfrwt beam="2">  1       -1 0.12500707E+00 0.26663045E+04</pdfrwt>
<totfact> 0.29387244E+00</totfact>
</mgrwt>
</event>
<event>
12    6  0.8914180E-008  0.2727373E+04  0.7818608E-02  0.8326178E-01
          2   -1    0    0  501    0  0.00000000000E+00  0.00000000000E+00  0.15407477606E+04  0.15407477606E+04  0.00000000000E+00 0. -1.
         -1   -1    0    0    0  501 -0.00000000000E+00 -0.00000000000E+00 -0.12069725999E+04  0.12069725999E+04  0.00000000000E+00 0.  1.
         24    2    1    2    0    0 -0.63958815798E+03 -0.51406257067E+03  0.10392996688E+04  0.13266227863E+04  0.80317352418E+02 0.  0.
        254    2    1    2    0    0  0.63958815798E+03  0.51406257067E+03 -0.70552450811E+03  0.14210975742E+04  0.92109725076E+03 0.  0.
         23    2    4    4    0    0  0.43627971481E+03  0.73734973711E+03 -0.31120319304E+03  0.91621675919E+03  0.92634216673E+02 0.  0.
         23    2    4    4    0    0  0.20330844317E+03 -0.22328716644E+03 -0.39432131507E+03  0.50488081497E+03  0.90685478704E+02 0.  0.
          2    1    3    3  502    0 -0.52919933222E+03 -0.45990920627E+03  0.86887177797E+03  0.11164705898E+04  0.00000000000E+00 0. -1.
         -1    1    3    3    0  502 -0.11038882576E+03 -0.54153364397E+02  0.17042789085E+03  0.21015219654E+03  0.00000000000E+00 0.  1.
         11    1    5    5    0    0  0.82553941533E+01  0.26529289576E+02  0.50682862202E+01  0.28242561202E+02  0.00000000000E+00 0. -1.
        -11    1    5    5    0    0  0.42802432066E+03  0.71082044753E+03 -0.31627147926E+03  0.88797419799E+03  0.00000000000E+00 0.  1.
          4    1    6    6  503    0  0.19216244472E+03 -0.20327108496E+03 -0.39239271175E+03  0.48188959251E+03  0.00000000000E+00 0. -1.
         -4    1    6    6    0  503  0.11145998449E+02 -0.20016081478E+02 -0.19286033193E+01  0.22991222454E+02  0.00000000000E+00 0.  1.
<mgrwt>
<rscale>  0 0.27273726E+04</rscale>
<asrwt>0</asrwt>
<pdfrwt beam="1">  1        2 0.23703812E+00 0.27273726E+04</pdfrwt>
<pdfrwt beam="2">  1       -1 0.18568809E+00 0.27273726E+04</pdfrwt>
<totfact> 0.22745589E+00</totfact>
</mgrwt>
</event>
<event>
12    6  0.8914180E-008  0.2088091E+04  0.7818608E-02  0.8566508E-01
          2   -1    0    0  501    0  0.00000000000E+00  0.00000000000E+00  0.21363291532E+04  0.21363291532E+04  0.00000000000E+00 0. -1.
         -1   -1    0    0    0  501 -0.00000000000E+00 -0.00000000000E+00 -0.51023553383E+03  0.51023553383E+03  0.00000000000E+00 0.  1.
         24    2    1    2    0    0  0.66853805935E+02 -0.36073006804E+03 -0.30585767210E+03  0.48439583092E+03  0.80590272835E+02 0.  0.
        254    2    1    2    0    0 -0.66853805935E+02  0.36073006804E+03  0.19319512915E+04  0.21621688561E+04  0.89885636022E+03 0.  0.
         23    2    4    4    0    0 -0.46091892918E+03  0.81938739083E+02  0.10248308873E+04  0.11305640613E+04  0.93469422931E+02 0.  0.
         23    2    4    4    0    0  0.39406512324E+03  0.27879132896E+03  0.90712040420E+03  0.10316047948E+04  0.91263894362E+02 0.  0.
          4    1    3    3  502    0  0.17691366542E+02 -0.12343230739E+02 -0.67600906268E+01  0.22606163329E+02  0.00000000000E+00 0. -1.
         -3    1    3    3    0  502  0.49162439393E+02 -0.34838683730E+03 -0.29909758148E+03  0.46178966759E+03  0.00000000000E+00 0.  1.
         11    1    5    5    0    0 -0.12186321076E+03  0.61013243306E+02  0.25556541172E+03  0.28963241819E+03  0.00000000000E+00 0. -1.
        -11    1    5    5    0    0 -0.33905571842E+03  0.20925495777E+02  0.76926547553E+03  0.84093164313E+03  0.00000000000E+00 0.  1.
          4    1    6    6  503    0  0.67777608034E+02  0.38508757481E+02  0.22594782829E+03  0.23901704889E+03  0.00000000000E+00 0. -1.
         -4    1    6    6    0  503  0.32628751521E+03  0.24028257148E+03  0.68117257591E+03  0.79258774588E+03  0.00000000000E+00 0.  1.
<mgrwt>
<rscale>  0 0.20880910E+04</rscale>
<asrwt>0</asrwt>
<pdfrwt beam="1">  1        2 0.32866602E+00 0.20880910E+04</pdfrwt>
<pdfrwt beam="2">  1       -1 0.78497776E-01 0.20880910E+04</pdfrwt>
<totfact> 0.95615365E+00</totfact>
</mgrwt>
</event>
<event>
12    6  0.8914180E-008  0.1459917E+04  0.7818608E-02  0.8911554E-01
         -3   -1    0    0    0  501 -0.00000000000E+00  0.00000000000E+00  0.91191702573E+03  0.91191702573E+03  0.00000000000E+00 0.  1.
          2   -1    0    0  501    0  0.00000000000E+00 -0.00000000000E+00 -0.58430708476E+03  0.58430708476E+03  0.00000000000E+00 0. -1.
         24    2    1    2    0    0 -0.23294147444E+03 -0.21864359529E+03 -0.21570765655E+03  0.39451906051E+03  0.83956796835E+02 0.  0.
        254    2    1    2    0    0  0.23294147444E+03  0.21864359529E+03  0.54331759752E+03  0.11017050500E+04  0.90360016218E+03 0.  0.
         23    2    4    4    0    0  0.58133554337E+02  0.52121488536E+03  0.11785568949E+03  0.54550370986E+03  0.92950885218E+02 0.  0.
         23    2    4    4    0    0  0.17480792010E+03 -0.30257129007E+03  0.42546190803E+03  0.55620134011E+03  0.78961389637E+02 0.  0.
          4    1    3    3  502    0 -0.23819821541E+03 -0.21999064170E+03 -0.20849302058E+03  0.38549139017E+03  0.00000000000E+00 0. -1.
         -3    1    3    3    0  502  0.52567409702E+01  0.13470464100E+01 -0.72146359723E+01  0.90276703457E+01  0.00000000000E+00 0.  1.
         11    1    5    5    0    0  0.77291652791E+02  0.28066641483E+03  0.71795076859E+02  0.29983690411E+03  0.00000000000E+00 0. -1.
        -11    1    5    5    0    0 -0.19158098454E+02  0.24054847053E+03  0.46060612627E+02  0.24566680575E+03  0.00000000000E+00 0.  1.
          2    1    6    6  503    0 -0.71270698036E+01 -0.31755712634E+01  0.11371874796E+02  0.13791262205E+02  0.00000000000E+00 0. -1.
         -2    1    6    6    0  503  0.18193498991E+03 -0.29939571881E+03  0.41409003324E+03  0.54241007791E+03  0.00000000000E+00 0.  1.
<mgrwt>
<rscale>  0 0.14599172E+04</rscale>
<asrwt>0</asrwt>
<pdfrwt beam="1">  1        2 0.89893398E-01 0.14599172E+04</pdfrwt>
<pdfrwt beam="2">  1       -3 0.14029493E+00 0.14599172E+04</pdfrwt>
<totfact> 0.11952463E+01</totfact>
</mgrwt>
</event>
<event>
12    6  0.8914180E-008  0.1837584E+04  0.7818608E-02  0.8686564E-01
          2   -1    0    0  501    0  0.00000000000E+00  0.00000000000E+00  0.58553758896E+03  0.58553758896E+03  0.00000000000E+00 0. -1.
         -1   -1    0    0    0  501 -0.00000000000E+00 -0.00000000000E+00 -0.14417151560E+04  0.14417151560E+04  0.00000000000E+00 0.  1.
         24    2    1    2    0    0  0.46899717961E+02 -0.36449102961E+02  0.43960141240E+03  0.45052996392E+03  0.78738338523E+02 0.  0.
        254    2    1    2    0    0 -0.46899717961E+02  0.36449102961E+02 -0.12957789795E+04  0.15767227811E+04  0.89637238023E+03 0.  0.
         23    2    4    4    0    0 -0.17000753377E+03  0.45010152189E+02  0.64305899952E+02  0.20792460597E+03  0.90382064935E+02 0.  0.
         23    2    4    4    0    0  0.12310781581E+03 -0.85610492282E+01 -0.13600848794E+04  0.13687981751E+04  0.92459391163E+02 0.  0.
          2    1    3    3  502    0  0.55630547668E+02 -0.37715731481E+02  0.43575148204E+03  0.44090428478E+03  0.00000000000E+00 0. -1.
         -1    1    3    3    0  502 -0.87308297069E+01  0.12666285195E+01  0.38499303612E+01  0.96256791430E+01  0.00000000000E+00 0.  1.
         11    1    5    5    0    0 -0.14574184561E+03  0.12888146593E+01  0.60404081093E+02  0.15776881700E+03  0.00000000000E+00 0. -1.
        -11    1    5    5    0    0 -0.24265688165E+02  0.43721337530E+02  0.39018188592E+01  0.50155788978E+02  0.00000000000E+00 0.  1.
          1    1    6    6  503    0  0.88856442906E+02  0.37752699610E+02 -0.86902756076E+03  0.87437385318E+03  0.00000000000E+00 0. -1.
         -1    1    6    6    0  503  0.34251372905E+02 -0.46313748838E+02 -0.49105731866E+03  0.49442432190E+03  0.00000000000E+00 0.  1.
<mgrwt>
<rscale>  0 0.18375836E+04</rscale>
<asrwt>0</asrwt>
<pdfrwt beam="1">  1        2 0.90082707E-01 0.18375836E+04</pdfrwt>
<pdfrwt beam="2">  1       -1 0.22180233E+00 0.18375836E+04</pdfrwt>
<totfact> 0.58773171E+00</totfact>
</mgrwt>
</event>
<event>
12    6  0.8914180E-008  0.1623014E+04  0.7818608E-02  0.8806533E-01
         -1   -1    0    0    0  501 -0.00000000000E+00  0.00000000000E+00  0.36168840236E+03  0.36168840236E+03  0.00000000000E+00 0.  1.
          2   -1    0    0  501    0  0.00000000000E+00 -0.00000000000E+00 -0.18207482058E+04  0.18207482058E+04  0.00000000000E+00 0. -1.
         24    2    1    2    0    0  0.19995278614E+03  0.52206624573E+03 -0.54365284898E+03  0.78381287872E+03  0.79182870853E+02 0.  0.
        254    2    1    2    0    0 -0.19995278614E+03 -0.52206624573E+03 -0.91540695450E+03  0.13986237295E+04  0.89757682829E+03 0.  0.
         23    2    4    4    0    0  0.33354814764E+03 -0.34092652120E+03 -0.45532508125E+03  0.66563092096E+03  0.90875374424E+02 0.  0.
         23    2    4    4    0    0 -0.53350093378E+03 -0.18113972453E+03 -0.46008187326E+03  0.73299280851E+03  0.90378543292E+02 0.  0.
          2    1    3    3  502    0  0.89110050309E+02  0.13492647812E+03 -0.14560711716E+03  0.21759409030E+03  0.00000000000E+00 0. -1.
         -1    1    3    3    0  502  0.11084273583E+03  0.38713976761E+03 -0.39804573181E+03  0.56621878842E+03  0.00000000000E+00 0.  1.
         11    1    5    5    0    0  0.24006795396E+03 -0.18752293640E+03 -0.26290811693E+03  0.40239054678E+03  0.00000000000E+00 0. -1.
        -11    1    5    5    0    0  0.93480193682E+02 -0.15340358480E+03 -0.19241696432E+03  0.26324037418E+03  0.00000000000E+00 0.  1.
          3    1    6    6  503    0 -0.16335467835E+03 -0.90800618241E+02 -0.11860059629E+03  0.22134950791E+03  0.00000000000E+00 0. -1.
         -3    1    6    6    0  503 -0.37014625543E+03 -0.90339106289E+02 -0.34148127697E+03  0.51164330060E+03  0.00000000000E+00 0.  1.
<mgrwt>
<rscale>  0 0.16230139E+04</rscale>
<asrwt>0</asrwt>
<pdfrwt beam="1">  1        2 0.28011511E+00 0.16230139E+04</pdfrwt>
<pdfrwt beam="2">  1       -1 0.55644369E-01 0.16230139E+04</pdfrwt>
<totfact> 0.29927021E+01</totfact>
</mgrwt>
</event>
<event>
12    6  0.8914180E-008  0.2140177E+04  0.7818608E-02  0.8543749E-01
         -1   -1    0    0    0  501 -0.00000000000E+00  0.00000000000E+00  0.44207784260E+03  0.44207784260E+03  0.00000000000E+00 0.  1.
          2   -1    0    0  501    0  0.00000000000E+00 -0.00000000000E+00 -0.25902447334E+04  0.25902447334E+04  0.00000000000E+00 0. -1.
         24    2    1    2    0    0 -0.60592676701E+02 -0.78855092063E+03 -0.34131231318E+03  0.86442108841E+03  0.72427177655E+02 0.  0.
        254    2    1    2    0    0  0.60592676701E+02  0.78855092063E+03 -0.18068545776E+04  0.21679014875E+04  0.89977184233E+03 0.  0.
         23    2    4    4    0    0 -0.37001683481E+03  0.60869382810E+03 -0.98733735064E+03  0.12208933204E+04  0.91240459046E+02 0.  0.
         23    2    4    4    0    0  0.43060951151E+03  0.17985709254E+03 -0.81951722695E+03  0.94700816717E+03  0.86272001752E+02 0.  0.
          2    1    3    3  502    0 -0.15415065308E+02 -0.32462798090E+03 -0.10306405979E+03  0.34094449789E+03  0.00000000000E+00 0. -1.
         -1    1    3    3    0  502 -0.45177611394E+02 -0.46392293974E+03 -0.23824825338E+03  0.52347659052E+03  0.00000000000E+00 0.  1.
         11    1    5    5    0    0 -0.10369346613E+03  0.10307094744E+03 -0.21941329597E+03  0.26366294691E+03  0.00000000000E+00 0. -1.
        -11    1    5    5    0    0 -0.26632336867E+03  0.50562288066E+03 -0.76792405467E+03  0.95723037347E+03  0.00000000000E+00 0.  1.
          3    1    6    6  503    0  0.45703418291E+02 -0.50107478133E+01 -0.58771967610E+02  0.74619395695E+02  0.00000000000E+00 0. -1.
         -3    1    6    6    0  503  0.38490609322E+03  0.18486784035E+03 -0.76074525934E+03  0.87238877148E+03  0.00000000000E+00 0.  1.
<mgrwt>
<rscale>  0 0.21401774E+04</rscale>
<asrwt>0</asrwt>
<pdfrwt beam="1">  1        2 0.39849919E+00 0.21401774E+04</pdfrwt>
<pdfrwt beam="2">  1       -1 0.68011976E-01 0.21401774E+04</pdfrwt>
<totfact> 0.70580652E+00</totfact>
</mgrwt>
</event>
<event>
12    6  0.8914180E-008  0.1409315E+04  0.7818608E-02  0.8947103E-01
          2   -1    0    0  501    0  0.00000000000E+00  0.00000000000E+00  0.26715392216E+03  0.26715392216E+03  0.00000000000E+00 0. -1.
         -1   -1    0    0    0  501 -0.00000000000E+00 -0.00000000000E+00 -0.18586370658E+04  0.18586370658E+04  0.00000000000E+00 0.  1.
         24    2    1    2    0    0 -0.16957173565E+03 -0.36690927185E+03 -0.57529970797E+03  0.70703777619E+03  0.74536404978E+02 0.  0.
        254    2    1    2    0    0  0.16957173565E+03  0.36690927185E+03 -0.10161834357E+04  0.14187532118E+04  0.90380026207E+03 0.  0.
         23    2    4    4    0    0  0.48605871363E+03  0.42409604982E+03 -0.73011721234E+03  0.97860879454E+03  0.92160167244E+02 0.  0.
         23    2    4    4    0    0 -0.31648697798E+03 -0.57186777972E+02 -0.28606622338E+03  0.44014441729E+03  0.91972219191E+02 0.  0.
          2    1    3    3  502    0 -0.61269809494E+02 -0.16330289258E+03 -0.18938344312E+03  0.25746439134E+03  0.00000000000E+00 0. -1.
         -1    1    3    3    0  502 -0.10830192616E+03 -0.20360637928E+03 -0.38591626485E+03  0.44957338485E+03  0.00000000000E+00 0.  1.
         11    1    5    5    0    0  0.15033781854E+01 -0.32984830149E+01  0.42419064626E-01  0.36251807603E+01  0.00000000000E+00 0. -1.
        -11    1    5    5    0    0  0.48455533544E+03  0.42739453284E+03 -0.73015963140E+03  0.97498361378E+03  0.00000000000E+00 0.  1.
          3    1    6    6  503    0 -0.59907773220E+02 -0.36291266462E+02 -0.27406489376E+02  0.75213781806E+02  0.00000000000E+00 0. -1.
         -3    1    6    6    0  503 -0.25657920476E+03 -0.20895511510E+02 -0.25865973401E+03  0.36493063548E+03  0.00000000000E+00 0.  1.
<mgrwt>
<rscale>  0 0.14093150E+04</rscale>
<asrwt>0</asrwt>
<pdfrwt beam="1">  1        2 0.41100603E-01 0.14093150E+04</pdfrwt>
<pdfrwt beam="2">  1       -1 0.28594417E+00 0.14093150E+04</pdfrwt>
<totfact> 0.56871071E+00</totfact>
</mgrwt>
</event>
<event>
12    6  0.8914180E-008  0.3275620E+04  0.7818608E-02  0.8169127E-01
         -1   -1    0    0    0  501 -0.00000000000E+00  0.00000000000E+00  0.73903263185E+03  0.73903263185E+03  0.00000000000E+00 0.  1.
          2   -1    0    0  501    0  0.00000000000E+00 -0.00000000000E+00 -0.36296380429E+04  0.36296380429E+04  0.00000000000E+00 0. -1.
         24    2    1    2    0    0  0.17723462735E+03 -0.14698149636E+04 -0.17556683582E+04  0.22980839284E+04  0.83965574508E+02 0.  0.
        254    2    1    2    0    0 -0.17723462735E+03  0.14698149636E+04 -0.11349370528E+04  0.20705867463E+04  0.89859847537E+03 0.  0.
         23    2    4    4    0    0 -0.51194871858E+03  0.10814034860E+04 -0.67902072755E+03  0.13787313197E+04  0.91136783933E+02 0.  0.
         23    2    4    4    0    0  0.33471409123E+03  0.38841147753E+03 -0.45591632524E+03  0.69185542662E+03  0.88922645987E+02 0.  0.
          4    1    3    3  502    0  0.10112049433E+03 -0.82454091478E+03 -0.92027111027E+03  0.12397548108E+04  0.00000000000E+00 0. -1.
         -3    1    3    3    0  502  0.76114133018E+02 -0.64527404878E+03 -0.83539724797E+03  0.10583291176E+04  0.00000000000E+00 0.  1.
         11    1    5    5    0    0 -0.15025537157E+03  0.25669127332E+03 -0.13513563246E+03  0.32669362657E+03  0.00000000000E+00 0. -1.
        -11    1    5    5    0    0 -0.36169334701E+03  0.82471221271E+03 -0.54388509509E+03  0.10520376931E+04  0.00000000000E+00 0.  1.
          1    1    6    6  503    0  0.15061850677E+03  0.23040408637E+03 -0.27610333256E+03  0.38987822182E+03  0.00000000000E+00 0. -1.
         -1    1    6    6    0  503  0.18409558447E+03  0.15800739116E+03 -0.17981299269E+03  0.30197720480E+03  0.00000000000E+00 0.  1.
<mgrwt>
<rscale>  0 0.32756196E+04</rscale>
<asrwt>0</asrwt>
<pdfrwt beam="1">  1        2 0.55840585E+00 0.32756196E+04</pdfrwt>
<pdfrwt beam="2">  1       -1 0.11369733E+00 0.32756196E+04</pdfrwt>
<totfact> 0.43982756E-01</totfact>
</mgrwt>
</event>
<event>
12    6  0.8914180E-008  0.1998780E+04  0.7818608E-02  0.8607191E-01
          2   -1    0    0  501    0  0.00000000000E+00  0.00000000000E+00  0.33043404870E+04  0.33043404870E+04  0.00000000000E+00 0. -1.
         -1   -1    0    0    0  501 -0.00000000000E+00 -0.00000000000E+00 -0.30226329758E+03  0.30226329758E+03  0.00000000000E+00 0.  1.
         24    2    1    2    0    0 -0.13832772703E+03  0.66488623430E+03  0.18800441294E+04  0.20005002306E+04  0.78911212275E+02 0.  0.
        254    2    1    2    0    0  0.13832772703E+03 -0.66488623430E+03  0.11220330601E+04  0.16061035540E+04  0.92703946725E+03 0.  0.
         23    2    4    4    0    0 -0.15382971851E+03  0.16304148722E+03  0.39360400383E+03  0.46162020101E+03  0.89011175151E+02 0.  0.
         23    2    4    4    0    0  0.29215744554E+03 -0.82792772152E+03  0.72842905623E+03  0.11444833530E+04  0.91722245764E+02 0.  0.
          2    1    3    3  502    0 -0.52726651315E+02  0.20346368226E+03  0.48336950111E+03  0.52708978775E+03  0.00000000000E+00 0. -1.
         -1    1    3    3    0  502 -0.85601075718E+02  0.46142255204E+03  0.13966746283E+04  0.14734104428E+04  0.00000000000E+00 0.  1.
         11    1    5    5    0    0  0.10742275767E+02  0.28449224210E+01  0.24404416558E+02  0.26815398930E+02  0.00000000000E+00 0. -1.
        -11    1    5    5    0    0 -0.16457199428E+03  0.16019656480E+03  0.36919958727E+03  0.43480480208E+03  0.00000000000E+00 0.  1.
          3    1    6    6  503    0  0.80698293304E+02 -0.35420672460E+03  0.32229142379E+03  0.48564017559E+03  0.00000000000E+00 0. -1.
         -3    1    6    6    0  503  0.21145915224E+03 -0.47372099692E+03  0.40613763243E+03  0.65884317744E+03  0.00000000000E+00 0.  1.
<mgrwt>
<rscale>  0 0.19987805E+04</rscale>
<asrwt>0</asrwt>
<pdfrwt beam="1">  1        2 0.50836005E+00 0.19987805E+04</pdfrwt>
<pdfrwt beam="2">  1       -1 0.46502048E-01 0.19987805E+04</pdfrwt>
<totfact> 0.54109891E+00</totfact>
</mgrwt>
</event>
<event>
12    6  0.8914180E-008  0.1348453E+04  0.7818608E-02  0.8992000E-01
         -1   -1    0    0    0  501 -0.00000000000E+00  0.00000000000E+00  0.18081020786E+03  0.18081020786E+03  0.00000000000E+00 0.  1.
          2   -1    0    0  501    0  0.00000000000E+00 -0.00000000000E+00 -0.25141347418E+04  0.25141347418E+04  0.00000000000E+00 0. -1.
         24    2    1    2    0    0 -0.30685382243E+02 -0.34039765122E+03 -0.93047396863E+03  0.99324012985E+03  0.62705626532E+02 0.  0.
        254    2    1    2    0    0  0.30685382243E+02  0.34039765122E+03 -0.14028505653E+04  0.17017048198E+04  0.90055395816E+03 0.  0.
         23    2    4    4    0    0  0.17957920285E+03  0.24454979030E+03 -0.33573221328E+02  0.31807760053E+03  0.89403068940E+02 0.  0.
         23    2    4    4    0    0 -0.14889382061E+03  0.95847860915E+02 -0.13692773440E+04  0.13836272193E+04  0.90264361396E+02 0.  0.
          2    1    3    3  502    0 -0.20560100454E+01 -0.71085948008E+02 -0.27437200211E+03  0.28343859075E+03  0.00000000000E+00 0. -1.
         -1    1    3    3    0  502 -0.28629372197E+02 -0.26931170321E+03 -0.65610196652E+03  0.70980153910E+03  0.00000000000E+00 0.  1.
         11    1    5    5    0    0  0.13489346187E+03  0.16357573021E+03 -0.62726118102E+02  0.22110592815E+03  0.00000000000E+00 0.  1.
        -11    1    5    5    0    0  0.44685740978E+02  0.80974060092E+02  0.29152896774E+02  0.96971672383E+02  0.00000000000E+00 0. -1.
          4    1    6    6  503    0 -0.94736778950E+02  0.87747662603E+02 -0.11651064548E+04  0.11722404875E+04  0.00000000000E+00 0. -1.
         -4    1    6    6    0  503 -0.54157041657E+02  0.81001983124E+01 -0.20417088924E+03  0.21138673181E+03  0.00000000000E+00 0.  1.
<mgrwt>
<rscale>  0 0.13484528E+04</rscale>
<asrwt>0</asrwt>
<pdfrwt beam="1">  1        2 0.38678991E+00 0.13484528E+04</pdfrwt>
<pdfrwt beam="2">  1       -1 0.27816959E-01 0.13484528E+04</pdfrwt>
<totfact> 0.44453796E+01</totfact>
</mgrwt>
</event>
<event>
12    6  0.1071683E-007  0.2144919E+04  0.7818608E-02  0.8541710E-01
         -1   -1    0    0    0  501 -0.00000000000E+00  0.00000000000E+00  0.44864174944E+03  0.44864174944E+03  0.00000000000E+00 0.  1.
          2   -1    0    0  501    0  0.00000000000E+00 -0.00000000000E+00 -0.25636701340E+04  0.25636701340E+04  0.00000000000E+00 0. -1.
         24    2    1    2    0    0  0.47532266369E+03  0.79860002593E+02 -0.19080665892E+04  0.19695931834E+04  0.79182981922E+02 0.  0.
        254    2    1    2    0    0 -0.47532266369E+03 -0.79860002593E+02 -0.20696179541E+03  0.10427187001E+04  0.90117692388E+03 0.  0.
         23    2    4    4    0    0 -0.40059308101E+03 -0.24799855096E+03  0.24985071167E+03  0.54117039912E+03  0.91988721737E+02 0.  0.
         23    2    4    4    0    0 -0.74729582682E+02  0.16813854837E+03 -0.45681250708E+03  0.50154830098E+03  0.94962885455E+02 0.  0.
          2    1    3    3  502    0  0.45742705693E+03  0.69744100703E+02 -0.18692582102E+04  0.19256765067E+04  0.00000000000E+00 0. -1.
         -1    1    3    3    0  502  0.17895606761E+02  0.10115901891E+02 -0.38808378946E+02  0.43916676660E+02  0.00000000000E+00 0.  1.
         11    1    5    5    0    0  0.17992361614E+01  0.44658428658E+01  0.41468741579E+01  0.63543346267E+01  0.00000000000E+00 0.  1.
        -11    1    5    5    0    0 -0.40239231717E+03 -0.25246439383E+03  0.24570383751E+03  0.53481606449E+03  0.00000000000E+00 0. -1.
          2    1    6    6  503    0 -0.33584323542E+02  0.10208486674E+01 -0.55362595314E+02  0.64760836002E+02  0.00000000000E+00 0.  1.
         -2    1    6    6    0  503 -0.41145259139E+02  0.16711769970E+03 -0.40144991176E+03  0.43678746497E+03  0.00000000000E+00 0. -1.
<mgrwt>
<rscale>  0 0.21449191E+04</rscale>
<asrwt>0</asrwt>
<pdfrwt beam="1">  1        2 0.39441079E+00 0.21449191E+04</pdfrwt>
<pdfrwt beam="2">  1       -1 0.69021808E-01 0.21449191E+04</pdfrwt>
<totfact> 0.70951327E+00</totfact>
</mgrwt>
</event>
<event>
12    6  0.8914180E-008  0.1883016E+04  0.7818608E-02  0.8663357E-01
          2   -1    0    0  501    0  0.00000000000E+00  0.00000000000E+00  0.59385708922E+03  0.59385708922E+03  0.00000000000E+00 0. -1.
         -1   -1    0    0    0  501 -0.00000000000E+00 -0.00000000000E+00 -0.14926784812E+04  0.14926784812E+04  0.00000000000E+00 0.  1.
         24    2    1    2    0    0  0.47780633261E+03 -0.48377482965E+03 -0.62902512911E+03  0.92971824098E+03  0.79789831955E+02 0.  0.
        254    2    1    2    0    0 -0.47780633261E+03  0.48377482965E+03 -0.26979626291E+03  0.11568173295E+04  0.89615809599E+03 0.  0.
         23    2    4    4    0    0  0.23383928068E+03  0.18799377451E+03  0.49713173602E+02  0.31721926855E+03  0.90189779195E+02 0.  0.
         23    2    4    4    0    0 -0.71164561328E+03  0.29578105515E+03 -0.31950943651E+03  0.83959806092E+03  0.94407162857E+02 0.  0.
          2    1    3    3  502    0  0.19422337179E+03 -0.17332934022E+03 -0.19361211980E+03  0.32442476980E+03  0.00000000000E+00 0. -1.
         -1    1    3    3    0  502  0.28358296082E+03 -0.31044548943E+03 -0.43541300931E+03  0.60529347118E+03  0.00000000000E+00 0.  1.
         11    1    5    5    0    0  0.24478542726E+02  0.58320222879E+02  0.30459516482E+02  0.70201350378E+02  0.00000000000E+00 0.  1.
        -11    1    5    5    0    0  0.20936073795E+03  0.12967355163E+03  0.19253657120E+02  0.24701791817E+03  0.00000000000E+00 0. -1.
          1    1    6    6  503    0 -0.24367615246E+03  0.98776997994E+02 -0.61380288311E+02  0.27000463404E+03  0.00000000000E+00 0. -1.
         -1    1    6    6    0  503 -0.46796946082E+03  0.19700405715E+03 -0.25812914820E+03  0.56959342688E+03  0.00000000000E+00 0.  1.
<mgrwt>
<rscale>  0 0.18830164E+04</rscale>
<asrwt>0</asrwt>
<pdfrwt beam="1">  1        2 0.91362631E-01 0.18830164E+04</pdfrwt>
<pdfrwt beam="2">  1       -1 0.22964284E+00 0.18830164E+04</pdfrwt>
<totfact> 0.51047305E+00</totfact>
</mgrwt>
</event>
<event>
12    6  0.8914180E-008  0.1512605E+04  0.7818608E-02  0.8876113E-01
          2   -1    0    0  501    0  0.00000000000E+00  0.00000000000E+00  0.15361756352E+04  0.15361756352E+04  0.00000000000E+00 0. -1.
         -1   -1    0    0    0  501 -0.00000000000E+00 -0.00000000000E+00 -0.37234923046E+03  0.37234923046E+03  0.00000000000E+00 0.  1.
         24    2    1    2    0    0 -0.10893093790E+03  0.34502287950E+02 -0.21833354778E+03  0.25877069458E+03  0.78970736233E+02 0.  0.
        254    2    1    2    0    0  0.10893093790E+03 -0.34502287950E+02  0.13821599526E+04  0.16497541711E+04  0.89345751637E+03 0.  0.
         23    2    4    4    0    0 -0.50025780895E+02  0.26962357289E+03  0.12301026879E+04  0.12636152244E+04  0.91495151548E+02 0.  0.
         23    2    4    4    0    0  0.15895671880E+03 -0.30412586084E+03  0.15205726471E+03  0.38613894676E+03  0.90675778299E+02 0.  0.
          4    1    3    3  502    0  0.98793708037E+01  0.15040703487E+02 -0.36462560086E+02  0.40661320895E+02  0.00000000000E+00 0. -1.
         -3    1    3    3    0  502 -0.11881030871E+03  0.19461584463E+02 -0.18187098770E+03  0.21810937369E+03  0.00000000000E+00 0.  1.
         11    1    5    5    0    0  0.13894317204E+02  0.94281852204E+02  0.55811041833E+03  0.56618844809E+03  0.00000000000E+00 0. -1.
        -11    1    5    5    0    0 -0.63920098100E+02  0.17534172069E+03  0.67199226953E+03  0.69742677627E+03  0.00000000000E+00 0.  1.
          3    1    6    6  503    0  0.98950316148E+02 -0.26301169543E+03  0.10770195297E+03  0.30094190082E+03  0.00000000000E+00 0. -1.
         -3    1    6    6    0  503  0.60006402650E+02 -0.41114165413E+02  0.44355311742E+02  0.85197045936E+02  0.00000000000E+00 0.  1.
<mgrwt>
<rscale>  0 0.15126055E+04</rscale>
<asrwt>0</asrwt>
<pdfrwt beam="1">  1        2 0.23633471E+00 0.15126055E+04</pdfrwt>
<pdfrwt beam="2">  1       -1 0.57284498E-01 0.15126055E+04</pdfrwt>
<totfact> 0.41104453E+01</totfact>
</mgrwt>
</event>
<event>
12    6  0.8914180E-008  0.1263946E+04  0.7818608E-02  0.9058655E-01
          2   -1    0    0  501    0  0.00000000000E+00  0.00000000000E+00  0.17221401314E+04  0.17221401314E+04  0.00000000000E+00 0. -1.
         -1   -1    0    0    0  501 -0.00000000000E+00 -0.00000000000E+00 -0.23191489288E+03  0.23191489288E+03  0.00000000000E+00 0.  1.
         24    2    1    2    0    0 -0.15899020280E+03 -0.88690099702E+02  0.74171009944E+03  0.76801356780E+03  0.81037956238E+02 0.  0.
        254    2    1    2    0    0  0.15899020280E+03  0.88690099702E+02  0.74851513911E+03  0.11860414565E+04  0.90181794431E+03 0.  0.
         23    2    4    4    0    0  0.45649948209E+03  0.25014183808E+03  0.61395861828E+03  0.81044280109E+03  0.94390850023E+02 0.  0.
         23    2    4    4    0    0 -0.29750927929E+03 -0.16145173837E+03  0.13455652083E+03  0.37559865541E+03  0.91599440832E+02 0.  0.
          2    1    3    3  502    0 -0.22705195248E+02  0.10214130927E+02  0.17666317601E+03  0.17840889025E+03  0.00000000000E+00 0. -1.
         -1    1    3    3    0  502 -0.13628500755E+03 -0.98904230629E+02  0.56504692343E+03  0.58960467756E+03  0.00000000000E+00 0.  1.
         11    1    5    5    0    0  0.21163384344E+03  0.16354460830E+03  0.27768126241E+03  0.38554196411E+03  0.00000000000E+00 0.  1.
        -11    1    5    5    0    0  0.24486563865E+03  0.86597229779E+02  0.33627735587E+03  0.42490083698E+03  0.00000000000E+00 0. -1.
          1    1    6    6  503    0 -0.15855052797E+03 -0.50536309250E+02  0.29264570608E+02  0.16896332017E+03  0.00000000000E+00 0. -1.
         -1    1    6    6    0  503 -0.13895875133E+03 -0.11091542912E+03  0.10529195023E+03  0.20663533524E+03  0.00000000000E+00 0.  1.
<mgrwt>
<rscale>  0 0.12639461E+04</rscale>
<asrwt>0</asrwt>
<pdfrwt beam="1">  1        2 0.26494463E+00 0.12639461E+04</pdfrwt>
<pdfrwt beam="2">  1       -1 0.35679215E-01 0.12639461E+04</pdfrwt>
<totfact> 0.79986225E+01</totfact>
</mgrwt>
</event>
<event>
12    6  0.8914180E-008  0.3094811E+04  0.7818608E-02  0.8217163E-01
         -1   -1    0    0    0  501 -0.00000000000E+00  0.00000000000E+00  0.86934022875E+03  0.86934022875E+03  0.00000000000E+00 0.  1.
          2   -1    0    0  501    0  0.00000000000E+00 -0.00000000000E+00 -0.27543459549E+04  0.27543459549E+04  0.00000000000E+00 0. -1.
         24    2    1    2    0    0 -0.13069791128E+03  0.84581595349E+03  0.45286195673E+03  0.97154865732E+03  0.79600694006E+02 0.  0.
        254    2    1    2    0    0  0.13069791128E+03 -0.84581595349E+03 -0.23378676829E+04  0.26521375263E+04  0.91417809249E+03 0.  0.
         23    2    4    4    0    0  0.11402009945E+03 -0.14619143213E+03  0.37501367716E+01  0.20641154148E+03  0.90659489433E+02 0.  0.
         23    2    4    4    0    0  0.16677811837E+02 -0.69962452136E+03 -0.23416178196E+04  0.24457259849E+04  0.92999781864E+02 0.  0.
          4    1    3    3  502    0 -0.77204020798E+02  0.40447704841E+03  0.25967122752E+03  0.48681751192E+03  0.00000000000E+00 0. -1.
         -3    1    3    3    0  502 -0.53493890484E+02  0.44133890508E+03  0.19319072922E+03  0.48473114539E+03  0.00000000000E+00 0.  1.
         11    1    5    5    0    0  0.29996896579E+00 -0.39388843797E+02 -0.26528885393E+02  0.47490554400E+02  0.00000000000E+00 0. -1.
        -11    1    5    5    0    0  0.11372013048E+03 -0.10680258834E+03  0.30279022165E+02  0.15892098708E+03  0.00000000000E+00 0.  1.
          3    1    6    6  503    0  0.95602240730E+01 -0.81320031857E+02 -0.18711659664E+03  0.20424731627E+03  0.00000000000E+00 0. -1.
         -3    1    6    6    0  503  0.71175877637E+01 -0.61830448950E+03 -0.21545012230E+04  0.22414786686E+04  0.00000000000E+00 0.  1.
<mgrwt>
<rscale>  0 0.30948110E+04</rscale>
<asrwt>0</asrwt>
<pdfrwt beam="1">  1        2 0.42374553E+00 0.30948110E+04</pdfrwt>
<pdfrwt beam="2">  1       -1 0.13374465E+00 0.30948110E+04</pdfrwt>
<totfact> 0.11213815E+00</totfact>
</mgrwt>
</event>
<event>
12    6  0.8914180E-008  0.2597174E+04  0.7818608E-02  0.8369162E-01
         -3   -1    0    0    0  501 -0.00000000000E+00  0.00000000000E+00  0.87099715943E+03  0.87099715943E+03  0.00000000000E+00 0.  1.
          2   -1    0    0  501    0  0.00000000000E+00 -0.00000000000E+00 -0.19360888879E+04  0.19360888879E+04  0.00000000000E+00 0. -1.
         24    2    1    2    0    0 -0.17524013502E+03  0.58868545939E+03 -0.15070318546E+04  0.16293345421E+04  0.79538446172E+02 0.  0.
        254    2    1    2    0    0  0.17524013502E+03 -0.58868545939E+03  0.44194012617E+03  0.11777515051E+04  0.90251197097E+03 0.  0.
         23    2    4    4    0    0 -0.12383287022E+03 -0.71053840804E+03  0.17042360667E+03  0.74645273238E+03  0.89151931671E+02 0.  0.
         23    2    4    4    0    0  0.29907300525E+03  0.12185294865E+03  0.27151651950E+03  0.43129877276E+03  0.89468471900E+02 0.  0.
          4    1    3    3  502    0 -0.17248181242E+03  0.48481779919E+03 -0.12204756579E+04  0.13245222178E+04  0.00000000000E+00 0. -1.
         -3    1    3    3    0  502 -0.27583226064E+01  0.10386766020E+03 -0.28655619673E+03  0.30481232433E+03  0.00000000000E+00 0.  1.
         11    1    5    5    0    0 -0.65661732099E+02 -0.54638954966E+03  0.15437524386E+03  0.57156339890E+03  0.00000000000E+00 0.  1.
        -11    1    5    5    0    0 -0.58171138124E+02 -0.16414885838E+03  0.16048362811E+02  0.17488933349E+03  0.00000000000E+00 0. -1.
          1    1    6    6  503    0  0.75554252752E+02  0.49124874381E+01  0.10337549407E+03  0.12813692058E+03  0.00000000000E+00 0. -1.
         -1    1    6    6    0  503  0.22351875250E+03  0.11694046121E+03  0.16814102542E+03  0.30316185218E+03  0.00000000000E+00 0.  1.
<mgrwt>
<rscale>  0 0.25971738E+04</rscale>
<asrwt>0</asrwt>
<pdfrwt beam="1">  1        2 0.29785982E+00 0.25971738E+04</pdfrwt>
<pdfrwt beam="2">  1       -3 0.13399957E+00 0.25971738E+04</pdfrwt>
<totfact> 0.17545764E+00</totfact>
</mgrwt>
</event>
<event>
12    6  0.8914180E-008  0.1232415E+04  0.7818608E-02  0.9084948E-01
         -1   -1    0    0    0  501 -0.00000000000E+00  0.00000000000E+00  0.16433955446E+04  0.16433955446E+04  0.00000000000E+00 0.  1.
          2   -1    0    0  501    0  0.00000000000E+00 -0.00000000000E+00 -0.23105310420E+03  0.23105310420E+03  0.00000000000E+00 0. -1.
         24    2    1    2    0    0 -0.17137690975E+03 -0.15057250601E+03  0.71792010473E+03  0.75746969226E+03  0.79428792976E+02 0.  0.
        254    2    1    2    0    0  0.17137690975E+03  0.15057250601E+03  0.69442233563E+03  0.11169789565E+04  0.84461676769E+03 0.  0.
         23    2    4    4    0    0  0.35983279305E+02 -0.33203791638E+03  0.39648802353E+03  0.52673714056E+03  0.93302133630E+02 0.  0.
         23    2    4    4    0    0  0.13539363044E+03  0.48261042239E+03  0.29793431210E+03  0.59024181593E+03  0.91522084667E+02 0.  0.
          2    1    3    3  502    0  0.35696180162E+01  0.12764538445E+01  0.57021262447E+02  0.57147142346E+02  0.00000000000E+00 0. -1.
         -1    1    3    3    0  502 -0.17494652777E+03 -0.15184895985E+03  0.66089884228E+03  0.70032254991E+03  0.00000000000E+00 0.  1.
         11    1    5    5    0    0 -0.78461168727E+01 -0.23876797777E+03  0.23457054133E+03  0.33480598504E+03  0.00000000000E+00 0. -1.
        -11    1    5    5    0    0  0.43829396178E+02 -0.93269938611E+02  0.16191748220E+03  0.19193115552E+03  0.00000000000E+00 0.  1.
          2    1    6    6  503    0  0.14540401071E+03  0.41570644772E+03  0.27294772125E+03  0.51812608074E+03  0.00000000000E+00 0. -1.
         -2    1    6    6    0  503 -0.10010380268E+02  0.66903974675E+02  0.24986590853E+02  0.72115735196E+02  0.00000000000E+00 0.  1.
<mgrwt>
<rscale>  0 0.12324149E+04</rscale>
<asrwt>0</asrwt>
<pdfrwt beam="1">  1        2 0.35546632E-01 0.12324149E+04</pdfrwt>
<pdfrwt beam="2">  1       -1 0.25283008E+00 0.12324149E+04</pdfrwt>
<totfact> 0.11118674E+01</totfact>
</mgrwt>
</event>
<event>
12    6  0.8914180E-008  0.2253306E+04  0.7818608E-02  0.8496563E-01
          2   -1    0    0  501    0  0.00000000000E+00  0.00000000000E+00  0.58800301383E+03  0.58800301383E+03  0.00000000000E+00 0. -1.
         -1   -1    0    0    0  501 -0.00000000000E+00 -0.00000000000E+00 -0.21587424288E+04  0.21587424288E+04  0.00000000000E+00 0.  1.
         24    2    1    2    0    0 -0.22734363214E+03 -0.35365179932E+03  0.36868085008E+03  0.56450992786E+03  0.77402630442E+02 0.  0.
        254    2    1    2    0    0  0.22734363214E+03  0.35365179932E+03 -0.19394202650E+04  0.21822355148E+04  0.90776988007E+03 0.  0.
         23    2    4    4    0    0 -0.11800086053E+03  0.55662409583E+03 -0.13093773650E+04  0.14301377193E+04  0.84084630540E+02 0.  0.
         23    2    4    4    0    0  0.34534449267E+03 -0.20297229652E+03 -0.63004290006E+03  0.75209779545E+03  0.90754979124E+02 0.  0.
          2    1    3    3  502    0 -0.23168597302E+03 -0.35262967283E+03  0.35955370761E+03  0.55435092217E+03  0.00000000000E+00 0. -1.
         -3    1    3    3    0  502  0.43423408812E+01 -0.10221264900E+01  0.91271424770E+01  0.10159005694E+02  0.00000000000E+00 0.  1.
         11    1    5    5    0    0 -0.12094075631E+03  0.40901854226E+03 -0.10087055504E+04  0.10951756580E+04  0.00000000000E+00 0.  1.
        -11    1    5    5    0    0  0.29398957822E+01  0.14760555357E+03 -0.30067181460E+03  0.33496206133E+03  0.00000000000E+00 0. -1.
          1    1    6    6  503    0  0.30013827081E+01 -0.17617637057E+02 -0.53680826623E+02  0.56577562518E+02  0.00000000000E+00 0. -1.
         -1    1    6    6    0  503  0.34234310996E+03 -0.18535465946E+03 -0.57636207343E+03  0.69552023293E+03  0.00000000000E+00 0.  1.
<mgrwt>
<rscale>  0 0.22533061E+04</rscale>
<asrwt>0</asrwt>
<pdfrwt beam="1">  1        2 0.90462002E-01 0.22533061E+04</pdfrwt>
<pdfrwt beam="2">  1       -1 0.33211422E+00 0.22533061E+04</pdfrwt>
<totfact> 0.10771775E+00</totfact>
</mgrwt>
</event>
<event>
12    6  0.8914180E-008  0.1584702E+04  0.7818608E-02  0.8830002E-01
          2   -1    0    0  501    0  0.00000000000E+00  0.00000000000E+00  0.30846592416E+04  0.30846592416E+04  0.00000000000E+00 0. -1.
         -1   -1    0    0    0  501 -0.00000000000E+00 -0.00000000000E+00 -0.20352980372E+03  0.20352980372E+03  0.00000000000E+00 0.  1.
         24    2    1    2    0    0 -0.17806808731E+03 -0.50456978662E+03  0.91139414870E+03  0.10601113687E+04  0.83053636251E+02 0.  0.
        254    2    1    2    0    0  0.17806808731E+03  0.50456978662E+03  0.19697352892E+04  0.22280776766E+04  0.89340590457E+03 0.  0.
         23    2    4    4    0    0  0.45584615362E+02 -0.14449940509E+03  0.33463776079E+02  0.18006943091E+03  0.91362686083E+02 0.  0.
         23    2    4    4    0    0  0.13248347195E+03  0.64906919171E+03  0.19362715131E+04  0.20480082457E+04  0.79672555361E+02 0.  0.
          4    1    3    3  502    0 -0.15170093292E+03 -0.33802274953E+03  0.57906574513E+03  0.68745159061E+03  0.00000000000E+00 0. -1.
         -3    1    3    3    0  502 -0.26367154389E+02 -0.16654703709E+03  0.33232840357E+03  0.37265977810E+03  0.00000000000E+00 0.  1.
         11    1    5    5    0    0  0.41757765008E+02 -0.15770968799E+03  0.29897051547E+02  0.16586105726E+03  0.00000000000E+00 0. -1.
        -11    1    5    5    0    0  0.38268503533E+01  0.13210282897E+02  0.35667245317E+01  0.14208373648E+02  0.00000000000E+00 0.  1.
          3    1    6    6  503    0  0.11011708441E+03  0.55285246979E+03  0.15506468607E+04  0.16499325175E+04  0.00000000000E+00 0. -1.
         -3    1    6    6    0  503  0.22366387542E+02  0.96216721923E+02  0.38562465235E+03  0.39807572818E+03  0.00000000000E+00 0.  1.
<mgrwt>
<rscale>  0 0.15847020E+04</rscale>
<asrwt>0</asrwt>
<pdfrwt beam="1">  1        2 0.47456293E+00 0.15847020E+04</pdfrwt>
<pdfrwt beam="2">  1       -1 0.31312280E-01 0.15847020E+04</pdfrwt>
<totfact> 0.16033434E+01</totfact>
</mgrwt>
</event>
<event>
12    6  0.8914180E-008  0.1560833E+04  0.7818608E-02  0.8844978E-01
         -1   -1    0    0    0  501 -0.00000000000E+00  0.00000000000E+00  0.23667978187E+03  0.23667978187E+03  0.00000000000E+00 0.  1.
          2   -1    0    0  501    0  0.00000000000E+00 -0.00000000000E+00 -0.25733080787E+04  0.25733080787E+04  0.00000000000E+00 0. -1.
         24    2    1    2    0    0 -0.54926568015E+02  0.36764323283E+02  0.14183117269E+03  0.17580969208E+03  0.80152498055E+02 0.  0.
        254    2    1    2    0    0  0.54926568015E+02 -0.36764323283E+02 -0.24784594695E+04  0.26341781685E+04  0.88981163062E+03 0.  0.
         23    2    4    4    0    0  0.39896633954E+03  0.15641450186E+03 -0.85056379357E+03  0.95663570737E+03  0.89741145552E+02 0.  0.
         23    2    4    4    0    0 -0.34403977152E+03 -0.19317882515E+03 -0.16278956760E+04  0.16775424612E+04  0.91776654012E+02 0.  0.
          2    1    3    3  502    0 -0.19322226243E+02 -0.84701326706E+01 -0.16992952469E+01  0.21165518628E+02  0.00000000000E+00 0. -1.
         -3    1    3    3    0  502 -0.35604341771E+02  0.45234455953E+02  0.14353046793E+03  0.15464417346E+03  0.00000000000E+00 0.  1.
         11    1    5    5    0    0  0.83915901160E+01 -0.82124949789E+01 -0.43318089286E+02  0.44881184452E+02  0.00000000000E+00 0. -1.
        -11    1    5    5    0    0  0.39057474942E+03  0.16462699684E+03 -0.80724570428E+03  0.91175452292E+03  0.00000000000E+00 0.  1.
          3    1    6    6  503    0 -0.34124461025E+03 -0.17350261385E+03 -0.14983432764E+04  0.15464745762E+04  0.00000000000E+00 0.  1.
         -3    1    6    6    0  503 -0.27951612755E+01 -0.19676211300E+02 -0.12955239957E+03  0.13106788490E+03  0.00000000000E+00 0. -1.
<mgrwt>
<rscale>  0 0.15608331E+04</rscale>
<asrwt>0</asrwt>
<pdfrwt beam="1">  1        2 0.39589356E+00 0.15608331E+04</pdfrwt>
<pdfrwt beam="2">  1       -1 0.36412274E-01 0.15608331E+04</pdfrwt>
<totfact> 0.25042413E+01</totfact>
</mgrwt>
</event>
<event>
12    6  0.8914180E-008  0.1538162E+04  0.7818608E-02  0.8859465E-01
         -1   -1    0    0    0  501 -0.00000000000E+00  0.00000000000E+00  0.21710739521E+03  0.21710739521E+03  0.00000000000E+00 0.  1.
          2   -1    0    0  501    0  0.00000000000E+00 -0.00000000000E+00 -0.27243914973E+04  0.27243914973E+04  0.00000000000E+00 0. -1.
         24    2    1    2    0    0  0.33884029136E+03 -0.36543526055E+03 -0.95003672185E+03  0.10757994997E+04  0.80119398400E+02 0.  0.
        254    2    1    2    0    0 -0.33884029136E+03  0.36543526055E+03 -0.15572473803E+04  0.18656993928E+04  0.89858730702E+03 0.  0.
         23    2    4    4    0    0 -0.39366423354E+03 -0.12376173840E+03 -0.31831299023E+03  0.52936665575E+03  0.92829951060E+02 0.  0.
         23    2    4    4    0    0  0.54823942187E+02  0.48919699895E+03 -0.12389343900E+04  0.13363327371E+04  0.92235529637E+02 0.  0.
          4    1    3    3  502    0  0.32957410062E+03 -0.35138523651E+03 -0.93984244959E+03  0.10561223898E+04  0.00000000000E+00 0. -1.
         -3    1    3    3    0  502  0.92661907337E+01 -0.14050024049E+02 -0.10194272267E+02  0.19677109888E+02  0.00000000000E+00 0.  1.
         11    1    5    5    0    0 -0.74176379585E+02 -0.51909621385E+02 -0.10456052791E+03  0.13830997099E+03  0.00000000000E+00 0.  1.
        -11    1    5    5    0    0 -0.31948785396E+03 -0.71852117011E+02 -0.21375246232E+03  0.39105668476E+03  0.00000000000E+00 0. -1.
          4    1    6    6  503    0  0.47907564884E+02  0.42162985831E+03 -0.11392145770E+04  0.12156795320E+04  0.00000000000E+00 0. -1.
         -4    1    6    6    0  503  0.69163773030E+01  0.67567140642E+02 -0.99719813023E+02  0.12065320501E+03  0.00000000000E+00 0.  1.
<mgrwt>
<rscale>  0 0.15381619E+04</rscale>
<asrwt>0</asrwt>
<pdfrwt beam="1">  1        2 0.41913711E+00 0.15381619E+04</pdfrwt>
<pdfrwt beam="2">  1       -1 0.33401141E-01 0.15381619E+04</pdfrwt>
<totfact> 0.23868914E+01</totfact>
</mgrwt>
</event>
<event>
12    6  0.8914180E-008  0.1463943E+04  0.7818608E-02  0.8908791E-01
          2   -1    0    0  501    0  0.00000000000E+00  0.00000000000E+00  0.10781522637E+04  0.10781522637E+04  0.00000000000E+00 0. -1.
         -1   -1    0    0    0  501 -0.00000000000E+00 -0.00000000000E+00 -0.49694496001E+03  0.49694496001E+03  0.00000000000E+00 0.  1.
         24    2    1    2    0    0  0.23151429547E+03  0.10490762882E+03 -0.21061176479E+03  0.33911704809E+03  0.77708282988E+02 0.  0.
        254    2    1    2    0    0 -0.23151429547E+03 -0.10490762882E+03  0.79181906847E+03  0.12359801756E+04  0.91436594299E+03 0.  0.
         23    2    4    4    0    0 -0.11613490446E+03  0.13638924281E+03 -0.15119171525E+03  0.25128707182E+03  0.90536821888E+02 0.  0.
         23    2    4    4    0    0 -0.11537939101E+03 -0.24129687163E+03  0.94301078372E+03  0.98469310378E+03  0.93886028241E+02 0.  0.
          2    1    3    3  502    0  0.31641070877E+02  0.38117536275E+02 -0.70074668394E+02  0.85817032624E+02  0.00000000000E+00 0. -1.
         -1    1    3    3    0  502  0.19987322459E+03  0.66790092548E+02 -0.14053709640E+03  0.25330001546E+03  0.00000000000E+00 0.  1.
         11    1    5    5    0    0 -0.13042494285E+03  0.12064825121E+03 -0.14445746757E+03  0.22898608293E+03  0.00000000000E+00 0. -1.
        -11    1    5    5    0    0  0.14290038393E+02  0.15740991601E+02 -0.67342476765E+01  0.22300988894E+02  0.00000000000E+00 0.  1.
          4    1    6    6  503    0 -0.94411963775E+02 -0.11847475967E+03  0.40402665449E+03  0.43149440914E+03  0.00000000000E+00 0. -1.
         -4    1    6    6    0  503 -0.20967427231E+02 -0.12282211197E+03  0.53898412922E+03  0.55319869464E+03  0.00000000000E+00 0.  1.
<mgrwt>
<rscale>  0 0.14639431E+04</rscale>
<asrwt>0</asrwt>
<pdfrwt beam="1">  1        2 0.16586958E+00 0.14639431E+04</pdfrwt>
<pdfrwt beam="2">  1       -1 0.76453071E-01 0.14639431E+04</pdfrwt>
<totfact> 0.42660212E+01</totfact>
</mgrwt>
</event>
<event>
12    6  0.8914180E-008  0.2714319E+04  0.7818608E-02  0.8330374E-01
          2   -1    0    0  501    0  0.00000000000E+00  0.00000000000E+00  0.33508731889E+04  0.33508731889E+04  0.00000000000E+00 0. -1.
         -1   -1    0    0    0  501 -0.00000000000E+00 -0.00000000000E+00 -0.54967225722E+03  0.54967225722E+03  0.00000000000E+00 0.  1.
         24    2    1    2    0    0 -0.10475896651E+04 -0.26135382771E+03  0.47135856641E+03  0.11808488477E+04  0.80468460710E+02 0.  0.
        254    2    1    2    0    0  0.10475896651E+04  0.26135382771E+03  0.23298423653E+04  0.27196965985E+04  0.89601016235E+03 0.  0.
         23    2    4    4    0    0 -0.11133962276E+03 -0.65857731492E+02  0.52232516825E+03  0.54590327525E+03  0.91940481555E+02 0.  0.
         23    2    4    4    0    0  0.11589292879E+04  0.32721155920E+03  0.18075171970E+04  0.21737933232E+04  0.89858198354E+02 0.  0.
          4    1    3    3  502    0 -0.19060300615E+03 -0.18710349818E+02  0.69868758943E+02  0.20386570731E+03  0.00000000000E+00 0. -1.
         -3    1    3    3    0  502 -0.85698665897E+03 -0.24264347789E+03  0.40148980747E+03  0.97698314034E+03  0.00000000000E+00 0.  1.
         11    1    5    5    0    0 -0.62767854248E+02 -0.80446161610E+02  0.27237698435E+03  0.29086184014E+03  0.00000000000E+00 0. -1.
        -11    1    5    5    0    0 -0.48571768507E+02  0.14588430118E+02  0.24994818390E+03  0.25504143511E+03  0.00000000000E+00 0.  1.
          1    1    6    6  503    0  0.54268681063E+03  0.19927029389E+03  0.85252812597E+03  0.10300591391E+04  0.00000000000E+00 0. -1.
         -1    1    6    6    0  503  0.61624247724E+03  0.12794126531E+03  0.95498907106E+03  0.11437341841E+04  0.00000000000E+00 0.  1.
<mgrwt>
<rscale>  0 0.27143191E+04</rscale>
<asrwt>0</asrwt>
<pdfrwt beam="1">  1        2 0.51551894E+00 0.27143191E+04</pdfrwt>
<pdfrwt beam="2">  1       -1 0.84564965E-01 0.27143191E+04</pdfrwt>
<totfact> 0.14196890E+00</totfact>
</mgrwt>
</event>
<event>
12    6  0.8914180E-008  0.1727323E+04  0.7818608E-02  0.8745933E-01
          2   -1    0    0  501    0  0.00000000000E+00  0.00000000000E+00  0.52084836434E+03  0.52084836434E+03  0.00000000000E+00 0. -1.
         -1   -1    0    0    0  501 -0.00000000000E+00 -0.00000000000E+00 -0.14321076716E+04  0.14321076716E+04  0.00000000000E+00 0.  1.
         24    2    1    2    0    0 -0.18997347872E+03  0.58091105998E+03 -0.49195456063E+03  0.78870297585E+03  0.80532677618E+02 0.  0.
        254    2    1    2    0    0  0.18997347872E+03 -0.58091105998E+03 -0.41930474665E+03  0.11642530601E+04  0.89784248908E+03 0.  0.
         23    2    4    4    0    0 -0.54610395322E+02 -0.55875351110E+03  0.10400604842E+03  0.57827365928E+03  0.91626336095E+02 0.  0.
         23    2    4    4    0    0  0.24458387404E+03 -0.22157548878E+02 -0.52331079506E+03  0.58597940083E+03  0.95944992362E+02 0.  0.
          4    1    3    3  502    0 -0.14255088525E+03  0.49023353360E+03 -0.37601573024E+03  0.63406427256E+03  0.00000000000E+00 0. -1.
         -3    1    3    3    0  502 -0.47422593468E+02  0.90677526376E+02 -0.11593883039E+03  0.15463870329E+03  0.00000000000E+00 0.  1.
         11    1    5    5    0    0 -0.73893096384E+01 -0.18073874213E+01 -0.45799998845E+01  0.88794676171E+01  0.00000000000E+00 0.  1.
        -11    1    5    5    0    0 -0.47221085683E+02 -0.55694612368E+03  0.10858604830E+03  0.56939419166E+03  0.00000000000E+00 0. -1.
          3    1    6    6  503    0  0.20633757096E+03 -0.49720204969E+02 -0.46381352482E+03  0.51006889513E+03  0.00000000000E+00 0. -1.
         -3    1    6    6    0  503  0.38246303075E+02  0.27562656092E+02 -0.59497270244E+02  0.75910505704E+02  0.00000000000E+00 0.  1.
<mgrwt>
<rscale>  0 0.17273227E+04</rscale>
<asrwt>0</asrwt>
<pdfrwt beam="1">  1        2 0.80130517E-01 0.17273227E+04</pdfrwt>
<pdfrwt beam="2">  1       -1 0.22032426E+00 0.17273227E+04</pdfrwt>
<totfact> 0.69745945E+00</totfact>
</mgrwt>
</event>
<event>
12    6  0.8914180E-008  0.1064257E+04  0.7818608E-02  0.9240747E-01
         -1   -1    0    0    0  501 -0.00000000000E+00  0.00000000000E+00  0.17196585494E+03  0.17196585494E+03  0.00000000000E+00 0.  1.
          2   -1    0    0  501    0  0.00000000000E+00 -0.00000000000E+00 -0.16466114274E+04  0.16466114274E+04  0.00000000000E+00 0. -1.
         24    2    1    2    0    0  0.79400006509E+02  0.18405998907E+03 -0.39773969300E+03  0.45287867861E+03  0.81974346817E+02 0.  0.
        254    2    1    2    0    0 -0.79400006509E+02 -0.18405998907E+03 -0.10769058794E+04  0.13656986037E+04  0.81561263012E+03 0.  0.
         23    2    4    4    0    0  0.23868374935E+03 -0.14487320969E+03 -0.97234660381E+03  0.10156508694E+04  0.90169792148E+02 0.  0.
         23    2    4    4    0    0 -0.31808375586E+03 -0.39186779387E+02 -0.10455927563E+03  0.35004773435E+03  0.94275631973E+02 0.  0.
          2    1    3    3  502    0  0.94963958206E+02  0.15636212505E+03 -0.31530309047E+03  0.36453162602E+03  0.00000000000E+00 0. -1.
         -1    1    3    3    0  502 -0.15563951697E+02  0.27697864020E+02 -0.82436602531E+02  0.88347052586E+02  0.00000000000E+00 0.  1.
         11    1    5    5    0    0  0.13929046075E+03 -0.52883082557E+02 -0.63255169200E+03  0.64986159752E+03  0.00000000000E+00 0.  1.
        -11    1    5    5    0    0  0.99393288594E+02 -0.91990127129E+02 -0.33979491181E+03  0.36578927185E+03  0.00000000000E+00 0. -1.
          3    1    6    6  503    0 -0.11865082375E+03  0.10120746603E+02 -0.79284077372E+02  0.14306086961E+03  0.00000000000E+00 0. -1.
         -3    1    6    6    0  503 -0.19943293211E+03 -0.49307525990E+02 -0.25275198254E+02  0.20698686474E+03  0.00000000000E+00 0.  1.
<mgrwt>
<rscale>  0 0.10642574E+04</rscale>
<asrwt>0</asrwt>
<pdfrwt beam="1">  1        2 0.25332483E+00 0.10642574E+04</pdfrwt>
<pdfrwt beam="2">  1       -1 0.26456286E-01 0.10642574E+04</pdfrwt>
<totfact> 0.15121307E+02</totfact>
</mgrwt>
</event>
<event>
12    6  0.8914180E-008  0.2546383E+04  0.7818608E-02  0.8386645E-01
          2   -1    0    0  501    0  0.00000000000E+00  0.00000000000E+00  0.14792805919E+04  0.14792805919E+04  0.00000000000E+00 0. -1.
         -1   -1    0    0    0  501 -0.00000000000E+00 -0.00000000000E+00 -0.10958142257E+04  0.10958142257E+04  0.00000000000E+00 0.  1.
         24    2    1    2    0    0  0.94423966447E+03 -0.12435823894E+03  0.74224820968E+03  0.12098939842E+04  0.76534518865E+02 0.  0.
        254    2    1    2    0    0 -0.94423966447E+03  0.12435823894E+03 -0.35878184347E+03  0.13652008334E+04  0.90994251945E+03 0.  0.
         23    2    4    4    0    0  0.14648886503E+03 -0.90048000030E+02 -0.10344745603E+03  0.22101291805E+03  0.92615894403E+02 0.  0.
         23    2    4    4    0    0 -0.10907285295E+04  0.21440623897E+03 -0.25533438744E+03  0.11441879153E+04  0.91167844108E+02 0.  0.
          4    1    3    3  502    0  0.91864608039E+03 -0.12314280542E+03  0.73594556707E+03  0.11835077732E+04  0.00000000000E+00 0. -1.
         -1    1    3    3    0  502  0.25593584079E+02 -0.12154335126E+01  0.63026426116E+01  0.26386210954E+02  0.00000000000E+00 0.  1.
         11    1    5    5    0    0  0.15617663134E+03 -0.66329058502E+02 -0.90589974223E+02  0.19234663399E+03  0.00000000000E+00 0. -1.
        -11    1    5    5    0    0 -0.96877663043E+01 -0.23718941528E+02 -0.12857481810E+02  0.28666284058E+02  0.00000000000E+00 0.  1.
          2    1    6    6  503    0 -0.85236241697E+03  0.13413204141E+03 -0.17770962215E+03  0.88096186308E+03  0.00000000000E+00 0. -1.
         -2    1    6    6    0  503 -0.23836611253E+03  0.80274197552E+02 -0.77624765291E+02  0.26322605225E+03  0.00000000000E+00 0.  1.
<mgrwt>
<rscale>  0 0.25463831E+04</rscale>
<asrwt>0</asrwt>
<pdfrwt beam="1">  1        2 0.22758163E+00 0.25463831E+04</pdfrwt>
<pdfrwt beam="2">  1       -1 0.16858680E+00 0.25463831E+04</pdfrwt>
<totfact> 0.33264490E+00</totfact>
</mgrwt>
</event>
<event>
12    6  0.8914180E-008  0.1121498E+04  0.7818608E-02  0.9184488E-01
         -3   -1    0    0    0  501 -0.00000000000E+00  0.00000000000E+00  0.15686262640E+03  0.15686262640E+03  0.00000000000E+00 0.  1.
          4   -1    0    0  501    0  0.00000000000E+00 -0.00000000000E+00 -0.20045526171E+04  0.20045526171E+04  0.00000000000E+00 0. -1.
         24    2    1    2    0    0  0.23364706028E+02  0.10223109628E+03 -0.68321505967E+03  0.69513297050E+03  0.73688007041E+02 0.  0.
        254    2    1    2    0    0 -0.23364706028E+02 -0.10223109628E+03 -0.11644749310E+04  0.14662822730E+04  0.88486424528E+03 0.  0.
         23    2    4    4    0    0  0.74792430797E+02  0.29751591631E+03 -0.93125461317E+03  0.98452599151E+03  0.89143957973E+02 0.  0.
         23    2    4    4    0    0 -0.98157136826E+02 -0.39974701259E+03 -0.23322031785E+03  0.48175628148E+03  0.90911498213E+02 0.  0.
          2    1    3    3  502    0  0.33572349062E+02  0.69773084579E+02 -0.60368066296E+03  0.60862609933E+03  0.00000000000E+00 0. -1.
         -1    1    3    3    0  502 -0.10207643034E+02  0.32458011696E+02 -0.79534396713E+02  0.86506871173E+02  0.00000000000E+00 0.  1.
         11    1    5    5    0    0  0.94235102934E+02  0.25702534069E+03 -0.82248393680E+03  0.86684606862E+03  0.00000000000E+00 0. -1.
        -11    1    5    5    0    0 -0.19442672137E+02  0.40490575619E+02 -0.10877067637E+03  0.11767992289E+03  0.00000000000E+00 0.  1.
          4    1    6    6  503    0 -0.11313889306E+03 -0.36563500794E+03 -0.20002230516E+03  0.43185447863E+03  0.00000000000E+00 0. -1.
         -4    1    6    6    0  503  0.14981756236E+02 -0.34112004650E+02 -0.33198012691E+02  0.49901802851E+02  0.00000000000E+00 0.  1.
<mgrwt>
<rscale>  0 0.11214979E+04</rscale>
<asrwt>0</asrwt>
<pdfrwt beam="1">  1        4 0.30839271E+00 0.11214979E+04</pdfrwt>
<pdfrwt beam="2">  1       -3 0.24132711E-01 0.11214979E+04</pdfrwt>
<totfact> 0.10265412E+00</totfact>
</mgrwt>
</event>
<event>
12    6  0.8914180E-008  0.1477367E+04  0.7818608E-02  0.8899645E-01
         -3   -1    0    0    0  501 -0.00000000000E+00  0.00000000000E+00  0.61733010168E+03  0.61733010168E+03  0.00000000000E+00 0.  1.
          4   -1    0    0  501    0  0.00000000000E+00 -0.00000000000E+00 -0.88389214340E+03  0.88389214340E+03  0.00000000000E+00 0. -1.
         24    2    1    2    0    0 -0.31091830294E+03 -0.21867349424E+03  0.16199147386E+03  0.42102517039E+03  0.80824923821E+02 0.  0.
        254    2    1    2    0    0  0.31091830294E+03  0.21867349424E+03 -0.42855351558E+03  0.10801970747E+04  0.91579436353E+03 0.  0.
         23    2    4    4    0    0 -0.84274879510E+02  0.19007911759E+03  0.21913030919E+03  0.31552501072E+03  0.91135139904E+02 0.  0.
         23    2    4    4    0    0  0.39519318245E+03  0.28594376656E+02 -0.64768382477E+03  0.76467206397E+03  0.90739951079E+02 0.  0.
          2    1    3    3  502    0 -0.50180376176E+02 -0.53480018722E+02  0.20056078881E+01  0.73363512857E+02  0.00000000000E+00 0. -1.
         -1    1    3    3    0  502 -0.26073792677E+03 -0.16519347552E+03  0.15998586597E+03  0.34766165753E+03  0.00000000000E+00 0.  1.
         11    1    5    5    0    0 -0.49917331550E+02  0.18576624372E+03  0.18364237372E+03  0.26594239737E+03  0.00000000000E+00 0. -1.
        -11    1    5    5    0    0 -0.34357547960E+02  0.43128738733E+01  0.35487935477E+02  0.49582613356E+02  0.00000000000E+00 0.  1.
          3    1    6    6  503    0  0.30610762376E+03  0.27529160297E+02 -0.56469866632E+03  0.64291859184E+03  0.00000000000E+00 0. -1.
         -3    1    6    6    0  503  0.89085558694E+02  0.10652163592E+01 -0.82985158444E+02  0.12175347213E+03  0.00000000000E+00 0.  1.
<mgrwt>
<rscale>  0 0.14773669E+04</rscale>
<asrwt>0</asrwt>
<pdfrwt beam="1">  1        4 0.13598341E+00 0.14773669E+04</pdfrwt>
<pdfrwt beam="2">  1       -3 0.94973862E-01 0.14773669E+04</pdfrwt>
<totfact> 0.84043939E-01</totfact>
</mgrwt>
</event>
<event>
12    6  0.8914180E-008  0.1168204E+04  0.7818608E-02  0.9141152E-01
         -1   -1    0    0    0  501 -0.00000000000E+00  0.00000000000E+00  0.33794022604E+03  0.33794022604E+03  0.00000000000E+00 0.  1.
          2   -1    0    0  501    0  0.00000000000E+00 -0.00000000000E+00 -0.10095722346E+04  0.10095722346E+04  0.00000000000E+00 0. -1.
         24    2    1    2    0    0 -0.94693944067E+02 -0.10434544659E+03 -0.35798177966E+03  0.39221265545E+03  0.76321014548E+02 0.  0.
        254    2    1    2    0    0  0.94693944067E+02  0.10434544659E+03 -0.31365022889E+03  0.95529980519E+03  0.89127231329E+03 0.  0.
         23    2    4    4    0    0 -0.32294493007E+03 -0.16885807639E+03 -0.23195538442E+03  0.44150346453E+03  0.91189533448E+02 0.  0.
         23    2    4    4    0    0  0.41763887413E+03  0.27320352298E+03 -0.81694844477E+02  0.51379634066E+03  0.90830820247E+02 0.  0.
          4    1    3    3  502    0 -0.38809361437E+02 -0.67731712647E+02 -0.27396770692E+03  0.28487199910E+03  0.00000000000E+00 0. -1.
         -1    1    3    3    0  502 -0.55884582630E+02 -0.36613733941E+02 -0.84014072740E+02  0.10734065636E+03  0.00000000000E+00 0.  1.
         11    1    5    5    0    0  0.21776580439E+00  0.93383681798E+00 -0.18701708331E+02  0.18726274794E+02  0.00000000000E+00 0.  1.
        -11    1    5    5    0    0 -0.32316269587E+03 -0.16979191321E+03 -0.21325367608E+03  0.42277718973E+03  0.00000000000E+00 0. -1.
          3    1    6    6  503    0  0.40818346054E+03  0.24834530102E+03 -0.89440943594E+02  0.48609547251E+03  0.00000000000E+00 0. -1.
         -3    1    6    6    0  503  0.94554135912E+01  0.24858221955E+02  0.77460991164E+01  0.27700868154E+02  0.00000000000E+00 0.  1.
<mgrwt>
<rscale>  0 0.11682039E+04</rscale>
<asrwt>0</asrwt>
<pdfrwt beam="1">  1        2 0.15531880E+00 0.11682039E+04</pdfrwt>
<pdfrwt beam="2">  1       -1 0.51990805E-01 0.11682039E+04</pdfrwt>
<totfact> 0.10429749E+02</totfact>
</mgrwt>
</event>
<event>
12    6  0.8914180E-008  0.4356111E+04  0.7818608E-02  0.7936323E-01
         -1   -1    0    0    0  501 -0.00000000000E+00  0.00000000000E+00  0.17014477054E+04  0.17014477054E+04  0.00000000000E+00 0.  1.
          2   -1    0    0  501    0  0.00000000000E+00 -0.00000000000E+00 -0.27881704222E+04  0.27881704222E+04  0.00000000000E+00 0. -1.
         24    2    1    2    0    0 -0.21827515352E+02 -0.10539265667E+04  0.13268978050E+04  0.16967514491E+04  0.84083570485E+02 0.  0.
        254    2    1    2    0    0  0.21827515352E+02  0.10539265667E+04 -0.24136205217E+04  0.27928666785E+04  0.92914079252E+03 0.  0.
         23    2    4    4    0    0  0.13657104435E+03  0.10735867049E+04 -0.14180112358E+04  0.17862201588E+04  0.92663517487E+02 0.  0.
         23    2    4    4    0    0 -0.11474352900E+03 -0.19660138250E+02 -0.99560928590E+03  0.10066465197E+04  0.92448726030E+02 0.  0.
          4    1    3    3  502    0  0.21062898440E+02 -0.11113137132E+03  0.16060410447E+03  0.19643702745E+03  0.00000000000E+00 0. -1.
         -3    1    3    3    0  502 -0.42890413792E+02 -0.94279519538E+03  0.11662937005E+04  0.15003144217E+04  0.00000000000E+00 0.  1.
         11    1    5    5    0    0  0.65740531344E+02  0.24676401362E+03 -0.30222629423E+03  0.39567035371E+03  0.00000000000E+00 0.  1.
        -11    1    5    5    0    0  0.70830513006E+02  0.82682269133E+03 -0.11157849416E+04  0.13905498051E+04  0.00000000000E+00 0. -1.
          3    1    6    6  503    0 -0.10948789564E+03  0.13931337196E+02 -0.64320082209E+03  0.65260170011E+03  0.00000000000E+00 0. -1.
         -3    1    6    6    0  503 -0.52556333534E+01 -0.33591475446E+02 -0.35240846381E+03  0.35404481958E+03  0.00000000000E+00 0.  1.
<mgrwt>
<rscale>  0 0.43561112E+04</rscale>
<asrwt>0</asrwt>
<pdfrwt beam="1">  1        2 0.42894930E+00 0.43561112E+04</pdfrwt>
<pdfrwt beam="2">  1       -1 0.26176119E+00 0.43561112E+04</pdfrwt>
<totfact> 0.11964464E-01</totfact>
</mgrwt>
</event>
<event>
12    6  0.8914180E-008  0.1830768E+04  0.7818608E-02  0.8690106E-01
          2   -1    0    0  501    0  0.00000000000E+00  0.00000000000E+00  0.27461622918E+04  0.27461622918E+04  0.00000000000E+00 0. -1.
         -1   -1    0    0    0  501 -0.00000000000E+00 -0.00000000000E+00 -0.30512687449E+03  0.30512687449E+03  0.00000000000E+00 0.  1.
         24    2    1    2    0    0  0.15802440483E+03  0.66612695967E+03  0.83690584625E+03  0.10839116060E+04  0.75869197962E+02 0.  0.
        254    2    1    2    0    0 -0.15802440483E+03 -0.66612695967E+03  0.16041295711E+04  0.19673775603E+04  0.91029992040E+03 0.  0.
         23    2    4    4    0    0  0.34707477354E+03 -0.35030532106E+03  0.97389310854E+03  0.10954083675E+04  0.90977955306E+02 0.  0.
         23    2    4    4    0    0 -0.50509917837E+03 -0.31582163861E+03  0.63023646253E+03  0.87196919280E+03  0.90905374308E+02 0.  0.
          4    1    3    3  502    0  0.31732404758E+02  0.23069761987E+03  0.32922912206E+03  0.40326189026E+03  0.00000000000E+00 0. -1.
         -3    1    3    3    0  502  0.12629200008E+03  0.43542933980E+03  0.50767672419E+03  0.68064971573E+03  0.00000000000E+00 0.  1.
         11    1    5    5    0    0  0.20363112313E+03 -0.25878057717E+03  0.59449179316E+03  0.67959805294E+03  0.00000000000E+00 0.  1.
        -11    1    5    5    0    0  0.14344365041E+03 -0.91524743892E+02  0.37940131538E+03  0.41581031456E+03  0.00000000000E+00 0. -1.
          3    1    6    6  503    0 -0.11316704870E+03 -0.96948749397E+02  0.20656958246E+03  0.25470931141E+03  0.00000000000E+00 0. -1.
         -3    1    6    6    0  503 -0.39193212967E+03 -0.21887288921E+03  0.42366688007E+03  0.61725988139E+03  0.00000000000E+00 0.  1.
<mgrwt>
<rscale>  0 0.18307681E+04</rscale>
<asrwt>0</asrwt>
<pdfrwt beam="1">  1        2 0.42248649E+00 0.18307681E+04</pdfrwt>
<pdfrwt beam="2">  1       -1 0.46942598E-01 0.18307681E+04</pdfrwt>
<totfact> 0.12112171E+01</totfact>
</mgrwt>
</event>
<event>
12    6  0.8914180E-008  0.2199473E+04  0.7818608E-02  0.8518647E-01
          2   -1    0    0  501    0  0.00000000000E+00  0.00000000000E+00  0.12839255754E+04  0.12839255754E+04  0.00000000000E+00 0. -1.
         -1   -1    0    0    0  501 -0.00000000000E+00 -0.00000000000E+00 -0.94197099749E+03  0.94197099749E+03  0.00000000000E+00 0.  1.
         24    2    1    2    0    0  0.22648201446E+03 -0.44366091382E+03  0.91750092581E+03  0.10471232760E+04  0.80809015192E+02 0.  0.
        254    2    1    2    0    0 -0.22648201446E+03  0.44366091382E+03 -0.57554634792E+03  0.11787732969E+04  0.90006876265E+03 0.  0.
         23    2    4    4    0    0 -0.33449716732E+03  0.42795622389E+03 -0.76454714265E+03  0.94220141781E+03  0.90422861497E+02 0.  0.
         23    2    4    4    0    0  0.10801515286E+03  0.15704689929E+02  0.18900079473E+03  0.23657187907E+03  0.91274547513E+02 0.  0.
          4    1    3    3  502    0  0.16047566765E+03 -0.37106029845E+03  0.77501850788E+03  0.87412348816E+03  0.00000000000E+00 0. -1.
         -3    1    3    3    0  502  0.66006346812E+02 -0.72600615362E+02  0.14248241794E+03  0.17299978784E+03  0.00000000000E+00 0.  1.
         11    1    5    5    0    0 -0.31652645238E+03  0.37386726815E+03 -0.64662336485E+03  0.81122592736E+03  0.00000000000E+00 0. -1.
        -11    1    5    5    0    0 -0.17970714938E+02  0.54088955741E+02 -0.11792377780E+03  0.13097549045E+03  0.00000000000E+00 0.  1.
          1    1    6    6  503    0  0.10314876817E+03  0.32896566254E+02  0.10545805145E+03  0.15113984604E+03  0.00000000000E+00 0. -1.
         -1    1    6    6    0  503  0.48663846864E+01 -0.17191876325E+02  0.83542743280E+02  0.85432033021E+02  0.00000000000E+00 0.  1.
<mgrwt>
<rscale>  0 0.21994733E+04</rscale>
<asrwt>0</asrwt>
<pdfrwt beam="1">  1        2 0.19752701E+00 0.21994733E+04</pdfrwt>
<pdfrwt beam="2">  1       -1 0.14491862E+00 0.21994733E+04</pdfrwt>
<totfact> 0.67351390E+00</totfact>
</mgrwt>
</event>
<event>
12    6  0.8914180E-008  0.1441423E+04  0.7818608E-02  0.8924368E-01
          2   -1    0    0  501    0  0.00000000000E+00  0.00000000000E+00  0.18036412143E+04  0.18036412143E+04  0.00000000000E+00 0. -1.
         -1   -1    0    0    0  501 -0.00000000000E+00 -0.00000000000E+00 -0.28798689777E+03  0.28798689777E+03  0.00000000000E+00 0.  1.
         24    2    1    2    0    0  0.17043967407E+03 -0.21365530115E+03 -0.24296642217E+02  0.28585506245E+03  0.80153101586E+02 0.  0.
        254    2    1    2    0    0 -0.17043967407E+03  0.21365530115E+03  0.15399509588E+04  0.18057730497E+04  0.90259020669E+03 0.  0.
         23    2    4    4    0    0 -0.57614564088E+02  0.55853879637E+03  0.91538253506E+03  0.10777339473E+04  0.91105711071E+02 0.  0.
         23    2    4    4    0    0 -0.11282510998E+03 -0.34488349522E+03  0.62456842372E+03  0.72803910237E+03  0.91000483303E+02 0.  0.
          4    1    3    3  502    0  0.35868438040E+02 -0.53559680305E+02  0.27992517707E+02  0.70276349146E+02  0.00000000000E+00 0. -1.
         -3    1    3    3    0  502  0.13457123603E+03 -0.16009562085E+03 -0.52289159923E+02  0.21557871330E+03  0.00000000000E+00 0.  1.
         11    1    5    5    0    0 -0.50836453842E+02  0.55860966534E+03  0.91038312983E+03  0.10693112486E+04  0.00000000000E+00 0. -1.
        -11    1    5    5    0    0 -0.67781102461E+01 -0.70868970431E-01  0.49994052395E+01  0.84226987165E+01  0.00000000000E+00 0.  1.
          4    1    6    6  503    0 -0.28767423254E+01 -0.72527199134E+02  0.19123490667E+03  0.20454647342E+03  0.00000000000E+00 0.  1.
         -4    1    6    6    0  503 -0.10994836766E+03 -0.27235629608E+03  0.43333351704E+03  0.52349262895E+03  0.00000000000E+00 0. -1.
<mgrwt>
<rscale>  0 0.14414230E+04</rscale>
<asrwt>0</asrwt>
<pdfrwt beam="1">  1        2 0.27748326E+00 0.14414230E+04</pdfrwt>
<pdfrwt beam="2">  1       -1 0.44305678E-01 0.14414230E+04</pdfrwt>
<totfact> 0.47872220E+01</totfact>
</mgrwt>
</event>
<event>
12    6  0.8914180E-008  0.2023136E+04  0.7818608E-02  0.8595880E-01
          2   -1    0    0  501    0  0.00000000000E+00  0.00000000000E+00  0.11297098681E+04  0.11297098681E+04  0.00000000000E+00 0. -1.
         -1   -1    0    0    0  501 -0.00000000000E+00 -0.00000000000E+00 -0.90578118885E+03  0.90578118885E+03  0.00000000000E+00 0.  1.
         24    2    1    2    0    0 -0.46198789869E+03  0.58132876112E+03  0.41145645169E+03  0.85282739327E+03  0.81499718100E+02 0.  0.
        254    2    1    2    0    0  0.46198789869E+03 -0.58132876112E+03 -0.18752777245E+03  0.11826636637E+04  0.90119405728E+03 0.  0.
         23    2    4    4    0    0 -0.68841989459E+02 -0.50222051115E+03 -0.34103045471E+03  0.61710094563E+03  0.86874304170E+02 0.  0.
         23    2    4    4    0    0  0.53082988814E+03 -0.79108249966E+02  0.15350268225E+03  0.56556271803E+03  0.90882502217E+02 0.  0.
          4    1    3    3  502    0 -0.34979966234E+03  0.41609511701E+03  0.26238027003E+03  0.60360447006E+03  0.00000000000E+00 0. -1.
         -3    1    3    3    0  502 -0.11218823635E+03  0.16523364411E+03  0.14907618166E+03  0.24922292322E+03  0.00000000000E+00 0.  1.
         11    1    5    5    0    0 -0.52661125441E+02 -0.37158456604E+03 -0.20428964887E+03  0.42729678736E+03  0.00000000000E+00 0. -1.
        -11    1    5    5    0    0 -0.16180864018E+02 -0.13063594511E+03 -0.13674080584E+03  0.18980415827E+03  0.00000000000E+00 0.  1.
          3    1    6    6  503    0  0.62550981787E+02  0.20017724800E+02  0.18128389447E+02  0.68132027217E+02  0.00000000000E+00 0. -1.
         -3    1    6    6    0  503  0.46827890636E+03 -0.99125974766E+02  0.13537429281E+03  0.49743069082E+03  0.00000000000E+00 0.  1.
<mgrwt>
<rscale>  0 0.20231361E+04</rscale>
<asrwt>0</asrwt>
<pdfrwt beam="1">  1        2 0.17380152E+00 0.20231361E+04</pdfrwt>
<pdfrwt beam="2">  1       -1 0.13935095E+00 0.20231361E+04</pdfrwt>
<totfact> 0.93728808E+00</totfact>
</mgrwt>
</event>
<event>
12    6  0.8914180E-008  0.1683497E+04  0.7818608E-02  0.8770833E-01
          2   -1    0    0  501    0  0.00000000000E+00  0.00000000000E+00  0.32262547215E+04  0.32262547215E+04  0.00000000000E+00 0. -1.
         -1   -1    0    0    0  501 -0.00000000000E+00 -0.00000000000E+00 -0.21961711990E+03  0.21961711990E+03  0.00000000000E+00 0.  1.
         24    2    1    2    0    0 -0.35977869733E+03 -0.29314172615E+03  0.36511100884E+03  0.59573762067E+03  0.78895381627E+02 0.  0.
        254    2    1    2    0    0  0.35977869733E+03  0.29314172615E+03  0.26415265927E+04  0.28501342207E+04  0.96448408656E+03 0.  0.
         23    2    4    4    0    0  0.32227488656E+03  0.46831919777E+03  0.25753699911E+04  0.26387259213E+04  0.84616328606E+02 0.  0.
         23    2    4    4    0    0  0.37503810766E+02 -0.17517747162E+03  0.66156601576E+02  0.21140829936E+03  0.90681258936E+02 0.  0.
          2    1    3    3  502    0 -0.28208805716E+03 -0.21209857383E+03  0.31396185997E+03  0.47236799905E+03  0.00000000000E+00 0. -1.
         -1    1    3    3    0  502 -0.77690640172E+02 -0.81043152319E+02  0.51149148873E+02  0.12336962162E+03  0.00000000000E+00 0.  1.
         11    1    5    5    0    0  0.42252813505E+02  0.29273476863E+02  0.16845799851E+03  0.17612590371E+03  0.00000000000E+00 0. -1.
        -11    1    5    5    0    0  0.28002207306E+03  0.43904572091E+03  0.24069119926E+04  0.24626000176E+04  0.00000000000E+00 0.  1.
          2    1    6    6  503    0  0.62151345854E+02 -0.16001591602E+03  0.53327647930E+02  0.17975461386E+03  0.00000000000E+00 0.  1.
         -2    1    6    6    0  503 -0.24647535088E+02 -0.15161555601E+02  0.12828953646E+02  0.31653685501E+02  0.00000000000E+00 0. -1.
<mgrwt>
<rscale>  0 0.16834973E+04</rscale>
<asrwt>0</asrwt>
<pdfrwt beam="1">  1        2 0.49634685E+00 0.16834973E+04</pdfrwt>
<pdfrwt beam="2">  1       -1 0.33787251E-01 0.16834973E+04</pdfrwt>
<totfact> 0.11256282E+01</totfact>
</mgrwt>
</event>
<event>
12    6  0.8914180E-008  0.1320347E+04  0.7818608E-02  0.9013583E-01
         -1   -1    0    0    0  501 -0.00000000000E+00  0.00000000000E+00  0.26362193709E+03  0.26362193709E+03  0.00000000000E+00 0.  1.
          2   -1    0    0  501    0  0.00000000000E+00 -0.00000000000E+00 -0.16532358471E+04  0.16532358471E+04  0.00000000000E+00 0. -1.
         24    2    1    2    0    0 -0.38852774648E+01 -0.36082156055E+03 -0.26904355650E+03  0.45763891739E+03  0.82714264053E+02 0.  0.
        254    2    1    2    0    0  0.38852774648E+01  0.36082156055E+03 -0.11205703535E+04  0.14592188668E+04  0.86222647262E+03 0.  0.
         23    2    4    4    0    0 -0.34182111799E+03  0.39021359195E+03 -0.42531316314E+03  0.67705034473E+03  0.91638193485E+02 0.  0.
         23    2    4    4    0    0  0.34570639546E+03 -0.29392031399E+02 -0.69525719032E+03  0.78216852203E+03  0.89600406180E+02 0.  0.
          2    1    3    3  502    0  0.11282583017E+02 -0.15219411246E+02 -0.35534095916E+02  0.40269084057E+02  0.00000000000E+00 0. -1.
         -1    1    3    3    0  502 -0.15167860482E+02 -0.34560214930E+03 -0.23350946058E+03  0.41736983333E+03  0.00000000000E+00 0.  1.
         11    1    5    5    0    0 -0.31293338039E+03  0.38041738734E+03 -0.37866690905E+03  0.62131579504E+03  0.00000000000E+00 0. -1.
        -11    1    5    5    0    0 -0.28887737598E+02  0.97962046132E+01 -0.46646254091E+02  0.55734549690E+02  0.00000000000E+00 0.  1.
          1    1    6    6  503    0  0.27040065124E+03 -0.23595833865E+02 -0.44976811495E+03  0.52532336022E+03  0.00000000000E+00 0. -1.
         -1    1    6    6    0  503  0.75305744221E+02 -0.57961975345E+01 -0.24548907537E+03  0.25684516181E+03  0.00000000000E+00 0.  1.
<mgrwt>
<rscale>  0 0.13203473E+04</rscale>
<asrwt>0</asrwt>
<pdfrwt beam="1">  1        2 0.25434398E+00 0.13203473E+04</pdfrwt>
<pdfrwt beam="2">  1       -1 0.40557221E-01 0.13203473E+04</pdfrwt>
<totfact> 0.68947748E+01</totfact>
</mgrwt>
</event>
<event>
12    6  0.8914180E-008  0.3241024E+04  0.7818608E-02  0.8178066E-01
         -1   -1    0    0    0  501 -0.00000000000E+00  0.00000000000E+00  0.13306835684E+04  0.13306835684E+04  0.00000000000E+00 0.  1.
          2   -1    0    0  501    0  0.00000000000E+00 -0.00000000000E+00 -0.19734657841E+04  0.19734657841E+04  0.00000000000E+00 0. -1.
         24    2    1    2    0    0  0.11007999282E+04 -0.47291087139E+03  0.60516691549E+03  0.13443982224E+04  0.75989542321E+02 0.  0.
        254    2    1    2    0    0 -0.11007999282E+04  0.47291087139E+03 -0.12479491311E+04  0.19597511301E+04  0.92078351614E+03 0.  0.
         23    2    4    4    0    0 -0.10522656295E+04  0.67354930235E+03 -0.88948877392E+03  0.15362531990E+04  0.89173957833E+02 0.  0.
         23    2    4    4    0    0 -0.48534298697E+02 -0.20063843096E+03 -0.35846035723E+03  0.42349793106E+03  0.90803699118E+02 0.  0.
          2    1    3    3  502    0  0.71401592234E+03 -0.34539068177E+03  0.39340125397E+03  0.88536885366E+03  0.00000000000E+00 0. -1.
         -1    1    3    3    0  502  0.38678400590E+03 -0.12752018962E+03  0.21176566151E+03  0.45902936875E+03  0.00000000000E+00 0.  1.
         11    1    5    5    0    0 -0.10026216308E+04  0.65644561344E+03 -0.86695091125E+03  0.14791128626E+04  0.00000000000E+00 0. -1.
        -11    1    5    5    0    0 -0.49643998777E+02  0.17103688914E+02 -0.22537862669E+02  0.57140336390E+02  0.00000000000E+00 0.  1.
          2    1    6    6  503    0 -0.47101611656E+02 -0.47322900840E+02 -0.15471971907E+03  0.16851175102E+03  0.00000000000E+00 0.  1.
         -2    1    6    6    0  503 -0.14326870412E+01 -0.15331553012E+03 -0.20374063817E+03  0.25498618004E+03  0.00000000000E+00 0. -1.
<mgrwt>
<rscale>  0 0.32410236E+04</rscale>
<asrwt>0</asrwt>
<pdfrwt beam="1">  1        2 0.30361012E+00 0.32410236E+04</pdfrwt>
<pdfrwt beam="2">  1       -1 0.20472055E+00 0.32410236E+04</pdfrwt>
<totfact> 0.92162647E-01</totfact>
</mgrwt>
</event>
<event>
12    6  0.8914180E-008  0.2828437E+04  0.7818608E-02  0.8294494E-01
         -1   -1    0    0    0  501 -0.00000000000E+00  0.00000000000E+00  0.67312183687E+03  0.67312183687E+03  0.00000000000E+00 0.  1.
          2   -1    0    0  501    0  0.00000000000E+00 -0.00000000000E+00 -0.29712512898E+04  0.29712512898E+04  0.00000000000E+00 0. -1.
         24    2    1    2    0    0 -0.21518584729E+03 -0.10033473225E+03 -0.26390212120E+04  0.26508210129E+04  0.77762959589E+02 0.  0.
        254    2    1    2    0    0  0.21518584729E+03  0.10033473225E+03  0.34089175902E+03  0.99355211378E+03  0.90253343653E+03 0.  0.
         23    2    4    4    0    0  0.34608919441E+03 -0.18755565383E+03  0.48754113679E+03  0.63307002896E+03  0.90146812115E+02 0.  0.
         23    2    4    4    0    0 -0.13090334712E+03  0.28789038609E+03 -0.14664937777E+03  0.36048208481E+03  0.91786343121E+02 0.  0.
          4    1    3    3  502    0 -0.20451506978E+03 -0.78532698697E+02 -0.25095485963E+04  0.25190926850E+04  0.00000000000E+00 0. -1.
         -3    1    3    3    0  502 -0.10670777510E+02 -0.21802033558E+02 -0.12947261564E+03  0.13172832786E+03  0.00000000000E+00 0.  1.
         11    1    5    5    0    0  0.27077025315E+03 -0.13781749413E+03  0.31090706946E+03  0.43471070555E+03  0.00000000000E+00 0.  1.
        -11    1    5    5    0    0  0.75318941261E+02 -0.49738159708E+02  0.17663406733E+03  0.19835932341E+03  0.00000000000E+00 0. -1.
          1    1    6    6  503    0 -0.78983660530E+02  0.23843163071E+03 -0.82801047435E+02  0.26446942093E+03  0.00000000000E+00 0.  1.
         -1    1    6    6    0  503 -0.51919686586E+02  0.49458755381E+02 -0.63848330334E+02  0.96012663881E+02  0.00000000000E+00 0. -1.
<mgrwt>
<rscale>  0 0.28284371E+04</rscale>
<asrwt>0</asrwt>
<pdfrwt beam="1">  1        2 0.45711558E+00 0.28284371E+04</pdfrwt>
<pdfrwt beam="2">  1       -1 0.10355721E+00 0.28284371E+04</pdfrwt>
<totfact> 0.15735876E+00</totfact>
</mgrwt>
</event>
<event>
12    6  0.8914180E-008  0.1300911E+04  0.7818608E-02  0.9028843E-01
         -1   -1    0    0    0  501 -0.00000000000E+00  0.00000000000E+00  0.73667917776E+03  0.73667917776E+03  0.00000000000E+00 0.  1.
          2   -1    0    0  501    0  0.00000000000E+00 -0.00000000000E+00 -0.57432365747E+03  0.57432365747E+03  0.00000000000E+00 0. -1.
         24    2    1    2    0    0 -0.11278499369E+02  0.61664086783E+02 -0.28585993490E+03  0.30381681488E+03  0.81603250395E+02 0.  0.
        254    2    1    2    0    0  0.11278499369E+02 -0.61664086783E+02  0.44821545519E+03  0.10071860203E+04  0.89977603945E+03 0.  0.
         23    2    4    4    0    0  0.32200002213E+03  0.13633114155E+02  0.56310965792E+03  0.65527107971E+03  0.91748705778E+02 0.  0.
         23    2    4    4    0    0 -0.31072152276E+03 -0.75297200939E+02 -0.11489420273E+03  0.35191494064E+03  0.91792779928E+02 0.  0.
          4    1    3    3  502    0 -0.12160428514E+02 -0.45823658385E+01 -0.16887369486E+03  0.16937295803E+03  0.00000000000E+00 0. -1.
         -1    1    3    3    0  502  0.88192914519E+00  0.66246452622E+02 -0.11698624004E+03  0.13444385684E+03  0.00000000000E+00 0.  1.
         11    1    5    5    0    0  0.26654057176E+03 -0.82953223550E+01  0.39233909883E+03  0.47438661157E+03  0.00000000000E+00 0.  1.
        -11    1    5    5    0    0  0.55459450368E+02  0.21928436510E+02  0.17077055908E+03  0.18088446814E+03  0.00000000000E+00 0. -1.
          4    1    6    6  503    0 -0.15663381151E+03 -0.52465484813E+02 -0.10520466069E+03  0.19584381184E+03  0.00000000000E+00 0. -1.
         -4    1    6    6    0  503 -0.15408771125E+03 -0.22831716125E+02 -0.96895420422E+01  0.15607112880E+03  0.00000000000E+00 0.  1.
<mgrwt>
<rscale>  0 0.13009109E+04</rscale>
<asrwt>0</asrwt>
<pdfrwt beam="1">  1        2 0.88357486E-01 0.13009109E+04</pdfrwt>
<pdfrwt beam="2">  1       -1 0.11333526E+00 0.13009109E+04</pdfrwt>
<totfact> 0.41650688E+01</totfact>
</mgrwt>
</event>
<event>
12    6  0.8914180E-008  0.2439861E+04  0.7818608E-02  0.8424729E-01
         -1   -1    0    0    0  501 -0.00000000000E+00  0.00000000000E+00  0.71638566125E+03  0.71638566125E+03  0.00000000000E+00 0.  1.
          2   -1    0    0  501    0  0.00000000000E+00 -0.00000000000E+00 -0.20774144519E+04  0.20774144519E+04  0.00000000000E+00 0. -1.
         24    2    1    2    0    0  0.60142167619E+03  0.11349824076E+03 -0.15740294000E+04  0.16906546190E+04  0.78451295261E+02 0.  0.
        254    2    1    2    0    0 -0.60142167619E+03 -0.11349824076E+03  0.21300060928E+03  0.11031454941E+04  0.89273223221E+03 0.  0.
         23    2    4    4    0    0 -0.14603296432E+03 -0.42621414635E+03  0.28020274494E+03  0.53840183678E+03  0.91535973019E+02 0.  0.
         23    2    4    4    0    0 -0.45538871187E+03  0.31271590560E+03 -0.67202135660E+02  0.56474365736E+03  0.96172527129E+02 0.  0.
          2    1    3    3  502    0  0.44344349493E+03  0.10405910448E+03 -0.10876297076E+04  0.11791559741E+04  0.00000000000E+00 0. -1.
         -3    1    3    3    0  502  0.15797818126E+03  0.94391362805E+01 -0.48639969240E+03  0.51149864497E+03  0.00000000000E+00 0.  1.
         11    1    5    5    0    0 -0.32465169780E+02 -0.19843108715E+03  0.88121294493E+02  0.21953187955E+03  0.00000000000E+00 0. -1.
        -11    1    5    5    0    0 -0.11356779454E+03 -0.22778305920E+03  0.19208145045E+03  0.31886995722E+03  0.00000000000E+00 0.  1.
          1    1    6    6  503    0 -0.18779723338E+03  0.12198015806E+03  0.19804300852E+02  0.22480918611E+03  0.00000000000E+00 0. -1.
         -1    1    6    6    0  503 -0.26759147848E+03  0.19073574754E+03 -0.87006436512E+02  0.33993447124E+03  0.00000000000E+00 0.  1.
<mgrwt>
<rscale>  0 0.24398606E+04</rscale>
<asrwt>0</asrwt>
<pdfrwt beam="1">  1        2 0.31960222E+00 0.24398606E+04</pdfrwt>
<pdfrwt beam="2">  1       -1 0.11021318E+00 0.24398606E+04</pdfrwt>
<totfact> 0.46861900E+00</totfact>
</mgrwt>
</event>
<event>
12    6  0.8914180E-008  0.1351999E+04  0.7818608E-02  0.8989316E-01
         -1   -1    0    0    0  501 -0.00000000000E+00  0.00000000000E+00  0.44655673830E+03  0.44655673830E+03  0.00000000000E+00 0.  1.
          2   -1    0    0  501    0  0.00000000000E+00 -0.00000000000E+00 -0.10233312012E+04  0.10233312012E+04  0.00000000000E+00 0. -1.
         24    2    1    2    0    0  0.10853606716E+03 -0.17832890676E+03 -0.50050399094E+03  0.54820577106E+03  0.80274813139E+02 0.  0.
        254    2    1    2    0    0 -0.10853606716E+03  0.17832890676E+03 -0.76270471995E+02  0.92168216847E+03  0.89448284383E+03 0.  0.
         23    2    4    4    0    0 -0.56240547295E+02  0.43346799094E+03 -0.32319462379E+03  0.55148064255E+03  0.92836608789E+02 0.  0.
         23    2    4    4    0    0 -0.52295519861E+02 -0.25513908419E+03  0.24692415180E+03  0.37020152591E+03  0.90812220382E+02 0.  0.
          2    1    3    3  502    0  0.10830280170E+03 -0.12226116565E+03 -0.41471765115E+03  0.44572190843E+03  0.00000000000E+00 0. -1.
         -1    1    3    3    0  502  0.23326545992E+00 -0.56067741109E+02 -0.85786339786E+02  0.10248386263E+03  0.00000000000E+00 0.  1.
         11    1    5    5    0    0 -0.61380876480E+02  0.39554395192E+03 -0.25906328913E+03  0.47679808900E+03  0.00000000000E+00 0.  1.
        -11    1    5    5    0    0  0.51403291846E+01  0.37924039020E+02 -0.64131334660E+02  0.74682553552E+02  0.00000000000E+00 0. -1.
          2    1    6    6  503    0 -0.72288947332E+02 -0.15776625171E+03  0.18198903081E+03  0.25146747189E+03  0.00000000000E+00 0.  1.
         -2    1    6    6    0  503  0.19993427471E+02 -0.97372832478E+02  0.64935120989E+02  0.11873405402E+03  0.00000000000E+00 0. -1.
<mgrwt>
<rscale>  0 0.13519992E+04</rscale>
<asrwt>0</asrwt>
<pdfrwt beam="1">  1        2 0.15743557E+00 0.13519992E+04</pdfrwt>
<pdfrwt beam="2">  1       -1 0.68701038E-01 0.13519992E+04</pdfrwt>
<totfact> 0.58143963E+01</totfact>
</mgrwt>
</event>
<event>
12    6  0.8914180E-008  0.1989678E+04  0.7818608E-02  0.8611462E-01
         -1   -1    0    0    0  501 -0.00000000000E+00  0.00000000000E+00  0.79813987907E+03  0.79813987907E+03  0.00000000000E+00 0.  1.
          2   -1    0    0  501    0  0.00000000000E+00 -0.00000000000E+00 -0.12400140153E+04  0.12400140153E+04  0.00000000000E+00 0. -1.
         24    2    1    2    0    0 -0.56550213482E+03  0.34421197768E+03  0.26009831288E+03  0.71571408840E+03  0.79504552784E+02 0.  0.
        254    2    1    2    0    0  0.56550213482E+03 -0.34421197768E+03 -0.70197244912E+03  0.13224398060E+04  0.90432691603E+03 0.  0.
         23    2    4    4    0    0  0.74346165752E+03 -0.46232940106E+03 -0.61683828999E+03  0.10748323790E+04  0.91057430078E+02 0.  0.
         23    2    4    4    0    0 -0.17795952270E+03  0.11811742338E+03 -0.85134159132E+02  0.24760742702E+03  0.91871080542E+02 0.  0.
          2    1    3    3  502    0 -0.14953005807E+03  0.85380288129E+02  0.31357030505E+02  0.17502084227E+03  0.00000000000E+00 0. -1.
         -1    1    3    3    0  502 -0.41597207675E+03  0.25883168956E+03  0.22874128237E+03  0.54069324613E+03  0.00000000000E+00 0.  1.
         11    1    5    5    0    0  0.33001728725E+02 -0.95302758796E+01 -0.44985180536E+02  0.56600412764E+02  0.00000000000E+00 0.  1.
        -11    1    5    5    0    0  0.71045992880E+03 -0.45279912518E+03 -0.57185310945E+03  0.10182319662E+04  0.00000000000E+00 0. -1.
          1    1    6    6  503    0 -0.16506579821E+03  0.13224723817E+03 -0.68693317910E+02  0.22238440069E+03  0.00000000000E+00 0. -1.
         -1    1    6    6    0  503 -0.12893724489E+02 -0.14129814796E+02 -0.16440841221E+02  0.25223026334E+02  0.00000000000E+00 0.  1.
<mgrwt>
<rscale>  0 0.19896780E+04</rscale>
<asrwt>0</asrwt>
<pdfrwt beam="1">  1        2 0.19077139E+00 0.19896780E+04</pdfrwt>
<pdfrwt beam="2">  1       -1 0.12279075E+00 0.19896780E+04</pdfrwt>
<totfact> 0.11119455E+01</totfact>
</mgrwt>
</event>
<event>
12    6  0.8914180E-008  0.1859360E+04  0.7818608E-02  0.8675354E-01
         -1   -1    0    0    0  501 -0.00000000000E+00  0.00000000000E+00  0.52868003811E+03  0.52868003811E+03  0.00000000000E+00 0.  1.
          2   -1    0    0  501    0  0.00000000000E+00 -0.00000000000E+00 -0.16348363305E+04  0.16348363305E+04  0.00000000000E+00 0. -1.
         24    2    1    2    0    0  0.65756886847E+03 -0.25369317741E+03 -0.33160403366E+03  0.78290903547E+03  0.78919437588E+02 0.  0.
        254    2    1    2    0    0 -0.65756886847E+03  0.25369317741E+03 -0.77455225872E+03  0.13806073331E+04  0.89966013681E+03 0.  0.
         23    2    4    4    0    0  0.79298952169E+02 -0.17005541278E+03 -0.39001388334E+03  0.44328463320E+03  0.95829377568E+02 0.  0.
         23    2    4    4    0    0 -0.73686782064E+03  0.42374859019E+03 -0.38453837539E+03  0.93732269993E+03  0.90371615445E+02 0.  0.
          4    1    3    3  502    0  0.40242692644E+02 -0.14127754792E+02 -0.43013446638E+02  0.60574122845E+02  0.00000000000E+00 0. -1.
         -1    1    3    3    0  502  0.61732617583E+03 -0.23956542262E+03 -0.28859058702E+03  0.72233491262E+03  0.00000000000E+00 0.  1.
         11    1    5    5    0    0  0.87601339385E+02 -0.17849087616E+03 -0.36964913923E+03  0.41973023917E+03  0.00000000000E+00 0. -1.
        -11    1    5    5    0    0 -0.83023872161E+01  0.84354633796E+01 -0.20364744103E+02  0.23554394034E+02  0.00000000000E+00 0.  1.
          1    1    6    6  503    0 -0.55069399517E+03  0.35840988747E+03 -0.28279598253E+03  0.71532865977E+03  0.00000000000E+00 0. -1.
         -1    1    6    6    0  503 -0.18617382547E+03  0.65338702724E+02 -0.10174239285E+03  0.22199404017E+03  0.00000000000E+00 0.  1.
<mgrwt>
<rscale>  0 0.18593605E+04</rscale>
<asrwt>0</asrwt>
<pdfrwt beam="1">  1        2 0.25151328E+00 0.18593605E+04</pdfrwt>
<pdfrwt beam="2">  1       -1 0.81335391E-01 0.18593605E+04</pdfrwt>
<totfact> 0.17183404E+01</totfact>
</mgrwt>
</event>
<event>
12    6  0.8914180E-008  0.1421151E+04  0.7818608E-02  0.8938649E-01
          2   -1    0    0  501    0  0.00000000000E+00  0.00000000000E+00  0.74077245934E+03  0.74077245934E+03  0.00000000000E+00 0. -1.
         -1   -1    0    0    0  501 -0.00000000000E+00 -0.00000000000E+00 -0.68160958204E+03  0.68160958204E+03  0.00000000000E+00 0.  1.
         24    2    1    2    0    0  0.37766879622E+02  0.41862885824E+03 -0.15211111825E+02  0.42919699253E+03  0.85453041657E+02 0.  0.
        254    2    1    2    0    0 -0.37766879622E+02 -0.41862885824E+03  0.74373989117E+02  0.99318504885E+03  0.89677677984E+03 0.  0.
         23    2    4    4    0    0 -0.34533868775E+03 -0.41181959292E+03  0.27823872327E+03  0.61204066726E+03  0.91229407970E+02 0.  0.
         23    2    4    4    0    0  0.30757180813E+03 -0.68092653130E+01 -0.20386473415E+03  0.38114438159E+03  0.95202030129E+02 0.  0.
          4    1    3    3  502    0  0.37495139648E+02  0.25604841142E+03 -0.48391837638E+02  0.26326497002E+03  0.00000000000E+00 0. -1.
         -1    1    3    3    0  502  0.27173997416E+00  0.16258044681E+03  0.33180725813E+02  0.16593202251E+03  0.00000000000E+00 0.  1.
         11    1    5    5    0    0 -0.23092585154E+03 -0.28159736529E+03  0.13937736599E+03  0.38993573214E+03  0.00000000000E+00 0.  1.
        -11    1    5    5    0    0 -0.11441283620E+03 -0.13022222763E+03  0.13886135728E+03  0.22210493511E+03  0.00000000000E+00 0. -1.
          2    1    6    6  503    0  0.23223292307E+02 -0.10171043526E+02 -0.54107364424E+02  0.59752642761E+02  0.00000000000E+00 0. -1.
         -2    1    6    6    0  503  0.28434851582E+03  0.33617782130E+01 -0.14975736973E+03  0.32139173883E+03  0.00000000000E+00 0.  1.
<mgrwt>
<rscale>  0 0.14211511E+04</rscale>
<asrwt>0</asrwt>
<pdfrwt beam="1">  1        2 0.11396499E+00 0.14211511E+04</pdfrwt>
<pdfrwt beam="2">  1       -1 0.10486301E+00 0.14211511E+04</pdfrwt>
<totfact> 0.36130321E+01</totfact>
</mgrwt>
</event>
<event>
12    6  0.8914180E-008  0.1835427E+04  0.7818608E-02  0.8687683E-01
         -1   -1    0    0    0  501 -0.00000000000E+00  0.00000000000E+00  0.27691083353E+03  0.27691083353E+03  0.00000000000E+00 0.  1.
          2   -1    0    0  501    0  0.00000000000E+00 -0.00000000000E+00 -0.30414065818E+04  0.30414065818E+04  0.00000000000E+00 0. -1.
         24    2    1    2    0    0  0.12998205470E+03  0.25817206697E+03  0.88767058299E+02  0.31271595239E+03  0.79771708861E+02 0.  0.
        254    2    1    2    0    0 -0.12998205470E+03 -0.25817206697E+03 -0.28532628066E+04  0.30056014629E+04  0.89943502264E+03 0.  0.
         23    2    4    4    0    0  0.19951243365E+03  0.17221756184E+03 -0.17589129420E+04  0.17809108876E+04  0.91677435510E+02 0.  0.
         23    2    4    4    0    0 -0.32949448835E+03 -0.43038962881E+03 -0.10943498646E+04  0.12246905754E+04  0.91997439356E+02 0.  0.
          4    1    3    3  502    0  0.31371578671E+02  0.63851568331E+02  0.59708004484E+02  0.92877578167E+02  0.00000000000E+00 0. -1.
         -3    1    3    3    0  502  0.98610476026E+02  0.19432049864E+03  0.29059053815E+02  0.21983837422E+03  0.00000000000E+00 0.  1.
         11    1    5    5    0    0  0.77811683965E+02  0.94597428919E+02 -0.55380943834E+03  0.56719328779E+03  0.00000000000E+00 0. -1.
        -11    1    5    5    0    0  0.12170074969E+03  0.77620132921E+02 -0.12051035037E+04  0.12137175998E+04  0.00000000000E+00 0.  1.
          1    1    6    6  503    0 -0.31985855229E+03 -0.42632213790E+03 -0.10323201822E+04  0.11617852716E+04  0.00000000000E+00 0. -1.
         -1    1    6    6    0  503 -0.96359360620E+01 -0.40674909060E+01 -0.62029682328E+02  0.62905303718E+02  0.00000000000E+00 0.  1.
<mgrwt>
<rscale>  0 0.18354274E+04</rscale>
<asrwt>0</asrwt>
<pdfrwt beam="1">  1        2 0.46790870E+00 0.18354274E+04</pdfrwt>
<pdfrwt beam="2">  1       -1 0.42601667E-01 0.18354274E+04</pdfrwt>
<totfact> 0.95663132E+00</totfact>
</mgrwt>
</event>
<event>
12    6  0.8914180E-008  0.3124886E+04  0.7818608E-02  0.8208941E-01
         -1   -1    0    0    0  501 -0.00000000000E+00  0.00000000000E+00  0.15710641680E+04  0.15710641680E+04  0.00000000000E+00 0.  1.
          2   -1    0    0  501    0  0.00000000000E+00 -0.00000000000E+00 -0.15538686618E+04  0.15538686618E+04  0.00000000000E+00 0. -1.
         24    2    1    2    0    0  0.94493597947E+02  0.86595550813E+03 -0.11297143008E+04  0.14288336078E+04  0.80641771107E+02 0.  0.
        254    2    1    2    0    0 -0.94493597947E+02 -0.86595550813E+03  0.11469098070E+04  0.16960992219E+04  0.89584735475E+03 0.  0.
         23    2    4    4    0    0 -0.16062800207E+03 -0.55652215320E+03  0.95681562930E+02  0.59421616206E+03  0.91758507575E+02 0.  0.
         23    2    4    4    0    0  0.66134404122E+02 -0.30943335492E+03  0.10512282441E+04  0.11018830599E+04  0.94565828158E+02 0.  0.
          2    1    3    3  502    0  0.75471206711E+02  0.82064856305E+03 -0.10841989656E+04  0.13618543843E+04  0.00000000000E+00 0. -1.
         -1    1    3    3    0  502  0.19022391236E+02  0.45306945072E+02 -0.45515335214E+02  0.66979223493E+02  0.00000000000E+00 0.  1.
         11    1    5    5    0    0 -0.15788329137E+03 -0.40167515328E+03  0.70009846444E+02  0.43723156457E+03  0.00000000000E+00 0.  1.
        -11    1    5    5    0    0 -0.27447107022E+01 -0.15484699992E+03  0.25671716486E+02  0.15698459749E+03  0.00000000000E+00 0. -1.
          3    1    6    6  503    0  0.82998474456E+01 -0.13217169572E+03  0.30125367998E+03  0.32907753542E+03  0.00000000000E+00 0. -1.
         -3    1    6    6    0  503  0.57834556676E+02 -0.17726165920E+03  0.74997456413E+03  0.77280552444E+03  0.00000000000E+00 0.  1.
<mgrwt>
<rscale>  0 0.31248855E+04</rscale>
<asrwt>0</asrwt>
<pdfrwt beam="1">  1        2 0.23905672E+00 0.31248855E+04</pdfrwt>
<pdfrwt beam="2">  1       -1 0.24170218E+00 0.31248855E+04</pdfrwt>
<totfact> 0.90214226E-01</totfact>
</mgrwt>
</event>
<event>
12    6  0.8914180E-008  0.2011891E+04  0.7818608E-02  0.8601081E-01
          2   -1    0    0  501    0  0.00000000000E+00  0.00000000000E+00  0.10513582511E+04  0.10513582511E+04  0.00000000000E+00 0. -1.
         -1   -1    0    0    0  501 -0.00000000000E+00 -0.00000000000E+00 -0.96249478608E+03  0.96249478608E+03  0.00000000000E+00 0.  1.
         24    2    1    2    0    0  0.27690926184E+02 -0.72048887466E+03  0.38402766001E+03  0.82121164237E+03  0.83906567170E+02 0.  0.
        254    2    1    2    0    0 -0.27690926184E+02  0.72048887466E+03 -0.29516419496E+03  0.11926413948E+04  0.90299534262E+03 0.  0.
         23    2    4    4    0    0  0.24713575112E+03  0.13428709891E+03  0.21336937006E+03  0.36474346890E+03  0.91663545709E+02 0.  0.
         23    2    4    4    0    0 -0.27482667730E+03  0.58620177575E+03 -0.50853356501E+03  0.82789792594E+03  0.87443493665E+02 0.  0.
          4    1    3    3  502    0  0.36544367228E+02 -0.24237890614E+03  0.97846222335E+02  0.26392595201E+03  0.00000000000E+00 0. -1.
         -3    1    3    3    0  502 -0.88534410441E+01 -0.47810996851E+03  0.28618143767E+03  0.55728569036E+03  0.00000000000E+00 0.  1.
         11    1    5    5    0    0  0.99480838279E+02  0.10485823238E+03  0.91766135971E+02  0.17120954936E+03  0.00000000000E+00 0. -1.
        -11    1    5    5    0    0  0.14765491284E+03  0.29428866529E+02  0.12160323409E+03  0.19353391953E+03  0.00000000000E+00 0.  1.
          4    1    6    6  503    0 -0.13994723514E+02  0.75622912082E+02 -0.35966625381E+02  0.84901562172E+02  0.00000000000E+00 0.  1.
         -4    1    6    6    0  503 -0.26083195379E+03  0.51057886367E+03 -0.47256693963E+03  0.74299636377E+03  0.00000000000E+00 0. -1.
<mgrwt>
<rscale>  0 0.20118915E+04</rscale>
<asrwt>0</asrwt>
<pdfrwt beam="1">  1        2 0.16174742E+00 0.20118915E+04</pdfrwt>
<pdfrwt beam="2">  1       -1 0.14807612E+00 0.20118915E+04</pdfrwt>
<totfact> 0.89346949E+00</totfact>
</mgrwt>
</event>
<event>
12    6  0.8914180E-008  0.1481894E+04  0.7818608E-02  0.8896583E-01
          2   -1    0    0  501    0  0.00000000000E+00  0.00000000000E+00  0.99988780128E+03  0.99988780128E+03  0.00000000000E+00 0. -1.
         -1   -1    0    0    0  501 -0.00000000000E+00 -0.00000000000E+00 -0.54906394295E+03  0.54906394295E+03  0.00000000000E+00 0.  1.
         24    2    1    2    0    0  0.20405326627E+03  0.26565677216E+03  0.47897748721E+03  0.58975057679E+03  0.78581508654E+02 0.  0.
        254    2    1    2    0    0 -0.20405326627E+03 -0.26565677216E+03 -0.28153628885E+02  0.95920116744E+03  0.89836684975E+03 0.  0.
         23    2    4    4    0    0 -0.19059158463E+02 -0.57708506335E+03  0.17317103369E+01  0.58442837228E+03  0.90349884559E+02 0.  0.
         23    2    4    4    0    0 -0.18499410781E+03  0.31142829119E+03 -0.29885339222E+02  0.37477279516E+03  0.91384429828E+02 0.  0.
          4    1    3    3  502    0  0.20096879593E+03  0.26415109610E+03  0.48196772029E+03  0.58519837825E+03  0.00000000000E+00 0. -1.
         -3    1    3    3    0  502  0.30844703439E+01  0.15056760527E+01 -0.29902330777E+01  0.45521985388E+01  0.00000000000E+00 0.  1.
         11    1    5    5    0    0  0.27659117668E+01 -0.44112300427E+03 -0.33152979667E+02  0.44237571726E+03  0.00000000000E+00 0. -1.
        -11    1    5    5    0    0 -0.21825070230E+02 -0.13596205908E+03  0.34884690004E+02  0.14205265501E+03  0.00000000000E+00 0.  1.
          3    1    6    6  503    0 -0.15334153133E+03  0.18759981720E+03 -0.43746386779E+02  0.24621345008E+03  0.00000000000E+00 0. -1.
         -3    1    6    6    0  503 -0.31652576482E+02  0.12382847399E+03  0.13861047558E+02  0.12855934508E+03  0.00000000000E+00 0.  1.
<mgrwt>
<rscale>  0 0.14818938E+04</rscale>
<asrwt>0</asrwt>
<pdfrwt beam="1">  1        2 0.15382889E+00 0.14818938E+04</pdfrwt>
<pdfrwt beam="2">  1       -1 0.84471376E-01 0.14818938E+04</pdfrwt>
<totfact> 0.38600666E+01</totfact>
</mgrwt>
</event>
<event>
12    6  0.8914180E-008  0.1188775E+04  0.7818608E-02  0.9122739E-01
         -1   -1    0    0    0  501 -0.00000000000E+00  0.00000000000E+00  0.40202965188E+03  0.40202965188E+03  0.00000000000E+00 0.  1.
          2   -1    0    0  501    0  0.00000000000E+00 -0.00000000000E+00 -0.87878149230E+03  0.87878149230E+03  0.00000000000E+00 0. -1.
         24    2    1    2    0    0  0.87173124825E+02 -0.35103954642E+02 -0.34650345351E+03  0.36800780945E+03  0.80831078144E+02 0.  0.
        254    2    1    2    0    0 -0.87173124825E+02  0.35103954642E+02 -0.13024838691E+03  0.91280333473E+03  0.89856209818E+03 0.  0.
         23    2    4    4    0    0 -0.31433077408E+02 -0.31149727730E+03 -0.35840048467E+03  0.48421099949E+03  0.89391232782E+02 0.  0.
         23    2    4    4    0    0 -0.55740047417E+02  0.34660123194E+03  0.22815209776E+03  0.42859233524E+03  0.91644111889E+02 0.  0.
          2    1    3    3  502    0  0.60485437274E+02  0.11679073513E+02 -0.25014098116E+03  0.25761482747E+03  0.00000000000E+00 0. -1.
         -1    1    3    3    0  502  0.26687687551E+02 -0.46783028155E+02 -0.96362472355E+02  0.11039298197E+03  0.00000000000E+00 0.  1.
         11    1    5    5    0    0  0.31395905756E+02 -0.89447235033E+02 -0.10159131441E+03  0.13895073198E+03  0.00000000000E+00 0. -1.
        -11    1    5    5    0    0 -0.62828983164E+02 -0.22205004226E+03 -0.25680917027E+03  0.34526026752E+03  0.00000000000E+00 0.  1.
          1    1    6    6  503    0 -0.54397024884E+02  0.83146719530E+02  0.61918353356E+02  0.11707389020E+03  0.00000000000E+00 0. -1.
         -1    1    6    6    0  503 -0.13430225329E+01  0.26345451241E+03  0.16623374440E+03  0.31151844503E+03  0.00000000000E+00 0.  1.
<mgrwt>
<rscale>  0 0.11887745E+04</rscale>
<asrwt>0</asrwt>
<pdfrwt beam="1">  1        2 0.13519715E+00 0.11887745E+04</pdfrwt>
<pdfrwt beam="2">  1       -1 0.61850716E-01 0.11887745E+04</pdfrwt>
<totfact> 0.90584069E+01</totfact>
</mgrwt>
</event>
<event>
12    6  0.8914180E-008  0.1850124E+04  0.7818608E-02  0.8680089E-01
          2   -1    0    0  501    0  0.00000000000E+00  0.00000000000E+00  0.10534943160E+04  0.10534943160E+04  0.00000000000E+00 0. -1.
         -1   -1    0    0    0  501 -0.00000000000E+00 -0.00000000000E+00 -0.81228690180E+03  0.81228690180E+03  0.00000000000E+00 0.  1.
         24    2    1    2    0    0  0.36678190495E+03 -0.38323669280E+03  0.54537603879E+03  0.76462463138E+03  0.76265816197E+02 0.  0.
        254    2    1    2    0    0 -0.36678190495E+03  0.38323669280E+03 -0.30416862454E+03  0.11011565865E+04  0.91576631694E+03 0.  0.
         23    2    4    4    0    0 -0.13091907225E+03 -0.21632278588E+03 -0.35838116051E+03  0.44796247596E+03  0.91093207711E+02 0.  0.
         23    2    4    4    0    0 -0.23586283270E+03  0.59955947868E+03  0.54212535966E+02  0.65319411050E+03  0.92847738833E+02 0.  0.
          2    1    3    3  502    0  0.36811190423E+03 -0.37753028447E+03  0.52765200169E+03  0.74595718685E+03  0.00000000000E+00 0. -1.
         -1    1    3    3    0  502 -0.13299992833E+01 -0.57064083348E+01  0.17724037097E+02  0.18667444528E+02  0.00000000000E+00 0.  1.
         11    1    5    5    0    0 -0.94080945664E+02 -0.16025006051E+03 -0.32166200945E+03  0.37148049014E+03  0.00000000000E+00 0. -1.
        -11    1    5    5    0    0 -0.36838126584E+02 -0.56072725367E+02 -0.36719151057E+02  0.76481985818E+02  0.00000000000E+00 0.  1.
          1    1    6    6  503    0 -0.16421060632E+03  0.39236312583E+03  0.78821053948E+02  0.43258144237E+03  0.00000000000E+00 0. -1.
         -1    1    6    6    0  503 -0.71652226379E+02  0.20719635285E+03 -0.24608517982E+02  0.22061266812E+03  0.00000000000E+00 0.  1.
<mgrwt>
<rscale>  0 0.18501239E+04</rscale>
<asrwt>0</asrwt>
<pdfrwt beam="1">  1        2 0.16207605E+00 0.18501239E+04</pdfrwt>
<pdfrwt beam="2">  1       -1 0.12496722E+00 0.18501239E+04</pdfrwt>
<totfact> 0.13990406E+01</totfact>
</mgrwt>
</event>
<event>
12    6  0.8914180E-008  0.1909505E+04  0.7818608E-02  0.8650139E-01
         -1   -1    0    0    0  501 -0.00000000000E+00  0.00000000000E+00  0.69217438809E+03  0.69217438809E+03  0.00000000000E+00 0.  1.
          2   -1    0    0  501    0  0.00000000000E+00 -0.00000000000E+00 -0.13169407376E+04  0.13169407376E+04  0.00000000000E+00 0. -1.
         24    2    1    2    0    0  0.62244774079E+03 -0.21446973716E+03 -0.60399452358E+03  0.89691910234E+03  0.78841825604E+02 0.  0.
        254    2    1    2    0    0 -0.62244774079E+03  0.21446973716E+03 -0.20771825885E+02  0.11121960233E+04  0.89616408505E+03 0.  0.
         23    2    4    4    0    0 -0.12994888888E+03  0.10484627835E+02 -0.41448895346E+03  0.44321500827E+03  0.87417446050E+02 0.  0.
         23    2    4    4    0    0 -0.49249885192E+03  0.20398510932E+03  0.39371712758E+03  0.66898101504E+03  0.91418695938E+02 0.  0.
          2    1    3    3  502    0  0.56324027660E+03 -0.21568560795E+03 -0.53750871100E+03  0.80788334868E+03  0.00000000000E+00 0. -1.
         -1    1    3    3    0  502  0.59207464190E+02  0.12158707923E+01 -0.66485812575E+02  0.89035753669E+02  0.00000000000E+00 0.  1.
         11    1    5    5    0    0 -0.19859351965E+02 -0.22825637186E+02 -0.33029224321E+02  0.44792111277E+02  0.00000000000E+00 0. -1.
        -11    1    5    5    0    0 -0.11008953691E+03  0.33310265021E+02 -0.38145972914E+03  0.39842289699E+03  0.00000000000E+00 0.  1.
          1    1    6    6  503    0 -0.12782810692E+03  0.11179790147E+02  0.96639764000E+02  0.16063703375E+03  0.00000000000E+00 0. -1.
         -1    1    6    6    0  503 -0.36467074500E+03  0.19280531918E+03  0.29707736358E+03  0.50834398129E+03  0.00000000000E+00 0.  1.
<mgrwt>
<rscale>  0 0.19095053E+04</rscale>
<asrwt>0</asrwt>
<pdfrwt beam="1">  1        2 0.20260626E+00 0.19095053E+04</pdfrwt>
<pdfrwt beam="2">  1       -1 0.10648837E+00 0.19095053E+04</pdfrwt>
<totfact> 0.14202149E+01</totfact>
</mgrwt>
</event>
<event>
12    6  0.8914180E-008  0.3788749E+04  0.7818608E-02  0.8048574E-01
         -1   -1    0    0    0  501 -0.00000000000E+00  0.00000000000E+00  0.17344310896E+04  0.17344310896E+04  0.00000000000E+00 0.  1.
          2   -1    0    0  501    0  0.00000000000E+00 -0.00000000000E+00 -0.20690676912E+04  0.20690676912E+04  0.00000000000E+00 0. -1.
         24    2    1    2    0    0  0.10354100079E+04 -0.14556773365E+04 -0.21362648930E+03  0.18008623857E+04  0.79991643452E+02 0.  0.
        254    2    1    2    0    0 -0.10354100079E+04  0.14556773365E+04 -0.12101011230E+03  0.20026363950E+04  0.89712802366E+03 0.  0.
         23    2    4    4    0    0 -0.27860215971E+03  0.19386530887E+03 -0.36723124347E+03  0.50786606207E+03  0.88691766495E+02 0.  0.
         23    2    4    4    0    0 -0.75680784815E+03  0.12618120276E+04  0.24622113117E+03  0.14947703329E+04  0.93732548233E+02 0.  0.
          4    1    3    3  502    0  0.50604208587E+03 -0.78019221652E+03 -0.11414117948E+03  0.93691338781E+03  0.00000000000E+00 0. -1.
         -3    1    3    3    0  502  0.52936792200E+03 -0.67548511999E+03 -0.99485309825E+02  0.86394899794E+03  0.00000000000E+00 0.  1.
         11    1    5    5    0    0 -0.25993790940E+03  0.16389455016E+03 -0.35713895526E+03  0.47114474811E+03  0.00000000000E+00 0. -1.
        -11    1    5    5    0    0 -0.18664250315E+02  0.29970758710E+02 -0.10092288217E+02  0.36721313960E+02  0.00000000000E+00 0.  1.
          1    1    6    6  503    0 -0.62187960452E+03  0.98007363730E+03  0.21902558897E+03  0.11812073424E+04  0.00000000000E+00 0. -1.
         -1    1    6    6    0  503 -0.13492824363E+03  0.28173839034E+03  0.27195542196E+02  0.31356299054E+03  0.00000000000E+00 0.  1.
<mgrwt>
<rscale>  0 0.37887493E+04</rscale>
<asrwt>0</asrwt>
<pdfrwt beam="1">  1        2 0.31831811E+00 0.37887493E+04</pdfrwt>
<pdfrwt beam="2">  1       -1 0.26683555E+00 0.37887493E+04</pdfrwt>
<totfact> 0.30236643E-01</totfact>
</mgrwt>
</event>
<event>
12    6  0.8914180E-008  0.1940277E+04  0.7818608E-02  0.8635064E-01
         -1   -1    0    0    0  501 -0.00000000000E+00  0.00000000000E+00  0.11039882395E+04  0.11039882395E+04  0.00000000000E+00 0.  1.
          2   -1    0    0  501    0  0.00000000000E+00 -0.00000000000E+00 -0.85251674006E+03  0.85251674006E+03  0.00000000000E+00 0. -1.
         24    2    1    2    0    0 -0.22515800058E+03  0.36792817849E+03  0.73165993508E+03  0.85312957950E+03  0.80228106421E+02 0.  0.
        254    2    1    2    0    0  0.22515800058E+03 -0.36792817849E+03 -0.48018843562E+03  0.11033754001E+04  0.89486818586E+03 0.  0.
         23    2    4    4    0    0  0.11148168656E+02 -0.77966455102E+02 -0.67363258911E+03  0.68351311816E+03  0.84889739050E+02 0.  0.
         23    2    4    4    0    0  0.21400983192E+03 -0.28996172338E+03  0.19344415349E+03  0.41986228193E+03  0.94792858783E+02 0.  0.
          2    1    3    3  502    0 -0.16506951561E+03  0.27505761525E+03  0.60638813945E+03  0.68601108764E+03  0.00000000000E+00 0. -1.
         -1    1    3    3    0  502 -0.60088484966E+02  0.92870563238E+02  0.12527179563E+03  0.16711849186E+03  0.00000000000E+00 0.  1.
         11    1    5    5    0    0 -0.25375768741E+02 -0.73786852257E+02 -0.41376052317E+03  0.42105367797E+03  0.00000000000E+00 0.  1.
        -11    1    5    5    0    0  0.36523937397E+02 -0.41796028450E+01 -0.25987206595E+03  0.26245944019E+03  0.00000000000E+00 0. -1.
          3    1    6    6  503    0  0.70918124946E+02 -0.95384352431E+02  0.15506505265E+02  0.11986662104E+03  0.00000000000E+00 0. -1.
         -3    1    6    6    0  503  0.14309170698E+03 -0.19457737095E+03  0.17793764823E+03  0.29999566088E+03  0.00000000000E+00 0.  1.
<mgrwt>
<rscale>  0 0.19402767E+04</rscale>
<asrwt>0</asrwt>
<pdfrwt beam="1">  1        2 0.13115642E+00 0.19402767E+04</pdfrwt>
<pdfrwt beam="2">  1       -1 0.16984434E+00 0.19402767E+04</pdfrwt>
<totfact> 0.83081833E+00</totfact>
</mgrwt>
</event>
<event>
12    6  0.8914180E-008  0.2771576E+04  0.7818608E-02  0.8312148E-01
          2   -1    0    0  501    0  0.00000000000E+00  0.00000000000E+00  0.24546391114E+04  0.24546391114E+04  0.00000000000E+00 0. -1.
         -1   -1    0    0    0  501 -0.00000000000E+00 -0.00000000000E+00 -0.78235853785E+03  0.78235853785E+03  0.00000000000E+00 0.  1.
         24    2    1    2    0    0 -0.73152238637E+03  0.99712175364E+03  0.87715782602E+03  0.15173537620E+04  0.59831380482E+02 0.  0.
        254    2    1    2    0    0  0.73152238637E+03 -0.99712175364E+03  0.79512274757E+03  0.17196438873E+04  0.89195186076E+03 0.  0.
         23    2    4    4    0    0 -0.17609704952E+03 -0.35805535470E+03  0.23354282105E+03  0.47233392499E+03  0.96660641225E+02 0.  0.
         23    2    4    4    0    0  0.90761943588E+03 -0.63906639894E+03  0.56157992652E+03  0.12473099623E+04  0.90726101091E+02 0.  0.
          2    1    3    3  502    0 -0.24110279777E+03  0.33900272083E+03  0.26153944850E+03  0.49138201732E+03  0.00000000000E+00 0. -1.
         -1    1    3    3    0  502 -0.49041958859E+03  0.65811903281E+03  0.61561837751E+03  0.10259717447E+04  0.00000000000E+00 0.  1.
         11    1    5    5    0    0  0.73225652125E+01 -0.51842696133E+02  0.42781913856E+02  0.67613439912E+02  0.00000000000E+00 0. -1.
        -11    1    5    5    0    0 -0.18341961473E+03 -0.30621265856E+03  0.19076090719E+03  0.40472048508E+03  0.00000000000E+00 0.  1.
          2    1    6    6  503    0  0.24215459219E+03 -0.21023560773E+03  0.13402046053E+03  0.34756199607E+03  0.00000000000E+00 0. -1.
         -2    1    6    6    0  503  0.66546484369E+03 -0.42883079122E+03  0.42755946600E+03  0.89974796618E+03  0.00000000000E+00 0.  1.
<mgrwt>
<rscale>  0 0.27715756E+04</rscale>
<asrwt>0</asrwt>
<pdfrwt beam="1">  1        2 0.37763678E+00 0.27715756E+04</pdfrwt>
<pdfrwt beam="2">  1       -1 0.12036285E+00 0.27715756E+04</pdfrwt>
<totfact> 0.22528893E+00</totfact>
</mgrwt>
</event>
<event>
12    6  0.8914180E-008  0.2794181E+04  0.7818608E-02  0.8305077E-01
          2   -1    0    0  501    0  0.00000000000E+00  0.00000000000E+00  0.21144241063E+04  0.21144241063E+04  0.00000000000E+00 0. -1.
         -3   -1    0    0    0  501 -0.00000000000E+00 -0.00000000000E+00 -0.92311724107E+03  0.92311724107E+03  0.00000000000E+00 0.  1.
         24    2    1    2    0    0  0.70613475759E+03  0.13979849360E+03 -0.57661225052E+03  0.92607138491E+03  0.83406281556E+02 0.  0.
        254    2    1    2    0    0 -0.70613475759E+03 -0.13979849360E+03  0.17679191158E+04  0.21114699625E+04  0.90255054589E+03 0.  0.
         23    2    4    4    0    0 -0.85405000485E+03 -0.30278172100E+03  0.14799220922E+04  0.17378573386E+04  0.94342721523E+02 0.  0.
         23    2    4    4    0    0  0.14791524726E+03  0.16298322739E+03  0.28799702359E+03  0.37361262387E+03  0.90562985465E+02 0.  0.
          2    1    3    3  502    0  0.81898043320E+02 -0.10331127174E+02 -0.69909497061E+02  0.10817282222E+03  0.00000000000E+00 0. -1.
         -1    1    3    3    0  502  0.62423671427E+03  0.15012962078E+03 -0.50670275346E+03  0.81789856268E+03  0.00000000000E+00 0.  1.
         11    1    5    5    0    0 -0.10509005134E+03 -0.58201274308E+02  0.24746455951E+03  0.27508183407E+03  0.00000000000E+00 0. -1.
        -11    1    5    5    0    0 -0.74895995351E+03 -0.24458044669E+03  0.12324575327E+04  0.14627755046E+04  0.00000000000E+00 0.  1.
          4    1    6    6  503    0 -0.12638297719E+02  0.15254820885E+02  0.25082048462E+02  0.31961622057E+02  0.00000000000E+00 0. -1.
         -4    1    6    6    0  503  0.16055354497E+03  0.14772840651E+03  0.26291497512E+03  0.34165100181E+03  0.00000000000E+00 0.  1.
<mgrwt>
<rscale>  0 0.27941806E+04</rscale>
<asrwt>0</asrwt>
<pdfrwt beam="1">  1        2 0.32529602E+00 0.27941806E+04</pdfrwt>
<pdfrwt beam="2">  1       -3 0.14201804E+00 0.27941806E+04</pdfrwt>
<totfact> 0.11851298E+00</totfact>
</mgrwt>
</event>
<event>
12    6  0.8914180E-008  0.1542120E+04  0.7818608E-02  0.8856917E-01
         -1   -1    0    0    0  501 -0.00000000000E+00  0.00000000000E+00  0.41681370817E+03  0.41681370817E+03  0.00000000000E+00 0.  1.
          2   -1    0    0  501    0  0.00000000000E+00 -0.00000000000E+00 -0.14263762994E+04  0.14263762994E+04  0.00000000000E+00 0. -1.
         24    2    1    2    0    0  0.20309507157E+03  0.30074845280E+03  0.85331678735E+02  0.38096466704E+03  0.78455988800E+02 0.  0.
        254    2    1    2    0    0 -0.20309507157E+03 -0.30074845280E+03 -0.10948942700E+04  0.14622253405E+04  0.89867248991E+03 0.  0.
         23    2    4    4    0    0 -0.36241888555E+03 -0.22119624059E+03 -0.99124979514E+02  0.44659867687E+03  0.96692249782E+02 0.  0.
         23    2    4    4    0    0  0.15932381397E+03 -0.79552212208E+02 -0.99576929045E+03  0.10156266637E+04  0.90710572510E+02 0.  0.
          2    1    3    3  502    0  0.53765731000E+02  0.12082522493E+03  0.61765346452E+02  0.14596042899E+03  0.00000000000E+00 0. -1.
         -1    1    3    3    0  502  0.14932934057E+03  0.17992322787E+03  0.23566332283E+02  0.23500423805E+03  0.00000000000E+00 0.  1.
         11    1    5    5    0    0 -0.11298661692E+03 -0.12242603631E+03 -0.49279516138E+02  0.17373134628E+03  0.00000000000E+00 0.  1.
        -11    1    5    5    0    0 -0.24943226863E+03 -0.98770204283E+02 -0.49845463376E+02  0.27286733059E+03  0.00000000000E+00 0. -1.
          1    1    6    6  503    0  0.13627374023E+03 -0.78478630391E+02 -0.63728493616E+03  0.65640042471E+03  0.00000000000E+00 0. -1.
         -1    1    6    6    0  503  0.23050073740E+02 -0.10735818167E+01 -0.35848435428E+03  0.35922623894E+03  0.00000000000E+00 0.  1.
<mgrwt>
<rscale>  0 0.15421196E+04</rscale>
<asrwt>0</asrwt>
<pdfrwt beam="1">  1        2 0.21944251E+00 0.15421196E+04</pdfrwt>
<pdfrwt beam="2">  1       -1 0.64125186E-01 0.15421196E+04</pdfrwt>
<totfact> 0.37833849E+01</totfact>
</mgrwt>
</event>
<event>
12    6  0.8914180E-008  0.1787382E+04  0.7818608E-02  0.8713038E-01
         -1   -1    0    0    0  501 -0.00000000000E+00  0.00000000000E+00  0.33336227529E+03  0.33336227529E+03  0.00000000000E+00 0.  1.
          2   -1    0    0  501    0  0.00000000000E+00 -0.00000000000E+00 -0.23958428748E+04  0.23958428748E+04  0.00000000000E+00 0. -1.
         24    2    1    2    0    0  0.14458196777E+03  0.51601003294E+03 -0.13518516365E+04  0.14564319234E+04  0.80751475343E+02 0.  0.
        254    2    1    2    0    0 -0.14458196777E+03 -0.51601003294E+03 -0.71062896299E+03  0.12727732267E+04  0.90982848060E+03 0.  0.
         23    2    4    4    0    0 -0.15914531660E+03 -0.44899305378E+02  0.17967356461E+03  0.26141680795E+03  0.93343335268E+02 0.  0.
         23    2    4    4    0    0  0.14563348837E+02 -0.47111072757E+03 -0.89030252760E+03  0.10113564188E+04  0.89698419138E+02 0.  0.
          2    1    3    3  502    0  0.15292391463E+03  0.50429516410E+03 -0.13254982702E+04  0.14264098291E+04  0.00000000000E+00 0. -1.
         -1    1    3    3    0  502 -0.83419468605E+01  0.11714868849E+02 -0.26353366313E+02  0.30022094291E+02  0.00000000000E+00 0.  1.
         11    1    5    5    0    0 -0.47078731985E+02 -0.33311140240E+02  0.11209336529E+02  0.58751070584E+02  0.00000000000E+00 0. -1.
        -11    1    5    5    0    0 -0.11206658462E+03 -0.11588165138E+02  0.16846422808E+03  0.20266573736E+03  0.00000000000E+00 0.  1.
          1    1    6    6  503    0  0.31159290982E+02 -0.65119403684E+02 -0.16239198497E+03  0.17771492602E+03  0.00000000000E+00 0. -1.
         -1    1    6    6    0  503 -0.16595942145E+02 -0.40599132388E+03 -0.72791054263E+03  0.83364149275E+03  0.00000000000E+00 0.  1.
<mgrwt>
<rscale>  0 0.17873820E+04</rscale>
<asrwt>0</asrwt>
<pdfrwt beam="1">  1        2 0.36859122E+00 0.17873820E+04</pdfrwt>
<pdfrwt beam="2">  1       -1 0.51286503E-01 0.17873820E+04</pdfrwt>
<totfact> 0.16460800E+01</totfact>
</mgrwt>
</event>
<event>
12    6  0.8914180E-008  0.2691873E+04  0.7818608E-02  0.8337647E-01
          2   -1    0    0  501    0  0.00000000000E+00  0.00000000000E+00  0.14013299781E+04  0.14013299781E+04  0.00000000000E+00 0. -1.
         -1   -1    0    0    0  501 -0.00000000000E+00 -0.00000000000E+00 -0.12927330883E+04  0.12927330883E+04  0.00000000000E+00 0.  1.
         24    2    1    2    0    0 -0.10918564077E+04 -0.39056761025E+03 -0.21968676042E+03  0.11831266194E+04  0.82661064950E+02 0.  0.
        254    2    1    2    0    0  0.10918564077E+04  0.39056761025E+03  0.32828365018E+03  0.15109364469E+04  0.91129869886E+03 0.  0.
         23    2    4    4    0    0  0.10182966282E+04 -0.43987027546E+02  0.24790144439E+03  0.10539034826E+04  0.10195363197E+03 0.  0.
         23    2    4    4    0    0  0.73559779512E+02  0.43455463780E+03  0.80382205787E+02  0.45703296429E+03  0.90382836044E+02 0.  0.
          4    1    3    3  502    0 -0.59243758148E+02 -0.30212572298E+02  0.46740528892E+01  0.66666852144E+02  0.00000000000E+00 0. -1.
         -3    1    3    3    0  502 -0.10326126495E+04 -0.36035503795E+03 -0.22436081331E+03  0.11164597673E+04  0.00000000000E+00 0.  1.
         11    1    5    5    0    0  0.96483284970E+03 -0.63270483816E+02  0.22578684887E+03  0.99291756109E+03  0.00000000000E+00 0. -1.
        -11    1    5    5    0    0  0.53463778464E+02  0.19283456270E+02  0.22114595525E+02  0.60985921561E+02  0.00000000000E+00 0.  1.
          1    1    6    6  503    0  0.72184595465E+02  0.41084573814E+03  0.52534720213E+02  0.42043398197E+03  0.00000000000E+00 0. -1.
         -1    1    6    6    0  503  0.13751840472E+01  0.23708899657E+02  0.27847485574E+02  0.36598982320E+02  0.00000000000E+00 0.  1.
<mgrwt>
<rscale>  0 0.26918734E+04</rscale>
<asrwt>0</asrwt>
<pdfrwt beam="1">  1        2 0.21558923E+00 0.26918734E+04</pdfrwt>
<pdfrwt beam="2">  1       -1 0.19888201E+00 0.26918734E+04</pdfrwt>
<totfact> 0.22130905E+00</totfact>
</mgrwt>
</event>
<event>
12    6  0.8914180E-008  0.1503675E+04  0.7818608E-02  0.8882013E-01
          2   -1    0    0  501    0  0.00000000000E+00  0.00000000000E+00  0.28850357263E+04  0.28850357263E+04  0.00000000000E+00 0. -1.
         -1   -1    0    0    0  501 -0.00000000000E+00 -0.00000000000E+00 -0.19592821569E+03  0.19592821569E+03  0.00000000000E+00 0.  1.
         24    2    1    2    0    0  0.39187707195E+03  0.80079073333E+02  0.28106768963E+03  0.49522799855E+03  0.79192341114E+02 0.  0.
        254    2    1    2    0    0 -0.39187707195E+03 -0.80079073333E+02  0.24080398210E+04  0.25857359435E+04  0.85287413624E+03 0.  0.
         23    2    4    4    0    0 -0.23346581598E+03 -0.43672193819E+03  0.96917355653E+03  0.10922732660E+04  0.92364312933E+02 0.  0.
         23    2    4    4    0    0 -0.15841125597E+03  0.35664286485E+03  0.14388662645E+04  0.14934626775E+04  0.88353738012E+02 0.  0.
          2    1    3    3  502    0  0.41110234582E+02  0.16084430357E+02  0.64151609529E+02  0.77872904739E+02  0.00000000000E+00 0. -1.
         -1    1    3    3    0  502  0.35076683736E+03  0.63994642976E+02  0.21691608010E+03  0.41735509381E+03  0.00000000000E+00 0.  1.
         11    1    5    5    0    0 -0.10014846252E+03 -0.25111509684E+03  0.44888811980E+03  0.52401245262E+03  0.00000000000E+00 0.  1.
        -11    1    5    5    0    0 -0.13331735346E+03 -0.18560684135E+03  0.52028543674E+03  0.56826081334E+03  0.00000000000E+00 0. -1.
          4    1    6    6  503    0 -0.15564414238E+03  0.35492359587E+03  0.14389277941E+04  0.14902043667E+04  0.00000000000E+00 0. -1.
         -4    1    6    6    0  503 -0.27671135838E+01  0.17192689793E+01 -0.61529612499E-01  0.32583108050E+01  0.00000000000E+00 0.  1.
<mgrwt>
<rscale>  0 0.15036754E+04</rscale>
<asrwt>0</asrwt>
<pdfrwt beam="1">  1        2 0.44385162E+00 0.15036754E+04</pdfrwt>
<pdfrwt beam="2">  1       -1 0.30142804E-01 0.15036754E+04</pdfrwt>
<totfact> 0.22979772E+01</totfact>
</mgrwt>
</event>
<event>
12    6  0.8914180E-008  0.1270412E+04  0.7818608E-02  0.9053364E-01
         -1   -1    0    0    0  501 -0.00000000000E+00  0.00000000000E+00  0.24899077781E+03  0.24899077781E+03  0.00000000000E+00 0.  1.
          2   -1    0    0  501    0  0.00000000000E+00 -0.00000000000E+00 -0.16204875596E+04  0.16204875596E+04  0.00000000000E+00 0. -1.
         24    2    1    2    0    0  0.75475592508E+02  0.29678614127E+03 -0.35716930351E+03  0.47725168612E+03  0.80129157112E+02 0.  0.
        254    2    1    2    0    0 -0.75475592508E+02 -0.29678614127E+03 -0.10143274783E+04  0.13922266513E+04  0.90313688701E+03 0.  0.
         23    2    4    4    0    0 -0.41243988095E+03 -0.35324113024E+03 -0.82339063777E+03  0.99040349091E+03  0.89671516902E+02 0.  0.
         23    2    4    4    0    0  0.33696428844E+03  0.56454988977E+02 -0.19093684054E+03  0.40182316041E+03  0.90955361072E+02 0.  0.
          2    1    3    3  502    0  0.82263311844E+02  0.29411244358E+03 -0.33224992258E+03  0.45128637581E+03  0.00000000000E+00 0. -1.
         -1    1    3    3    0  502 -0.67877193355E+01  0.26736976898E+01 -0.24919380931E+02  0.25965310302E+02  0.00000000000E+00 0.  1.
         11    1    5    5    0    0 -0.32386747750E+03 -0.27944799465E+03 -0.70867072176E+03  0.82776537531E+03  0.00000000000E+00 0. -1.
        -11    1    5    5    0    0 -0.88572403450E+02 -0.73793135596E+02 -0.11471991602E+03  0.16263811560E+03  0.00000000000E+00 0.  1.
          1    1    6    6  503    0  0.20453593611E+03  0.11020363902E+02 -0.68941812047E+02  0.21612350874E+03  0.00000000000E+00 0. -1.
         -1    1    6    6    0  503  0.13242835233E+03  0.45434625075E+02 -0.12199502849E+03  0.18569965167E+03  0.00000000000E+00 0.  1.
<mgrwt>
<rscale>  0 0.12704117E+04</rscale>
<asrwt>0</asrwt>
<pdfrwt beam="1">  1        2 0.24930579E+00 0.12704117E+04</pdfrwt>
<pdfrwt beam="2">  1       -1 0.38306272E-01 0.12704117E+04</pdfrwt>
<totfact> 0.80094823E+01</totfact>
</mgrwt>
</event>
<event>
12    6  0.8914180E-008  0.2214753E+04  0.7818608E-02  0.8512312E-01
         -3   -1    0    0    0  501 -0.00000000000E+00  0.00000000000E+00  0.76424710407E+03  0.76424710407E+03  0.00000000000E+00 0.  1.
          2   -1    0    0  501    0  0.00000000000E+00 -0.00000000000E+00 -0.16045637920E+04  0.16045637920E+04  0.00000000000E+00 0. -1.
         24    2    1    2    0    0  0.26521539498E+03  0.29948468938E+03  0.53261560901E+03  0.67137651572E+03  0.83885362207E+02 0.  0.
        254    2    1    2    0    0 -0.26521539498E+03 -0.29948468938E+03 -0.13729322969E+04  0.16974343803E+04  0.91449991727E+03 0.  0.
         23    2    4    4    0    0 -0.35184053986E+03 -0.49789586356E+03 -0.50101394766E+03  0.79427525637E+03  0.90366756540E+02 0.  0.
         23    2    4    4    0    0  0.86625144874E+02  0.19841117418E+03 -0.87191834925E+03  0.90315912395E+03  0.92649261506E+02 0.  0.
          4    1    3    3  502    0  0.85158969960E+02  0.15545133326E+03  0.20941817923E+03  0.27435951044E+03  0.00000000000E+00 0. -1.
         -3    1    3    3    0  502  0.18005642502E+03  0.14403335613E+03  0.32319742978E+03  0.39701700528E+03  0.00000000000E+00 0.  1.
         11    1    5    5    0    0 -0.23786998481E+03 -0.29797033922E+03 -0.36002332654E+03  0.52439035878E+03  0.00000000000E+00 0. -1.
        -11    1    5    5    0    0 -0.11397055505E+03 -0.19992552435E+03 -0.14099062112E+03  0.26988489759E+03  0.00000000000E+00 0.  1.
          4    1    6    6  503    0  0.93666831583E+02  0.16880289880E+03 -0.82461762203E+03  0.84691328750E+03  0.00000000000E+00 0. -1.
         -4    1    6    6    0  503 -0.70416867086E+01  0.29608275380E+02 -0.47300727214E+02  0.56245836447E+02  0.00000000000E+00 0.  1.
<mgrwt>
<rscale>  0 0.22147535E+04</rscale>
<asrwt>0</asrwt>
<pdfrwt beam="1">  1        2 0.24685597E+00 0.22147535E+04</pdfrwt>
<pdfrwt beam="2">  1       -3 0.11757648E+00 0.22147535E+04</pdfrwt>
<totfact> 0.38229694E+00</totfact>
</mgrwt>
</event>
<event>
12    6  0.8914180E-008  0.2974596E+04  0.7818608E-02  0.8251023E-01
          2   -1    0    0  501    0  0.00000000000E+00  0.00000000000E+00  0.38686122127E+04  0.38686122127E+04  0.00000000000E+00 0. -1.
         -1   -1    0    0    0  501 -0.00000000000E+00 -0.00000000000E+00 -0.57179548542E+03  0.57179548542E+03  0.00000000000E+00 0.  1.
         24    2    1    2    0    0  0.25880347583E+03 -0.13126820489E+04  0.12604671302E+04  0.18398440399E+04  0.78328181681E+02 0.  0.
        254    2    1    2    0    0 -0.25880347583E+03  0.13126820489E+04  0.20363495971E+04  0.26005636582E+04  0.90889947652E+03 0.  0.
         23    2    4    4    0    0 -0.17676654446E+03  0.24513713541E+03  0.11947983654E+04  0.12356906956E+04  0.89720314040E+02 0.  0.
         23    2    4    4    0    0 -0.82036931373E+02  0.10675449135E+04  0.84155123165E+03  0.13648729627E+04  0.91035862293E+02 0.  0.
          4    1    3    3  502    0  0.12086928642E+03 -0.44014171192E+03  0.40744501513E+03  0.61183784725E+03  0.00000000000E+00 0. -1.
         -3    1    3    3    0  502  0.13793418941E+03 -0.87254033700E+03  0.85302211505E+03  0.12280061926E+04  0.00000000000E+00 0.  1.
         11    1    5    5    0    0 -0.75524235547E+02  0.70557361524E+02  0.26947988973E+03  0.28862027370E+03  0.00000000000E+00 0. -1.
        -11    1    5    5    0    0 -0.10124230891E+03  0.17457977389E+03  0.92531847570E+03  0.94707042190E+03  0.00000000000E+00 0.  1.
          4    1    6    6  503    0 -0.48587297441E+02  0.93127159180E+03  0.70458741691E+03  0.11687903710E+04  0.00000000000E+00 0. -1.
         -4    1    6    6    0  503 -0.33449633932E+02  0.13627332171E+03  0.13696381474E+03  0.19608259170E+03  0.00000000000E+00 0.  1.
<mgrwt>
<rscale>  0 0.29745958E+04</rscale>
<asrwt>0</asrwt>
<pdfrwt beam="1">  1        2 0.59517109E+00 0.29745958E+04</pdfrwt>
<pdfrwt beam="2">  1       -1 0.87968539E-01 0.29745958E+04</pdfrwt>
<totfact> 0.53811826E-01</totfact>
</mgrwt>
</event>
<event>
12    6  0.8914180E-008  0.1222359E+04  0.7818608E-02  0.9093508E-01
          2   -1    0    0  501    0  0.00000000000E+00  0.00000000000E+00  0.66020825703E+03  0.66020825703E+03  0.00000000000E+00 0. -1.
         -1   -1    0    0    0  501 -0.00000000000E+00 -0.00000000000E+00 -0.56579194616E+03  0.56579194616E+03  0.00000000000E+00 0.  1.
         24    2    1    2    0    0 -0.19257439755E+03  0.15687319239E+03  0.11479428967E+03  0.28474145426E+03  0.78777342885E+02 0.  0.
        254    2    1    2    0    0  0.19257439755E+03 -0.15687319239E+03 -0.20377978794E+02  0.94125874892E+03  0.90766660913E+03 0.  0.
         23    2    4    4    0    0 -0.30924670713E+03  0.13898466730E+03 -0.23735108654E+02  0.35166246916E+03  0.90293262316E+02 0.  0.
         23    2    4    4    0    0  0.50182110468E+03 -0.29585785969E+03  0.33571298593E+01  0.58959627976E+03  0.90863681102E+02 0.  0.
          2    1    3    3  502    0 -0.15507134098E+03  0.15718946628E+03  0.84109352945E+02  0.23628379622E+03  0.00000000000E+00 0. -1.
         -1    1    3    3    0  502 -0.37503056572E+02 -0.31627388880E+00  0.30684936724E+02  0.48457658044E+02  0.00000000000E+00 0.  1.
         11    1    5    5    0    0 -0.19987455564E+03  0.45161823049E+02 -0.31657485599E+02  0.20734421778E+03  0.00000000000E+00 0. -1.
        -11    1    5    5    0    0 -0.10937215149E+03  0.93822844251E+02  0.79223769457E+01  0.14431825138E+03  0.00000000000E+00 0.  1.
          2    1    6    6  503    0  0.68332878031E+02 -0.15098078965E+02  0.20254068868E+02  0.72853013075E+02  0.00000000000E+00 0. -1.
         -2    1    6    6    0  503  0.43348822665E+03 -0.28075978073E+03 -0.16896939009E+02  0.51674326669E+03  0.00000000000E+00 0.  1.
<mgrwt>
<rscale>  0 0.12223592E+04</rscale>
<asrwt>0</asrwt>
<pdfrwt beam="1">  1        2 0.10157050E+00 0.12223592E+04</pdfrwt>
<pdfrwt beam="2">  1       -1 0.87044916E-01 0.12223592E+04</pdfrwt>
<totfact> 0.64566681E+01</totfact>
</mgrwt>
</event>
<event>
12    6  0.8914180E-008  0.1265387E+04  0.7818608E-02  0.9057473E-01
         -1   -1    0    0    0  501 -0.00000000000E+00  0.00000000000E+00  0.16469661451E+04  0.16469661451E+04  0.00000000000E+00 0.  1.
          2   -1    0    0  501    0  0.00000000000E+00 -0.00000000000E+00 -0.24305378591E+03  0.24305378591E+03  0.00000000000E+00 0. -1.
         24    2    1    2    0    0  0.24484216498E+03 -0.16805826494E+03  0.27464327352E+03  0.41230030258E+03  0.79820709403E+02 0.  0.
        254    2    1    2    0    0 -0.24484216498E+03  0.16805826494E+03  0.11292690857E+04  0.14777196285E+04  0.90565742214E+03 0.  0.
         23    2    4    4    0    0 -0.48913680593E+03 -0.39939303424E+02  0.10042657028E+04  0.11213261124E+04  0.89289896841E+02 0.  0.
         23    2    4    4    0    0  0.24429464095E+03  0.20799756837E+03  0.12500338290E+03  0.35639351606E+03  0.91911003219E+02 0.  0.
          2    1    3    3  502    0  0.82119626342E+02 -0.45560353494E+02  0.13840782929E+03  0.16726059324E+03  0.00000000000E+00 0. -1.
         -1    1    3    3    0  502  0.16272253864E+03 -0.12249791145E+03  0.13623544423E+03  0.24503970934E+03  0.00000000000E+00 0.  1.
         11    1    5    5    0    0 -0.31621151772E+03 -0.68293028146E+02  0.66122395534E+03  0.73611872735E+03  0.00000000000E+00 0. -1.
        -11    1    5    5    0    0 -0.17292528821E+03  0.28353724722E+02  0.34304174745E+03  0.38520738506E+03  0.00000000000E+00 0.  1.
          4    1    6    6  503    0  0.24230946949E+03  0.17286169653E+03  0.11964574866E+03  0.32079611952E+03  0.00000000000E+00 0. -1.
         -4    1    6    6    0  503  0.19851714591E+01  0.35135871841E+02  0.53576342467E+01  0.35597396540E+02  0.00000000000E+00 0.  1.
<mgrwt>
<rscale>  0 0.12653875E+04</rscale>
<asrwt>0</asrwt>
<pdfrwt beam="1">  1        2 0.37392891E-01 0.12653875E+04</pdfrwt>
<pdfrwt beam="2">  1       -1 0.25337940E+00 0.12653875E+04</pdfrwt>
<totfact> 0.10389206E+01</totfact>
</mgrwt>
</event>
<event>
12    6  0.8914180E-008  0.2218414E+04  0.7818608E-02  0.8510803E-01
          2   -1    0    0  501    0  0.00000000000E+00  0.00000000000E+00  0.18802944887E+04  0.18802944887E+04  0.00000000000E+00 0. -1.
         -1   -1    0    0    0  501 -0.00000000000E+00 -0.00000000000E+00 -0.65433362091E+03  0.65433362091E+03  0.00000000000E+00 0.  1.
         24    2    1    2    0    0  0.40862978939E+03 -0.64823273915E+03 -0.78376280899E+02  0.77433424456E+03  0.79162440606E+02 0.  0.
        254    2    1    2    0    0 -0.40862978939E+03  0.64823273915E+03  0.13043371487E+04  0.17602938651E+04  0.90008616535E+03 0.  0.
         23    2    4    4    0    0 -0.46572903258E+03  0.18605709330E+03  0.18103455379E+03  0.54102937276E+03  0.91752377427E+02 0.  0.
         23    2    4    4    0    0  0.57099243196E+02  0.46217564585E+03  0.11233025949E+04  0.12192644923E+04  0.89053530469E+02 0.  0.
          2    1    3    3  502    0  0.24488750726E+02 -0.67810847255E+02 -0.24818882580E+02  0.76249503933E+02  0.00000000000E+00 0. -1.
         -1    1    3    3    0  502  0.38414103866E+03 -0.58042189190E+03 -0.53557398320E+02  0.69808474062E+03  0.00000000000E+00 0.  1.
         11    1    5    5    0    0 -0.18006067151E+03  0.89914450253E+02  0.28667849255E+02  0.20329362845E+03  0.00000000000E+00 0.  1.
        -11    1    5    5    0    0 -0.28566836108E+03  0.96142643052E+02  0.15236670454E+03  0.33773574431E+03  0.00000000000E+00 0. -1.
          4    1    6    6  503    0  0.74727321787E+02  0.41218097724E+03  0.95561353872E+03  0.10433956900E+04  0.00000000000E+00 0. -1.
         -4    1    6    6    0  503 -0.17628078591E+02  0.49994668605E+02  0.16768905621E+03  0.17586880228E+03  0.00000000000E+00 0.  1.
<mgrwt>
<rscale>  0 0.22184138E+04</rscale>
<asrwt>0</asrwt>
<pdfrwt beam="1">  1        2 0.28927607E+00 0.22184138E+04</pdfrwt>
<pdfrwt beam="2">  1       -1 0.10066671E+00 0.22184138E+04</pdfrwt>
<totfact> 0.75941271E+00</totfact>
</mgrwt>
</event>
<event>
12    6  0.8914180E-008  0.1807628E+04  0.7818608E-02  0.8702254E-01
         -1   -1    0    0    0  501 -0.00000000000E+00  0.00000000000E+00  0.42103719774E+03  0.42103719774E+03  0.00000000000E+00 0.  1.
          2   -1    0    0  501    0  0.00000000000E+00 -0.00000000000E+00 -0.19401600935E+04  0.19401600935E+04  0.00000000000E+00 0. -1.
         24    2    1    2    0    0 -0.81949251198E+02 -0.12439471756E+03 -0.14273433981E+04  0.14371943031E+04  0.77643823440E+02 0.  0.
        254    2    1    2    0    0  0.81949251198E+02  0.12439471756E+03 -0.91779497621E+02  0.92400298807E+03  0.90728623943E+03 0.  0.
         23    2    4    4    0    0  0.10362522865E+02  0.46114541003E+03 -0.25334745660E+03  0.53347395927E+03  0.87447472126E+02 0.  0.
         23    2    4    4    0    0  0.71586728334E+02 -0.33675069247E+03  0.16156795898E+03  0.39052902880E+03  0.88786420215E+02 0.  0.
          4    1    3    3  502    0 -0.61878099242E+02 -0.12302157973E+03 -0.13587824743E+04  0.13657426627E+04  0.00000000000E+00 0. -1.
         -3    1    3    3    0  502 -0.20071151956E+02 -0.13731378280E+01 -0.68560923838E+02  0.71451640470E+02  0.00000000000E+00 0.  1.
         11    1    5    5    0    0  0.18380743950E+02  0.19041404589E+03 -0.59276867689E+02  0.20027258341E+03  0.00000000000E+00 0.  1.
        -11    1    5    5    0    0 -0.80182210852E+01  0.27073136414E+03 -0.19407058891E+03  0.33320137586E+03  0.00000000000E+00 0. -1.
          3    1    6    6  503    0  0.20694636031E+02 -0.46584024174E+02  0.60425562877E+02  0.79054335223E+02  0.00000000000E+00 0. -1.
         -3    1    6    6    0  503  0.50892092303E+02 -0.29016666830E+03  0.10114239610E+03  0.31147469358E+03  0.00000000000E+00 0.  1.
<mgrwt>
<rscale>  0 0.18076278E+04</rscale>
<asrwt>0</asrwt>
<pdfrwt beam="1">  1        2 0.29848617E+00 0.18076278E+04</pdfrwt>
<pdfrwt beam="2">  1       -1 0.64774954E-01 0.18076278E+04</pdfrwt>
<totfact> 0.18729577E+01</totfact>
</mgrwt>
</event>
<event>
12    6  0.8914180E-008  0.1447587E+04  0.7818608E-02  0.8920075E-01
          2   -1    0    0  501    0  0.00000000000E+00  0.00000000000E+00  0.91188614544E+03  0.91188614544E+03  0.00000000000E+00 0. -1.
         -1   -1    0    0    0  501 -0.00000000000E+00 -0.00000000000E+00 -0.57449792614E+03  0.57449792614E+03  0.00000000000E+00 0.  1.
         24    2    1    2    0    0  0.25457225298E+03 -0.35288680133E+03  0.23059487761E+02  0.44312914734E+03  0.80595128274E+02 0.  0.
        254    2    1    2    0    0 -0.25457225298E+03  0.35288680133E+03  0.31432873154E+03  0.10432549242E+04  0.89456255173E+03 0.  0.
         23    2    4    4    0    0  0.29242900672E+03 -0.48553540368E+02  0.91155456725E+02  0.32310101220E+03  0.90624370576E+02 0.  0.
         23    2    4    4    0    0 -0.54700125970E+03  0.40144034170E+03  0.22317327481E+03  0.72015391205E+03  0.91927255948E+02 0.  0.
          2    1    3    3  502    0  0.25485556666E+03 -0.35678800221E+03  0.23956614575E+02  0.43911610965E+03  0.00000000000E+00 0. -1.
         -1    1    3    3    0  502 -0.28331367172E+00  0.39012008783E+01 -0.89712681411E+00  0.40130376836E+01  0.00000000000E+00 0.  1.
         11    1    5    5    0    0  0.27376360450E+03 -0.63651078959E+02  0.98770296754E+02  0.29791532777E+03  0.00000000000E+00 0. -1.
        -11    1    5    5    0    0  0.18665402222E+02  0.15097538591E+02 -0.76148400288E+01  0.25185684432E+02  0.00000000000E+00 0.  1.
          2    1    6    6  503    0 -0.40667589935E+03  0.33209952811E+03  0.14238597594E+03  0.54401208611E+03  0.00000000000E+00 0. -1.
         -2    1    6    6    0  503 -0.14032536035E+03  0.69340813584E+02  0.80787298867E+02  0.17614182594E+03  0.00000000000E+00 0.  1.
<mgrwt>
<rscale>  0 0.14475865E+04</rscale>
<asrwt>0</asrwt>
<pdfrwt beam="1">  1        2 0.14029018E+00 0.14475865E+04</pdfrwt>
<pdfrwt beam="2">  1       -1 0.88384296E-01 0.14475865E+04</pdfrwt>
<totfact> 0.40069512E+01</totfact>
</mgrwt>
</event>
<event>
12    6  0.8914180E-008  0.2507107E+04  0.7818608E-02  0.8400458E-01
          2   -1    0    0  501    0  0.00000000000E+00  0.00000000000E+00  0.28658204328E+04  0.28658204328E+04  0.00000000000E+00 0. -1.
         -1   -1    0    0    0  501 -0.00000000000E+00 -0.00000000000E+00 -0.54832330469E+03  0.54832330469E+03  0.00000000000E+00 0.  1.
         24    2    1    2    0    0  0.10375164737E+04 -0.13096915637E+03  0.58731516298E+03  0.12019176487E+04  0.77933180478E+02 0.  0.
        254    2    1    2    0    0 -0.10375164737E+04  0.13096915637E+03  0.17301819651E+04  0.22122260888E+04  0.89823230978E+03 0.  0.
         23    2    4    4    0    0 -0.74500795461E+03 -0.86799773570E+02  0.16676773987E+04  0.18308919187E+04  0.91903529221E+02 0.  0.
         23    2    4    4    0    0 -0.29250851905E+03  0.21776892994E+03  0.62504566404E+02  0.38133417005E+03  0.92327611593E+02 0.  0.
          2    1    3    3  502    0  0.73869339950E+02 -0.85483548334E+00  0.21732427346E+02  0.77004600685E+02  0.00000000000E+00 0. -1.
         -1    1    3    3    0  502  0.96364713371E+03 -0.13011432089E+03  0.56558273564E+03  0.11249130480E+04  0.00000000000E+00 0.  1.
         11    1    5    5    0    0 -0.42803981703E+03 -0.30452545424E+02  0.85158252272E+03  0.95359227948E+03  0.00000000000E+00 0.  1.
        -11    1    5    5    0    0 -0.31696813758E+03 -0.56347228146E+02  0.81609487600E+03  0.87729963923E+03  0.00000000000E+00 0. -1.
          2    1    6    6  503    0 -0.29293205829E+03  0.19376163716E+03  0.65047215335E+02  0.35718888985E+03  0.00000000000E+00 0. -1.
         -2    1    6    6    0  503  0.42353924370E+00  0.24007292787E+02 -0.25426489312E+01  0.24145280202E+02  0.00000000000E+00 0.  1.
<mgrwt>
<rscale>  0 0.25071068E+04</rscale>
<asrwt>0</asrwt>
<pdfrwt beam="1">  1        2 0.44089544E+00 0.25071068E+04</pdfrwt>
<pdfrwt beam="2">  1       -1 0.84357433E-01 0.25071068E+04</pdfrwt>
<totfact> 0.29748628E+00</totfact>
</mgrwt>
</event>
<event>
12    6  0.8914180E-008  0.2167560E+04  0.7818608E-02  0.8532053E-01
         -1   -1    0    0    0  501 -0.00000000000E+00  0.00000000000E+00  0.46059537415E+03  0.46059537415E+03  0.00000000000E+00 0.  1.
          2   -1    0    0  501    0  0.00000000000E+00 -0.00000000000E+00 -0.25501320189E+04  0.25501320189E+04  0.00000000000E+00 0. -1.
         24    2    1    2    0    0 -0.73040805948E+03 -0.28053659804E+03 -0.41159216056E+03  0.88827964771E+03  0.86231721004E+02 0.  0.
        254    2    1    2    0    0  0.73040805948E+03  0.28053659804E+03 -0.16779444842E+04  0.21224477454E+04  0.10378294771E+04 0.  0.
         23    2    4    4    0    0 -0.18269289465E+03 -0.14615055920E+03 -0.56247447269E+03  0.61608454546E+03  0.91901877068E+02 0.  0.
         23    2    4    4    0    0  0.91310095413E+03  0.42668715724E+03 -0.11154700115E+04  0.15063631999E+04  0.95086596412E+02 0.  0.
          4    1    3    3  502    0 -0.77148053649E+01  0.18571200562E+00  0.39185164951E+01  0.86549108771E+01  0.00000000000E+00 0. -1.
         -3    1    3    3    0  502 -0.72269325412E+03 -0.28072231004E+03 -0.41551067706E+03  0.87962473683E+03  0.00000000000E+00 0.  1.
         11    1    5    5    0    0 -0.88784632041E+02 -0.46070975055E+02 -0.14135083348E+03  0.17316265116E+03  0.00000000000E+00 0.  1.
        -11    1    5    5    0    0 -0.93908262610E+02 -0.10007958415E+03 -0.42112363921E+03  0.44292189430E+03  0.00000000000E+00 0. -1.
          1    1    6    6  503    0  0.74930845520E+03  0.32096686895E+03 -0.85903993857E+03  0.11842434328E+04  0.00000000000E+00 0. -1.
         -1    1    6    6    0  503  0.16379249893E+03  0.10572028829E+03 -0.25643007295E+03  0.32211976713E+03  0.00000000000E+00 0.  1.
<mgrwt>
<rscale>  0 0.21675599E+04</rscale>
<asrwt>0</asrwt>
<pdfrwt beam="1">  1        2 0.39232799E+00 0.21675599E+04</pdfrwt>
<pdfrwt beam="2">  1       -1 0.70860829E-01 0.21675599E+04</pdfrwt>
<totfact> 0.68316896E+00</totfact>
</mgrwt>
</event>
<event>
12    6  0.8914180E-008  0.1566040E+04  0.7818608E-02  0.8841687E-01
          2   -1    0    0  501    0  0.00000000000E+00  0.00000000000E+00  0.95232615745E+03  0.95232615745E+03  0.00000000000E+00 0. -1.
         -1   -1    0    0    0  501 -0.00000000000E+00 -0.00000000000E+00 -0.64381339374E+03  0.64381339374E+03  0.00000000000E+00 0.  1.
         24    2    1    2    0    0  0.50961811785E+03  0.10212584974E+03  0.96931921688E+01  0.52600237498E+03  0.80275932196E+02 0.  0.
        254    2    1    2    0    0 -0.50961811785E+03 -0.10212584974E+03  0.29881957154E+03  0.10701371762E+04  0.88643111652E+03 0.  0.
         23    2    4    4    0    0 -0.67975698243E+03  0.26896892981E+02 -0.65682600777E+01  0.68650449793E+03  0.91936312858E+02 0.  0.
         23    2    4    4    0    0  0.17013886459E+03 -0.12902274272E+03  0.30538783162E+03  0.38363267827E+03  0.91204181654E+02 0.  0.
          2    1    3    3  502    0  0.25273109579E+03  0.37638328680E+02 -0.33295879425E+02  0.25767861019E+03  0.00000000000E+00 0. -1.
         -1    1    3    3    0  502  0.25688702206E+03  0.64487521057E+02  0.42989071593E+02  0.26832376479E+03  0.00000000000E+00 0.  1.
         11    1    5    5    0    0 -0.65825769448E+03  0.39626525285E+02 -0.16403015819E+02  0.65965332773E+03  0.00000000000E+00 0. -1.
        -11    1    5    5    0    0 -0.21499287951E+02 -0.12729632303E+02  0.98347557418E+01  0.26851170207E+02  0.00000000000E+00 0.  1.
          3    1    6    6  503    0  0.61873503024E+02 -0.22328790415E+02  0.16127001834E+03  0.17416923975E+03  0.00000000000E+00 0. -1.
         -3    1    6    6    0  503  0.10826536157E+03 -0.10669395230E+03  0.14411781328E+03  0.20946343852E+03  0.00000000000E+00 0.  1.
<mgrwt>
<rscale>  0 0.15660400E+04</rscale>
<asrwt>0</asrwt>
<pdfrwt beam="1">  1        2 0.14651172E+00 0.15660400E+04</pdfrwt>
<pdfrwt beam="2">  1       -1 0.99048214E-01 0.15660400E+04</pdfrwt>
<totfact> 0.28921505E+01</totfact>
</mgrwt>
</event>
<event>
12    6  0.8914180E-008  0.3809755E+04  0.7818608E-02  0.8044065E-01
          2   -1    0    0  501    0  0.00000000000E+00  0.00000000000E+00  0.19099997278E+04  0.19099997278E+04  0.00000000000E+00 0. -1.
         -1   -1    0    0    0  501 -0.00000000000E+00 -0.00000000000E+00 -0.18997691618E+04  0.18997691618E+04  0.00000000000E+00 0.  1.
         24    2    1    2    0    0  0.12079317629E+02 -0.29673425018E+03 -0.17677215367E+04  0.17939548885E+04  0.72371165039E+02 0.  0.
        254    2    1    2    0    0 -0.12079317629E+02  0.29673425018E+03  0.17779521027E+04  0.20158140011E+04  0.90232770228E+03 0.  0.
         23    2    4    4    0    0 -0.20614269679E+03 -0.16790323743E+02  0.15625093531E+04  0.15787275147E+04  0.90378982827E+02 0.  0.
         23    2    4    4    0    0  0.19406337916E+03  0.31352457392E+03  0.21544274953E+03  0.43708648638E+03  0.93116940812E+02 0.  0.
          2    1    3    3  502    0 -0.11204693244E+02 -0.14129227725E+03 -0.65285836998E+03  0.66806669129E+03  0.00000000000E+00 0. -1.
         -1    1    3    3    0  502  0.23284010873E+02 -0.15544197292E+03 -0.11148631667E+04  0.11258881972E+04  0.00000000000E+00 0.  1.
         11    1    5    5    0    0 -0.82072051440E+02  0.18984273634E+02  0.88673087901E+03  0.89072323202E+03  0.00000000000E+00 0. -1.
        -11    1    5    5    0    0 -0.12407064535E+03 -0.35774597377E+02  0.67577847414E+03  0.68800428266E+03  0.00000000000E+00 0.  1.
          2    1    6    6  503    0 -0.10042891111E+02  0.15853842926E+02  0.16353824634E+02  0.24892801721E+02  0.00000000000E+00 0. -1.
         -2    1    6    6    0  503  0.20410627027E+03  0.29767073099E+03  0.19908892490E+03  0.41219368466E+03  0.00000000000E+00 0.  1.
<mgrwt>
<rscale>  0 0.38097552E+04</rscale>
<asrwt>0</asrwt>
<pdfrwt beam="1">  1        2 0.29384611E+00 0.38097552E+04</pdfrwt>
<pdfrwt beam="2">  1       -1 0.29227218E+00 0.38097552E+04</pdfrwt>
<totfact> 0.25327886E-01</totfact>
</mgrwt>
</event>
<event>
12    6  0.8914180E-008  0.2019762E+04  0.7818608E-02  0.8597437E-01
          2   -1    0    0  501    0  0.00000000000E+00  0.00000000000E+00  0.19896369342E+04  0.19896369342E+04  0.00000000000E+00 0. -1.
         -1   -1    0    0    0  501 -0.00000000000E+00 -0.00000000000E+00 -0.51258555719E+03  0.51258555719E+03  0.00000000000E+00 0.  1.
         24    2    1    2    0    0 -0.24890028955E+03  0.24556426851E+03 -0.31545880937E+03  0.47778696689E+03  0.80702919520E+02 0.  0.
        254    2    1    2    0    0  0.24890028955E+03 -0.24556426851E+03  0.17925101864E+04  0.20244355245E+04  0.87349485429E+03 0.  0.
         23    2    4    4    0    0  0.46416007843E+03  0.13430533548E+03  0.10255898132E+04  0.11371818347E+04  0.88687984766E+02 0.  0.
         23    2    4    4    0    0 -0.21525978888E+03 -0.37986960399E+03  0.76692037314E+03  0.88725368979E+03  0.91730902970E+02 0.  0.
          2    1    3    3  502    0 -0.79681747732E+02  0.40821936445E+02 -0.51352364395E+02  0.10321180526E+03  0.00000000000E+00 0. -1.
         -3    1    3    3    0  502 -0.16921854182E+03  0.20474233206E+03 -0.26410644498E+03  0.37457516163E+03  0.00000000000E+00 0.  1.
         11    1    5    5    0    0  0.24659113868E+03  0.81124672489E+02  0.44934828608E+03  0.51894343080E+03  0.00000000000E+00 0. -1.
        -11    1    5    5    0    0  0.21756893974E+03  0.53180662988E+02  0.57624152716E+03  0.61823840392E+03  0.00000000000E+00 0.  1.
          3    1    6    6  503    0 -0.11033955726E+03 -0.12860331055E+03  0.35648620983E+03  0.39471007990E+03  0.00000000000E+00 0. -1.
         -3    1    6    6    0  503 -0.10492023162E+03 -0.25126629344E+03  0.41043416331E+03  0.49254360988E+03  0.00000000000E+00 0.  1.
<mgrwt>
<rscale>  0 0.20197615E+04</rscale>
<asrwt>0</asrwt>
<pdfrwt beam="1">  1        2 0.30609799E+00 0.20197615E+04</pdfrwt>
<pdfrwt beam="2">  1       -1 0.78859318E-01 0.20197615E+04</pdfrwt>
<totfact> 0.11499268E+01</totfact>
</mgrwt>
</event>
<event>
12    6  0.8914180E-008  0.2089247E+04  0.7818608E-02  0.8565995E-01
         -1   -1    0    0    0  501 -0.00000000000E+00  0.00000000000E+00  0.65782007316E+03  0.65782007316E+03  0.00000000000E+00 0.  1.
          2   -1    0    0  501    0  0.00000000000E+00 -0.00000000000E+00 -0.16588700546E+04  0.16588700546E+04  0.00000000000E+00 0. -1.
         24    2    1    2    0    0  0.76474930734E+03 -0.41723297288E+03 -0.61151578035E+03  0.10670431015E+04  0.75528631378E+02 0.  0.
        254    2    1    2    0    0 -0.76474930734E+03  0.41723297288E+03 -0.38953420107E+03  0.12496470262E+04  0.80681840558E+03 0.  0.
         23    2    4    4    0    0 -0.26479316234E+03 -0.22052281349E+03 -0.21465516563E+03  0.41585300713E+03  0.90061941553E+02 0.  0.
         23    2    4    4    0    0 -0.49995614500E+03  0.63775578637E+03 -0.17487903544E+03  0.83379401908E+03  0.89113406661E+02 0.  0.
          4    1    3    3  502    0  0.62872262085E+03 -0.37459302592E+03 -0.51463598585E+03  0.89468556877E+03  0.00000000000E+00 0. -1.
         -3    1    3    3    0  502  0.13602668649E+03 -0.42639946959E+02 -0.96879794501E+02  0.17235753275E+03  0.00000000000E+00 0.  1.
         11    1    5    5    0    0 -0.23245564340E+03 -0.22460459930E+03 -0.20005796782E+03  0.38013950421E+03  0.00000000000E+00 0. -1.
        -11    1    5    5    0    0 -0.32337518941E+02  0.40817858122E+01 -0.14597197812E+02  0.35713502917E+02  0.00000000000E+00 0.  1.
          4    1    6    6  503    0 -0.49125756621E+03  0.63920143726E+03 -0.17512175625E+03  0.82497278941E+03  0.00000000000E+00 0. -1.
         -4    1    6    6    0  503 -0.86985787873E+01 -0.14456508935E+01  0.24272081532E+00  0.88212296660E+01  0.00000000000E+00 0.  1.
<mgrwt>
<rscale>  0 0.20892468E+04</rscale>
<asrwt>0</asrwt>
<pdfrwt beam="1">  1        2 0.25521077E+00 0.20892468E+04</pdfrwt>
<pdfrwt beam="2">  1       -1 0.10120309E+00 0.20892468E+04</pdfrwt>
<totfact> 0.10070575E+01</totfact>
</mgrwt>
</event>
<event>
12    6  0.8914180E-008  0.1989541E+04  0.7818608E-02  0.8611526E-01
         -1   -1    0    0    0  501 -0.00000000000E+00  0.00000000000E+00  0.24251284393E+03  0.24251284393E+03  0.00000000000E+00 0.  1.
          2   -1    0    0  501    0  0.00000000000E+00 -0.00000000000E+00 -0.40804790524E+04  0.40804790524E+04  0.00000000000E+00 0. -1.
         24    2    1    2    0    0 -0.13342177181E+03 -0.48184236583E+02  0.15699459639E+03  0.22567668737E+03  0.78482954071E+02 0.  0.
        254    2    1    2    0    0  0.13342177181E+03  0.48184236583E+02 -0.39949608049E+04  0.40973152090E+04  0.89897552769E+03 0.  0.
         23    2    4    4    0    0 -0.26684972418E+03  0.12156899968E+03 -0.57431764417E+03  0.65132990234E+03  0.91662905778E+02 0.  0.
         23    2    4    4    0    0  0.40027149599E+03 -0.73384763099E+02 -0.34206431607E+04  0.34459853066E+04  0.91719718377E+02 0.  0.
          2    1    3    3  502    0 -0.14695370034E+02 -0.13029349990E+02 -0.64083471215E+01  0.20658769916E+02  0.00000000000E+00 0. -1.
         -1    1    3    3    0  502 -0.11872640177E+03 -0.35154886593E+02  0.16340294351E+03  0.20501791745E+03  0.00000000000E+00 0.  1.
         11    1    5    5    0    0 -0.64523314544E+02  0.39603936922E+02 -0.24333638497E+03  0.25484176697E+03  0.00000000000E+00 0. -1.
        -11    1    5    5    0    0 -0.20232640964E+03  0.81965062760E+02 -0.33098125920E+03  0.39648813537E+03  0.00000000000E+00 0.  1.
          3    1    6    6  503    0  0.14318530697E+03 -0.13201173583E+02 -0.88149799711E+03  0.89314893609E+03  0.00000000000E+00 0. -1.
         -3    1    6    6    0  503  0.25708618902E+03 -0.60183589516E+02 -0.25391451636E+04  0.25528363705E+04  0.00000000000E+00 0.  1.
<mgrwt>
<rscale>  0 0.19895412E+04</rscale>
<asrwt>0</asrwt>
<pdfrwt beam="1">  1        2 0.62776602E+00 0.19895412E+04</pdfrwt>
<pdfrwt beam="2">  1       -1 0.37309668E-01 0.19895412E+04</pdfrwt>
<totfact> 0.21755846E+00</totfact>
</mgrwt>
</event>
<event>
12    6  0.8914180E-008  0.1423155E+04  0.7818608E-02  0.8937226E-01
          2   -1    0    0  501    0  0.00000000000E+00  0.00000000000E+00  0.17901711572E+04  0.17901711572E+04  0.00000000000E+00 0. -1.
         -1   -1    0    0    0  501 -0.00000000000E+00 -0.00000000000E+00 -0.28284574606E+03  0.28284574606E+03  0.00000000000E+00 0.  1.
         24    2    1    2    0    0  0.15984733436E+03 -0.20804260169E+03 -0.16410320951E+02  0.28066120823E+03  0.98328636489E+02 0.  0.
        254    2    1    2    0    0 -0.15984733436E+03  0.20804260169E+03  0.15237357321E+04  0.17923556951E+04  0.90660656398E+03 0.  0.
         23    2    4    4    0    0 -0.48545285069E+02  0.49015132163E+03  0.45125471278E+03  0.67412286224E+03  0.90586173265E+02 0.  0.
         23    2    4    4    0    0 -0.11130204929E+03 -0.28210871994E+03  0.10724810193E+04  0.11182328328E+04  0.90860637879E+02 0.  0.
          2    1    3    3  502    0  0.35536149971E+02 -0.62326387796E+02  0.38481144425E+02  0.81413727630E+02  0.00000000000E+00 0. -1.
         -1    1    3    3    0  502  0.12431118439E+03 -0.14571621390E+03 -0.54891465376E+02  0.19924748060E+03  0.00000000000E+00 0.  1.
         11    1    5    5    0    0 -0.16487306464E+02  0.16803799568E+03  0.21498909050E+03  0.27336588723E+03  0.00000000000E+00 0.  1.
        -11    1    5    5    0    0 -0.32057978605E+02  0.32211332595E+03  0.23626562228E+03  0.40075697501E+03  0.00000000000E+00 0. -1.
          4    1    6    6  503    0  0.32148810311E+01 -0.44924942544E+02  0.84581112886E+02  0.95825625903E+02  0.00000000000E+00 0. -1.
         -4    1    6    6    0  503 -0.11451693032E+03 -0.23718377739E+03  0.98789990646E+03  0.10224072069E+04  0.00000000000E+00 0.  1.
<mgrwt>
<rscale>  0 0.14231547E+04</rscale>
<asrwt>0</asrwt>
<pdfrwt beam="1">  1        2 0.27541094E+00 0.14231547E+04</pdfrwt>
<pdfrwt beam="2">  1       -1 0.43514731E-01 0.14231547E+04</pdfrwt>
<totfact> 0.50432465E+01</totfact>
</mgrwt>
</event>
<event>
12    6  0.8914180E-008  0.1716289E+04  0.7818608E-02  0.8752128E-01
          2   -1    0    0  501    0  0.00000000000E+00  0.00000000000E+00  0.10908867680E+04  0.10908867680E+04  0.00000000000E+00 0. -1.
         -1   -1    0    0    0  501 -0.00000000000E+00 -0.00000000000E+00 -0.67505828324E+03  0.67505828324E+03  0.00000000000E+00 0.  1.
         24    2    1    2    0    0 -0.13513027735E+02  0.59403135928E+03 -0.26252993320E+02  0.60460395239E+03  0.10863177192E+03 0.  0.
        254    2    1    2    0    0  0.13513027735E+02 -0.59403135928E+03  0.44208147811E+03  0.11613410989E+04  0.89455086883E+03 0.  0.
         23    2    4    4    0    0  0.51493611320E+02 -0.21891205538E+03 -0.26204320615E+03  0.35763049843E+03  0.93052950083E+02 0.  0.
         23    2    4    4    0    0 -0.37980583585E+02 -0.37511930390E+03  0.70412468426E+03  0.80371060044E+03  0.89454689052E+02 0.  0.
          2    1    3    3  502    0  0.15415640203E+02  0.27176552904E+03  0.37645275419E+02  0.27479321589E+03  0.00000000000E+00 0. -1.
         -1    1    3    3    0  502 -0.28928667938E+02  0.32226583023E+03 -0.63898268740E+02  0.32981073650E+03  0.00000000000E+00 0.  1.
         11    1    5    5    0    0  0.21870428931E+02 -0.35493460550E+01 -0.87034321467E+01  0.23804689667E+02  0.00000000000E+00 0.  1.
        -11    1    5    5    0    0  0.29623182389E+02 -0.21536270933E+03 -0.25333977401E+03  0.33382580876E+03  0.00000000000E+00 0. -1.
          1    1    6    6  503    0  0.77708237823E+00 -0.32466459518E+02  0.12991158225E+03  0.13390927546E+03  0.00000000000E+00 0. -1.
         -1    1    6    6    0  503 -0.38757665963E+02 -0.34265284438E+03  0.57421310201E+03  0.66980132498E+03  0.00000000000E+00 0.  1.
<mgrwt>
<rscale>  0 0.17162892E+04</rscale>
<asrwt>0</asrwt>
<pdfrwt beam="1">  1        2 0.16782873E+00 0.17162892E+04</pdfrwt>
<pdfrwt beam="2">  1       -1 0.10385512E+00 0.17162892E+04</pdfrwt>
<totfact> 0.20898082E+01</totfact>
</mgrwt>
</event>
<event>
12    6  0.8914180E-008  0.1812708E+04  0.7818608E-02  0.8699570E-01
         -1   -1    0    0    0  501 -0.00000000000E+00  0.00000000000E+00  0.45066862443E+03  0.45066862443E+03  0.00000000000E+00 0.  1.
          2   -1    0    0  501    0  0.00000000000E+00 -0.00000000000E+00 -0.18227982736E+04  0.18227982736E+04  0.00000000000E+00 0. -1.
         24    2    1    2    0    0  0.27194036173E+02  0.15338638586E+03 -0.13466175120E+04  0.13579615029E+04  0.80086333281E+02 0.  0.
        254    2    1    2    0    0 -0.27194036173E+02 -0.15338638586E+03 -0.25512137081E+02  0.91550539504E+03  0.90179396773E+03 0.  0.
         23    2    4    4    0    0 -0.28492770868E+03  0.27549196992E+03 -0.79394921275E+01  0.40688509930E+03  0.91721446963E+02 0.  0.
         23    2    4    4    0    0  0.25773367251E+03 -0.42887835579E+03 -0.17572644953E+02  0.50862029573E+03  0.89568506620E+02 0.  0.
          4    1    3    3  502    0  0.91027120904E+01  0.15466821526E+03 -0.11276402380E+04  0.11382344321E+04  0.00000000000E+00 0. -1.
         -3    1    3    3    0  502  0.18091324083E+02 -0.12818293964E+01 -0.21897727408E+03  0.21972707083E+03  0.00000000000E+00 0.  1.
         11    1    5    5    0    0 -0.20332178485E+03  0.15825162253E+03 -0.39321984126E+02  0.26063296542E+03  0.00000000000E+00 0. -1.
        -11    1    5    5    0    0 -0.81605923830E+02  0.11724034739E+03  0.31382491999E+02  0.14625213388E+03  0.00000000000E+00 0.  1.
          3    1    6    6  503    0  0.41976021576E+02 -0.50285206279E+02 -0.31408929757E+02  0.72643714294E+02  0.00000000000E+00 0. -1.
         -3    1    6    6    0  503  0.21575765093E+03 -0.37859314951E+03  0.13836284804E+02  0.43597658144E+03  0.00000000000E+00 0.  1.
<mgrwt>
<rscale>  0 0.18127085E+04</rscale>
<asrwt>0</asrwt>
<pdfrwt beam="1">  1        2 0.28043050E+00 0.18127085E+04</pdfrwt>
<pdfrwt beam="2">  1       -1 0.69333636E-01 0.18127085E+04</pdfrwt>
<totfact> 0.18941768E+01</totfact>
</mgrwt>
</event>
<event>
12    6  0.8914180E-008  0.2032032E+04  0.7818608E-02  0.8591790E-01
         -1   -1    0    0    0  501 -0.00000000000E+00  0.00000000000E+00  0.72628291544E+03  0.72628291544E+03  0.00000000000E+00 0.  1.
          2   -1    0    0  501    0  0.00000000000E+00 -0.00000000000E+00 -0.14213306987E+04  0.14213306987E+04  0.00000000000E+00 0. -1.
         24    2    1    2    0    0 -0.21768482572E+02 -0.27477206745E+03 -0.10738815843E+04  0.11112892771E+04  0.75951592927E+02 0.  0.
        254    2    1    2    0    0  0.21768482572E+02  0.27477206745E+03  0.37883380110E+03  0.10363243370E+04  0.92438061783E+03 0.  0.
         23    2    4    4    0    0 -0.10689672340E+03 -0.31450277301E+03  0.19914156478E+03  0.39907142268E+03  0.96237902497E+02 0.  0.
         23    2    4    4    0    0  0.12866520597E+03  0.58927484046E+03  0.17969223632E+03  0.63725291427E+03  0.10001201991E+03 0.  0.
          2    1    3    3  502    0 -0.30937859794E+01 -0.17358283006E+03 -0.80227529216E+03  0.82084481775E+03  0.00000000000E+00 0. -1.
         -1    1    3    3    0  502 -0.18674696593E+02 -0.10118923739E+03 -0.27160629216E+03  0.29044445940E+03  0.00000000000E+00 0.  1.
         11    1    5    5    0    0  0.65307897034E+01 -0.35727979601E+01 -0.61019396819E+01  0.96254749127E+01  0.00000000000E+00 0. -1.
        -11    1    5    5    0    0 -0.11342751310E+03 -0.31092997505E+03  0.20524350446E+03  0.38944594777E+03  0.00000000000E+00 0.  1.
          4    1    6    6  503    0 -0.65427087711E+01  0.14186946433E+03  0.20473188935E+02  0.14348833894E+03  0.00000000000E+00 0. -1.
         -4    1    6    6    0  503  0.13520791474E+03  0.44740537613E+03  0.15921904738E+03  0.49376457533E+03  0.00000000000E+00 0.  1.
<mgrwt>
<rscale>  0 0.20320317E+04</rscale>
<asrwt>0</asrwt>
<pdfrwt beam="1">  1        2 0.21866626E+00 0.20320317E+04</pdfrwt>
<pdfrwt beam="2">  1       -1 0.11173583E+00 0.20320317E+04</pdfrwt>
<totfact> 0.10925385E+01</totfact>
</mgrwt>
</event>
<event>
12    6  0.8914180E-008  0.3055051E+04  0.7818608E-02  0.8228183E-01
         -3   -1    0    0    0  501 -0.00000000000E+00  0.00000000000E+00  0.19608200237E+04  0.19608200237E+04  0.00000000000E+00 0.  1.
          2   -1    0    0  501    0  0.00000000000E+00 -0.00000000000E+00 -0.11899787222E+04  0.11899787222E+04  0.00000000000E+00 0. -1.
         24    2    1    2    0    0 -0.14906763625E+03 -0.76017716753E+03  0.15482819333E+04  0.17331145998E+04  0.80117320203E+02 0.  0.
        254    2    1    2    0    0  0.14906763625E+03  0.76017716753E+03 -0.77744063180E+03  0.14176841460E+04  0.89739841527E+03 0.  0.
         23    2    4    4    0    0  0.37221550982E+03  0.65743442587E+03 -0.85343445122E+03  0.11436905677E+04  0.94410497265E+02 0.  0.
         23    2    4    4    0    0 -0.22314787357E+03  0.10274274165E+03  0.75993819416E+02  0.27399357835E+03  0.94585283986E+02 0.  0.
          2    1    3    3  502    0  0.26145768464E+01 -0.13492465010E+03  0.29131372485E+03  0.32105324091E+03  0.00000000000E+00 0. -1.
         -1    1    3    3    0  502 -0.15168221310E+03 -0.62525251743E+03  0.12569682085E+04  0.14120613589E+04  0.00000000000E+00 0.  1.
         11    1    5    5    0    0  0.92340570339E+02  0.16002124920E+03 -0.15097148147E+03  0.23859163721E+03  0.00000000000E+00 0. -1.
        -11    1    5    5    0    0  0.27987493948E+03  0.49741317667E+03 -0.70246296974E+03  0.90509893047E+03  0.00000000000E+00 0.  1.
          2    1    6    6  503    0 -0.11830321670E+03  0.77491026485E+02 -0.11017493230E+01  0.14142745178E+03  0.00000000000E+00 0. -1.
         -2    1    6    6    0  503 -0.10484465688E+03  0.25251715169E+02  0.77095568739E+02  0.13256612657E+03  0.00000000000E+00 0.  1.
<mgrwt>
<rscale>  0 0.30550510E+04</rscale>
<asrwt>0</asrwt>
<pdfrwt beam="1">  1        2 0.18307365E+00 0.30550510E+04</pdfrwt>
<pdfrwt beam="2">  1       -3 0.30166462E+00 0.30550510E+04</pdfrwt>
<totfact> 0.38136992E-01</totfact>
</mgrwt>
</event>
<event>
12    6  0.8914180E-008  0.2584074E+04  0.7818608E-02  0.8373631E-01
          2   -1    0    0  501    0  0.00000000000E+00  0.00000000000E+00  0.81386680726E+03  0.81386680726E+03  0.00000000000E+00 0. -1.
         -1   -1    0    0    0  501 -0.00000000000E+00 -0.00000000000E+00 -0.20511454063E+04  0.20511454063E+04  0.00000000000E+00 0.  1.
         24    2    1    2    0    0 -0.34436106998E+03  0.60532478884E+03 -0.15345784062E+04  0.16871147659E+04  0.80141762788E+02 0.  0.
        254    2    1    2    0    0  0.34436106998E+03 -0.60532478884E+03  0.29729980714E+03  0.11778974476E+04  0.90224862169E+03 0.  0.
         23    2    4    4    0    0  0.23392710579E+03 -0.60884357389E+03  0.57059524695E+03  0.87113946102E+03  0.88840511118E+02 0.  0.
         23    2    4    4    0    0  0.11043396419E+03  0.35187850485E+01 -0.27329543981E+03  0.30675798662E+03  0.84864731409E+02 0.  0.
          2    1    3    3  502    0 -0.40993614681E+02  0.10071134676E+03 -0.30582037617E+03  0.32457565265E+03  0.00000000000E+00 0. -1.
         -1    1    3    3    0  502 -0.30336745530E+03  0.50461344208E+03 -0.12287580300E+04  0.13625391133E+04  0.00000000000E+00 0.  1.
         11    1    5    5    0    0  0.46104814228E+02 -0.23488226150E+03  0.22261746673E+03  0.32688509779E+03  0.00000000000E+00 0. -1.
        -11    1    5    5    0    0  0.18782229156E+03 -0.37396131240E+03  0.34797778022E+03  0.54425436323E+03  0.00000000000E+00 0.  1.
          3    1    6    6  503    0  0.11078005452E+03  0.32485687617E+00 -0.16693324098E+03  0.20034728088E+03  0.00000000000E+00 0. -1.
         -3    1    6    6    0  503 -0.34609032817E+00  0.31939281723E+01 -0.10636219883E+03  0.10641070574E+03  0.00000000000E+00 0.  1.
<mgrwt>
<rscale>  0 0.25840737E+04</rscale>
<asrwt>0</asrwt>
<pdfrwt beam="1">  1        2 0.12521028E+00 0.25840737E+04</pdfrwt>
<pdfrwt beam="2">  1       -1 0.31556083E+00 0.25840737E+04</pdfrwt>
<totfact> 0.88967021E-01</totfact>
</mgrwt>
</event>
<event>
12    6  0.8914180E-008  0.1271896E+04  0.7818608E-02  0.9052154E-01
          2   -1    0    0  501    0  0.00000000000E+00  0.00000000000E+00  0.27296981177E+03  0.27296981177E+03  0.00000000000E+00 0. -1.
         -1   -1    0    0    0  501 -0.00000000000E+00 -0.00000000000E+00 -0.14815911291E+04  0.14815911291E+04  0.00000000000E+00 0.  1.
         24    2    1    2    0    0 -0.63572102549E+02 -0.21709387204E+03 -0.51599700946E+01  0.23976132443E+03  0.79295055965E+02 0.  0.
        254    2    1    2    0    0  0.63572102549E+02  0.21709387204E+03 -0.12034613472E+04  0.15147996164E+04  0.89169922180E+03 0.  0.
         23    2    4    4    0    0 -0.98439153548E+02  0.50326593045E+02 -0.12517333251E+04  0.12602655050E+04  0.95967667095E+02 0.  0.
         23    2    4    4    0    0  0.16201125610E+03  0.16676727900E+03  0.48271977874E+02  0.25453411139E+03  0.91643098842E+02 0.  0.
          2    1    3    3  502    0 -0.61242789394E+02 -0.20944218594E+03  0.14341539274E+02  0.21868330584E+03  0.00000000000E+00 0. -1.
         -1    1    3    3    0  502 -0.23293131550E+01 -0.76516860987E+01 -0.19501509369E+02  0.21078018588E+02  0.00000000000E+00 0.  1.
         11    1    5    5    0    0 -0.26809900510E+02  0.67415268133E+02 -0.58752309064E+03  0.59198561737E+03  0.00000000000E+00 0. -1.
        -11    1    5    5    0    0 -0.71629253038E+02 -0.17088675088E+02 -0.66421023443E+03  0.66827988765E+03  0.00000000000E+00 0.  1.
          3    1    6    6  503    0  0.46046289172E+02  0.20885710801E+02  0.45706684252E+02  0.68158452502E+02  0.00000000000E+00 0. -1.
         -3    1    6    6    0  503  0.11596496692E+03  0.14588156820E+03  0.25652936212E+01  0.18637565888E+03  0.00000000000E+00 0.  1.
<mgrwt>
<rscale>  0 0.12718957E+04</rscale>
<asrwt>0</asrwt>
<pdfrwt beam="1">  1        2 0.41995356E-01 0.12718957E+04</pdfrwt>
<pdfrwt beam="2">  1       -1 0.22793709E+00 0.12718957E+04</pdfrwt>
<totfact> 0.13385977E+01</totfact>
</mgrwt>
</event>
<event>
12    6  0.8914180E-008  0.4063338E+04  0.7818608E-02  0.7991890E-01
         -1   -1    0    0    0  501 -0.00000000000E+00  0.00000000000E+00  0.23802335790E+04  0.23802335790E+04  0.00000000000E+00 0.  1.
          2   -1    0    0  501    0  0.00000000000E+00 -0.00000000000E+00 -0.17341486731E+04  0.17341486731E+04  0.00000000000E+00 0. -1.
         24    2    1    2    0    0 -0.48779320171E+03  0.16989230257E+04 -0.47893460648E+03  0.18330036094E+04  0.79007720088E+02 0.  0.
        254    2    1    2    0    0  0.48779320171E+03 -0.16989230257E+04  0.11250195124E+04  0.22813786428E+04  0.90262835851E+03 0.  0.
         23    2    4    4    0    0  0.51519361323E+03 -0.16566490329E+04  0.12334481617E+04  0.21307450792E+04  0.93646931968E+02 0.  0.
         23    2    4    4    0    0 -0.27400411526E+02 -0.42273992803E+02 -0.10842864933E+03  0.15063356351E+03  0.91628736983E+02 0.  0.
          4    1    3    3  502    0 -0.42794748757E+03  0.13912686067E+04 -0.38094635330E+03  0.15046220497E+04  0.00000000000E+00 0. -1.
         -3    1    3    3    0  502 -0.59845714137E+02  0.30765441894E+03 -0.97988253183E+02  0.32838155971E+03  0.00000000000E+00 0.  1.
         11    1    5    5    0    0  0.16172143309E+03 -0.64964347093E+03  0.44565452211E+03  0.80423778468E+03  0.00000000000E+00 0.  1.
        -11    1    5    5    0    0  0.35347218014E+03 -0.10070055619E+04  0.78779363961E+03  0.13265072946E+04  0.00000000000E+00 0. -1.
          1    1    6    6  503    0 -0.44278813548E+02 -0.43061298131E+02 -0.11653625812E+03  0.13189233557E+03  0.00000000000E+00 0. -1.
         -1    1    6    6    0  503  0.16878402022E+02  0.78730532771E+00  0.81076087872E+01  0.18741227941E+02  0.00000000000E+00 0.  1.
<mgrwt>
<rscale>  0 0.40633380E+04</rscale>
<asrwt>0</asrwt>
<pdfrwt beam="1">  1        2 0.26679210E+00 0.40633380E+04</pdfrwt>
<pdfrwt beam="2">  1       -1 0.36618978E+00 0.40633380E+04</pdfrwt>
<totfact> 0.10160417E-01</totfact>
</mgrwt>
</event>
<event>
12    6  0.8914180E-008  0.1801319E+04  0.7818608E-02  0.8705598E-01
          2   -1    0    0  501    0  0.00000000000E+00  0.00000000000E+00  0.14784249353E+04  0.14784249353E+04  0.00000000000E+00 0. -1.
         -1   -1    0    0    0  501 -0.00000000000E+00 -0.00000000000E+00 -0.54868360166E+03  0.54868360166E+03  0.00000000000E+00 0.  1.
         24    2    1    2    0    0  0.62193132362E+03  0.18867600390E+03  0.17620073714E+03  0.67825940602E+03  0.81190617272E+02 0.  0.
        254    2    1    2    0    0 -0.62193132362E+03 -0.18867600390E+03  0.75354059649E+03  0.13488491309E+04  0.91058955721E+03 0.  0.
         23    2    4    4    0    0 -0.67919965543E+03  0.19044648683E+03  0.38253998642E+03  0.80763167759E+03  0.91378603296E+02 0.  0.
         23    2    4    4    0    0  0.57268331812E+02 -0.37912249074E+03  0.37100061007E+03  0.54121745335E+03  0.90891992625E+02 0.  0.
          4    1    3    3  502    0  0.67777318796E+00 -0.64656440472E+00 -0.41245442308E+01  0.42295729259E+01  0.00000000000E+00 0. -1.
         -1    1    3    3    0  502  0.62125355043E+03  0.18932256831E+03  0.18032528137E+03  0.67402983309E+03  0.00000000000E+00 0.  1.
         11    1    5    5    0    0 -0.15787923781E+03  0.12203832029E+02  0.11115908463E+03  0.19347126232E+03  0.00000000000E+00 0. -1.
        -11    1    5    5    0    0 -0.52132041762E+03  0.17824265481E+03  0.27138090179E+03  0.61416041526E+03  0.00000000000E+00 0.  1.
          1    1    6    6  503    0 -0.95337561794E+01 -0.13147458311E+03  0.84041991879E+02  0.15633142649E+03  0.00000000000E+00 0. -1.
         -1    1    6    6    0  503  0.66802087992E+02 -0.24764790763E+03  0.28695861820E+03  0.38488602686E+03  0.00000000000E+00 0.  1.
<mgrwt>
<rscale>  0 0.18013190E+04</rscale>
<asrwt>0</asrwt>
<pdfrwt beam="1">  1        2 0.22744999E+00 0.18013190E+04</pdfrwt>
<pdfrwt beam="2">  1       -1 0.84412863E-01 0.18013190E+04</pdfrwt>
<totfact> 0.19518549E+01</totfact>
</mgrwt>
</event>
<event>
12    6  0.8914180E-008  0.1640040E+04  0.7818608E-02  0.8796321E-01
          2   -1    0    0  501    0  0.00000000000E+00  0.00000000000E+00  0.36589508056E+04  0.36589508056E+04  0.00000000000E+00 0. -1.
         -1   -1    0    0    0  501 -0.00000000000E+00 -0.00000000000E+00 -0.18377745225E+03  0.18377745225E+03  0.00000000000E+00 0.  1.
         24    2    1    2    0    0  0.35074210255E+03  0.82513020926E+02  0.23467553755E+04  0.23755684804E+04  0.78970827467E+02 0.  0.
        254    2    1    2    0    0 -0.35074210255E+03 -0.82513020926E+02  0.11284179779E+04  0.14671597775E+04  0.86568022887E+03 0.  0.
         23    2    4    4    0    0  0.28002687937E+03 -0.41225899418E+01  0.33919165948E+03  0.44876024938E+03  0.88897303897E+02 0.  0.
         23    2    4    4    0    0 -0.63076898193E+03 -0.78390430984E+02  0.78922631841E+03  0.10183995281E+04  0.10121684103E+03 0.  0.
          4    1    3    3  502    0  0.31206132866E+03  0.96916193980E+02  0.21299017315E+04  0.21548216649E+04  0.00000000000E+00 0. -1.
         -3    1    3    3    0  502  0.38680773897E+02 -0.14403173054E+02  0.21685364398E+03  0.22074681553E+03  0.00000000000E+00 0.  1.
         11    1    5    5    0    0  0.69944903469E+02  0.29550542230E+02  0.55042655779E+02  0.93782823708E+02  0.00000000000E+00 0.  1.
        -11    1    5    5    0    0  0.21008197590E+03 -0.33673132172E+02  0.28414900370E+03  0.35497742567E+03  0.00000000000E+00 0. -1.
          4    1    6    6  503    0 -0.61462459749E+03 -0.72661654627E+02  0.73154502129E+03  0.95822817224E+03  0.00000000000E+00 0. -1.
         -4    1    6    6    0  503 -0.16144384434E+02 -0.57287763568E+01  0.57681297125E+02  0.60171355854E+02  0.00000000000E+00 0.  1.
<mgrwt>
<rscale>  0 0.16400398E+04</rscale>
<asrwt>0</asrwt>
<pdfrwt beam="1">  1        2 0.56291546E+00 0.16400398E+04</pdfrwt>
<pdfrwt beam="2">  1       -1 0.28273457E-01 0.16400398E+04</pdfrwt>
<totfact> 0.78130033E+00</totfact>
</mgrwt>
</event>
<event>
12    6  0.8914180E-008  0.1651931E+04  0.7818608E-02  0.8789265E-01
         -1   -1    0    0    0  501 -0.00000000000E+00  0.00000000000E+00  0.14794977243E+04  0.14794977243E+04  0.00000000000E+00 0.  1.
          2   -1    0    0  501    0  0.00000000000E+00 -0.00000000000E+00 -0.46111508940E+03  0.46111508940E+03  0.00000000000E+00 0. -1.
         24    2    1    2    0    0  0.18270108775E+03  0.52577591220E+03  0.44887858744E+03  0.71951173691E+03  0.79907170997E+02 0.  0.
        254    2    1    2    0    0 -0.18270108775E+03 -0.52577591220E+03  0.56950404747E+03  0.12211010768E+04  0.92570674750E+03 0.  0.
         23    2    4    4    0    0 -0.33165137451E+03 -0.12472431152E+03  0.67769886075E+03  0.77007846560E+03  0.90533470137E+02 0.  0.
         23    2    4    4    0    0  0.14895028676E+03 -0.40105160068E+03 -0.10819481328E+03  0.45102261121E+03  0.93202488544E+02 0.  0.
          4    1    3    3  502    0  0.60403634905E+02  0.27074602892E+03  0.25320370631E+03  0.37558504785E+03  0.00000000000E+00 0. -1.
         -3    1    3    3    0  502  0.12229745285E+03  0.25502988328E+03  0.19567488114E+03  0.34392668906E+03  0.00000000000E+00 0.  1.
         11    1    5    5    0    0 -0.28964795054E+03 -0.13788399403E+03  0.57699310758E+03  0.66017344483E+03  0.00000000000E+00 0.  1.
        -11    1    5    5    0    0 -0.42003423968E+02  0.13159682503E+02  0.10070575317E+03  0.10990502077E+03  0.00000000000E+00 0. -1.
          4    1    6    6  503    0  0.16411971517E+02 -0.17216380873E+03 -0.33178277002E+02  0.17609806333E+03  0.00000000000E+00 0. -1.
         -4    1    6    6    0  503  0.13253831524E+03 -0.22888779195E+03 -0.75016536277E+02  0.27492454788E+03  0.00000000000E+00 0.  1.
<mgrwt>
<rscale>  0 0.16519307E+04</rscale>
<asrwt>0</asrwt>
<pdfrwt beam="1">  1        2 0.70940784E-01 0.16519307E+04</pdfrwt>
<pdfrwt beam="2">  1       -1 0.22761503E+00 0.16519307E+04</pdfrwt>
<totfact> 0.72292502E+00</totfact>
</mgrwt>
</event>
<event>
12    6  0.8914180E-008  0.1527381E+04  0.7818608E-02  0.8866446E-01
          2   -1    0    0  501    0  0.00000000000E+00  0.00000000000E+00  0.28949150853E+03  0.28949150853E+03  0.00000000000E+00 0. -1.
         -1   -1    0    0    0  501 -0.00000000000E+00 -0.00000000000E+00 -0.20146472622E+04  0.20146472622E+04  0.00000000000E+00 0.  1.
         24    2    1    2    0    0  0.13807736163E+02  0.28386435308E+03 -0.11603642330E+04  0.11972743560E+04  0.79063934459E+02 0.  0.
        254    2    1    2    0    0 -0.13807736163E+02 -0.28386435308E+03 -0.56479152072E+03  0.11068644148E+04  0.90850962919E+03 0.  0.
         23    2    4    4    0    0  0.24651848739E+03 -0.47618535617E+03 -0.13334970848E+03  0.55995907762E+03  0.90819413172E+02 0.  0.
         23    2    4    4    0    0 -0.26032622355E+03  0.19232100308E+03 -0.43144181225E+03  0.54690533718E+03  0.90588628333E+02 0.  0.
          4    1    3    3  502    0 -0.15898325659E+02  0.50464011961E+02 -0.12931461192E+03  0.13971987016E+03  0.00000000000E+00 0. -1.
         -3    1    3    3    0  502  0.29706061823E+02  0.23340034112E+03 -0.10310496211E+04  0.10575544858E+04  0.00000000000E+00 0.  1.
         11    1    5    5    0    0  0.15569749876E+02 -0.70382087588E+02  0.69466368518E+01  0.72417616144E+02  0.00000000000E+00 0. -1.
        -11    1    5    5    0    0  0.23094873751E+03 -0.40580326858E+03 -0.14029634533E+03  0.48754146148E+03  0.00000000000E+00 0.  1.
          2    1    6    6  503    0 -0.83934156841E+02  0.16007839871E+02 -0.13147550550E+03  0.15680243037E+03  0.00000000000E+00 0. -1.
         -2    1    6    6    0  503 -0.17639206671E+03  0.17631316321E+03 -0.29996630674E+03  0.39010290681E+03  0.00000000000E+00 0.  1.
<mgrwt>
<rscale>  0 0.15273811E+04</rscale>
<asrwt>0</asrwt>
<pdfrwt beam="1">  1        2 0.44537155E-01 0.15273811E+04</pdfrwt>
<pdfrwt beam="2">  1       -1 0.30994573E+00 0.15273811E+04</pdfrwt>
<totfact> 0.36002544E+00</totfact>
</mgrwt>
</event>
<event>
12    6  0.8914180E-008  0.2563571E+04  0.7818608E-02  0.8380682E-01
         -1   -1    0    0    0  501 -0.00000000000E+00  0.00000000000E+00  0.44862279547E+03  0.44862279547E+03  0.00000000000E+00 0.  1.
          2   -1    0    0  501    0  0.00000000000E+00 -0.00000000000E+00 -0.36622624036E+04  0.36622624036E+04  0.00000000000E+00 0. -1.
         24    2    1    2    0    0  0.95152941232E+03  0.56757678245E+03 -0.16744038839E+04  0.20099256868E+04  0.92850812583E+02 0.  0.
        254    2    1    2    0    0 -0.95152941232E+03 -0.56757678245E+03 -0.15392357242E+04  0.21009595123E+04  0.90400919861E+03 0.  0.
         23    2    4    4    0    0 -0.19728184916E+03 -0.58737709035E+03 -0.44267774983E+03  0.76693182207E+03  0.91043150396E+02 0.  0.
         23    2    4    4    0    0 -0.75424756316E+03  0.19800307902E+02 -0.10965579744E+04  0.13340276903E+04  0.88932830840E+02 0.  0.
          4    1    3    3  502    0  0.66946087581E+03  0.43524371589E+03 -0.11525128946E+04  0.14021058907E+04  0.00000000000E+00 0. -1.
         -3    1    3    3    0  502  0.28206853651E+03  0.13233306656E+03 -0.52189098932E+03  0.60781979609E+03  0.00000000000E+00 0.  1.
         11    1    5    5    0    0 -0.16369940872E+02 -0.32750210348E+02 -0.56437366657E+02  0.67273528205E+02  0.00000000000E+00 0. -1.
        -11    1    5    5    0    0 -0.18091190828E+03 -0.55462688000E+03 -0.38624038317E+03  0.69965829386E+03  0.00000000000E+00 0.  1.
          1    1    6    6  503    0 -0.17280003963E+03  0.41783427325E+02 -0.24811590466E+03  0.30523304316E+03  0.00000000000E+00 0. -1.
         -1    1    6    6    0  503 -0.58144752353E+03 -0.21983119423E+02 -0.84844206975E+03  0.10287946471E+04  0.00000000000E+00 0.  1.
<mgrwt>
<rscale>  0 0.25635713E+04</rscale>
<asrwt>0</asrwt>
<pdfrwt beam="1">  1        2 0.56342498E+00 0.25635713E+04</pdfrwt>
<pdfrwt beam="2">  1       -1 0.69018892E-01 0.25635713E+04</pdfrwt>
<totfact> 0.13351292E+00</totfact>
</mgrwt>
</event>
<event>
12    6  0.8914180E-008  0.1804023E+04  0.7818608E-02  0.8704163E-01
          2   -1    0    0  501    0  0.00000000000E+00  0.00000000000E+00  0.39666903225E+03  0.39666903225E+03  0.00000000000E+00 0. -1.
         -1   -1    0    0    0  501 -0.00000000000E+00 -0.00000000000E+00 -0.20511427137E+04  0.20511427137E+04  0.00000000000E+00 0.  1.
         24    2    1    2    0    0 -0.54575303652E+03 -0.29757140287E+03 -0.98127673238E+03  0.11642906027E+04  0.79205210156E+02 0.  0.
        254    2    1    2    0    0  0.54575303652E+03  0.29757140287E+03 -0.67319694907E+03  0.12835211433E+04  0.89879768374E+03 0.  0.
         23    2    4    4    0    0  0.37115224229E+03 -0.28451873199E+03 -0.26051816669E+03  0.54323905730E+03  0.92379989096E+02 0.  0.
         23    2    4    4    0    0  0.17460079422E+03  0.58209013486E+03 -0.41267878238E+03  0.74028208597E+03  0.91648387535E+02 0.  0.
          2    1    3    3  502    0 -0.26981666916E+03 -0.17854153572E+03 -0.56131059349E+03  0.64787938484E+03  0.00000000000E+00 0. -1.
         -1    1    3    3    0  502 -0.27593636736E+03 -0.11902986715E+03 -0.41996613889E+03  0.51641121785E+03  0.00000000000E+00 0.  1.
         11    1    5    5    0    0  0.31075318541E+03 -0.27179731349E+03 -0.24310864309E+03  0.47910660005E+03  0.00000000000E+00 0. -1.
        -11    1    5    5    0    0  0.60399056878E+02 -0.12721418497E+02 -0.17409523596E+02  0.64132457244E+02  0.00000000000E+00 0.  1.
          3    1    6    6  503    0  0.10026212386E+03  0.18395860463E+03 -0.14580209145E+03  0.25524794136E+03  0.00000000000E+00 0. -1.
         -3    1    6    6    0  503  0.74338670366E+02  0.39813153023E+03 -0.26687669093E+03  0.48503414461E+03  0.00000000000E+00 0.  1.
<mgrwt>
<rscale>  0 0.18040231E+04</rscale>
<asrwt>0</asrwt>
<pdfrwt beam="1">  1        2 0.61026005E-01 0.18040231E+04</pdfrwt>
<pdfrwt beam="2">  1       -1 0.31556042E+00 0.18040231E+04</pdfrwt>
<totfact> 0.22698291E+00</totfact>
</mgrwt>
</event>
<event>
12    6  0.8914180E-008  0.1640448E+04  0.7818608E-02  0.8796078E-01
          2   -1    0    0  501    0  0.00000000000E+00  0.00000000000E+00  0.11893183660E+04  0.11893183660E+04  0.00000000000E+00 0. -1.
         -1   -1    0    0    0  501 -0.00000000000E+00 -0.00000000000E+00 -0.56567463618E+03  0.56567463618E+03  0.00000000000E+00 0.  1.
         24    2    1    2    0    0  0.13599799003E+03  0.50013039778E+03  0.46814894224E+03  0.70290592733E+03  0.79293394927E+02 0.  0.
        254    2    1    2    0    0 -0.13599799003E+03 -0.50013039778E+03  0.15549478757E+03  0.10520870748E+04  0.90226532460E+03 0.  0.
         23    2    4    4    0    0  0.82024716542E+02 -0.20476292014E+03  0.49153651247E+03  0.54597078730E+03  0.88431046042E+02 0.  0.
         23    2    4    4    0    0 -0.21802270657E+03 -0.29536747764E+03 -0.33604172490E+03  0.50611628753E+03  0.91944593109E+02 0.  0.
          2    1    3    3  502    0  0.12033087153E+03  0.31328514270E+03  0.32303343558E+03  0.46580865146E+03  0.00000000000E+00 0. -1.
         -1    1    3    3    0  502  0.15667118506E+02  0.18684525509E+03  0.14511550666E+03  0.23709727587E+03  0.00000000000E+00 0.  1.
         11    1    5    5    0    0  0.81806987204E+02 -0.13154622901E+03  0.39870016254E+03  0.42773661655E+03  0.00000000000E+00 0. -1.
        -11    1    5    5    0    0  0.21772933751E+00 -0.73216691126E+02  0.92836349927E+02  0.11823417075E+03  0.00000000000E+00 0.  1.
          3    1    6    6  503    0 -0.15001901561E+03 -0.14541107423E+03 -0.14721171122E+03  0.25558046380E+03  0.00000000000E+00 0. -1.
         -3    1    6    6    0  503 -0.68003690958E+02 -0.14995640342E+03 -0.18883001368E+03  0.25053582374E+03  0.00000000000E+00 0.  1.
<mgrwt>
<rscale>  0 0.16404478E+04</rscale>
<asrwt>0</asrwt>
<pdfrwt beam="1">  1        2 0.18297206E+00 0.16404478E+04</pdfrwt>
<pdfrwt beam="2">  1       -1 0.87026867E-01 0.16404478E+04</pdfrwt>
<totfact> 0.27254959E+01</totfact>
</mgrwt>
</event>
<event>
12    6  0.8914180E-008  0.3459788E+04  0.7818608E-02  0.8123386E-01
         -3   -1    0    0    0  501 -0.00000000000E+00  0.00000000000E+00  0.32016030043E+04  0.32016030043E+04  0.00000000000E+00 0.  1.
          4   -1    0    0  501    0  0.00000000000E+00 -0.00000000000E+00 -0.93469838646E+03  0.93469838646E+03  0.00000000000E+00 0. -1.
         24    2    1    2    0    0  0.40821042721E+03  0.46878912441E+03  0.28244263847E+04  0.28931755311E+04  0.81738946501E+02 0.  0.
        254    2    1    2    0    0 -0.40821042721E+03 -0.46878912441E+03 -0.55752176687E+03  0.12431258596E+04  0.92094103298E+03 0.  0.
         23    2    4    4    0    0  0.99931260000E+01  0.22739923920E+03 -0.29855810515E+03  0.38660154489E+03  0.92268823598E+02 0.  0.
         23    2    4    4    0    0 -0.41820355321E+03 -0.69618836361E+03 -0.25896366172E+03  0.85652431471E+03  0.83661664219E+02 0.  0.
          4    1    3    3  502    0  0.10469908763E+03  0.99596842097E+02  0.81345134026E+03  0.82618673003E+03  0.00000000000E+00 0. -1.
         -3    1    3    3    0  502  0.30351133959E+03  0.36919228231E+03  0.20109750444E+04  0.20669888011E+04  0.00000000000E+00 0.  1.
         11    1    5    5    0    0 -0.97638242904E+01  0.45307959834E+02 -0.12874494585E+03  0.13683349214E+03  0.00000000000E+00 0.  1.
        -11    1    5    5    0    0  0.19756950290E+02  0.18209127936E+03 -0.16981315930E+03  0.24976805275E+03  0.00000000000E+00 0. -1.
          1    1    6    6  503    0 -0.24452580861E+03 -0.34322197780E+03 -0.16101295259E+03  0.45113120932E+03  0.00000000000E+00 0. -1.
         -1    1    6    6    0  503 -0.17367774460E+03 -0.35296638581E+03 -0.97950709132E+02  0.40539310539E+03  0.00000000000E+00 0.  1.
<mgrwt>
<rscale>  0 0.34597879E+04</rscale>
<asrwt>0</asrwt>
<pdfrwt beam="1">  1        4 0.14379975E+00 0.34597879E+04</pdfrwt>
<pdfrwt beam="2">  1       -3 0.49255431E+00 0.34597879E+04</pdfrwt>
<totfact> 0.20735860E-03</totfact>
</mgrwt>
</event>
<event>
12    6  0.8914180E-008  0.1997142E+04  0.7818608E-02  0.8607958E-01
         -1   -1    0    0    0  501 -0.00000000000E+00  0.00000000000E+00  0.35943773573E+03  0.35943773573E+03  0.00000000000E+00 0.  1.
          2   -1    0    0  501    0  0.00000000000E+00 -0.00000000000E+00 -0.27741762955E+04  0.27741762955E+04  0.00000000000E+00 0. -1.
         24    2    1    2    0    0 -0.72910072041E+03 -0.23963791847E+03 -0.66201112106E+03  0.10165376024E+04  0.77947291367E+02 0.  0.
        254    2    1    2    0    0  0.72910072041E+03  0.23963791847E+03 -0.17527274387E+04  0.21170764289E+04  0.90606011869E+03 0.  0.
         23    2    4    4    0    0  0.62263054446E+03  0.32618023479E+03 -0.53598063096E+03  0.88874350142E+03  0.92344106957E+02 0.  0.
         23    2    4    4    0    0  0.10647017595E+03 -0.86542316318E+02 -0.12167468078E+04  0.12283329274E+04  0.97485976039E+02 0.  0.
          4    1    3    3  502    0 -0.30456655180E+03 -0.79254344371E+02 -0.22829178727E+03  0.38879194399E+03  0.00000000000E+00 0. -1.
         -3    1    3    3    0  502 -0.42453416861E+03 -0.16038357410E+03 -0.43371933380E+03  0.62774565842E+03  0.00000000000E+00 0.  1.
         11    1    5    5    0    0  0.35414343528E+03  0.21952092866E+03 -0.35866880151E+03  0.54977297136E+03  0.00000000000E+00 0. -1.
        -11    1    5    5    0    0  0.26848710919E+03  0.10665930613E+03 -0.17731182946E+03  0.33897053006E+03  0.00000000000E+00 0.  1.
          1    1    6    6  503    0  0.38814917679E+02 -0.21632954062E+02 -0.12679540147E+03  0.13435645265E+03  0.00000000000E+00 0. -1.
         -1    1    6    6    0  503  0.67655258267E+02 -0.64909362256E+02 -0.10899514063E+04  0.10939764748E+04  0.00000000000E+00 0.  1.
<mgrwt>
<rscale>  0 0.19971416E+04</rscale>
<asrwt>0</asrwt>
<pdfrwt beam="1">  1        2 0.42679636E+00 0.19971416E+04</pdfrwt>
<pdfrwt beam="2">  1       -1 0.55298113E-01 0.19971416E+04</pdfrwt>
<totfact> 0.83944977E+00</totfact>
</mgrwt>
</event>
<event>
12    6  0.8914180E-008  0.2962748E+04  0.7818608E-02  0.8254449E-01
         -1   -1    0    0    0  501 -0.00000000000E+00  0.00000000000E+00  0.22800129973E+04  0.22800129973E+04  0.00000000000E+00 0.  1.
          2   -1    0    0  501    0  0.00000000000E+00 -0.00000000000E+00 -0.96248119690E+03  0.96248119690E+03  0.00000000000E+00 0. -1.
         24    2    1    2    0    0  0.91054933466E+03  0.97427427438E+03  0.78696190921E+03  0.15504562068E+04  0.79340721143E+02 0.  0.
        254    2    1    2    0    0 -0.91054933466E+03 -0.97427427438E+03  0.53056989124E+03  0.16920379875E+04  0.89620181261E+03 0.  0.
         23    2    4    4    0    0 -0.32176523674E+03 -0.30143708623E+02  0.46571946774E+03  0.57376101281E+03  0.88688028803E+02 0.  0.
         23    2    4    4    0    0 -0.58878409793E+03 -0.94413056576E+03  0.64850423497E+02  0.11182769746E+04  0.91041613657E+02 0.  0.
          2    1    3    3  502    0  0.60105500937E+02  0.78774282778E+02  0.38043280700E+02  0.10613835347E+03  0.00000000000E+00 0. -1.
         -1    1    3    3    0  502  0.85044383373E+03  0.89549999160E+03  0.74891862851E+03  0.14443178533E+04  0.00000000000E+00 0.  1.
         11    1    5    5    0    0 -0.14857208178E+03  0.21358938587E+02  0.16608163188E+03  0.22385927765E+03  0.00000000000E+00 0.  1.
        -11    1    5    5    0    0 -0.17319315496E+03 -0.51502647210E+02  0.29963783585E+03  0.34990173516E+03  0.00000000000E+00 0. -1.
          2    1    6    6  503    0 -0.43496110010E+03 -0.74089628603E+03  0.80577429969E+02  0.86290856264E+03  0.00000000000E+00 0. -1.
         -2    1    6    6    0  503 -0.15382299783E+03 -0.20323427973E+03 -0.15727006472E+02  0.25536841201E+03  0.00000000000E+00 0.  1.
<mgrwt>
<rscale>  0 0.29627485E+04</rscale>
<asrwt>0</asrwt>
<pdfrwt beam="1">  1        2 0.14807403E+00 0.29627485E+04</pdfrwt>
<pdfrwt beam="2">  1       -1 0.35077123E+00 0.29627485E+04</pdfrwt>
<totfact> 0.40025582E-01</totfact>
</mgrwt>
</event>
<event>
12    6  0.8914180E-008  0.2087291E+04  0.7818608E-02  0.8566862E-01
         -1   -1    0    0    0  501 -0.00000000000E+00  0.00000000000E+00  0.55062952384E+03  0.55062952384E+03  0.00000000000E+00 0.  1.
          2   -1    0    0  501    0  0.00000000000E+00 -0.00000000000E+00 -0.19780928154E+04  0.19780928154E+04  0.00000000000E+00 0. -1.
         24    2    1    2    0    0  0.70713715718E+03 -0.41333546035E+03 -0.85070133131E+03  0.11834198703E+04  0.76815834088E+02 0.  0.
        254    2    1    2    0    0 -0.70713715718E+03  0.41333546035E+03 -0.57676196024E+03  0.13453024690E+04  0.89793942579E+03 0.  0.
         23    2    4    4    0    0 -0.38708508258E+03  0.68086723372E+03 -0.38242862303E+03  0.87640172590E+03  0.91723946378E+02 0.  0.
         23    2    4    4    0    0 -0.32005207460E+03 -0.26753177337E+03 -0.19433333720E+03  0.46890074307E+03  0.89977112008E+02 0.  0.
          2    1    3    3  502    0  0.63916550829E+03 -0.38039175136E+03 -0.80054257218E+03  0.10927482973E+04  0.00000000000E+00 0. -1.
         -1    1    3    3    0  502  0.67971648897E+02 -0.32943708985E+02 -0.50158759135E+02  0.90671572907E+02  0.00000000000E+00 0.  1.
         11    1    5    5    0    0 -0.18902275619E+02  0.49084365583E+02 -0.32463766203E+01  0.52698291523E+02  0.00000000000E+00 0. -1.
        -11    1    5    5    0    0 -0.36818280696E+03  0.63178286813E+03 -0.37918224641E+03  0.82370343438E+03  0.00000000000E+00 0.  1.
          2    1    6    6  503    0 -0.13388925730E+03 -0.13057079539E+03 -0.40742074540E+02  0.19140267101E+03  0.00000000000E+00 0.  1.
         -2    1    6    6    0  503 -0.18616281730E+03 -0.13696097797E+03 -0.15359126266E+03  0.27749807207E+03  0.00000000000E+00 0. -1.
<mgrwt>
<rscale>  0 0.20872914E+04</rscale>
<asrwt>0</asrwt>
<pdfrwt beam="1">  1        2 0.30432198E+00 0.20872914E+04</pdfrwt>
<pdfrwt beam="2">  1       -1 0.84712233E-01 0.20872914E+04</pdfrwt>
<totfact> 0.99524189E+00</totfact>
</mgrwt>
</event>
<event>
12    6  0.8914180E-008  0.2820975E+04  0.7818608E-02  0.8296786E-01
          2   -1    0    0  501    0  0.00000000000E+00  0.00000000000E+00  0.30038413781E+04  0.30038413781E+04  0.00000000000E+00 0. -1.
         -1   -1    0    0    0  501 -0.00000000000E+00 -0.00000000000E+00 -0.66231019950E+03  0.66231019950E+03  0.00000000000E+00 0.  1.
         24    2    1    2    0    0  0.76291876584E+03 -0.18381334411E+03 -0.23697834885E+03  0.82320854662E+03  0.75373633669E+02 0.  0.
        254    2    1    2    0    0 -0.76291876584E+03  0.18381334411E+03  0.25785095274E+04  0.28429430310E+04  0.90431261494E+03 0.  0.
         23    2    4    4    0    0 -0.18350092534E+03 -0.10748739611E+02  0.14375451680E+02  0.20545135258E+03  0.90639283205E+02 0.  0.
         23    2    4    4    0    0 -0.57941784050E+03  0.19456208372E+03  0.25641340758E+04  0.26374916784E+04  0.89439123688E+02 0.  0.
          2    1    3    3  502    0  0.10131665347E+03 -0.41223609849E+02 -0.54709537876E+02  0.12230120120E+03  0.00000000000E+00 0. -1.
         -1    1    3    3    0  502  0.66160211237E+03 -0.14258973426E+03 -0.18226881097E+03  0.70090734542E+03  0.00000000000E+00 0.  1.
         11    1    5    5    0    0 -0.80971691898E+02 -0.47828530945E+02 -0.71673624972E+01  0.94315186192E+02  0.00000000000E+00 0. -1.
        -11    1    5    5    0    0 -0.10252923345E+03  0.37079791334E+02  0.21542814177E+02  0.11113616639E+03  0.00000000000E+00 0.  1.
          1    1    6    6  503    0 -0.18634809187E+03  0.57220905898E+02  0.65032467240E+03  0.67891238238E+03  0.00000000000E+00 0. -1.
         -1    1    6    6    0  503 -0.39306974863E+03  0.13734117783E+03  0.19138094034E+04  0.19585792960E+04  0.00000000000E+00 0.  1.
<mgrwt>
<rscale>  0 0.28209749E+04</rscale>
<asrwt>0</asrwt>
<pdfrwt beam="1">  1        2 0.46212944E+00 0.28209749E+04</pdfrwt>
<pdfrwt beam="2">  1       -1 0.10189388E+00 0.28209749E+04</pdfrwt>
<totfact> 0.15597379E+00</totfact>
</mgrwt>
</event>
<event>
12    6  0.8914180E-008  0.1417713E+04  0.7818608E-02  0.8941096E-01
          2   -1    0    0  501    0  0.00000000000E+00  0.00000000000E+00  0.20879104036E+04  0.20879104036E+04  0.00000000000E+00 0. -1.
         -1   -1    0    0    0  501 -0.00000000000E+00 -0.00000000000E+00 -0.24066054926E+03  0.24066054926E+03  0.00000000000E+00 0.  1.
         24    2    1    2    0    0  0.20665329973E+03  0.29616060304E+03  0.90752340104E+03  0.98044186221E+03  0.85151821190E+02 0.  0.
        254    2    1    2    0    0 -0.20665329973E+03 -0.29616060304E+03  0.93972645331E+03  0.13481290907E+04  0.89663233767E+03 0.  0.
         23    2    4    4    0    0 -0.15575191501E+03 -0.55549152035E+03  0.88832642012E+03  0.10636258460E+04  0.96677936641E+02 0.  0.
         23    2    4    4    0    0 -0.50901384714E+02  0.25933091731E+03  0.51400033193E+02  0.28450324464E+03  0.91960084593E+02 0.  0.
          2    1    3    3  502    0  0.19503681505E+03  0.30082374590E+03  0.87640585789E+03  0.94690100490E+03  0.00000000000E+00 0. -1.
         -1    1    3    3    0  502  0.11616484673E+02 -0.46631428661E+01  0.31117543147E+02  0.33540857309E+02  0.00000000000E+00 0.  1.
         11    1    5    5    0    0 -0.16059638162E+03 -0.44143249941E+03  0.73905632078E+03  0.87570434201E+03  0.00000000000E+00 0.  1.
        -11    1    5    5    0    0  0.48444666086E+01 -0.11405902094E+03  0.14927009933E+03  0.18792150401E+03  0.00000000000E+00 0. -1.
          4    1    6    6  503    0 -0.29918207079E+01  0.35562268703E+01 -0.15198501507E+02  0.15893149114E+02  0.00000000000E+00 0. -1.
         -4    1    6    6    0  503 -0.47909564006E+02  0.25577469044E+03  0.66598534700E+02  0.26861009552E+03  0.00000000000E+00 0.  1.
<mgrwt>
<rscale>  0 0.14177132E+04</rscale>
<asrwt>0</asrwt>
<pdfrwt beam="1">  1        2 0.32121697E+00 0.14177132E+04</pdfrwt>
<pdfrwt beam="2">  1       -1 0.37024701E-01 0.14177132E+04</pdfrwt>
<totfact> 0.46375786E+01</totfact>
</mgrwt>
</event>
<event>
12    6  0.8914180E-008  0.1282731E+04  0.7818608E-02  0.9043373E-01
         -1   -1    0    0    0  501 -0.00000000000E+00  0.00000000000E+00  0.52584989937E+03  0.52584989937E+03  0.00000000000E+00 0.  1.
          2   -1    0    0  501    0  0.00000000000E+00 -0.00000000000E+00 -0.78225664656E+03  0.78225664656E+03  0.00000000000E+00 0. -1.
         24    2    1    2    0    0  0.81892630979E+02  0.25051863859E+03  0.14626462526E+03  0.31201632206E+03  0.80590652909E+02 0.  0.
        254    2    1    2    0    0 -0.81892630979E+02 -0.25051863859E+03 -0.40267137245E+03  0.99609022387E+03  0.87211553627E+03 0.  0.
         23    2    4    4    0    0  0.97282274387E+02 -0.29567508688E+03  0.18443605347E+03  0.37353619973E+03  0.92871076090E+02 0.  0.
         23    2    4    4    0    0 -0.17917490537E+03  0.45156448285E+02 -0.58710742592E+03  0.62255402415E+03  0.93464602229E+02 0.  0.
          2    1    3    3  502    0  0.31020806874E+02  0.19651184101E+02  0.35024471253E+02  0.50746163227E+02  0.00000000000E+00 0. -1.
         -1    1    3    3    0  502  0.50871824105E+02  0.23086745449E+03  0.11124015400E+03  0.26127015883E+03  0.00000000000E+00 0.  1.
         11    1    5    5    0    0 -0.79065010034E+00 -0.85408849478E+02  0.86921576654E+02  0.12186327250E+03  0.00000000000E+00 0. -1.
        -11    1    5    5    0    0  0.98072924487E+02 -0.21026623740E+03  0.97514476818E+02  0.25167292722E+03  0.00000000000E+00 0.  1.
          4    1    6    6  503    0 -0.74980822824E+02 -0.23259075567E+02 -0.28812530728E+03  0.29862903590E+03  0.00000000000E+00 0. -1.
         -4    1    6    6    0  503 -0.10419408254E+03  0.68415523852E+02 -0.29898211864E+03  0.32392498824E+03  0.00000000000E+00 0.  1.
<mgrwt>
<rscale>  0 0.12827308E+04</rscale>
<asrwt>0</asrwt>
<pdfrwt beam="1">  1        2 0.12034718E+00 0.12827308E+04</pdfrwt>
<pdfrwt beam="2">  1       -1 0.80899984E-01 0.12827308E+04</pdfrwt>
<totfact> 0.60585353E+01</totfact>
</mgrwt>
</event>
<event>
12    6  0.8914180E-008  0.1081672E+04  0.7818608E-02  0.9223242E-01
         -1   -1    0    0    0  501 -0.00000000000E+00  0.00000000000E+00  0.15685440598E+03  0.15685440598E+03  0.00000000000E+00 0.  1.
          2   -1    0    0  501    0  0.00000000000E+00 -0.00000000000E+00 -0.18648082962E+04  0.18648082962E+04  0.00000000000E+00 0. -1.
         24    2    1    2    0    0 -0.10761775506E+03  0.95698451253E+02 -0.31023723742E+03  0.35011884499E+03  0.74808337484E+02 0.  0.
        254    2    1    2    0    0  0.10761775506E+03 -0.95698451253E+02 -0.13977166528E+04  0.16715438572E+04  0.90537685538E+03 0.  0.
         23    2    4    4    0    0  0.46754799493E+03  0.78066478442E+02 -0.94007127611E+03  0.10568692148E+04  0.92428515225E+02 0.  0.
         23    2    4    4    0    0 -0.35993023987E+03 -0.17376492969E+03 -0.45764537668E+03  0.61467464238E+03  0.92960189440E+02 0.  0.
          4    1    3    3  502    0 -0.11641093028E+03  0.74421181021E+02 -0.25013238798E+03  0.28575553956E+03  0.00000000000E+00 0. -1.
         -3    1    3    3    0  502  0.87931752233E+01  0.21277270232E+02 -0.60104849441E+02  0.64363305426E+02  0.00000000000E+00 0.  1.
         11    1    5    5    0    0  0.15012185753E+03  0.66325844162E+02 -0.35604004784E+03  0.39204617760E+03  0.00000000000E+00 0. -1.
        -11    1    5    5    0    0  0.31742613741E+03  0.11740634280E+02 -0.58403122828E+03  0.66482303721E+03  0.00000000000E+00 0.  1.
          1    1    6    6  503    0 -0.10700789188E+03 -0.24091486566E+02 -0.78115632590E+02  0.13465935060E+03  0.00000000000E+00 0. -1.
         -1    1    6    6    0  503 -0.25292234800E+03 -0.14967344313E+03 -0.37952974409E+03  0.48001529178E+03  0.00000000000E+00 0.  1.
<mgrwt>
<rscale>  0 0.10816717E+04</rscale>
<asrwt>0</asrwt>
<pdfrwt beam="1">  1        2 0.28689359E+00 0.10816717E+04</pdfrwt>
<pdfrwt beam="2">  1       -1 0.24131447E-01 0.10816717E+04</pdfrwt>
<totfact> 0.13400371E+02</totfact>
</mgrwt>
</event>
<event>
12    6  0.8914180E-008  0.1774203E+04  0.7818608E-02  0.8720140E-01
         -1   -1    0    0    0  501 -0.00000000000E+00  0.00000000000E+00  0.47278867921E+03  0.47278867921E+03  0.00000000000E+00 0.  1.
          2   -1    0    0  501    0  0.00000000000E+00 -0.00000000000E+00 -0.16644838612E+04  0.16644838612E+04  0.00000000000E+00 0. -1.
         24    2    1    2    0    0 -0.41637821209E+03  0.49530400788E+03 -0.58761174557E+03  0.87768461491E+03  0.79660805856E+02 0.  0.
        254    2    1    2    0    0  0.41637821209E+03 -0.49530400788E+03 -0.60408343645E+03  0.12595879255E+04  0.89607369578E+03 0.  0.
         23    2    4    4    0    0  0.70835343925E+02 -0.23098001939E+02 -0.65464107009E+03  0.66511936689E+03  0.90981745007E+02 0.  0.
         23    2    4    4    0    0  0.34554286816E+03 -0.47220600594E+03  0.50557633641E+02  0.59446855865E+03  0.91969598913E+02 0.  0.
          2    1    3    3  502    0 -0.25998642726E+03  0.30676319441E+03 -0.31210350692E+03  0.50902377040E+03  0.00000000000E+00 0. -1.
         -1    1    3    3    0  502 -0.15639178482E+03  0.18854081347E+03 -0.27550823865E+03  0.36866084450E+03  0.00000000000E+00 0.  1.
         11    1    5    5    0    0  0.90340371776E+02 -0.84624539526E+01 -0.45208202607E+03  0.46109777075E+03  0.00000000000E+00 0. -1.
        -11    1    5    5    0    0 -0.19505027851E+02 -0.14635547986E+02 -0.20255904402E+03  0.20402159614E+03  0.00000000000E+00 0.  1.
          3    1    6    6  503    0  0.28101643555E+03 -0.41478007422E+03  0.70139217599E+02  0.50589747663E+03  0.00000000000E+00 0. -1.
         -3    1    6    6    0  503  0.64526432616E+02 -0.57425931716E+02 -0.19581583957E+02  0.88571082018E+02  0.00000000000E+00 0.  1.
<mgrwt>
<rscale>  0 0.17742031E+04</rscale>
<asrwt>0</asrwt>
<pdfrwt beam="1">  1        2 0.25607444E+00 0.17742031E+04</pdfrwt>
<pdfrwt beam="2">  1       -1 0.72736719E-01 0.17742031E+04</pdfrwt>
<totfact> 0.21081233E+01</totfact>
</mgrwt>
</event>
<event>
12    6  0.8914180E-008  0.1576223E+04  0.7818608E-02  0.8835290E-01
          2   -1    0    0  501    0  0.00000000000E+00  0.00000000000E+00  0.25077006374E+04  0.25077006374E+04  0.00000000000E+00 0. -1.
         -1   -1    0    0    0  501 -0.00000000000E+00 -0.00000000000E+00 -0.24768487784E+03  0.24768487784E+03  0.00000000000E+00 0.  1.
         24    2    1    2    0    0  0.27688884020E+03  0.44706533505E+03  0.74269962569E+03  0.91368720506E+03  0.81772434602E+02 0.  0.
        254    2    1    2    0    0 -0.27688884020E+03 -0.44706533505E+03  0.15173161339E+04  0.18416983102E+04  0.90170370521E+03 0.  0.
         23    2    4    4    0    0  0.19118595377E+03 -0.48870042933E+03  0.56793804124E+03  0.77851997149E+03  0.90330220742E+02 0.  0.
         23    2    4    4    0    0 -0.46807479398E+03  0.41635094286E+02  0.94937809263E+03  0.10631783387E+04  0.90564470121E+02 0.  0.
          4    1    3    3  502    0  0.25632871682E+03  0.36287577477E+03  0.59718821210E+03  0.74432318226E+03  0.00000000000E+00 0. -1.
         -3    1    3    3    0  502  0.20560123380E+02  0.84189560274E+02  0.14551141359E+03  0.16936402280E+03  0.00000000000E+00 0.  1.
         11    1    5    5    0    0  0.62337273555E+02 -0.26333521297E+03  0.32573742917E+03  0.42348110091E+03  0.00000000000E+00 0.  1.
        -11    1    5    5    0    0  0.12884868022E+03 -0.22536521636E+03  0.24220061206E+03  0.35503887058E+03  0.00000000000E+00 0. -1.
          1    1    6    6  503    0 -0.76726209404E+02 -0.12708666391E+02  0.10247171248E+03  0.12864242406E+03  0.00000000000E+00 0. -1.
         -1    1    6    6    0  503 -0.39134858457E+03  0.54343760678E+02  0.84690638015E+03  0.93453591462E+03  0.00000000000E+00 0.  1.
<mgrwt>
<rscale>  0 0.15762227E+04</rscale>
<asrwt>0</asrwt>
<pdfrwt beam="1">  1        2 0.38580008E+00 0.15762227E+04</pdfrwt>
<pdfrwt beam="2">  1       -1 0.38105367E-01 0.15762227E+04</pdfrwt>
<totfact> 0.25144402E+01</totfact>
</mgrwt>
</event>
<event>
12    6  0.8914180E-008  0.1821712E+04  0.7818608E-02  0.8694838E-01
         -1   -1    0    0    0  501 -0.00000000000E+00  0.00000000000E+00  0.79345444944E+03  0.79345444944E+03  0.00000000000E+00 0.  1.
          2   -1    0    0  501    0  0.00000000000E+00 -0.00000000000E+00 -0.10456281318E+04  0.10456281318E+04  0.00000000000E+00 0. -1.
         24    2    1    2    0    0  0.20535768030E+03  0.61573175895E+01  0.56553916947E+03  0.60691039847E+03  0.79347275589E+02 0.  0.
        254    2    1    2    0    0 -0.20535768030E+03 -0.61573175895E+01 -0.81771285179E+03  0.12321721827E+04  0.89854565299E+03 0.  0.
         23    2    4    4    0    0  0.64742373656E+02  0.39044229398E+03 -0.22522139403E+03  0.46437067588E+03  0.90987298063E+02 0.  0.
         23    2    4    4    0    0 -0.27010005396E+03 -0.39659961157E+03 -0.59249145776E+03  0.76780150686E+03  0.90706865060E+02 0.  0.
          4    1    3    3  502    0  0.33490664083E+02  0.31454398123E+02  0.10129029436E+03  0.11122377207E+03  0.00000000000E+00 0. -1.
         -3    1    3    3    0  502  0.17186701622E+03 -0.25297080534E+02  0.46424887511E+03  0.49568662640E+03  0.00000000000E+00 0.  1.
         11    1    5    5    0    0  0.15734761807E+02  0.30159497763E+03 -0.19078149256E+03  0.35721798829E+03  0.00000000000E+00 0. -1.
        -11    1    5    5    0    0  0.49007611849E+02  0.88847316359E+02 -0.34439901473E+02  0.10715268759E+03  0.00000000000E+00 0.  1.
          2    1    6    6  503    0 -0.14697862239E+03 -0.29145910598E+03 -0.39832832735E+03  0.51499182738E+03  0.00000000000E+00 0. -1.
         -2    1    6    6    0  503 -0.12312143157E+03 -0.10514050559E+03 -0.19416313041E+03  0.25280967948E+03  0.00000000000E+00 0.  1.
<mgrwt>
<rscale>  0 0.18217116E+04</rscale>
<asrwt>0</asrwt>
<pdfrwt beam="1">  1        2 0.16086587E+00 0.18217116E+04</pdfrwt>
<pdfrwt beam="2">  1       -1 0.12206991E+00 0.18217116E+04</pdfrwt>
<totfact> 0.15033782E+01</totfact>
</mgrwt>
</event>
<event>
12    6  0.8914180E-008  0.4631422E+04  0.7818608E-02  0.7888024E-01
         -1   -1    0    0    0  501 -0.00000000000E+00  0.00000000000E+00  0.13585038005E+04  0.13585038005E+04  0.00000000000E+00 0.  1.
          2   -1    0    0  501    0  0.00000000000E+00 -0.00000000000E+00 -0.39473709492E+04  0.39473709492E+04  0.00000000000E+00 0. -1.
         24    2    1    2    0    0 -0.76446702503E+03  0.33774484627E+03  0.11181682696E+04  0.13984306638E+04  0.82623416033E+02 0.  0.
        254    2    1    2    0    0  0.76446702503E+03 -0.33774484627E+03 -0.37070354183E+04  0.39074440858E+04  0.90968471335E+03 0.  0.
         23    2    4    4    0    0  0.82104917448E+03 -0.55357782590E+03 -0.29231520444E+04  0.30876609719E+04  0.90896898563E+02 0.  0.
         23    2    4    4    0    0 -0.56582149452E+02  0.21583297963E+03 -0.78388337391E+03  0.81978311397E+03  0.88237153906E+02 0.  0.
          2    1    3    3  502    0 -0.14203514283E+03  0.39680669546E+02  0.23769488907E+03  0.27972736303E+03  0.00000000000E+00 0. -1.
         -1    1    3    3    0  502 -0.62243188219E+03  0.29806417673E+03  0.88047338050E+03  0.11187033008E+04  0.00000000000E+00 0.  1.
         11    1    5    5    0    0  0.36911709385E+03 -0.19646446101E+03 -0.11949093758E+04  0.12659597663E+04  0.00000000000E+00 0.  1.
        -11    1    5    5    0    0  0.45193208063E+03 -0.35711336489E+03 -0.17282426686E+04  0.18217012056E+04  0.00000000000E+00 0. -1.
          3    1    6    6  503    0  0.19765898362E+01  0.12762925237E+03 -0.33273888950E+03  0.35638224079E+03  0.00000000000E+00 0. -1.
         -3    1    6    6    0  503 -0.58558739288E+02  0.88203727267E+02 -0.45114448441E+03  0.46340087318E+03  0.00000000000E+00 0.  1.
<mgrwt>
<rscale>  0 0.46314224E+04</rscale>
<asrwt>0</asrwt>
<pdfrwt beam="1">  1        2 0.60728784E+00 0.46314224E+04</pdfrwt>
<pdfrwt beam="2">  1       -1 0.20900059E+00 0.46314224E+04</pdfrwt>
<totfact> 0.41717954E-02</totfact>
</mgrwt>
</event>
<event>
12    6  0.8914180E-008  0.1572248E+04  0.7818608E-02  0.8837781E-01
         -1   -1    0    0    0  501 -0.00000000000E+00  0.00000000000E+00  0.32728504136E+03  0.32728504136E+03  0.00000000000E+00 0.  1.
          2   -1    0    0  501    0  0.00000000000E+00 -0.00000000000E+00 -0.18882337184E+04  0.18882337184E+04  0.00000000000E+00 0. -1.
         24    2    1    2    0    0  0.35253591874E+03  0.18792640589E+03 -0.10546201643E+04  0.11305908980E+04  0.80088573025E+02 0.  0.
        254    2    1    2    0    0 -0.35253591874E+03 -0.18792640589E+03 -0.50632851265E+03  0.10849278617E+04  0.87241159690E+03 0.  0.
         23    2    4    4    0    0 -0.56722035460E+03 -0.15351523578E+01 -0.10217735975E+03  0.58222540588E+03  0.82491957390E+02 0.  0.
         23    2    4    4    0    0  0.21468443586E+03 -0.18639125353E+03 -0.40415115290E+03  0.50270245586E+03  0.92414816667E+02 0.  0.
          2    1    3    3  502    0  0.21513672690E+03  0.12230917803E+03 -0.54178910552E+03  0.59563309272E+03  0.00000000000E+00 0. -1.
         -1    1    3    3    0  502  0.13739919184E+03  0.65617227858E+02 -0.51283105882E+03  0.53495780526E+03  0.00000000000E+00 0.  1.
         11    1    5    5    0    0 -0.55371840770E+03  0.84471000489E+01 -0.10844752300E+03  0.56430159823E+03  0.00000000000E+00 0.  1.
        -11    1    5    5    0    0 -0.13501946908E+02 -0.99822524067E+01  0.62701632484E+01  0.17923807647E+02  0.00000000000E+00 0. -1.
          2    1    6    6  503    0  0.80692208271E+02 -0.62858172557E+02 -0.22493621289E+03  0.24710055079E+03  0.00000000000E+00 0. -1.
         -2    1    6    6    0  503  0.13399222759E+03 -0.12353308097E+03 -0.17921494001E+03  0.25560190507E+03  0.00000000000E+00 0.  1.
<mgrwt>
<rscale>  0 0.15722476E+04</rscale>
<asrwt>0</asrwt>
<pdfrwt beam="1">  1        2 0.29049749E+00 0.15722476E+04</pdfrwt>
<pdfrwt beam="2">  1       -1 0.50351545E-01 0.15722476E+04</pdfrwt>
<totfact> 0.33422086E+01</totfact>
</mgrwt>
</event>
<event>
12    6  0.8914180E-008  0.3419513E+04  0.7818608E-02  0.8133134E-01
          2   -1    0    0  501    0  0.00000000000E+00  0.00000000000E+00  0.33561973061E+04  0.33561973061E+04  0.00000000000E+00 0. -1.
         -1   -1    0    0    0  501 -0.00000000000E+00 -0.00000000000E+00 -0.87100575172E+03  0.87100575172E+03  0.00000000000E+00 0.  1.
         24    2    1    2    0    0 -0.47537681999E+03  0.11869665310E+04 -0.11887899946E+02  0.12811868788E+04  0.80161273099E+02 0.  0.
        254    2    1    2    0    0  0.47537681999E+03 -0.11869665310E+04  0.24970794543E+04  0.29460161790E+04  0.89929575725E+03 0.  0.
         23    2    4    4    0    0 -0.16192805404E+03 -0.72865496479E+03  0.97832066806E+03  0.12340434517E+04  0.92699292377E+02 0.  0.
         23    2    4    4    0    0  0.63730487403E+03 -0.45831156618E+03  0.15187587863E+04  0.17119727273E+04  0.89528620289E+02 0.  0.
          4    1    3    3  502    0 -0.97704605616E+02  0.21582502531E+03 -0.31582600981E+02  0.23900646893E+03  0.00000000000E+00 0. -1.
         -3    1    3    3    0  502 -0.37767221438E+03  0.97114150567E+03  0.19694701035E+02  0.10421804099E+04  0.00000000000E+00 0.  1.
         11    1    5    5    0    0 -0.81946501701E+02 -0.19327620163E+03  0.24660986539E+03  0.32386315778E+03  0.00000000000E+00 0. -1.
        -11    1    5    5    0    0 -0.79981552336E+02 -0.53537876316E+03  0.73171080267E+03  0.91018029395E+03  0.00000000000E+00 0.  1.
          3    1    6    6  503    0  0.18655042378E+01 -0.44558184100E+01  0.74290994741E+00  0.48873652364E+01  0.00000000000E+00 0. -1.
         -3    1    6    6    0  503  0.63543936979E+03 -0.45385574777E+03  0.15180158763E+04  0.17070853620E+04  0.00000000000E+00 0.  1.
<mgrwt>
<rscale>  0 0.34195129E+04</rscale>
<asrwt>0</asrwt>
<pdfrwt beam="1">  1        2 0.51633804E+00 0.34195129E+04</pdfrwt>
<pdfrwt beam="2">  1       -1 0.13400089E+00 0.34195129E+04</pdfrwt>
<totfact> 0.44960699E-01</totfact>
</mgrwt>
</event>
<event>
12    6  0.8914180E-008  0.2467679E+04  0.7818608E-02  0.8414592E-01
         -3   -1    0    0    0  501 -0.00000000000E+00  0.00000000000E+00  0.14155975505E+04  0.14155975505E+04  0.00000000000E+00 0.  1.
          2   -1    0    0  501    0  0.00000000000E+00 -0.00000000000E+00 -0.10754181953E+04  0.10754181953E+04  0.00000000000E+00 0. -1.
         24    2    1    2    0    0 -0.52074254087E+03  0.85642379122E+03 -0.20805556196E+03  0.10268423984E+04  0.80521365647E+02 0.  0.
        254    2    1    2    0    0  0.52074254087E+03 -0.85642379122E+03  0.54823491718E+03  0.14641733474E+04  0.91575518712E+03 0.  0.
         23    2    4    4    0    0 -0.86812749043E+02 -0.18844149177E+03  0.50784100189E+03  0.55622200977E+03  0.91835677867E+02 0.  0.
         23    2    4    4    0    0  0.60755528991E+03 -0.66798229945E+03  0.40393915287E+02  0.90795133761E+03  0.86140469068E+02 0.  0.
          2    1    3    3  502    0 -0.34905546501E+03  0.50791799980E+03 -0.10829964488E+03  0.62573894337E+03  0.00000000000E+00 0. -1.
         -1    1    3    3    0  502 -0.17168707586E+03  0.34850579142E+03 -0.99755917082E+02  0.40110345506E+03  0.00000000000E+00 0.  1.
         11    1    5    5    0    0  0.15185131761E+02 -0.65059158515E+02  0.15048273821E+03  0.16464609571E+03  0.00000000000E+00 0.  1.
        -11    1    5    5    0    0 -0.10199788080E+03 -0.12338233326E+03  0.35735826368E+03  0.39157591406E+03  0.00000000000E+00 0. -1.
          3    1    6    6  503    0  0.57149850451E+03 -0.63533843120E+03  0.57258780590E+02  0.85647185055E+03  0.00000000000E+00 0. -1.
         -3    1    6    6    0  503  0.36056785398E+02 -0.32643868245E+02 -0.16864865302E+02  0.51479487069E+02  0.00000000000E+00 0.  1.
<mgrwt>
<rscale>  0 0.24676786E+04</rscale>
<asrwt>0</asrwt>
<pdfrwt beam="1">  1        2 0.16544895E+00 0.24676786E+04</pdfrwt>
<pdfrwt beam="2">  1       -3 0.21778424E+00 0.24676786E+04</pdfrwt>
<totfact> 0.14414678E+00</totfact>
</mgrwt>
</event>
<event>
12    6  0.8914180E-008  0.2932408E+04  0.7818608E-02  0.8263300E-01
         -1   -1    0    0    0  501 -0.00000000000E+00  0.00000000000E+00  0.91199490549E+03  0.91199490549E+03  0.00000000000E+00 0.  1.
          2   -1    0    0  501    0  0.00000000000E+00 -0.00000000000E+00 -0.23572003898E+04  0.23572003898E+04  0.00000000000E+00 0. -1.
         24    2    1    2    0    0 -0.67720530670E+03  0.26027836639E+03  0.58451186121E+03  0.93494530323E+03  0.78209645797E+02 0.  0.
        254    2    1    2    0    0  0.67720530670E+03 -0.26027836639E+03 -0.20297173455E+04  0.23342499920E+04  0.89588987452E+03 0.  0.
         23    2    4    4    0    0  0.22558899407E+03 -0.28398243229E+03 -0.15776832550E+03  0.40626219794E+03  0.92853178972E+02 0.  0.
         23    2    4    4    0    0  0.45161631263E+03  0.23704065909E+02 -0.18719490200E+04  0.19279877941E+04  0.91785751302E+02 0.  0.
          4    1    3    3  502    0 -0.89381336160E+02  0.71361177819E+01  0.69319674318E+02  0.11333651079E+03  0.00000000000E+00 0. -1.
         -3    1    3    3    0  502 -0.58782397054E+03  0.25314224860E+03  0.51519218689E+03  0.82160879244E+03  0.00000000000E+00 0.  1.
         11    1    5    5    0    0  0.21153409578E+03 -0.20747325622E+03 -0.13138854290E+03  0.32412154345E+03  0.00000000000E+00 0.  1.
        -11    1    5    5    0    0  0.14054898293E+02 -0.76509176078E+02 -0.26379782600E+02  0.82140654491E+02  0.00000000000E+00 0. -1.
          4    1    6    6  503    0  0.93405268607E+02 -0.29232907696E+02 -0.46509447710E+03  0.47528094820E+03  0.00000000000E+00 0. -1.
         -4    1    6    6    0  503  0.35821104403E+03  0.52936973605E+02 -0.14068545429E+04  0.14527068459E+04  0.00000000000E+00 0.  1.
<mgrwt>
<rscale>  0 0.29324084E+04</rscale>
<asrwt>0</asrwt>
<pdfrwt beam="1">  1        2 0.36264622E+00 0.29324084E+04</pdfrwt>
<pdfrwt beam="2">  1       -1 0.14030691E+00 0.29324084E+04</pdfrwt>
<totfact> 0.17151763E+00</totfact>
</mgrwt>
</event>
<event>
12    6  0.8914180E-008  0.3171462E+04  0.7818608E-02  0.8196395E-01
          2   -1    0    0  501    0  0.00000000000E+00  0.00000000000E+00  0.14433847246E+04  0.14433847246E+04  0.00000000000E+00 0. -1.
         -1   -1    0    0    0  501 -0.00000000000E+00 -0.00000000000E+00 -0.17421152545E+04  0.17421152545E+04  0.00000000000E+00 0.  1.
         24    2    1    2    0    0  0.59678345437E+03  0.62080285416E+03 -0.13182524570E+04  0.15765474924E+04  0.78522483540E+02 0.  0.
        254    2    1    2    0    0 -0.59678345437E+03 -0.62080285416E+03  0.10195219270E+04  0.16089524867E+04  0.89875272998E+03 0.  0.
         23    2    4    4    0    0 -0.12268676283E+03 -0.58211105168E+03  0.94321133449E+03  0.11188388905E+04  0.90815874653E+02 0.  0.
         23    2    4    4    0    0 -0.47409669154E+03 -0.38691802481E+02  0.76310592561E+02  0.49011359624E+03  0.90129363536E+02 0.  0.
          2    1    3    3  502    0  0.25748567333E+03  0.28245490261E+03 -0.51680459189E+03  0.64278039032E+03  0.00000000000E+00 0. -1.
         -1    1    3    3    0  502  0.33929778105E+03  0.33834795155E+03 -0.80144786507E+03  0.93376710210E+03  0.00000000000E+00 0.  1.
         11    1    5    5    0    0 -0.98123988053E+02 -0.53507310093E+03  0.81282158943E+03  0.97806465871E+03  0.00000000000E+00 0. -1.
        -11    1    5    5    0    0 -0.24562774781E+02 -0.47037950748E+02  0.13038974505E+03  0.14077423177E+03  0.00000000000E+00 0.  1.
          1    1    6    6  503    0 -0.37133270487E+03 -0.11643306017E+01  0.83035861662E+02  0.38050530574E+03  0.00000000000E+00 0. -1.
         -1    1    6    6    0  503 -0.10276398667E+03 -0.37527471880E+02 -0.67252691017E+01  0.10960829050E+03  0.00000000000E+00 0.  1.
<mgrwt>
<rscale>  0 0.31714618E+04</rscale>
<asrwt>0</asrwt>
<pdfrwt beam="1">  1        2 0.22205919E+00 0.31714618E+04</pdfrwt>
<pdfrwt beam="2">  1       -1 0.26801773E+00 0.31714618E+04</pdfrwt>
<totfact> 0.69910806E-01</totfact>
</mgrwt>
</event>
<event>
12    6  0.8914180E-008  0.1195046E+04  0.7818608E-02  0.9117203E-01
         -1   -1    0    0    0  501 -0.00000000000E+00  0.00000000000E+00  0.12286538054E+04  0.12286538054E+04  0.00000000000E+00 0.  1.
          4   -1    0    0  501    0  0.00000000000E+00 -0.00000000000E+00 -0.29058956926E+03  0.29058956926E+03  0.00000000000E+00 0. -1.
         24    2    1    2    0    0 -0.25236033571E+03 -0.71363829372E+02  0.14094071599E+03  0.30969921666E+03  0.85268893439E+02 0.  0.
        254    2    1    2    0    0  0.25236033571E+03  0.71363829372E+02  0.79712352013E+03  0.12095441580E+04  0.87109851830E+03 0.  0.
         23    2    4    4    0    0  0.49413786561E+03  0.28073996119E+03  0.48004200953E+03  0.74988763515E+03  0.94360894449E+02 0.  0.
         23    2    4    4    0    0 -0.24177752989E+03 -0.20937613181E+03  0.31708151060E+03  0.45965652284E+03  0.91916788951E+02 0.  0.
          4    1    3    3  502    0 -0.24283337460E+03 -0.75463591328E+02  0.15058949669E+03  0.29553341258E+03  0.00000000000E+00 0. -1.
         -3    1    3    3    0  502 -0.95269611168E+01  0.40997619555E+01 -0.96487807010E+01  0.14165804080E+02  0.00000000000E+00 0.  1.
         11    1    5    5    0    0  0.45217992561E+03  0.25082376156E+03  0.39599011248E+03  0.65129671707E+03  0.00000000000E+00 0.  1.
        -11    1    5    5    0    0  0.41957939993E+02  0.29916199627E+02  0.84051897055E+02  0.98590918077E+02  0.00000000000E+00 0. -1.
          4    1    6    6  503    0 -0.29693463562E+02  0.56733242405E+01  0.21879019913E+02  0.37317286860E+02  0.00000000000E+00 0. -1.
         -4    1    6    6    0  503 -0.21208406633E+03 -0.21504945605E+03  0.29520249069E+03  0.42233923598E+03  0.00000000000E+00 0.  1.
<mgrwt>
<rscale>  0 0.11950464E+04</rscale>
<asrwt>0</asrwt>
<pdfrwt beam="1">  1        4 0.44706088E-01 0.11950464E+04</pdfrwt>
<pdfrwt beam="2">  1       -1 0.18902366E+00 0.11950464E+04</pdfrwt>
<totfact> 0.36286508E+00</totfact>
</mgrwt>
</event>
<event>
12    6  0.8914180E-008  0.1242697E+04  0.7818608E-02  0.9076283E-01
          2   -1    0    0  501    0  0.00000000000E+00  0.00000000000E+00  0.79042075526E+03  0.79042075526E+03  0.00000000000E+00 0. -1.
         -1   -1    0    0    0  501 -0.00000000000E+00 -0.00000000000E+00 -0.48844142763E+03  0.48844142763E+03  0.00000000000E+00 0.  1.
         24    2    1    2    0    0  0.23025592568E+03  0.14073309937E+03 -0.85542306730E+01  0.28137869561E+03  0.79228775755E+02 0.  0.
        254    2    1    2    0    0 -0.23025592568E+03 -0.14073309937E+03  0.31053355831E+03  0.99748348728E+03  0.90869060741E+03 0.  0.
         23    2    4    4    0    0  0.34982941626E+02  0.35991200055E+03  0.14437942642E+03  0.40006170031E+03  0.91888470110E+02 0.  0.
         23    2    4    4    0    0 -0.26523886731E+03 -0.50064509992E+03  0.16615413188E+03  0.59742178697E+03  0.91150552346E+02 0.  0.
          4    1    3    3  502    0  0.25820767681E+02  0.16102356733E+02 -0.27746731670E+02  0.41181052128E+02  0.00000000000E+00 0. -1.
         -3    1    3    3    0  502  0.20443515800E+03  0.12463074264E+03  0.19192500997E+02  0.24019764348E+03  0.00000000000E+00 0.  1.
         11    1    5    5    0    0 -0.28874243936E+02  0.62744828367E+02  0.23537066146E+02  0.72970055040E+02  0.00000000000E+00 0.  1.
        -11    1    5    5    0    0  0.63857185562E+02  0.29716717218E+03  0.12084236028E+03  0.32709164528E+03  0.00000000000E+00 0. -1.
          3    1    6    6  503    0 -0.18553290861E+03 -0.31403005184E+03  0.64289356001E+02  0.37036529931E+03  0.00000000000E+00 0. -1.
         -3    1    6    6    0  503 -0.79705958703E+02 -0.18661504808E+03  0.10186477588E+03  0.22705648766E+03  0.00000000000E+00 0.  1.
<mgrwt>
<rscale>  0 0.12426975E+04</rscale>
<asrwt>0</asrwt>
<pdfrwt beam="1">  1        2 0.12160319E+00 0.12426975E+04</pdfrwt>
<pdfrwt beam="2">  1       -1 0.75144835E-01 0.12426975E+04</pdfrwt>
<totfact> 0.70047885E+01</totfact>
</mgrwt>
</event>
<event>
12    6  0.8914180E-008  0.2045127E+04  0.7818608E-02  0.8585808E-01
          2   -1    0    0  501    0  0.00000000000E+00  0.00000000000E+00  0.19092211020E+04  0.19092211020E+04  0.00000000000E+00 0. -1.
         -1   -1    0    0    0  501 -0.00000000000E+00 -0.00000000000E+00 -0.54767697281E+03  0.54767697281E+03  0.00000000000E+00 0.  1.
         24    2    1    2    0    0  0.46818983293E+03 -0.54529030047E+03  0.10318322004E+04  0.12598876717E+04  0.78077040481E+02 0.  0.
        254    2    1    2    0    0 -0.46818983293E+03  0.54529030047E+03  0.32971192878E+03  0.11970104030E+04  0.89865494909E+03 0.  0.
         23    2    4    4    0    0 -0.21578804364E+03  0.95720239527E+02  0.56714112569E+03  0.62247947102E+03  0.10052259127E+03 0.  0.
         23    2    4    4    0    0 -0.25240178929E+03  0.44957006094E+03 -0.23742919691E+03  0.57453093201E+03  0.88844050737E+02 0.  0.
          2    1    3    3  502    0  0.34361057386E+03 -0.37788047228E+03  0.67407071821E+03  0.84571461555E+03  0.00000000000E+00 0. -1.
         -1    1    3    3    0  502  0.12457925907E+03 -0.16740982819E+03  0.35776148216E+03  0.41417305620E+03  0.00000000000E+00 0.  1.
         11    1    5    5    0    0 -0.21148400064E+03  0.91200997175E+02  0.57061208748E+03  0.61533832872E+03  0.00000000000E+00 0.  1.
        -11    1    5    5    0    0 -0.43040429986E+01  0.45192423517E+01 -0.34709617896E+01  0.71411422974E+01  0.00000000000E+00 0. -1.
          3    1    6    6  503    0 -0.37241326008E+02  0.27226716065E+02 -0.40025665891E+02  0.61075890174E+02  0.00000000000E+00 0. -1.
         -3    1    6    6    0  503 -0.21516046329E+03  0.42234334488E+03 -0.19740353102E+03  0.51345504183E+03  0.00000000000E+00 0.  1.
<mgrwt>
<rscale>  0 0.20451273E+04</rscale>
<asrwt>0</asrwt>
<pdfrwt beam="1">  1        2 0.29372632E+00 0.20451273E+04</pdfrwt>
<pdfrwt beam="2">  1       -1 0.84257997E-01 0.20451273E+04</pdfrwt>
<totfact> 0.11035897E+01</totfact>
</mgrwt>
</event>
<event>
12    6  0.8914180E-008  0.2988807E+04  0.7818608E-02  0.8246934E-01
         -1   -1    0    0    0  501 -0.00000000000E+00  0.00000000000E+00  0.19157054180E+04  0.19157054180E+04  0.00000000000E+00 0.  1.
          2   -1    0    0  501    0  0.00000000000E+00 -0.00000000000E+00 -0.11657546214E+04  0.11657546214E+04  0.00000000000E+00 0. -1.
         24    2    1    2    0    0 -0.92872243102E+02  0.83895478882E+02 -0.10577830133E+04  0.10679557461E+04  0.77206654556E+02 0.  0.
        254    2    1    2    0    0  0.92872243102E+02 -0.83895478882E+02  0.18077338098E+04  0.20135042933E+04  0.87785779443E+03 0.  0.
         23    2    4    4    0    0  0.22484799025E+03  0.34863458447E+03  0.90359064001E+03  0.99845210498E+03  0.91257158716E+02 0.  0.
         23    2    4    4    0    0 -0.13197574715E+03 -0.43253006336E+03  0.90414316979E+03  0.10150521883E+04  0.91412362649E+02 0.  0.
          2    1    3    3  502    0 -0.91262154139E+02  0.92542525040E+02 -0.84005800831E+03  0.85005314954E+03  0.00000000000E+00 0. -1.
         -1    1    3    3    0  502 -0.16100889632E+01 -0.86470461575E+01 -0.21772500497E+03  0.21790259655E+03  0.00000000000E+00 0.  1.
         11    1    5    5    0    0  0.22103578792E+03  0.28782681460E+03  0.74896345967E+03  0.83225438339E+03  0.00000000000E+00 0. -1.
        -11    1    5    5    0    0  0.38122023310E+01  0.60807769870E+02  0.15462718034E+03  0.16619772159E+03  0.00000000000E+00 0.  1.
          1    1    6    6  503    0 -0.63707518226E+02 -0.30164129006E+03  0.53477213606E+03  0.61727413137E+03  0.00000000000E+00 0.  1.
         -1    1    6    6    0  503 -0.68268228926E+02 -0.13088877329E+03  0.36937103373E+03  0.39777805698E+03  0.00000000000E+00 0. -1.
<mgrwt>
<rscale>  0 0.29888074E+04</rscale>
<asrwt>0</asrwt>
<pdfrwt beam="1">  1        2 0.17934686E+00 0.29888074E+04</pdfrwt>
<pdfrwt beam="2">  1       -1 0.29472391E+00 0.29888074E+04</pdfrwt>
<totfact> 0.69268636E-01</totfact>
</mgrwt>
</event>
<event>
12    6  0.8914180E-008  0.2295610E+04  0.7818608E-02  0.8479654E-01
         -1   -1    0    0    0  501 -0.00000000000E+00  0.00000000000E+00  0.93341293032E+03  0.93341293032E+03  0.00000000000E+00 0.  1.
          2   -1    0    0  501    0  0.00000000000E+00 -0.00000000000E+00 -0.14114397413E+04  0.14114397413E+04  0.00000000000E+00 0. -1.
         24    2    1    2    0    0  0.44677772980E+03  0.67424133638E+02 -0.10767464258E+04  0.11704455024E+04  0.80021590421E+02 0.  0.
        254    2    1    2    0    0 -0.44677772980E+03 -0.67424133638E+02  0.59871961487E+03  0.11744071692E+04  0.90366513054E+03 0.  0.
         23    2    4    4    0    0  0.50835451232E+02 -0.20451298735E+03 -0.13938378347E+03  0.26889078847E+03  0.92003325637E+02 0.  0.
         23    2    4    4    0    0 -0.49761318103E+03  0.13708885372E+03  0.73810339834E+03  0.90551638072E+03  0.93547086304E+02 0.  0.
          2    1    3    3  502    0  0.26885354961E+03  0.27715137485E+02 -0.73493997049E+03  0.78306265408E+03  0.00000000000E+00 0. -1.
         -1    1    3    3    0  502  0.17792418019E+03  0.39708996152E+02 -0.34180645534E+03  0.38738284834E+03  0.00000000000E+00 0.  1.
         11    1    5    5    0    0  0.58631034796E+02 -0.12061361363E+03 -0.12515579537E+03  0.18343722400E+03  0.00000000000E+00 0.  1.
        -11    1    5    5    0    0 -0.77955835636E+01 -0.83899373727E+02 -0.14227988103E+02  0.85453564469E+02  0.00000000000E+00 0. -1.
          4    1    6    6  503    0 -0.43936856588E+03  0.14524829653E+03  0.68242916364E+03  0.82453099864E+03  0.00000000000E+00 0.  1.
         -4    1    6    6    0  503 -0.58244615154E+02 -0.81594428117E+01  0.55674234705E+02  0.80985382085E+02  0.00000000000E+00 0. -1.
<mgrwt>
<rscale>  0 0.22956098E+04</rscale>
<asrwt>0</asrwt>
<pdfrwt beam="1">  1        2 0.21714457E+00 0.22956098E+04</pdfrwt>
<pdfrwt beam="2">  1       -1 0.14360199E+00 0.22956098E+04</pdfrwt>
<totfact> 0.57746440E+00</totfact>
</mgrwt>
</event>
<event>
12    6  0.8914180E-008  0.1674090E+04  0.7818608E-02  0.8776281E-01
         -1   -1    0    0    0  501 -0.00000000000E+00  0.00000000000E+00  0.77247346025E+03  0.77247346025E+03  0.00000000000E+00 0.  1.
          2   -1    0    0  501    0  0.00000000000E+00 -0.00000000000E+00 -0.90701437051E+03  0.90701437051E+03  0.00000000000E+00 0. -1.
         24    2    1    2    0    0 -0.34892876789E+03 -0.36935181737E+03 -0.34350829725E+03  0.62083901414E+03  0.96286453585E+02 0.  0.
        254    2    1    2    0    0  0.34892876789E+03  0.36935181737E+03  0.20896738699E+03  0.10586488166E+04  0.90492977521E+03 0.  0.
         23    2    4    4    0    0  0.34852466965E+03 -0.14212096620E+03 -0.16278174262E+03  0.41977872130E+03  0.89713236095E+02 0.  0.
         23    2    4    4    0    0  0.40409823612E+00  0.51147278357E+03  0.37174912961E+03  0.63887009533E+03  0.91394812316E+02 0.  0.
          4    1    3    3  502    0 -0.17610297407E+03 -0.13854358644E+03 -0.10900211943E+03  0.24917472757E+03  0.00000000000E+00 0. -1.
         -3    1    3    3    0  502 -0.17282579382E+03 -0.23080823093E+03 -0.23450617782E+03  0.37166428657E+03  0.00000000000E+00 0.  1.
         11    1    5    5    0    0  0.24091190892E+03 -0.13189096933E+03 -0.14382467972E+03  0.31003115029E+03  0.00000000000E+00 0. -1.
        -11    1    5    5    0    0  0.10761276073E+03 -0.10229996870E+02 -0.18957062896E+02  0.10974757100E+03  0.00000000000E+00 0.  1.
          3    1    6    6  503    0 -0.48024892431E+01  0.50268359229E+03  0.34356861065E+03  0.60889510433E+03  0.00000000000E+00 0. -1.
         -3    1    6    6    0  503  0.52065874793E+01  0.87891912818E+01  0.28180518960E+02  0.29974991000E+02  0.00000000000E+00 0.  1.
<mgrwt>
<rscale>  0 0.16740902E+04</rscale>
<asrwt>0</asrwt>
<pdfrwt beam="1">  1        2 0.13954067E+00 0.16740902E+04</pdfrwt>
<pdfrwt beam="2">  1       -1 0.11884207E+00 0.16740902E+04</pdfrwt>
<totfact> 0.20011321E+01</totfact>
</mgrwt>
</event>
<event>
12    6  0.8914180E-008  0.1430992E+04  0.7818608E-02  0.8931685E-01
          2   -1    0    0  501    0  0.00000000000E+00  0.00000000000E+00  0.21946028829E+04  0.21946028829E+04  0.00000000000E+00 0. -1.
         -1   -1    0    0    0  501 -0.00000000000E+00 -0.00000000000E+00 -0.23326993428E+03  0.23326993428E+03  0.00000000000E+00 0.  1.
         24    2    1    2    0    0  0.30401404528E+02  0.36376336484E+03  0.23301990835E+03  0.44035424875E+03  0.79784432736E+02 0.  0.
        254    2    1    2    0    0 -0.30401404528E+02 -0.36376336484E+03  0.17283130403E+04  0.19875185685E+04  0.91099729073E+03 0.  0.
         23    2    4    4    0    0 -0.19416187356E+02 -0.19493613531E+03  0.17766870012E+04  0.17897010314E+04  0.89643718159E+02 0.  0.
         23    2    4    4    0    0 -0.10985217172E+02 -0.16882722954E+03 -0.48373960905E+02  0.19781753710E+03  0.90379364142E+02 0.  0.
          2    1    3    3  502    0  0.27542823886E+02  0.50973901227E+02  0.57703854768E+02  0.81772126113E+02  0.00000000000E+00 0. -1.
         -1    1    3    3    0  502  0.28585806415E+01  0.31278946362E+03  0.17531605359E+03  0.35858212264E+03  0.00000000000E+00 0.  1.
         11    1    5    5    0    0 -0.19682880793E+02 -0.20402928228E+03  0.16490850251E+04  0.16617751906E+04  0.00000000000E+00 0.  1.
        -11    1    5    5    0    0  0.26669343704E+00  0.90931469732E+01  0.12760197608E+03  0.12792584081E+03  0.00000000000E+00 0. -1.
          3    1    6    6  503    0 -0.25346763933E+02 -0.85074201395E+02  0.17277217528E+02  0.90435504258E+02  0.00000000000E+00 0. -1.
         -3    1    6    6    0  503  0.14361546762E+02 -0.83753028142E+02 -0.65651178434E+02  0.10738203285E+03  0.00000000000E+00 0.  1.
<mgrwt>
<rscale>  0 0.14309925E+04</rscale>
<asrwt>0</asrwt>
<pdfrwt beam="1">  1        2 0.33763120E+00 0.14309925E+04</pdfrwt>
<pdfrwt beam="2">  1       -1 0.35887684E-01 0.14309925E+04</pdfrwt>
<totfact> 0.42725760E+01</totfact>
</mgrwt>
</event>
<event>
12    6  0.8914180E-008  0.1993760E+04  0.7818608E-02  0.8609543E-01
          2   -1    0    0  501    0  0.00000000000E+00  0.00000000000E+00  0.19284739599E+04  0.19284739599E+04  0.00000000000E+00 0. -1.
         -1   -1    0    0    0  501 -0.00000000000E+00 -0.00000000000E+00 -0.51531422638E+03  0.51531422638E+03  0.00000000000E+00 0.  1.
         24    2    1    2    0    0 -0.37203723058E+03  0.65847394556E+03  0.85327535815E+03  0.11429817754E+04  0.79554159138E+02 0.  0.
        254    2    1    2    0    0  0.37203723058E+03 -0.65847394556E+03  0.55988437533E+03  0.13008064108E+04  0.89812424905E+03 0.  0.
         23    2    4    4    0    0  0.56837209906E+03 -0.71765437595E+03  0.32210135240E+03  0.97485626392E+03  0.92308221513E+02 0.  0.
         23    2    4    4    0    0 -0.19633486849E+03  0.59180430387E+02  0.23778302293E+03  0.32595014689E+03  0.87481588560E+02 0.  0.
          4    1    3    3  502    0 -0.14757989323E+01  0.27425437644E+02  0.19974637454E+02  0.33960547020E+02  0.00000000000E+00 0. -1.
         -3    1    3    3    0  502 -0.37056143164E+03  0.63104850792E+03  0.83330072069E+03  0.11090212284E+04  0.00000000000E+00 0.  1.
         11    1    5    5    0    0  0.41094874983E+02 -0.22291878975E+02  0.82994443607E+01  0.47482600969E+02  0.00000000000E+00 0. -1.
        -11    1    5    5    0    0  0.52727722408E+03 -0.69536249698E+03  0.31380190804E+03  0.92737366295E+03  0.00000000000E+00 0.  1.
          3    1    6    6  503    0 -0.37159484574E+02  0.50688042619E+02  0.56016870403E+02  0.84190229410E+02  0.00000000000E+00 0. -1.
         -3    1    6    6    0  503 -0.15917538391E+03  0.84923877687E+01  0.18176615253E+03  0.24175991748E+03  0.00000000000E+00 0.  1.
<mgrwt>
<rscale>  0 0.19937603E+04</rscale>
<asrwt>0</asrwt>
<pdfrwt beam="1">  1        2 0.29668830E+00 0.19937603E+04</pdfrwt>
<pdfrwt beam="2">  1       -1 0.79279113E-01 0.19937603E+04</pdfrwt>
<totfact> 0.12323084E+01</totfact>
</mgrwt>
</event>
<event>
12    6  0.8914180E-008  0.1540984E+04  0.7818608E-02  0.8857647E-01
         -1   -1    0    0    0  501 -0.00000000000E+00  0.00000000000E+00  0.43229318500E+03  0.43229318500E+03  0.00000000000E+00 0.  1.
          2   -1    0    0  501    0  0.00000000000E+00 -0.00000000000E+00 -0.13732770097E+04  0.13732770097E+04  0.00000000000E+00 0. -1.
         24    2    1    2    0    0 -0.35287697628E+03  0.13819063613E+03  0.89754269013E+02  0.39750256232E+03  0.79584206608E+02 0.  0.
        254    2    1    2    0    0  0.35287697628E+03 -0.13819063613E+03 -0.10307380937E+04  0.14080676324E+04  0.88125741258E+03 0.  0.
         23    2    4    4    0    0 -0.23396109091E+03 -0.23861677185E+03 -0.47948727204E+03  0.59174395138E+03  0.92612656168E+02 0.  0.
         23    2    4    4    0    0  0.58683806719E+03  0.10042613572E+03 -0.55125082165E+03  0.81632368098E+03  0.89680309604E+02 0.  0.
          2    1    3    3  502    0 -0.83859274666E+02  0.54935585925E+02 -0.50183776867E+01  0.10037669382E+03  0.00000000000E+00 0. -1.
         -1    1    3    3    0  502 -0.26901770161E+03  0.83255050203E+02  0.94772646699E+02  0.29712586849E+03  0.00000000000E+00 0.  1.
         11    1    5    5    0    0 -0.12979969860E+02  0.19023851344E-02 -0.77047368125E+00  0.13002817037E+02  0.00000000000E+00 0. -1.
        -11    1    5    5    0    0 -0.22098112105E+03 -0.23861867423E+03 -0.47871679836E+03  0.57874113434E+03  0.00000000000E+00 0.  1.
          2    1    6    6  503    0  0.51268647794E+03  0.65518324381E+02 -0.44424527012E+03  0.68153791935E+03  0.00000000000E+00 0.  1.
         -2    1    6    6    0  503  0.74151589248E+02  0.34907811336E+02 -0.10700555153E+03  0.13478576163E+03  0.00000000000E+00 0. -1.
<mgrwt>
<rscale>  0 0.15409845E+04</rscale>
<asrwt>0</asrwt>
<pdfrwt beam="1">  1        2 0.21127339E+00 0.15409845E+04</pdfrwt>
<pdfrwt beam="2">  1       -1 0.66506643E-01 0.15409845E+04</pdfrwt>
<totfact> 0.37703466E+01</totfact>
</mgrwt>
</event>
<event>
12    6  0.8914180E-008  0.1956396E+04  0.7818608E-02  0.8627283E-01
          2   -1    0    0  501    0  0.00000000000E+00  0.00000000000E+00  0.21222399186E+04  0.21222399186E+04  0.00000000000E+00 0. -1.
         -1   -1    0    0    0  501 -0.00000000000E+00 -0.00000000000E+00 -0.45087816819E+03  0.45087816819E+03  0.00000000000E+00 0.  1.
         24    2    1    2    0    0 -0.34696821737E+02  0.11802971811E+03 -0.33765751122E+03  0.36852253840E+03  0.81617293653E+02 0.  0.
        254    2    1    2    0    0  0.34696821737E+02 -0.11802971811E+03  0.20090192616E+04  0.22045955483E+04  0.89941550718E+03 0.  0.
         23    2    4    4    0    0 -0.68229617403E+02 -0.44762247633E+03  0.63401010772E+03  0.78417007751E+03  0.89065884413E+02 0.  0.
         23    2    4    4    0    0  0.10292643914E+03  0.32959275822E+03  0.13750091539E+04  0.14204254708E+04  0.87938085225E+02 0.  0.
          2    1    3    3  502    0  0.11548442330E+02  0.14752143717E+02 -0.13600851542E+03  0.13729278397E+03  0.00000000000E+00 0. -1.
         -1    1    3    3    0  502 -0.46245264067E+02  0.10327757439E+03 -0.20164899581E+03  0.23122975442E+03  0.00000000000E+00 0.  1.
         11    1    5    5    0    0 -0.58511029247E+02 -0.42448079343E+03  0.62441529137E+03  0.75729910909E+03  0.00000000000E+00 0.  1.
        -11    1    5    5    0    0 -0.97185881560E+01 -0.23141682898E+02  0.95948163557E+01  0.26870968423E+02  0.00000000000E+00 0. -1.
          3    1    6    6  503    0  0.94014059894E+01  0.16337464644E+03  0.70941245266E+03  0.72804236794E+03  0.00000000000E+00 0. -1.
         -3    1    6    6    0  503  0.93525033151E+02  0.16621811178E+03  0.66559670121E+03  0.69238310289E+03  0.00000000000E+00 0.  1.
<mgrwt>
<rscale>  0 0.19563963E+04</rscale>
<asrwt>0</asrwt>
<pdfrwt beam="1">  1        2 0.32649844E+00 0.19563963E+04</pdfrwt>
<pdfrwt beam="2">  1       -1 0.69365873E-01 0.19563963E+04</pdfrwt>
<totfact> 0.12741685E+01</totfact>
</mgrwt>
</event>
<event>
12    6  0.8914180E-008  0.2163838E+04  0.7818608E-02  0.8533632E-01
          2   -1    0    0  501    0  0.00000000000E+00  0.00000000000E+00  0.20369020580E+04  0.20369020580E+04  0.00000000000E+00 0. -1.
         -1   -1    0    0    0  501 -0.00000000000E+00 -0.00000000000E+00 -0.57467087973E+03  0.57467087973E+03  0.00000000000E+00 0.  1.
         24    2    1    2    0    0 -0.65548227038E+03 -0.18341093686E+03 -0.92230469945E+02  0.69146458718E+03  0.79499919390E+02 0.  0.
        254    2    1    2    0    0  0.65548227038E+03  0.18341093686E+03  0.15544616482E+04  0.19201083505E+04  0.89842555814E+03 0.  0.
         23    2    4    4    0    0  0.42237976862E+02  0.38179948605E+03  0.26513104871E+03  0.47578662856E+03  0.92323066967E+02 0.  0.
         23    2    4    4    0    0  0.61324429352E+03 -0.19838854919E+03  0.12893305995E+04  0.14443217220E+04  0.90913485203E+02 0.  0.
          4    1    3    3  502    0 -0.25162659704E+02 -0.10698223813E+02  0.11623853852E+02  0.29710695288E+02  0.00000000000E+00 0. -1.
         -3    1    3    3    0  502 -0.63031961068E+03 -0.17271271305E+03 -0.10385432380E+03  0.66175389189E+03  0.00000000000E+00 0.  1.
         11    1    5    5    0    0  0.77694960400E+01  0.29496873048E+02 -0.44663869275E+01  0.30828220846E+02  0.00000000000E+00 0.  1.
        -11    1    5    5    0    0  0.34468480822E+02  0.35230261300E+03  0.26959743564E+03  0.44495840772E+03  0.00000000000E+00 0. -1.
          2    1    6    6  503    0  0.36568595149E+03 -0.84646570808E+02  0.67633192165E+03  0.77350896912E+03  0.00000000000E+00 0. -1.
         -2    1    6    6    0  503  0.24755834204E+03 -0.11374197838E+03  0.61299867783E+03  0.67081275284E+03  0.00000000000E+00 0.  1.
<mgrwt>
<rscale>  0 0.21638376E+04</rscale>
<asrwt>0</asrwt>
<pdfrwt beam="1">  1        2 0.31336954E+00 0.21638376E+04</pdfrwt>
<pdfrwt beam="2">  1       -1 0.88410906E-01 0.21638376E+04</pdfrwt>
<totfact> 0.83534350E+00</totfact>
</mgrwt>
</event>
<event>
12    6  0.8914180E-008  0.1190412E+04  0.7818608E-02  0.9121291E-01
          2   -1    0    0  501    0  0.00000000000E+00  0.00000000000E+00  0.95553419053E+03  0.95553419053E+03  0.00000000000E+00 0. -1.
         -1   -1    0    0    0  501 -0.00000000000E+00 -0.00000000000E+00 -0.37075586024E+03  0.37075586024E+03  0.00000000000E+00 0.  1.
         24    2    1    2    0    0 -0.19332548454E+03  0.66893452078E+02  0.28215027620E+03  0.35763353673E+03  0.80271360601E+02 0.  0.
        254    2    1    2    0    0  0.19332548454E+03 -0.66893452078E+02  0.30262805409E+03  0.96865651404E+03  0.89714114060E+03 0.  0.
         23    2    4    4    0    0 -0.33368896689E+03 -0.15249372476E+03  0.14276560105E+03  0.40427300700E+03  0.91934675892E+02 0.  0.
         23    2    4    4    0    0  0.52701445142E+03  0.85600272681E+02  0.15986245305E+03  0.56438350704E+03  0.88888134359E+02 0.  0.
          4    1    3    3  502    0 -0.11064528258E+03  0.50536611643E+02  0.22508094192E+03  0.25584713813E+03  0.00000000000E+00 0. -1.
         -3    1    3    3    0  502 -0.82680201961E+02  0.16356840435E+02  0.57069334277E+02  0.10178639860E+03  0.00000000000E+00 0.  1.
         11    1    5    5    0    0 -0.17237474697E+03 -0.12729395245E+03  0.92935509802E+02  0.23356757632E+03  0.00000000000E+00 0.  1.
        -11    1    5    5    0    0 -0.16131421991E+03 -0.25199772312E+02  0.49830091247E+02  0.17070543068E+03  0.00000000000E+00 0. -1.
          3    1    6    6  503    0  0.84715169737E+02 -0.18858145273E+02  0.27117203849E+02  0.90926521825E+02  0.00000000000E+00 0. -1.
         -3    1    6    6    0  503  0.44229928169E+03  0.10445841795E+03  0.13274524920E+03  0.47345698521E+03  0.00000000000E+00 0.  1.
<mgrwt>
<rscale>  0 0.11904115E+04</rscale>
<asrwt>0</asrwt>
<pdfrwt beam="1">  1        2 0.14700526E+00 0.11904115E+04</pdfrwt>
<pdfrwt beam="2">  1       -1 0.57039364E-01 0.11904115E+04</pdfrwt>
<totfact> 0.94371482E+01</totfact>
</mgrwt>
</event>
<event>
12    6  0.8914180E-008  0.2116102E+04  0.7818608E-02  0.8554183E-01
         -1   -1    0    0    0  501 -0.00000000000E+00  0.00000000000E+00  0.60701730355E+03  0.60701730355E+03  0.00000000000E+00 0.  1.
          2   -1    0    0  501    0  0.00000000000E+00 -0.00000000000E+00 -0.18442179125E+04  0.18442179125E+04  0.00000000000E+00 0. -1.
         24    2    1    2    0    0  0.24882776849E+03  0.21551966090E+03 -0.14354262379E+04  0.14748656319E+04  0.80100967689E+02 0.  0.
        254    2    1    2    0    0 -0.24882776849E+03 -0.21551966090E+03  0.19822562893E+03  0.97636958420E+03  0.89757461104E+03 0.  0.
         23    2    4    4    0    0  0.17377982420E+03  0.13457182220E+03  0.32851347870E+03  0.40506140568E+03  0.88569938792E+02 0.  0.
         23    2    4    4    0    0 -0.42260759269E+03 -0.35009148310E+03 -0.13028784977E+03  0.57130817852E+03  0.90867414966E+02 0.  0.
          2    1    3    3  502    0  0.14681817884E+03  0.17609831952E+03 -0.95061181876E+03  0.97786963637E+03  0.00000000000E+00 0. -1.
         -1    1    3    3    0  502  0.10200958965E+03  0.39421341379E+02 -0.48481441917E+03  0.49699599553E+03  0.00000000000E+00 0.  1.
         11    1    5    5    0    0  0.91328420188E+02  0.42779712853E+02  0.84282964779E+02  0.13143288142E+03  0.00000000000E+00 0. -1.
        -11    1    5    5    0    0  0.82451404012E+02  0.91792109347E+02  0.24423051392E+03  0.27362852427E+03  0.00000000000E+00 0.  1.
          4    1    6    6  503    0 -0.29416775627E+03 -0.18685461766E+03 -0.85289225181E+02  0.35878066963E+03  0.00000000000E+00 0. -1.
         -4    1    6    6    0  503 -0.12843983643E+03 -0.16323686544E+03 -0.44998624592E+02  0.21252750889E+03  0.00000000000E+00 0.  1.
<mgrwt>
<rscale>  0 0.21161023E+04</rscale>
<asrwt>0</asrwt>
<pdfrwt beam="1">  1        2 0.28372583E+00 0.21161023E+04</pdfrwt>
<pdfrwt beam="2">  1       -1 0.93387278E-01 0.21161023E+04</pdfrwt>
<totfact> 0.95074886E+00</totfact>
</mgrwt>
</event>
<event>
12    6  0.8914180E-008  0.3315829E+04  0.7818608E-02  0.8158879E-01
         -1   -1    0    0    0  501 -0.00000000000E+00  0.00000000000E+00  0.10389246685E+04  0.10389246685E+04  0.00000000000E+00 0.  1.
          2   -1    0    0  501    0  0.00000000000E+00 -0.00000000000E+00 -0.26456973998E+04  0.26456973998E+04  0.00000000000E+00 0. -1.
         24    2    1    2    0    0 -0.85785768361E+03 -0.59225929967E+03 -0.19995028751E+04  0.22555174872E+04  0.51541286058E+02 0.  0.
        254    2    1    2    0    0  0.85785768361E+03  0.59225929967E+03  0.39273014374E+03  0.14291045811E+04  0.89521620542E+03 0.  0.
         23    2    4    4    0    0 -0.86843491679E+02 -0.12991414632E+03  0.56392154444E+02  0.18997092773E+03  0.92137944630E+02 0.  0.
         23    2    4    4    0    0  0.94470117529E+03  0.72217344599E+03  0.33633798930E+03  0.12391336533E+04  0.91291681405E+02 0.  0.
          4    1    3    3  502    0 -0.53584262595E+03 -0.34447787133E+03 -0.11906743917E+04  0.13503695163E+04  0.00000000000E+00 0. -1.
         -3    1    3    3    0  502 -0.32201505766E+03 -0.24778142835E+03 -0.80882848341E+03  0.90514797087E+03  0.00000000000E+00 0.  1.
         11    1    5    5    0    0 -0.90229451333E+02 -0.13254638981E+03  0.29866638205E+02  0.16310093629E+03  0.00000000000E+00 0.  1.
        -11    1    5    5    0    0  0.33859596536E+01  0.26322434945E+01  0.26525516239E+02  0.26869991447E+02  0.00000000000E+00 0. -1.
          1    1    6    6  503    0  0.44252853521E+03  0.28633055906E+03  0.16822335277E+03  0.55327731740E+03  0.00000000000E+00 0. -1.
         -1    1    6    6    0  503  0.50217264008E+03  0.43584288694E+03  0.16811463653E+03  0.68585633594E+03  0.00000000000E+00 0.  1.
<mgrwt>
<rscale>  0 0.33158289E+04</rscale>
<asrwt>0</asrwt>
<pdfrwt beam="1">  1        2 0.40703036E+00 0.33158289E+04</pdfrwt>
<pdfrwt beam="2">  1       -1 0.15983457E+00 0.33158289E+04</pdfrwt>
<totfact> 0.79422164E-01</totfact>
</mgrwt>
</event>
<event>
12    6  0.8914180E-008  0.2693444E+04  0.7818608E-02  0.8337135E-01
          2   -1    0    0  501    0  0.00000000000E+00  0.00000000000E+00  0.45386179126E+03  0.45386179126E+03  0.00000000000E+00 0. -1.
         -1   -1    0    0    0  501 -0.00000000000E+00 -0.00000000000E+00 -0.39960635492E+04  0.39960635492E+04  0.00000000000E+00 0.  1.
         24    2    1    2    0    0  0.58517428192E+02  0.54674735822E+03 -0.32006559023E+04  0.32485168924E+04  0.79415564233E+02 0.  0.
        254    2    1    2    0    0 -0.58517428192E+02 -0.54674735822E+03 -0.34154585560E+03  0.12014084481E+04  0.10121125058E+04 0.  0.
         23    2    4    4    0    0  0.49424982935E+02  0.15725305890E+03  0.21912254761E+03  0.29021603971E+03  0.95075261567E+02 0.  0.
         23    2    4    4    0    0 -0.10794241113E+03 -0.70400041712E+03 -0.56066840321E+03  0.91119240836E+03  0.93029002307E+02 0.  0.
          4    1    3    3  502    0 -0.18657938621E+02  0.13032317593E+03 -0.70728079368E+03  0.71942919733E+03  0.00000000000E+00 0. -1.
         -3    1    3    3    0  502  0.77175366813E+02  0.41642418229E+03 -0.24933751086E+04  0.25290876950E+04  0.00000000000E+00 0.  1.
         11    1    5    5    0    0  0.59850150155E+02  0.83911777255E+02  0.72725310515E+02  0.12614355959E+03  0.00000000000E+00 0.  1.
        -11    1    5    5    0    0 -0.10425167220E+02  0.73341281643E+02  0.14639723709E+03  0.16407248012E+03  0.00000000000E+00 0. -1.
          3    1    6    6  503    0 -0.12417301520E+03 -0.62099682220E+03 -0.50432454190E+03  0.80956731310E+03  0.00000000000E+00 0.  1.
         -3    1    6    6    0  503  0.16230604073E+02 -0.83003594917E+02 -0.56343861310E+02  0.10162509525E+03  0.00000000000E+00 0. -1.
<mgrwt>
<rscale>  0 0.26934443E+04</rscale>
<asrwt>0</asrwt>
<pdfrwt beam="1">  1        2 0.69824888E-01 0.26934443E+04</pdfrwt>
<pdfrwt beam="2">  1       -1 0.61477904E+00 0.26934443E+04</pdfrwt>
<totfact> 0.26290291E-02</totfact>
</mgrwt>
</event>
<event>
12    6  0.8914180E-008  0.1489637E+04  0.7818608E-02  0.8891373E-01
          2   -1    0    0  501    0  0.00000000000E+00  0.00000000000E+00  0.58126374538E+03  0.58126374538E+03  0.00000000000E+00 0. -1.
         -1   -1    0    0    0  501 -0.00000000000E+00 -0.00000000000E+00 -0.95439410815E+03  0.95439410815E+03  0.00000000000E+00 0.  1.
         24    2    1    2    0    0  0.14630087270E+03 -0.44563337395E+03 -0.69553352970E+02  0.48051029482E+03  0.77842309767E+02 0.  0.
        254    2    1    2    0    0 -0.14630087270E+03  0.44563337395E+03 -0.30357700979E+03  0.10551475587E+04  0.89508900141E+03 0.  0.
         23    2    4    4    0    0  0.16208048324E+03 -0.15128482546E+03 -0.29167954433E+03  0.37705234275E+03  0.89074862465E+02 0.  0.
         23    2    4    4    0    0 -0.30838135595E+03  0.59691819941E+03 -0.11897465456E+02  0.67809521596E+03  0.90891004746E+02 0.  0.
          4    1    3    3  502    0  0.15576297994E+03 -0.42755612241E+03 -0.66701726834E+02  0.45990810396E+03  0.00000000000E+00 0. -1.
         -3    1    3    3    0  502 -0.94621072349E+01 -0.18077251543E+02 -0.28516261358E+01  0.20602190861E+02  0.00000000000E+00 0.  1.
         11    1    5    5    0    0  0.10662543185E+03 -0.10054546224E+03 -0.25333449517E+03  0.29267172589E+03  0.00000000000E+00 0. -1.
        -11    1    5    5    0    0  0.55455051394E+02 -0.50739363217E+02 -0.38345049166E+02  0.84380616852E+02  0.00000000000E+00 0.  1.
          2    1    6    6  503    0 -0.18914930643E+03  0.39009944603E+03  0.34475941855E+02  0.43490645946E+03  0.00000000000E+00 0. -1.
         -2    1    6    6    0  503 -0.11923204952E+03  0.20681875338E+03 -0.46373407311E+02  0.24318875650E+03  0.00000000000E+00 0.  1.
<mgrwt>
<rscale>  0 0.14896371E+04</rscale>
<asrwt>0</asrwt>
<pdfrwt beam="1">  1        2 0.89425193E-01 0.14896371E+04</pdfrwt>
<pdfrwt beam="2">  1       -1 0.14682986E+00 0.14896371E+04</pdfrwt>
<totfact> 0.21043806E+01</totfact>
</mgrwt>
</event>
<event>
12    6  0.8914180E-008  0.2442049E+04  0.7818608E-02  0.8423927E-01
         -1   -1    0    0    0  501 -0.00000000000E+00  0.00000000000E+00  0.47116459814E+03  0.47116459814E+03  0.00000000000E+00 0.  1.
          2   -1    0    0  501    0  0.00000000000E+00 -0.00000000000E+00 -0.31642875727E+04  0.31642875727E+04  0.00000000000E+00 0. -1.
         24    2    1    2    0    0 -0.50843035944E+03 -0.21948471546E+03 -0.24960382594E+04  0.25580217922E+04  0.81200531611E+02 0.  0.
        254    2    1    2    0    0  0.50843035944E+03  0.21948471546E+03 -0.19708471512E+03  0.10774303786E+04  0.90296116474E+03 0.  0.
         23    2    4    4    0    0  0.62056206888E+03  0.30218718387E+03  0.13111095842E+03  0.70850782091E+03  0.91536186552E+02 0.  0.
         23    2    4    4    0    0 -0.11213170944E+03 -0.82702468406E+02 -0.32819567354E+03  0.36892255767E+03  0.94753548139E+02 0.  0.
          2    1    3    3  502    0 -0.28761051396E+03 -0.10338440010E+03 -0.15349258241E+04  0.15650576435E+04  0.00000000000E+00 0. -1.
         -1    1    3    3    0  502 -0.22081984547E+03 -0.11610031537E+03 -0.96111243530E+03  0.99296414874E+03  0.00000000000E+00 0.  1.
         11    1    5    5    0    0  0.17792089361E+03  0.13350499516E+03  0.48491642083E+02  0.22766393537E+03  0.00000000000E+00 0. -1.
        -11    1    5    5    0    0  0.44264117527E+03  0.16868218871E+03  0.82619316338E+02  0.48084388554E+03  0.00000000000E+00 0.  1.
          2    1    6    6  503    0 -0.12680502513E+03 -0.74438791581E+02 -0.31464655690E+03  0.34730836998E+03  0.00000000000E+00 0.  1.
         -2    1    6    6    0  503  0.14673315683E+02 -0.82636768251E+01 -0.13549116640E+02  0.21614187690E+02  0.00000000000E+00 0. -1.
<mgrwt>
<rscale>  0 0.24420486E+04</rscale>
<asrwt>0</asrwt>
<pdfrwt beam="1">  1        2 0.48681349E+00 0.24420486E+04</pdfrwt>
<pdfrwt beam="2">  1       -1 0.72486859E-01 0.24420486E+04</pdfrwt>
<totfact> 0.26783787E+00</totfact>
</mgrwt>
</event>
<event>
12    6  0.8914180E-008  0.2663673E+04  0.7818608E-02  0.8346889E-01
          2   -1    0    0  501    0  0.00000000000E+00  0.00000000000E+00  0.54478724969E+03  0.54478724969E+03  0.00000000000E+00 0. -1.
         -1   -1    0    0    0  501 -0.00000000000E+00 -0.00000000000E+00 -0.32559297269E+04  0.32559297269E+04  0.00000000000E+00 0.  1.
         24    2    1    2    0    0 -0.28508462048E+03  0.94903953930E+03 -0.29133484984E+03  0.10360750665E+04  0.81401846911E+02 0.  0.
        254    2    1    2    0    0  0.28508462048E+03 -0.94903953930E+03 -0.24198076274E+04  0.27646419101E+04  0.89767847786E+03 0.  0.
         23    2    4    4    0    0  0.10097981849E+03 -0.10748592168E+04 -0.21129369274E+04  0.23744743564E+04  0.90037494270E+02 0.  0.
         23    2    4    4    0    0  0.18410480199E+03  0.12581967749E+03 -0.30687070001E+03  0.39016755374E+03  0.91301282045E+02 0.  0.
          4    1    3    3  502    0 -0.21278250996E+03  0.76999716197E+03 -0.26228276336E+03  0.84081167568E+03  0.00000000000E+00 0. -1.
         -3    1    3    3    0  502 -0.72302110520E+02  0.17904237732E+03 -0.29052086481E+02  0.19526339081E+03  0.00000000000E+00 0.  1.
         11    1    5    5    0    0  0.34208394952E+02 -0.34106668355E+03 -0.76531422603E+03  0.83857173902E+03  0.00000000000E+00 0. -1.
        -11    1    5    5    0    0  0.66771423540E+02 -0.73379253324E+03 -0.13476227014E+04  0.15359026174E+04  0.00000000000E+00 0.  1.
          3    1    6    6  503    0  0.10377744470E+03  0.20389942076E+02 -0.10787784630E+03  0.15107328516E+03  0.00000000000E+00 0. -1.
         -3    1    6    6    0  503  0.80327357292E+02  0.10542973541E+03 -0.19899285371E+03  0.23909426857E+03  0.00000000000E+00 0.  1.
<mgrwt>
<rscale>  0 0.26636734E+04</rscale>
<asrwt>0</asrwt>
<pdfrwt beam="1">  1        2 0.83813424E-01 0.26636734E+04</pdfrwt>
<pdfrwt beam="2">  1       -1 0.50091226E+00 0.26636734E+04</pdfrwt>
<totfact> 0.81857677E-02</totfact>
</mgrwt>
</event>
<event>
12    6  0.8914180E-008  0.1713616E+04  0.7818608E-02  0.8753637E-01
         -1   -1    0    0    0  501 -0.00000000000E+00  0.00000000000E+00  0.34755860362E+03  0.34755860362E+03  0.00000000000E+00 0.  1.
          2   -1    0    0  501    0  0.00000000000E+00 -0.00000000000E+00 -0.21122180428E+04  0.21122180428E+04  0.00000000000E+00 0. -1.
         24    2    1    2    0    0  0.12618854136E+03  0.48608242100E+03 -0.12378780098E+03  0.52348878952E+03  0.80730571087E+02 0.  0.
        254    2    1    2    0    0 -0.12618854136E+03 -0.48608242100E+03 -0.16408716382E+04  0.19362878569E+04  0.89696781647E+03 0.  0.
         23    2    4    4    0    0 -0.47653723153E+02 -0.43925008592E+02 -0.14258879055E+04  0.14303710911E+04  0.92762360861E+02 0.  0.
         23    2    4    4    0    0 -0.78534818207E+02 -0.44215741240E+03 -0.21498373274E+03  0.50591676581E+03  0.89793505167E+02 0.  0.
          2    1    3    3  502    0  0.37986885066E+01  0.78837222534E+01 -0.16011965114E+02  0.18247359747E+02  0.00000000000E+00 0. -1.
         -1    1    3    3    0  502  0.12238985285E+03  0.47819869874E+03 -0.10777583587E+03  0.50524142977E+03  0.00000000000E+00 0.  1.
         11    1    5    5    0    0 -0.71571981780E+02 -0.16985526993E+02 -0.77371105582E+03  0.77720000939E+03  0.00000000000E+00 0. -1.
        -11    1    5    5    0    0  0.23918258626E+02 -0.26939481599E+02 -0.65217684964E+03  0.65317108170E+03  0.00000000000E+00 0.  1.
          4    1    6    6  503    0 -0.80683963021E+02 -0.22601257880E+03 -0.13561650016E+03  0.27565090745E+03  0.00000000000E+00 0. -1.
         -4    1    6    6    0  503  0.21491448139E+01 -0.21614483360E+03 -0.79367232580E+02  0.23026585835E+03  0.00000000000E+00 0.  1.
<mgrwt>
<rscale>  0 0.17136155E+04</rscale>
<asrwt>0</asrwt>
<pdfrwt beam="1">  1        2 0.32495662E+00 0.17136155E+04</pdfrwt>
<pdfrwt beam="2">  1       -1 0.53470555E-01 0.17136155E+04</pdfrwt>
<totfact> 0.22101670E+01</totfact>
</mgrwt>
</event>
<event>
12    6  0.8914180E-008  0.1602332E+04  0.7818608E-02  0.8819117E-01
          2   -1    0    0  501    0  0.00000000000E+00  0.00000000000E+00  0.92183854437E+03  0.92183854437E+03  0.00000000000E+00 0. -1.
         -1   -1    0    0    0  501 -0.00000000000E+00 -0.00000000000E+00 -0.69628973089E+03  0.69628973089E+03  0.00000000000E+00 0.  1.
         24    2    1    2    0    0 -0.21190571684E+03 -0.26875686444E+03 -0.35196627040E+03  0.49736254013E+03  0.79717976742E+02 0.  0.
        254    2    1    2    0    0  0.21190571684E+03  0.26875686444E+03  0.57751508388E+03  0.11207657351E+04  0.89747305024E+03 0.  0.
         23    2    4    4    0    0  0.38012591287E+03  0.51702479806E+03  0.37153485596E+03  0.74616237584E+03  0.83125149475E+02 0.  0.
         23    2    4    4    0    0 -0.16822019603E+03 -0.24826793362E+03  0.20598022793E+03  0.37460335929E+03  0.89245847415E+02 0.  0.
          2    1    3    3  502    0 -0.15534086019E+01  0.11230451364E+01 -0.21753692038E+02  0.21837981270E+02  0.00000000000E+00 0. -1.
         -1    1    3    3    0  502 -0.21035230824E+03 -0.26987990958E+03 -0.33021257836E+03  0.47552455887E+03  0.00000000000E+00 0.  1.
         11    1    5    5    0    0  0.29444268798E+03  0.39880757482E+03  0.24502824930E+03  0.55297632969E+03  0.00000000000E+00 0. -1.
        -11    1    5    5    0    0  0.85683224888E+02  0.11821722324E+03  0.12650660666E+03  0.19318604615E+03  0.00000000000E+00 0.  1.
          2    1    6    6  503    0 -0.15393056618E+03 -0.25055234166E+03  0.17975089241E+03  0.34464688949E+03  0.00000000000E+00 0. -1.
         -2    1    6    6    0  503 -0.14289629852E+02  0.22844080390E+01  0.26229335512E+02  0.29956469798E+02  0.00000000000E+00 0.  1.
<mgrwt>
<rscale>  0 0.16023317E+04</rscale>
<asrwt>0</asrwt>
<pdfrwt beam="1">  1        2 0.14182131E+00 0.16023317E+04</pdfrwt>
<pdfrwt beam="2">  1       -1 0.10712150E+00 0.16023317E+04</pdfrwt>
<totfact> 0.25202448E+01</totfact>
</mgrwt>
</event>
<event>
12    6  0.8914180E-008  0.1199409E+04  0.7818608E-02  0.9113374E-01
         -1   -1    0    0    0  501 -0.00000000000E+00  0.00000000000E+00  0.20750150891E+03  0.20750150891E+03  0.00000000000E+00 0.  1.
          2   -1    0    0  501    0  0.00000000000E+00 -0.00000000000E+00 -0.17332178677E+04  0.17332178677E+04  0.00000000000E+00 0. -1.
         24    2    1    2    0    0  0.16259400311E+03 -0.57739509603E+02 -0.64113115172E+03  0.66852659724E+03  0.78153673629E+02 0.  0.
        254    2    1    2    0    0 -0.16259400311E+03  0.57739509603E+02 -0.88458520704E+03  0.12721927793E+04  0.89789354518E+03 0.  0.
         23    2    4    4    0    0  0.18881094523E+03  0.25197634593E+03 -0.78262252479E+03  0.84854522931E+03  0.91593329118E+02 0.  0.
         23    2    4    4    0    0 -0.35140494834E+03 -0.19423683633E+03 -0.10196268225E+03  0.42364755003E+03  0.88698769832E+02 0.  0.
          2    1    3    3  502    0  0.15727045601E+03 -0.64214717002E+02 -0.51869921516E+03  0.54580802671E+03  0.00000000000E+00 0. -1.
         -1    1    3    3    0  502  0.53235471030E+01  0.64752073994E+01 -0.12243193656E+03  0.12271857053E+03  0.00000000000E+00 0.  1.
         11    1    5    5    0    0  0.38935515219E+02  0.34322339906E+02 -0.23274576747E+03  0.23846297330E+03  0.00000000000E+00 0. -1.
        -11    1    5    5    0    0  0.14987543001E+03  0.21765400602E+03 -0.54987675732E+03  0.61008225601E+03  0.00000000000E+00 0.  1.
          2    1    6    6  503    0 -0.61128700293E+02 -0.38069974545E-01 -0.24862766696E+02  0.65991488971E+02  0.00000000000E+00 0. -1.
         -2    1    6    6    0  503 -0.29027624805E+03 -0.19419876635E+03 -0.77099915558E+02  0.35765606106E+03  0.00000000000E+00 0.  1.
<mgrwt>
<rscale>  0 0.11994087E+04</rscale>
<asrwt>0</asrwt>
<pdfrwt beam="1">  1        2 0.26664889E+00 0.11994087E+04</pdfrwt>
<pdfrwt beam="2">  1       -1 0.31923310E-01 0.11994087E+04</pdfrwt>
<totfact> 0.96609703E+01</totfact>
</mgrwt>
</event>
<event>
12    6  0.8914180E-008  0.1791873E+04  0.7818608E-02  0.8710633E-01
          2   -1    0    0  501    0  0.00000000000E+00  0.00000000000E+00  0.93327811394E+03  0.93327811394E+03  0.00000000000E+00 0. -1.
         -1   -1    0    0    0  501 -0.00000000000E+00 -0.00000000000E+00 -0.86008860803E+03  0.86008860803E+03  0.00000000000E+00 0.  1.
         24    2    1    2    0    0  0.28997600549E+03 -0.18266093699E+03  0.60545414572E+03  0.70034705482E+03  0.80375201201E+02 0.  0.
        254    2    1    2    0    0 -0.28997600549E+03  0.18266093699E+03 -0.53226463982E+03  0.10930196671E+04  0.89103043961E+03 0.  0.
         23    2    4    4    0    0 -0.97230216101E+02  0.52163283671E+03 -0.20785307830E+03  0.57802344461E+03  0.96714368693E+02 0.  0.
         23    2    4    4    0    0 -0.19274578939E+03 -0.33897189972E+03 -0.32441156152E+03  0.51499622253E+03  0.89024490174E+02 0.  0.
          2    1    3    3  502    0  0.23744184078E+03 -0.15598832963E+03  0.43097063232E+03  0.51618472726E+03  0.00000000000E+00 0. -1.
         -1    1    3    3    0  502  0.52534164707E+02 -0.26672607362E+02  0.17448351340E+03  0.18416232757E+03  0.00000000000E+00 0.  1.
         11    1    5    5    0    0  0.46114665377E+01  0.77383280459E+02 -0.62672510963E+02  0.99685913492E+02  0.00000000000E+00 0. -1.
        -11    1    5    5    0    0 -0.10184168264E+03  0.44424955625E+03 -0.14518056734E+03  0.47833753112E+03  0.00000000000E+00 0.  1.
          4    1    6    6  503    0  0.62481409277E+01  0.43645930040E+00 -0.76557152238E+01  0.98913971390E+01  0.00000000000E+00 0. -1.
         -4    1    6    6    0  503 -0.19899393031E+03 -0.33940835902E+03 -0.31675584629E+03  0.50510482539E+03  0.00000000000E+00 0.  1.
<mgrwt>
<rscale>  0 0.17918726E+04</rscale>
<asrwt>0</asrwt>
<pdfrwt beam="1">  1        2 0.14358125E+00 0.17918726E+04</pdfrwt>
<pdfrwt beam="2">  1       -1 0.13232132E+00 0.17918726E+04</pdfrwt>
<totfact> 0.14558501E+01</totfact>
</mgrwt>
</event>
<event>
12    6  0.8914180E-008  0.3468832E+04  0.7818608E-02  0.8121216E-01
          2   -1    0    0  501    0  0.00000000000E+00  0.00000000000E+00  0.20595934065E+04  0.20595934065E+04  0.00000000000E+00 0. -1.
         -1   -1    0    0    0  501 -0.00000000000E+00 -0.00000000000E+00 -0.14605786876E+04  0.14605786876E+04  0.00000000000E+00 0.  1.
         24    2    1    2    0    0  0.11515414633E+04  0.10116356887E+04  0.80906026224E+03  0.17350512467E+04  0.79811105420E+02 0.  0.
        254    2    1    2    0    0 -0.11515414633E+04 -0.10116356887E+04 -0.21004554337E+03  0.17851208473E+04  0.89055196417E+03 0.  0.
         23    2    4    4    0    0  0.78663686001E+02 -0.26904521676E+03  0.10146275706E+03  0.31200958203E+03  0.92097687570E+02 0.  0.
         23    2    4    4    0    0 -0.12302051493E+04 -0.74259047194E+03 -0.31150830042E+03  0.14731112653E+04  0.90410509833E+02 0.  0.
          2    1    3    3  502    0  0.19704229628E+03  0.17244680030E+03  0.10494548653E+03  0.28209416974E+03  0.00000000000E+00 0. -1.
         -1    1    3    3    0  502  0.95449916703E+03  0.83918888839E+03  0.70411477571E+03  0.14529570770E+04  0.00000000000E+00 0.  1.
         11    1    5    5    0    0  0.47621203353E+02 -0.42563818619E+02  0.55712596065E+01  0.64113154639E+02  0.00000000000E+00 0. -1.
        -11    1    5    5    0    0  0.31042482648E+02 -0.22648139814E+03  0.95891497450E+02  0.24789642739E+03  0.00000000000E+00 0.  1.
          4    1    6    6  503    0 -0.64207527836E+03 -0.39819533867E+03 -0.11849812052E+03  0.76476270528E+03  0.00000000000E+00 0. -1.
         -4    1    6    6    0  503 -0.58812987094E+03 -0.34439513326E+03 -0.19301017990E+03  0.70834856000E+03  0.00000000000E+00 0.  1.
<mgrwt>
<rscale>  0 0.34688316E+04</rscale>
<asrwt>0</asrwt>
<pdfrwt beam="1">  1        2 0.31686053E+00 0.34688316E+04</pdfrwt>
<pdfrwt beam="2">  1       -1 0.22470441E+00 0.34688316E+04</pdfrwt>
<totfact> 0.59362130E-01</totfact>
</mgrwt>
</event>
<event>
12    6  0.8914180E-008  0.1205720E+04  0.7818608E-02  0.9107865E-01
         -1   -1    0    0    0  501 -0.00000000000E+00  0.00000000000E+00  0.11965296234E+04  0.11965296234E+04  0.00000000000E+00 0.  1.
          2   -1    0    0  501    0  0.00000000000E+00 -0.00000000000E+00 -0.30374507642E+03  0.30374507642E+03  0.00000000000E+00 0. -1.
         24    2    1    2    0    0  0.18633231518E+03  0.17058567072E+03  0.13741250644E+03  0.29828840093E+03  0.79212186360E+02 0.  0.
        254    2    1    2    0    0 -0.18633231518E+03 -0.17058567072E+03  0.75537204059E+03  0.12019862989E+04  0.90020272184E+03 0.  0.
         23    2    4    4    0    0 -0.42694504189E+03 -0.27729467511E+03  0.15485009672E+03  0.53997689394E+03  0.91771934183E+02 0.  0.
         23    2    4    4    0    0  0.24061272671E+03  0.10670900439E+03  0.60052194387E+03  0.66200940499E+03  0.91370407468E+02 0.  0.
          4    1    3    3  502    0  0.61752314881E+02  0.71801444200E+02  0.94093618740E+02  0.13350058004E+03  0.00000000000E+00 0. -1.
         -3    1    3    3    0  502  0.12458000030E+03  0.98784226517E+02  0.43318887702E+02  0.16478782089E+03  0.00000000000E+00 0.  1.
         11    1    5    5    0    0 -0.28874005118E+03 -0.20251672133E+03  0.63921060059E+02  0.35842675889E+03  0.00000000000E+00 0. -1.
        -11    1    5    5    0    0 -0.13820499071E+03 -0.74777953773E+02  0.90929036661E+02  0.18155013505E+03  0.00000000000E+00 0.  1.
          1    1    6    6  503    0  0.13289615158E+03  0.96593004696E+02  0.42707570474E+03  0.45758633419E+03  0.00000000000E+00 0. -1.
         -1    1    6    6    0  503  0.10771657514E+03  0.10115999694E+02  0.17344623913E+03  0.20442307080E+03  0.00000000000E+00 0.  1.
<mgrwt>
<rscale>  0 0.12057197E+04</rscale>
<asrwt>0</asrwt>
<pdfrwt beam="1">  1        2 0.46730012E-01 0.12057197E+04</pdfrwt>
<pdfrwt beam="2">  1       -1 0.18408148E+00 0.12057197E+04</pdfrwt>
<totfact> 0.23812085E+01</totfact>
</mgrwt>
</event>
<event>
12    6  0.8914180E-008  0.1833295E+04  0.7818608E-02  0.8688792E-01
         -1   -1    0    0    0  501 -0.00000000000E+00  0.00000000000E+00  0.33169177740E+03  0.33169177740E+03  0.00000000000E+00 0.  1.
          2   -1    0    0  501    0  0.00000000000E+00 -0.00000000000E+00 -0.25332017816E+04  0.25332017816E+04  0.00000000000E+00 0. -1.
         24    2    1    2    0    0 -0.10336163250E+03 -0.37442697268E+03  0.60705488859E+02  0.40129441197E+03  0.80454109628E+02 0.  0.
        254    2    1    2    0    0  0.10336163250E+03  0.37442697268E+03 -0.22622154931E+04  0.24635991470E+04  0.89488693995E+03 0.  0.
         23    2    4    4    0    0 -0.28499749685E+02  0.17219500501E+03 -0.21856035044E+04  0.21945042413E+04  0.92319180840E+02 0.  0.
         23    2    4    4    0    0  0.13186138219E+03  0.20223196767E+03 -0.76611988619E+02  0.26909490570E+03  0.90870669697E+02 0.  0.
          2    1    3    3  502    0 -0.33295038446E+02 -0.11400032158E+03 -0.18548538322E+02  0.12020266711E+03  0.00000000000E+00 0. -1.
         -1    1    3    3    0  502 -0.70066594056E+02 -0.26042665110E+03  0.79254027181E+02  0.28109174486E+03  0.00000000000E+00 0.  1.
         11    1    5    5    0    0 -0.47291266108E+01  0.88611127301E+02 -0.60055185291E+03  0.60707233882E+03  0.00000000000E+00 0. -1.
        -11    1    5    5    0    0 -0.23770623074E+02  0.83583877713E+02 -0.15850516515E+04  0.15874319025E+04  0.00000000000E+00 0.  1.
          3    1    6    6  503    0  0.64063704480E+02  0.11468734041E+03 -0.87489164856E+02  0.15783440135E+03  0.00000000000E+00 0. -1.
         -3    1    6    6    0  503  0.67797677706E+02  0.87544627257E+02  0.10877176237E+02  0.11126050434E+03  0.00000000000E+00 0.  1.
<mgrwt>
<rscale>  0 0.18332945E+04</rscale>
<asrwt>0</asrwt>
<pdfrwt beam="1">  1        2 0.38972334E+00 0.18332945E+04</pdfrwt>
<pdfrwt beam="2">  1       -1 0.51029505E-01 0.18332945E+04</pdfrwt>
<totfact> 0.13796696E+01</totfact>
</mgrwt>
</event>
<event>
12    6  0.8914180E-008  0.1586442E+04  0.7818608E-02  0.8828921E-01
          2   -1    0    0  501    0  0.00000000000E+00  0.00000000000E+00  0.96117849834E+03  0.96117849834E+03  0.00000000000E+00 0. -1.
         -1   -1    0    0    0  501 -0.00000000000E+00 -0.00000000000E+00 -0.65461259165E+03  0.65461259165E+03  0.00000000000E+00 0.  1.
         24    2    1    2    0    0  0.19944203235E+03 -0.16948654313E+03 -0.37259197637E+03  0.46205961642E+03  0.78558867756E+02 0.  0.
        254    2    1    2    0    0 -0.19944203235E+03  0.16948654313E+03  0.67915788305E+03  0.11537314736E+04  0.89517488260E+03 0.  0.
         23    2    4    4    0    0 -0.36493287367E+03 -0.24829404353E+03  0.20994491937E+03  0.49753499864E+03  0.92942301281E+02 0.  0.
         23    2    4    4    0    0  0.16549084132E+03  0.41778058665E+03  0.46921296368E+03  0.65619647493E+03  0.92223485523E+02 0.  0.
          2    1    3    3  502    0  0.48340310069E+02 -0.51462094337E+02 -0.49042485028E+02  0.85966842845E+02  0.00000000000E+00 0. -1.
         -1    1    3    3    0  502  0.15110172228E+03 -0.11802444879E+03 -0.32354949134E+03  0.37609277357E+03  0.00000000000E+00 0.  1.
         11    1    5    5    0    0 -0.17471860264E+03 -0.65197093000E+02  0.99209560639E+02  0.21123396499E+03  0.00000000000E+00 0. -1.
        -11    1    5    5    0    0 -0.19021427104E+03 -0.18309695053E+03  0.11073535873E+03  0.28630103365E+03  0.00000000000E+00 0.  1.
          1    1    6    6  503    0  0.28032168336E+02  0.20256573474E+02  0.60629103798E+02  0.69799852850E+02  0.00000000000E+00 0. -1.
         -1    1    6    6    0  503  0.13745867299E+03  0.39752401318E+03  0.40858385988E+03  0.58639662208E+03  0.00000000000E+00 0.  1.
<mgrwt>
<rscale>  0 0.15864420E+04</rscale>
<asrwt>0</asrwt>
<pdfrwt beam="1">  1        2 0.14787362E+00 0.15864420E+04</pdfrwt>
<pdfrwt beam="2">  1       -1 0.10070963E+00 0.15864420E+04</pdfrwt>
<totfact> 0.27426177E+01</totfact>
</mgrwt>
</event>
<event>
12    6  0.8914180E-008  0.1138983E+04  0.7818608E-02  0.9168007E-01
         -1   -1    0    0    0  501 -0.00000000000E+00  0.00000000000E+00  0.10641158128E+03  0.10641158128E+03  0.00000000000E+00 0.  1.
          2   -1    0    0  501    0  0.00000000000E+00 -0.00000000000E+00 -0.30477959375E+04  0.30477959375E+04  0.00000000000E+00 0. -1.
         24    2    1    2    0    0 -0.19832932002E+03  0.10481862688E+03 -0.61611286821E+03  0.66079919229E+03  0.82091670954E+02 0.  0.
        254    2    1    2    0    0  0.19832932002E+03 -0.10481862688E+03 -0.23252714880E+04  0.24934083265E+04  0.87170873918E+03 0.  0.
         23    2    4    4    0    0 -0.24916611990E+03  0.13093812614E+01 -0.24350165287E+03  0.35951165959E+03  0.88713632782E+02 0.  0.
         23    2    4    4    0    0  0.44749543993E+03 -0.10612800815E+03 -0.20817698352E+04  0.21338966669E+04  0.90741477198E+02 0.  0.
          2    1    3    3  502    0 -0.70923204121E+02  0.59706609341E+02 -0.35339948673E+03  0.36535760195E+03  0.00000000000E+00 0. -1.
         -1    1    3    3    0  502 -0.12740611590E+03  0.45112017542E+02 -0.26271338148E+03  0.29544159034E+03  0.00000000000E+00 0.  1.
         11    1    5    5    0    0 -0.16319672545E+03  0.72823042364E+01 -0.21226569145E+03  0.26784870154E+03  0.00000000000E+00 0.  1.
        -11    1    5    5    0    0 -0.85969394454E+02 -0.59729229750E+01 -0.31235961427E+02  0.91662958047E+02  0.00000000000E+00 0. -1.
          1    1    6    6  503    0  0.39799261929E+03 -0.70737938062E+02 -0.18883104859E+04  0.19310925592E+04  0.00000000000E+00 0. -1.
         -1    1    6    6    0  503  0.49502820632E+02 -0.35390070083E+02 -0.19345934926E+03  0.20280410776E+03  0.00000000000E+00 0.  1.
<mgrwt>
<rscale>  0 0.11389834E+04</rscale>
<asrwt>0</asrwt>
<pdfrwt beam="1">  1        2 0.46889170E+00 0.11389834E+04</pdfrwt>
<pdfrwt beam="2">  1       -1 0.16371012E-01 0.11389834E+04</pdfrwt>
<totfact> 0.53213363E+01</totfact>
</mgrwt>
</event>
<event>
12    6  0.8914180E-008  0.1889958E+04  0.7818608E-02  0.8659871E-01
         -1   -1    0    0    0  501 -0.00000000000E+00  0.00000000000E+00  0.34862381891E+03  0.34862381891E+03  0.00000000000E+00 0.  1.
          2   -1    0    0  501    0  0.00000000000E+00 -0.00000000000E+00 -0.25614569472E+04  0.25614569472E+04  0.00000000000E+00 0. -1.
         24    2    1    2    0    0  0.32873471044E+03 -0.41179827051E+03 -0.17025690389E+04  0.17840491536E+04  0.80285271158E+02 0.  0.
        254    2    1    2    0    0 -0.32873471044E+03  0.41179827051E+03 -0.51026408938E+03  0.11260316125E+04  0.85436141417E+03 0.  0.
         23    2    4    4    0    0  0.15375250304E+03  0.21828605382E+03 -0.52712857951E+03  0.59791181774E+03  0.91352991017E+02 0.  0.
         23    2    4    4    0    0 -0.48248721347E+03  0.19351221669E+03  0.16864490128E+02  0.52811979477E+03  0.91570832860E+02 0.  0.
          4    1    3    3  502    0  0.31803016724E+03 -0.41394543189E+03 -0.16716713584E+04  0.17512792862E+04  0.00000000000E+00 0. -1.
         -3    1    3    3    0  502  0.10704543202E+02  0.21471613753E+01 -0.30897680469E+02  0.32769867340E+02  0.00000000000E+00 0.  1.
         11    1    5    5    0    0  0.84297742659E+02  0.55955267258E+02 -0.24523281157E+03  0.26528519224E+03  0.00000000000E+00 0.  1.
        -11    1    5    5    0    0  0.69454760378E+02  0.16233078656E+03 -0.28189576794E+03  0.33262662549E+03  0.00000000000E+00 0. -1.
          2    1    6    6  503    0 -0.42906319689E+03  0.13790308334E+03  0.11660759560E+02  0.45083085590E+03  0.00000000000E+00 0. -1.
         -2    1    6    6    0  503 -0.53424016586E+02  0.55609133354E+02  0.52037305678E+01  0.77288938875E+02  0.00000000000E+00 0.  1.
<mgrwt>
<rscale>  0 0.18899576E+04</rscale>
<asrwt>0</asrwt>
<pdfrwt beam="1">  1        2 0.39407028E+00 0.18899576E+04</pdfrwt>
<pdfrwt beam="2">  1       -1 0.53634437E-01 0.18899576E+04</pdfrwt>
<totfact> 0.12012947E+01</totfact>
</mgrwt>
</event>
<event>
12    6  0.8914180E-008  0.1793362E+04  0.7818608E-02  0.8709838E-01
         -1   -1    0    0    0  501 -0.00000000000E+00  0.00000000000E+00  0.58460213784E+03  0.58460213784E+03  0.00000000000E+00 0.  1.
          2   -1    0    0  501    0  0.00000000000E+00 -0.00000000000E+00 -0.13753571516E+04  0.13753571516E+04  0.00000000000E+00 0. -1.
         24    2    1    2    0    0  0.38157734159E+03  0.51983581037E+03 -0.48574681170E+03  0.81131679490E+03  0.80339524770E+02 0.  0.
        254    2    1    2    0    0 -0.38157734159E+03 -0.51983581037E+03 -0.30500820205E+03  0.11486424945E+04  0.90028830915E+03 0.  0.
         23    2    4    4    0    0  0.28574749540E+02 -0.46760220098E+03  0.17355347754E+03  0.50870004524E+03  0.95846709855E+02 0.  0.
         23    2    4    4    0    0 -0.41015209113E+03 -0.52233609395E+02 -0.47856167959E+03  0.63994244930E+03  0.97734177434E+02 0.  0.
          2    1    3    3  502    0  0.33317041580E+03  0.44889825451E+03 -0.38419460761E+03  0.67831973684E+03  0.00000000000E+00 0. -1.
         -1    1    3    3    0  502  0.48406925788E+02  0.70937555865E+02 -0.10155220409E+03  0.13299705806E+03  0.00000000000E+00 0.  1.
         11    1    5    5    0    0 -0.31330467656E+02 -0.11422399892E+03  0.27036396547E+02  0.12148945169E+03  0.00000000000E+00 0.  1.
        -11    1    5    5    0    0  0.59905217196E+02 -0.35337820205E+03  0.14651708099E+03  0.38721059355E+03  0.00000000000E+00 0. -1.
          4    1    6    6  503    0 -0.60684212411E+02 -0.26497684410E+02 -0.35739302878E+02  0.75246253630E+02  0.00000000000E+00 0.  1.
         -4    1    6    6    0  503 -0.34946787872E+03 -0.25735924985E+02 -0.44282237671E+03  0.56469619567E+03  0.00000000000E+00 0. -1.
<mgrwt>
<rscale>  0 0.17933619E+04</rscale>
<asrwt>0</asrwt>
<pdfrwt beam="1">  1        2 0.21159341E+00 0.17933619E+04</pdfrwt>
<pdfrwt beam="2">  1       -1 0.89938791E-01 0.17933619E+04</pdfrwt>
<totfact> 0.19471841E+01</totfact>
</mgrwt>
</event>
<event>
12    6  0.8914180E-008  0.1316898E+04  0.7818608E-02  0.9016271E-01
          2   -1    0    0  501    0  0.00000000000E+00  0.00000000000E+00  0.14824015623E+04  0.14824015623E+04  0.00000000000E+00 0. -1.
         -1   -1    0    0    0  501 -0.00000000000E+00 -0.00000000000E+00 -0.29246805483E+03  0.29246805483E+03  0.00000000000E+00 0.  1.
         24    2    1    2    0    0  0.27735327248E+03  0.14691147743E+03  0.12600768527E+03  0.34763469538E+03  0.80399780639E+02 0.  0.
        254    2    1    2    0    0 -0.27735327248E+03 -0.14691147743E+03  0.10639258222E+04  0.14272349217E+04  0.89808326271E+03 0.  0.
         23    2    4    4    0    0  0.89693747459E+02 -0.19684286078E+02 -0.12123364716E+03  0.17672352851E+03  0.90006493505E+02 0.  0.
         23    2    4    4    0    0 -0.36704701994E+03 -0.12722719136E+03  0.11851594694E+04  0.12505113932E+04  0.90914815900E+02 0.  0.
          2    1    3    3  502    0  0.11758986647E+03  0.95723120670E+02  0.30745773948E+02  0.15471132842E+03  0.00000000000E+00 0. -1.
         -1    1    3    3    0  502  0.15976340601E+03  0.51188356765E+02  0.95261911324E+02  0.19292336696E+03  0.00000000000E+00 0.  1.
         11    1    5    5    0    0  0.23497268544E+02 -0.45245277849E+02 -0.79373184502E+02  0.94336415104E+02  0.00000000000E+00 0.  1.
        -11    1    5    5    0    0  0.66196478915E+02  0.25560991771E+02 -0.41860462657E+02  0.82387113403E+02  0.00000000000E+00 0. -1.
          4    1    6    6  503    0  0.75398824816E+00 -0.13933932526E+02  0.35393474507E+02  0.38044986681E+02  0.00000000000E+00 0.  1.
         -4    1    6    6    0  503 -0.36780100819E+03 -0.11329325883E+03  0.11497659948E+04  0.12124664066E+04  0.00000000000E+00 0. -1.
<mgrwt>
<rscale>  0 0.13168980E+04</rscale>
<asrwt>0</asrwt>
<pdfrwt beam="1">  1        2 0.22806178E+00 0.13168980E+04</pdfrwt>
<pdfrwt beam="2">  1       -1 0.44995086E-01 0.13168980E+04</pdfrwt>
<totfact> 0.70958769E+01</totfact>
</mgrwt>
</event>
<event>
12    6  0.8914180E-008  0.1770479E+04  0.7818608E-02  0.8722158E-01
          2   -1    0    0  501    0  0.00000000000E+00  0.00000000000E+00  0.10765594043E+04  0.10765594043E+04  0.00000000000E+00 0. -1.
         -1   -1    0    0    0  501 -0.00000000000E+00 -0.00000000000E+00 -0.72791959826E+03  0.72791959826E+03  0.00000000000E+00 0.  1.
         24    2    1    2    0    0  0.31077620535E+03 -0.56742349492E+03  0.47274291723E+01  0.65187707585E+03  0.79812912669E+02 0.  0.
        254    2    1    2    0    0 -0.31077620535E+03  0.56742349492E+03  0.34391237689E+03  0.11526019267E+04  0.88975513829E+03 0.  0.
         23    2    4    4    0    0  0.15709950982E+03 -0.13444557700E+03  0.18158453709E+03  0.28923948641E+03  0.89054293697E+02 0.  0.
         23    2    4    4    0    0 -0.46787571518E+03  0.70186907192E+03  0.16232783979E+03  0.86336244031E+03  0.86697732296E+02 0.  0.
          4    1    3    3  502    0  0.21434032414E+03 -0.36795399820E+03 -0.33090549576E+02  0.42711462609E+03  0.00000000000E+00 0. -1.
         -3    1    3    3    0  502  0.96435881209E+02 -0.19946949672E+03  0.37817978749E+02  0.22476244976E+03  0.00000000000E+00 0.  1.
         11    1    5    5    0    0  0.10408607197E+03 -0.61102217356E+02  0.15186946262E+03  0.19398898170E+03  0.00000000000E+00 0. -1.
        -11    1    5    5    0    0  0.53013437851E+02 -0.73343359648E+02  0.29715074477E+02  0.95250504715E+02  0.00000000000E+00 0.  1.
          2    1    6    6  503    0 -0.19702011414E+03  0.30459299146E+03  0.26514748753E+02  0.36372633631E+03  0.00000000000E+00 0. -1.
         -2    1    6    6    0  503 -0.27085560103E+03  0.39727608046E+03  0.13581309104E+03  0.49963610399E+03  0.00000000000E+00 0.  1.
<mgrwt>
<rscale>  0 0.17704787E+04</rscale>
<asrwt>0</asrwt>
<pdfrwt beam="1">  1        2 0.16562452E+00 0.17704787E+04</pdfrwt>
<pdfrwt beam="2">  1       -1 0.11198763E+00 0.17704787E+04</pdfrwt>
<totfact> 0.17787636E+01</totfact>
</mgrwt>
</event>
<event>
12    6  0.8914180E-008  0.2557254E+04  0.7818608E-02  0.8382868E-01
          2   -1    0    0  501    0  0.00000000000E+00  0.00000000000E+00  0.31641625885E+04  0.31641625885E+04  0.00000000000E+00 0. -1.
         -1   -1    0    0    0  501 -0.00000000000E+00 -0.00000000000E+00 -0.51668879198E+03  0.51668879198E+03  0.00000000000E+00 0.  1.
         24    2    1    2    0    0 -0.21634203069E+03  0.69685666129E+03 -0.58891909967E+02  0.73625998251E+03  0.78723720466E+02 0.  0.
        254    2    1    2    0    0  0.21634203069E+03 -0.69685666129E+03  0.27063657065E+04  0.29445913980E+04  0.90210314440E+03 0.  0.
         23    2    4    4    0    0  0.89344101939E+02 -0.20812536095E+03  0.65093318759E+02  0.25389774478E+03  0.94490159465E+02 0.  0.
         23    2    4    4    0    0  0.12699792875E+03 -0.48873130034E+03  0.26412723878E+04  0.26906936532E+04  0.92334994959E+02 0.  0.
          2    1    3    3  502    0 -0.17035159151E+01  0.83248440862E+02 -0.15935766584E+02  0.84777081390E+02  0.00000000000E+00 0. -1.
         -1    1    3    3    0  502 -0.21463851478E+03  0.61360822043E+03 -0.42956143383E+02  0.65148290112E+03  0.00000000000E+00 0.  1.
         11    1    5    5    0    0  0.90293252835E+02 -0.21540312633E+03  0.52606174515E+02  0.23941342472E+03  0.00000000000E+00 0. -1.
        -11    1    5    5    0    0 -0.94915089633E+00  0.72777653756E+01  0.12487144244E+02  0.14484320062E+02  0.00000000000E+00 0.  1.
          2    1    6    6  503    0  0.57869319066E+02 -0.36067375633E+03  0.17628337766E+04  0.18002825724E+04  0.00000000000E+00 0. -1.
         -2    1    6    6    0  503  0.69128609688E+02 -0.12805754401E+03  0.87843861121E+03  0.89041108086E+03  0.00000000000E+00 0.  1.
<mgrwt>
<rscale>  0 0.25572543E+04</rscale>
<asrwt>0</asrwt>
<pdfrwt beam="1">  1        2 0.48679423E+00 0.25572543E+04</pdfrwt>
<pdfrwt beam="2">  1       -1 0.79490586E-01 0.25572543E+04</pdfrwt>
<totfact> 0.21844544E+00</totfact>
</mgrwt>
</event>
<event>
12    6  0.8914180E-008  0.2367653E+04  0.7818608E-02  0.8451714E-01
         -3   -1    0    0    0  501 -0.00000000000E+00  0.00000000000E+00  0.68044652666E+03  0.68044652666E+03  0.00000000000E+00 0.  1.
          2   -1    0    0  501    0  0.00000000000E+00 -0.00000000000E+00 -0.20595966517E+04  0.20595966517E+04  0.00000000000E+00 0. -1.
         24    2    1    2    0    0  0.31930667735E+03 -0.11080584684E+03 -0.17234260056E+04  0.17579922193E+04  0.78132940803E+02 0.  0.
        254    2    1    2    0    0 -0.31930667735E+03  0.11080584684E+03  0.34427588056E+03  0.98205095906E+03  0.85537331871E+03 0.  0.
         23    2    4    4    0    0  0.19748792032E+02  0.43021691410E+03  0.22124134752E+03  0.49255950047E+03  0.90501489973E+02 0.  0.
         23    2    4    4    0    0 -0.33905546938E+03 -0.31941106726E+03  0.12303453304E+03  0.48949145859E+03  0.86500580944E+02 0.  0.
          4    1    3    3  502    0  0.20836510367E+03 -0.42018249097E+02 -0.93709650860E+03  0.96090135608E+03  0.00000000000E+00 0. -1.
         -3    1    3    3    0  502  0.11094157368E+03 -0.68787597742E+02 -0.78632949702E+03  0.79709086324E+03  0.00000000000E+00 0.  1.
         11    1    5    5    0    0 -0.72815113287E+01  0.92983262425E+02  0.10216830854E+02  0.93825855345E+02  0.00000000000E+00 0. -1.
        -11    1    5    5    0    0  0.27030303360E+02  0.33723365167E+03  0.21102451667E+03  0.39873364513E+03  0.00000000000E+00 0.  1.
          2    1    6    6  503    0 -0.59083312439E+02 -0.17733280264E+02  0.23825271483E+02  0.66128288946E+02  0.00000000000E+00 0. -1.
         -2    1    6    6    0  503 -0.27997215694E+03 -0.30167778700E+03  0.99209261556E+02  0.42336316964E+03  0.00000000000E+00 0.  1.
<mgrwt>
<rscale>  0 0.23676532E+04</rscale>
<asrwt>0</asrwt>
<pdfrwt beam="1">  1        2 0.31686102E+00 0.23676532E+04</pdfrwt>
<pdfrwt beam="2">  1       -3 0.10468408E+00 0.23676532E+04</pdfrwt>
<totfact> 0.27913469E+00</totfact>
</mgrwt>
</event>
<event>
12    6  0.8914180E-008  0.1565256E+04  0.7818608E-02  0.8842181E-01
          2   -1    0    0  501    0  0.00000000000E+00  0.00000000000E+00  0.80603750876E+03  0.80603750876E+03  0.00000000000E+00 0. -1.
         -1   -1    0    0    0  501 -0.00000000000E+00 -0.00000000000E+00 -0.75989864133E+03  0.75989864133E+03  0.00000000000E+00 0.  1.
         24    2    1    2    0    0  0.77987582766E+02  0.27816421779E+02  0.52718531577E+03  0.53952800757E+03  0.79437380397E+02 0.  0.
        254    2    1    2    0    0 -0.77987582766E+02 -0.27816421779E+02 -0.48104644833E+03  0.10264081425E+04  0.90291315928E+03 0.  0.
         23    2    4    4    0    0  0.11440706359E+03  0.30436670059E+03  0.73636900538E+02  0.34571898987E+03  0.91494055604E+02 0.  0.
         23    2    4    4    0    0 -0.19239464636E+03 -0.33218312236E+03 -0.55468334887E+03  0.68068915265E+03  0.91119582378E+02 0.  0.
          4    1    3    3  502    0  0.83911535335E+02  0.44514512051E+02  0.40052640542E+03  0.41163586941E+03  0.00000000000E+00 0. -1.
         -3    1    3    3    0  502 -0.59239525693E+01 -0.16698090272E+02  0.12665891034E+03  0.12789213815E+03  0.00000000000E+00 0.  1.
         11    1    5    5    0    0  0.11136271864E+03  0.18195774443E+03  0.64790208474E+02  0.22295301518E+03  0.00000000000E+00 0. -1.
        -11    1    5    5    0    0  0.30443449549E+01  0.12240895615E+03  0.88466920640E+01  0.12276597469E+03  0.00000000000E+00 0.  1.
          4    1    6    6  503    0  0.34774665365E+01 -0.18501592031E+02 -0.61099349107E+02  0.63933810637E+02  0.00000000000E+00 0. -1.
         -4    1    6    6    0  503 -0.19587211289E+03 -0.31368153033E+03 -0.49358399976E+03  0.61675534202E+03  0.00000000000E+00 0.  1.
<mgrwt>
<rscale>  0 0.15652563E+04</rscale>
<asrwt>0</asrwt>
<pdfrwt beam="1">  1        2 0.12400577E+00 0.15652563E+04</pdfrwt>
<pdfrwt beam="2">  1       -1 0.11690748E+00 0.15652563E+04</pdfrwt>
<totfact> 0.24702150E+01</totfact>
</mgrwt>
</event>
<event>
12    6  0.8914180E-008  0.1728926E+04  0.7818608E-02  0.8745036E-01
          2   -1    0    0  501    0  0.00000000000E+00  0.00000000000E+00  0.24712335197E+04  0.24712335197E+04  0.00000000000E+00 0. -1.
         -1   -1    0    0    0  501 -0.00000000000E+00 -0.00000000000E+00 -0.30239823827E+03  0.30239823827E+03  0.00000000000E+00 0.  1.
         24    2    1    2    0    0 -0.42426939416E+02 -0.21259120491E+03  0.17132591207E+04  0.17287441643E+04  0.79400915167E+02 0.  0.
        254    2    1    2    0    0  0.42426939416E+02  0.21259120491E+03  0.45557616069E+03  0.10448875936E+04  0.91501113630E+03 0.  0.
         23    2    4    4    0    0 -0.35260159433E+03  0.22908824513E+03  0.47124943199E+03  0.63808190765E+03  0.90902064491E+02 0.  0.
         23    2    4    4    0    0  0.39502853375E+03 -0.16497040220E+02 -0.15673271297E+02  0.40680568599E+03  0.94474969752E+02 0.  0.
          2    1    3    3  502    0 -0.36819856498E+02 -0.15598529042E+03  0.14798513862E+04  0.14885050345E+04  0.00000000000E+00 0. -1.
         -1    1    3    3    0  502 -0.56070829186E+01 -0.56605914493E+02  0.23340773458E+03  0.24023912982E+03  0.00000000000E+00 0.  1.
         11    1    5    5    0    0 -0.35524997535E+03  0.23325478894E+03  0.46802665573E+03  0.63218612134E+03  0.00000000000E+00 0. -1.
        -11    1    5    5    0    0  0.26483810136E+01 -0.41665438067E+01  0.32227762644E+01  0.58957863035E+01  0.00000000000E+00 0.  1.
          2    1    6    6  503    0  0.45647061826E+02 -0.13936000121E+02 -0.31284043193E+02  0.57066257204E+02  0.00000000000E+00 0. -1.
         -2    1    6    6    0  503  0.34938147192E+03 -0.25610400991E+01  0.15610771896E+02  0.34973942879E+03  0.00000000000E+00 0.  1.
<mgrwt>
<rscale>  0 0.17289264E+04</rscale>
<asrwt>0</asrwt>
<pdfrwt beam="1">  1        2 0.38018976E+00 0.17289264E+04</pdfrwt>
<pdfrwt beam="2">  1       -1 0.46522808E-01 0.17289264E+04</pdfrwt>
<totfact> 0.18016939E+01</totfact>
</mgrwt>
</event>
<event>
12    6  0.8914180E-008  0.2028863E+04  0.7818608E-02  0.8593244E-01
         -1   -1    0    0    0  501 -0.00000000000E+00  0.00000000000E+00  0.96407230252E+03  0.96407230252E+03  0.00000000000E+00 0.  1.
          2   -1    0    0  501    0  0.00000000000E+00 -0.00000000000E+00 -0.10674211996E+04  0.10674211996E+04  0.00000000000E+00 0. -1.
         24    2    1    2    0    0  0.26954913244E+02 -0.78376195052E+03  0.16520509716E+03  0.80565469192E+03  0.82324941867E+02 0.  0.
        254    2    1    2    0    0 -0.26954913244E+02  0.78376195052E+03 -0.26855399427E+03  0.12258388102E+04  0.90307816850E+03 0.  0.
         23    2    4    4    0    0 -0.40311350885E+03  0.34017533469E+03  0.79873915726E+02  0.54157824029E+03  0.93313389129E+02 0.  0.
         23    2    4    4    0    0  0.37615859560E+03  0.44358661583E+03 -0.34842790999E+03  0.68426056995E+03  0.92445358663E+02 0.  0.
          2    1    3    3  502    0 -0.23512763528E+02 -0.14588301113E+03  0.16105341534E+02  0.14864079188E+03  0.00000000000E+00 0. -1.
         -3    1    3    3    0  502  0.50467676772E+02 -0.63787893938E+03  0.14909975562E+03  0.65701390003E+03  0.00000000000E+00 0.  1.
         11    1    5    5    0    0 -0.66163484870E+02  0.25398485262E+02 -0.10657844986E+02  0.71667841069E+02  0.00000000000E+00 0. -1.
        -11    1    5    5    0    0 -0.33695002398E+03  0.31477684943E+03  0.90531760712E+02  0.46991039922E+03  0.00000000000E+00 0.  1.
          3    1    6    6  503    0  0.13348932108E+03  0.17549873225E+03 -0.18329039373E+03  0.28673083597E+03  0.00000000000E+00 0. -1.
         -3    1    6    6    0  503  0.24266927453E+03  0.26808788358E+03 -0.16513751627E+03  0.39752973398E+03  0.00000000000E+00 0.  1.
<mgrwt>
<rscale>  0 0.20288629E+04</rscale>
<asrwt>0</asrwt>
<pdfrwt beam="1">  1        2 0.16421865E+00 0.20288629E+04</pdfrwt>
<pdfrwt beam="2">  1       -1 0.14831882E+00 0.20288629E+04</pdfrwt>
<totfact> 0.86790109E+00</totfact>
</mgrwt>
</event>
<event>
12    6  0.8914180E-008  0.1106446E+04  0.7818608E-02  0.9198932E-01
          2   -1    0    0  501    0  0.00000000000E+00  0.00000000000E+00  0.28872589899E+04  0.28872589899E+04  0.00000000000E+00 0. -1.
         -1   -1    0    0    0  501 -0.00000000000E+00 -0.00000000000E+00 -0.10600217433E+03  0.10600217433E+03  0.00000000000E+00 0.  1.
         24    2    1    2    0    0 -0.17149079481E+03  0.81119128746E+02  0.48863801686E+03  0.53031202512E+03  0.80463201011E+02 0.  0.
        254    2    1    2    0    0  0.17149079481E+03 -0.81119128746E+02  0.22926187987E+04  0.24629491391E+04  0.87978866777E+03 0.  0.
         23    2    4    4    0    0  0.51585211040E+03 -0.26654638124E+01  0.15370320516E+04  0.16239722299E+04  0.93315439556E+02 0.  0.
         23    2    4    4    0    0 -0.34436131559E+03 -0.78453664933E+02  0.75558674715E+03  0.83897690928E+03  0.90726118749E+02 0.  0.
          2    1    3    3  502    0 -0.13444815151E+03  0.49543954402E+02  0.26315726780E+03  0.29963754180E+03  0.00000000000E+00 0. -1.
         -1    1    3    3    0  502 -0.37042643294E+02  0.31575174344E+02  0.22548074907E+03  0.23067448332E+03  0.00000000000E+00 0.  1.
         11    1    5    5    0    0  0.11519889385E+03 -0.39336927778E+02  0.33966875831E+03  0.36082273266E+03  0.00000000000E+00 0. -1.
        -11    1    5    5    0    0  0.40065321654E+03  0.36671463966E+02  0.11973632933E+04  0.12631494972E+04  0.00000000000E+00 0.  1.
          4    1    6    6  503    0 -0.33980504848E+03 -0.89797293773E+02  0.73948296362E+03  0.81875886464E+03  0.00000000000E+00 0. -1.
         -4    1    6    6    0  503 -0.45562671104E+01  0.11343628839E+02  0.16103783538E+02  0.20218044650E+02  0.00000000000E+00 0.  1.
<mgrwt>
<rscale>  0 0.11064461E+04</rscale>
<asrwt>0</asrwt>
<pdfrwt beam="1">  1        2 0.44419363E+00 0.11064461E+04</pdfrwt>
<pdfrwt beam="2">  1       -1 0.16308029E-01 0.11064461E+04</pdfrwt>
<totfact> 0.67430285E+01</totfact>
</mgrwt>
</event>
<event>
12    6  0.8914180E-008  0.1784128E+04  0.7818608E-02  0.8714786E-01
         -3   -1    0    0    0  501 -0.00000000000E+00  0.00000000000E+00  0.90671867480E+03  0.90671867480E+03  0.00000000000E+00 0.  1.
          2   -1    0    0  501    0  0.00000000000E+00 -0.00000000000E+00 -0.87764583669E+03  0.87764583669E+03  0.00000000000E+00 0. -1.
         24    2    1    2    0    0  0.26833026100E+02 -0.32569024295E+03 -0.56352829092E+03  0.65637136111E+03  0.80405742124E+02 0.  0.
        254    2    1    2    0    0 -0.26833026100E+02  0.32569024295E+03  0.59260112904E+03  0.11279931504E+04  0.90244019388E+03 0.  0.
         23    2    4    4    0    0 -0.25866411334E+03 -0.12799859639E+03  0.52447860548E+03  0.60607523178E+03  0.94649959154E+02 0.  0.
         23    2    4    4    0    0  0.23183108724E+03  0.45368883934E+03  0.68122523565E+02  0.52191791860E+03  0.90434614985E+02 0.  0.
          2    1    3    3  502    0 -0.21756818981E+02 -0.16248257846E+03 -0.31494425458E+03  0.35505468730E+03  0.00000000000E+00 0. -1.
         -1    1    3    3    0  502  0.48589845081E+02 -0.16320766449E+03 -0.24858403634E+03  0.30131667381E+03  0.00000000000E+00 0.  1.
         11    1    5    5    0    0 -0.26012674320E+03 -0.12252725008E+03  0.46773061444E+03  0.54904533257E+03  0.00000000000E+00 0.  1.
        -11    1    5    5    0    0  0.14626298582E+01 -0.54713463075E+01  0.56747991039E+02  0.57029899207E+02  0.00000000000E+00 0. -1.
          2    1    6    6  503    0  0.34891462219E+01  0.72448723604E+02  0.14088334188E+01  0.72546374857E+02  0.00000000000E+00 0. -1.
         -2    1    6    6    0  503  0.22834194102E+03  0.38124011574E+03  0.66713690146E+02  0.44937154374E+03  0.00000000000E+00 0.  1.
<mgrwt>
<rscale>  0 0.17841277E+04</rscale>
<asrwt>0</asrwt>
<pdfrwt beam="1">  1        2 0.13502244E+00 0.17841277E+04</pdfrwt>
<pdfrwt beam="2">  1       -3 0.13949518E+00 0.17841277E+04</pdfrwt>
<totfact> 0.70434347E+00</totfact>
</mgrwt>
</event>
<event>
12    6  0.8914180E-008  0.1948067E+04  0.7818608E-02  0.8631294E-01
         -1   -1    0    0    0  501 -0.00000000000E+00  0.00000000000E+00  0.33606650256E+03  0.33606650256E+03  0.00000000000E+00 0.  1.
          2   -1    0    0  501    0  0.00000000000E+00 -0.00000000000E+00 -0.28230746504E+04  0.28230746504E+04  0.00000000000E+00 0. -1.
         24    2    1    2    0    0 -0.12393775886E+03  0.15356696972E+03 -0.21027096379E+04  0.21134508648E+04  0.79645178836E+02 0.  0.
        254    2    1    2    0    0  0.12393775886E+03 -0.15356696972E+03 -0.38429850992E+03  0.10456902881E+04  0.95228118308E+03 0.  0.
         23    2    4    4    0    0  0.41111837556E+02 -0.24263803539E+03 -0.67139107796E+03  0.72047511844E+03  0.88062576214E+02 0.  0.
         23    2    4    4    0    0  0.82825921300E+02  0.89071065671E+02  0.28709256804E+03  0.32521516966E+03  0.92460672587E+02 0.  0.
          4    1    3    3  502    0 -0.10855139058E+03  0.13025166555E+03 -0.14068324687E+04  0.14170132307E+04  0.00000000000E+00 0. -1.
         -3    1    3    3    0  502 -0.15386368276E+02  0.23315304167E+02 -0.69587716913E+03  0.69643763415E+03  0.00000000000E+00 0.  1.
         11    1    5    5    0    0 -0.19302646064E+02 -0.11673748990E+02 -0.52986046485E+02  0.57588103655E+02  0.00000000000E+00 0. -1.
        -11    1    5    5    0    0  0.60414483620E+02 -0.23096428640E+03 -0.61840503147E+03  0.66288701479E+03  0.00000000000E+00 0.  1.
          4    1    6    6  503    0 -0.62491835618E+01 -0.12077531012E+02  0.56585921243E+02  0.58196954675E+02  0.00000000000E+00 0. -1.
         -4    1    6    6    0  503  0.89075104862E+02  0.10114859668E+03  0.23050664680E+03  0.26701821499E+03  0.00000000000E+00 0.  1.
<mgrwt>
<rscale>  0 0.19480666E+04</rscale>
<asrwt>0</asrwt>
<pdfrwt beam="1">  1        2 0.43431917E+00 0.19480666E+04</pdfrwt>
<pdfrwt beam="2">  1       -1 0.51702540E-01 0.19480666E+04</pdfrwt>
<totfact> 0.89690052E+00</totfact>
</mgrwt>
</event>
<event>
12    6  0.8914180E-008  0.4065707E+04  0.7818608E-02  0.7991421E-01
          2   -1    0    0  501    0  0.00000000000E+00  0.00000000000E+00  0.24649838511E+04  0.24649838511E+04  0.00000000000E+00 0. -1.
         -1   -1    0    0    0  501 -0.00000000000E+00 -0.00000000000E+00 -0.16764789414E+04  0.16764789414E+04  0.00000000000E+00 0.  1.
         24    2    1    2    0    0  0.13902532933E+04 -0.10584421767E+04  0.12142667784E+04  0.21285642674E+04  0.56903165359E+02 0.  0.
        254    2    1    2    0    0 -0.13902532933E+04  0.10584421767E+04 -0.42576186872E+03  0.20128985252E+04  0.90409249696E+03 0.  0.
         23    2    4    4    0    0 -0.57905947181E+03  0.84308246883E+03 -0.54096135166E+03  0.11608833617E+04  0.94409079212E+02 0.  0.
         23    2    4    4    0    0 -0.81119382146E+03  0.21535970784E+03  0.11519948294E+03  0.85201516353E+03  0.90794814211E+02 0.  0.
          4    1    3    3  502    0  0.10398723454E+04 -0.81744331173E+03  0.90259705066E+03  0.16013211728E+04  0.00000000000E+00 0. -1.
         -3    1    3    3    0  502  0.35038094784E+03 -0.24099886494E+03  0.31166972779E+03  0.52724309453E+03  0.00000000000E+00 0.  1.
         11    1    5    5    0    0 -0.20223315586E+02  0.69175263721E+01 -0.97262738552E+01  0.23482654610E+02  0.00000000000E+00 0. -1.
        -11    1    5    5    0    0 -0.55883615623E+03  0.83616494246E+03 -0.53123507781E+03  0.11374007071E+04  0.00000000000E+00 0.  1.
          3    1    6    6  503    0 -0.21375587186E+02  0.71403767098E-01 -0.10451725474E+02  0.23794104132E+02  0.00000000000E+00 0. -1.
         -3    1    6    6    0  503 -0.78981823427E+03  0.21528830407E+03  0.12565120842E+03  0.82822105940E+03  0.00000000000E+00 0.  1.
<mgrwt>
<rscale>  0 0.40657071E+04</rscale>
<asrwt>0</asrwt>
<pdfrwt beam="1">  1        2 0.37922828E+00 0.40657071E+04</pdfrwt>
<pdfrwt beam="2">  1       -1 0.25791984E+00 0.40657071E+04</pdfrwt>
<totfact> 0.20140191E-01</totfact>
</mgrwt>
</event>
<event>
12    6  0.8914180E-008  0.2046914E+04  0.7818608E-02  0.8584996E-01
         -1   -1    0    0    0  501 -0.00000000000E+00  0.00000000000E+00  0.10615087994E+04  0.10615087994E+04  0.00000000000E+00 0.  1.
          2   -1    0    0  501    0  0.00000000000E+00 -0.00000000000E+00 -0.98676879452E+03  0.98676879452E+03  0.00000000000E+00 0. -1.
         24    2    1    2    0    0 -0.60170921241E+03  0.22127256853E+03  0.50229640509E+03  0.81822144033E+03  0.78543751911E+02 0.  0.
        254    2    1    2    0    0  0.60170921241E+03 -0.22127256853E+03 -0.42755640016E+03  0.12300561536E+04  0.95875864529E+03 0.  0.
         23    2    4    4    0    0 -0.12985141780E+03 -0.24816962923E+03 -0.39342574190E+03  0.49127300903E+03  0.90087731857E+02 0.  0.
         23    2    4    4    0    0  0.73156063021E+03  0.26897060706E+02 -0.34130658260E+02  0.73878314461E+03  0.93441026225E+02 0.  0.
          2    1    3    3  502    0 -0.23147036857E+03  0.93990420880E+02  0.14906940618E+03  0.29091995223E+03  0.00000000000E+00 0. -1.
         -1    1    3    3    0  502 -0.37023884384E+03  0.12728214765E+03  0.35322699891E+03  0.52730148810E+03  0.00000000000E+00 0.  1.
         11    1    5    5    0    0 -0.69883685801E+02 -0.16659627356E+03 -0.17987208527E+03  0.25493531525E+03  0.00000000000E+00 0. -1.
        -11    1    5    5    0    0 -0.59967731999E+02 -0.81573355674E+02 -0.21355365664E+03  0.23633769378E+03  0.00000000000E+00 0.  1.
          1    1    6    6  503    0  0.69150124802E+03  0.35576217057E+02 -0.12705121104E+02  0.69253235544E+03  0.00000000000E+00 0. -1.
         -1    1    6    6    0  503  0.40059382193E+02 -0.86791563505E+01 -0.21425537156E+02  0.46250789173E+02  0.00000000000E+00 0.  1.
<mgrwt>
<rscale>  0 0.20469135E+04</rscale>
<asrwt>0</asrwt>
<pdfrwt beam="1">  1        2 0.15181058E+00 0.20469135E+04</pdfrwt>
<pdfrwt beam="2">  1       -1 0.16330905E+00 0.20469135E+04</pdfrwt>
<totfact> 0.74831956E+00</totfact>
</mgrwt>
</event>
<event>
12    6  0.8914180E-008  0.1419117E+04  0.7818608E-02  0.8940096E-01
         -1   -1    0    0    0  501 -0.00000000000E+00  0.00000000000E+00  0.31572474842E+03  0.31572474842E+03  0.00000000000E+00 0.  1.
          2   -1    0    0  501    0  0.00000000000E+00 -0.00000000000E+00 -0.15946578062E+04  0.15946578062E+04  0.00000000000E+00 0. -1.
         24    2    1    2    0    0 -0.13412522074E+01 -0.38895088931E+03 -0.16896536980E+03  0.43112978222E+03  0.77711000986E+02 0.  0.
        254    2    1    2    0    0  0.13412522074E+01  0.38895088931E+03 -0.11099676880E+04  0.14792527724E+04  0.89714876304E+03 0.  0.
         23    2    4    4    0    0 -0.74215727232E+02  0.27119016112E+03  0.58984775420E+02  0.29839484210E+03  0.80673418171E+02 0.  0.
         23    2    4    4    0    0  0.75556979439E+02  0.11776072818E+03 -0.11689524634E+04  0.11808579303E+04  0.91646841890E+02 0.  0.
          2    1    3    3  502    0 -0.18293290981E+02 -0.37345091519E+02 -0.35454211509E+02  0.54647062768E+02  0.00000000000E+00 0. -1.
         -1    1    3    3    0  502  0.16952038773E+02 -0.35160579779E+03 -0.13351115830E+03  0.37648271945E+03  0.00000000000E+00 0.  1.
         11    1    5    5    0    0 -0.81107821897E+02  0.25017297256E+03  0.72079150827E+02  0.27269103204E+03  0.00000000000E+00 0. -1.
        -11    1    5    5    0    0  0.68920946652E+01  0.21017188564E+02 -0.13094375407E+02  0.25703810054E+02  0.00000000000E+00 0.  1.
          4    1    6    6  503    0  0.39565444498E+02  0.12108701989E+03 -0.79233259669E+03  0.80250759159E+03  0.00000000000E+00 0. -1.
         -4    1    6    6    0  503  0.35991534941E+02 -0.33262917013E+01 -0.37661986669E+03  0.37835033869E+03  0.00000000000E+00 0.  1.
<mgrwt>
<rscale>  0 0.14191165E+04</rscale>
<asrwt>0</asrwt>
<pdfrwt beam="1">  1        2 0.24533197E+00 0.14191165E+04</pdfrwt>
<pdfrwt beam="2">  1       -1 0.48573038E-01 0.14191165E+04</pdfrwt>
<totfact> 0.52733410E+01</totfact>
</mgrwt>
</event>
<event>
12    6  0.8914180E-008  0.1683261E+04  0.7818608E-02  0.8770969E-01
         -1   -1    0    0    0  501 -0.00000000000E+00  0.00000000000E+00  0.24957696687E+03  0.24957696687E+03  0.00000000000E+00 0.  1.
          2   -1    0    0  501    0  0.00000000000E+00 -0.00000000000E+00 -0.28381706142E+04  0.28381706142E+04  0.00000000000E+00 0. -1.
         24    2    1    2    0    0  0.31655449901E+03 -0.46801578660E+03 -0.57260533791E+03  0.80841234596E+03  0.80050738529E+02 0.  0.
        254    2    1    2    0    0 -0.31655449901E+03  0.46801578660E+03 -0.20159883094E+04  0.22793352351E+04  0.90106310710E+03 0.  0.
         23    2    4    4    0    0 -0.30442705470E+03  0.41563436430E+03 -0.20875505434E+04  0.21520132844E+04  0.88691310471E+02 0.  0.
         23    2    4    4    0    0 -0.12127444313E+02  0.52381422295E+02  0.71562233980E+02  0.12732195072E+03  0.90547432300E+02 0.  0.
          2    1    3    3  502    0  0.10811353449E+03 -0.99961517563E+02 -0.16192040057E+03  0.21885853297E+03  0.00000000000E+00 0. -1.
         -1    1    3    3    0  502  0.20844096452E+03 -0.36805426904E+03 -0.41068493735E+03  0.58955381299E+03  0.00000000000E+00 0.  1.
         11    1    5    5    0    0 -0.30199703360E+03  0.40922327628E+03 -0.19810874098E+04  0.20453296124E+04  0.00000000000E+00 0.  1.
        -11    1    5    5    0    0 -0.24300210950E+01  0.64110880252E+01 -0.10646313354E+03  0.10668367193E+03  0.00000000000E+00 0. -1.
          4    1    6    6  503    0 -0.17435337971E+02  0.44640473233E+02 -0.67956200208E+01  0.48403959674E+02  0.00000000000E+00 0. -1.
         -4    1    6    6    0  503  0.53078936581E+01  0.77409490623E+01  0.78357854000E+02  0.78917991048E+02  0.00000000000E+00 0.  1.
<mgrwt>
<rscale>  0 0.16832611E+04</rscale>
<asrwt>0</asrwt>
<pdfrwt beam="1">  1        2 0.43664164E+00 0.16832611E+04</pdfrwt>
<pdfrwt beam="2">  1       -1 0.38396455E-01 0.16832611E+04</pdfrwt>
<totfact> 0.15668723E+01</totfact>
</mgrwt>
</event>
<event>
12    6  0.8914180E-008  0.1507410E+04  0.7818608E-02  0.8879540E-01
         -1   -1    0    0    0  501 -0.00000000000E+00  0.00000000000E+00  0.74584790737E+03  0.74584790737E+03  0.00000000000E+00 0.  1.
          2   -1    0    0  501    0  0.00000000000E+00 -0.00000000000E+00 -0.76164460221E+03  0.76164460221E+03  0.00000000000E+00 0. -1.
         24    2    1    2    0    0 -0.13776260028E+03  0.33291121849E+03 -0.32664278360E+03  0.49293062943E+03  0.80477847352E+02 0.  0.
        254    2    1    2    0    0  0.13776260028E+03 -0.33291121849E+03  0.31084608876E+03  0.10145618802E+04  0.89604804801E+03 0.  0.
         23    2    4    4    0    0 -0.12345956970E+03  0.23647492829E+03  0.25315125158E+03  0.37892296419E+03  0.91292932634E+02 0.  0.
         23    2    4    4    0    0  0.26122216998E+03 -0.56938614679E+03  0.57694837175E+02  0.63563891597E+03  0.90942459954E+02 0.  0.
          2    1    3    3  502    0 -0.11838583382E+03  0.23649304877E+03 -0.27620643115E+03  0.38240575358E+03  0.00000000000E+00 0. -1.
         -1    1    3    3    0  502 -0.19376766455E+02  0.96418169727E+02 -0.50436352451E+02  0.11052487584E+03  0.00000000000E+00 0.  1.
         11    1    5    5    0    0 -0.95585468460E+02  0.15933687927E+03  0.22589033027E+03  0.29249147711E+03  0.00000000000E+00 0.  1.
        -11    1    5    5    0    0 -0.27874101243E+02  0.77138049018E+02  0.27260921315E+02  0.86431487071E+02  0.00000000000E+00 0. -1.
          2    1    6    6  503    0  0.22854250174E+03 -0.40160231987E+03  0.42408418395E+02  0.46402001291E+03  0.00000000000E+00 0.  1.
         -2    1    6    6    0  503  0.32679668239E+02 -0.16778382692E+03  0.15286418780E+02  0.17161890307E+03  0.00000000000E+00 0. -1.
<mgrwt>
<rscale>  0 0.15074097E+04</rscale>
<asrwt>0</asrwt>
<pdfrwt beam="1">  1        2 0.11717609E+00 0.15074097E+04</pdfrwt>
<pdfrwt beam="2">  1       -1 0.11474583E+00 0.15074097E+04</pdfrwt>
<totfact> 0.27975541E+01</totfact>
</mgrwt>
</event>
<event>
12    6  0.8914180E-008  0.3014975E+04  0.7818608E-02  0.8239468E-01
         -1   -1    0    0    0  501 -0.00000000000E+00  0.00000000000E+00  0.14085241326E+04  0.14085241326E+04  0.00000000000E+00 0.  1.
          2   -1    0    0  501    0  0.00000000000E+00 -0.00000000000E+00 -0.16134039165E+04  0.16134039165E+04  0.00000000000E+00 0. -1.
         24    2    1    2    0    0 -0.42487478654E+02  0.13317388565E+04 -0.43182694977E+03  0.14026178896E+04  0.74356318528E+02 0.  0.
        254    2    1    2    0    0  0.42487478654E+02 -0.13317388565E+04  0.22694716582E+03  0.16193101594E+04  0.89181097138E+03 0.  0.
         23    2    4    4    0    0  0.11733083652E+02 -0.13918807490E+04  0.36458141900E+03  0.14417518734E+04  0.90879968920E+02 0.  0.
         23    2    4    4    0    0  0.30754395002E+02  0.60141892514E+02 -0.13763425319E+03  0.17755828602E+03  0.89559350359E+02 0.  0.
          2    1    3    3  502    0  0.59355602184E+01  0.13638949284E+02 -0.45706878099E+00  0.14881556523E+02  0.00000000000E+00 0. -1.
         -1    1    3    3    0  502 -0.48423038873E+02  0.13180999072E+04 -0.43136988099E+03  0.13877363331E+04  0.00000000000E+00 0.  1.
         11    1    5    5    0    0 -0.17475183839E+02 -0.65058612955E+02  0.24979505619E+02  0.71846926662E+02  0.00000000000E+00 0. -1.
        -11    1    5    5    0    0  0.29208267491E+02 -0.13268221360E+04  0.33960191338E+03  0.13699049468E+04  0.00000000000E+00 0.  1.
          1    1    6    6  503    0 -0.21232276587E+02 -0.70678408380E+01 -0.10686007308E+02  0.24798280089E+02  0.00000000000E+00 0. -1.
         -1    1    6    6    0  503  0.51986671589E+02  0.67209733352E+02 -0.12694824588E+03  0.15276000593E+03  0.00000000000E+00 0.  1.
<mgrwt>
<rscale>  0 0.30149749E+04</rscale>
<asrwt>0</asrwt>
<pdfrwt beam="1">  1        2 0.24821599E+00 0.30149749E+04</pdfrwt>
<pdfrwt beam="2">  1       -1 0.21669602E+00 0.30149749E+04</pdfrwt>
<totfact> 0.12356454E+00</totfact>
</mgrwt>
</event>
<event>
12    6  0.8914180E-008  0.3036069E+04  0.7818608E-02  0.8233506E-01
         -1   -1    0    0    0  501 -0.00000000000E+00  0.00000000000E+00  0.92845259296E+03  0.92845259296E+03  0.00000000000E+00 0.  1.
          2   -1    0    0  501    0  0.00000000000E+00 -0.00000000000E+00 -0.24820093670E+04  0.24820093670E+04  0.00000000000E+00 0. -1.
         24    2    1    2    0    0  0.81597514423E+03 -0.74784984798E+03  0.22706061782E+03  0.11328645531E+04  0.82041090257E+02 0.  0.
        254    2    1    2    0    0 -0.81597514423E+03  0.74784984798E+03 -0.17806173918E+04  0.22775974068E+04  0.88980718144E+03 0.  0.
         23    2    4    4    0    0  0.32314038639E+02 -0.89830402663E+02 -0.53559865802E+03  0.55138217958E+03  0.89681030006E+02 0.  0.
         23    2    4    4    0    0 -0.84828918287E+03  0.83768025064E+03 -0.12450187338E+04  0.17262152272E+04  0.91894629831E+02 0.  0.
          2    1    3    3  502    0  0.39606680855E+03 -0.39103212931E+03  0.15026334128E+03  0.57650161727E+03  0.00000000000E+00 0. -1.
         -1    1    3    3    0  502  0.41990833568E+03 -0.35681771867E+03  0.76797276544E+02  0.55636293588E+03  0.00000000000E+00 0.  1.
         11    1    5    5    0    0  0.12948003431E+02 -0.85052301785E+02 -0.23724197472E+03  0.25235946465E+03  0.00000000000E+00 0. -1.
        -11    1    5    5    0    0  0.19366035207E+02 -0.47781008786E+01 -0.29835668331E+03  0.29902271492E+03  0.00000000000E+00 0.  1.
          3    1    6    6  503    0 -0.83726025644E+03  0.83220363210E+03 -0.12420457815E+04  0.17135475907E+04  0.00000000000E+00 0. -1.
         -3    1    6    6    0  503 -0.11028926429E+02  0.54766185432E+01 -0.29729523168E+01  0.12667636493E+02  0.00000000000E+00 0.  1.
<mgrwt>
<rscale>  0 0.30360685E+04</rscale>
<asrwt>0</asrwt>
<pdfrwt beam="1">  1        2 0.38184760E+00 0.30360685E+04</pdfrwt>
<pdfrwt beam="2">  1       -1 0.14283886E+00 0.30360685E+04</pdfrwt>
<totfact> 0.13750072E+00</totfact>
</mgrwt>
</event>
<event>
12    6  0.8914180E-008  0.1270790E+04  0.7818608E-02  0.9053055E-01
          2   -1    0    0  501    0  0.00000000000E+00  0.00000000000E+00  0.10898219271E+04  0.10898219271E+04  0.00000000000E+00 0. -1.
         -1   -1    0    0    0  501 -0.00000000000E+00 -0.00000000000E+00 -0.37045191900E+03  0.37045191900E+03  0.00000000000E+00 0.  1.
         24    2    1    2    0    0  0.16984943648E+03  0.23984819728E+03  0.58638357636E+02  0.31057437953E+03  0.81498462704E+02 0.  0.
        254    2    1    2    0    0 -0.16984943648E+03 -0.23984819728E+03  0.66073165041E+03  0.11496994665E+04  0.89379335457E+03 0.  0.
         23    2    4    4    0    0  0.15739046780E+03  0.13939967985E+03 -0.85891582615E+02  0.24588796893E+03  0.94231094658E+02 0.  0.
         23    2    4    4    0    0 -0.32723990429E+03 -0.37924787713E+03  0.74662323303E+03  0.90381149760E+03  0.92271684865E+02 0.  0.
          2    1    3    3  502    0 -0.31398876061E+01  0.40731376427E+02  0.13132620211E+02  0.42911183081E+02  0.00000000000E+00 0. -1.
         -1    1    3    3    0  502  0.17298932409E+03  0.19911682085E+03  0.45505737425E+02  0.26766319645E+03  0.00000000000E+00 0.  1.
         11    1    5    5    0    0  0.17908374028E+02  0.31362008357E+02 -0.56456869569E+02  0.67019874292E+02  0.00000000000E+00 0.  1.
        -11    1    5    5    0    0  0.13948209378E+03  0.10803767150E+03 -0.29434713045E+02  0.17886809464E+03  0.00000000000E+00 0. -1.
          3    1    6    6  503    0 -0.25985440396E+03 -0.23597847554E+03  0.51303523899E+03  0.62162312427E+03  0.00000000000E+00 0. -1.
         -3    1    6    6    0  503 -0.67385500332E+02 -0.14326940159E+03  0.23358799403E+03  0.28218837333E+03  0.00000000000E+00 0.  1.
<mgrwt>
<rscale>  0 0.12707897E+04</rscale>
<asrwt>0</asrwt>
<pdfrwt beam="1">  1        2 0.16766491E+00 0.12707897E+04</pdfrwt>
<pdfrwt beam="2">  1       -1 0.56992604E-01 0.12707897E+04</pdfrwt>
<totfact> 0.77165371E+01</totfact>
</mgrwt>
</event>
<event>
12    6  0.9066416E-008  0.2846386E+04  0.7818608E-02  0.8289010E-01
          2   -1    0    0  501    0  0.00000000000E+00  0.00000000000E+00  0.17416294173E+04  0.17416294173E+04  0.00000000000E+00 0. -1.
         -1   -1    0    0    0  501 -0.00000000000E+00 -0.00000000000E+00 -0.11629793110E+04  0.11629793110E+04  0.00000000000E+00 0.  1.
         24    2    1    2    0    0 -0.79039446072E+03  0.99695545395E+03  0.48935983884E+03  0.13654513299E+04  0.79628523120E+02 0.  0.
        254    2    1    2    0    0  0.79039446072E+03 -0.99695545395E+03  0.89290267426E+02  0.15391573984E+04  0.86162008134E+03 0.  0.
         23    2    4    4    0    0  0.11622280726E+03 -0.41259104498E+03  0.39603697821E+03  0.59054449214E+03  0.90323849352E+02 0.  0.
         23    2    4    4    0    0  0.67417165346E+03 -0.58436440897E+03 -0.30674671078E+03  0.94861290628E+03  0.98912691775E+02 0.  0.
          4    1    3    3  502    0 -0.68310906975E+03  0.85862952046E+03  0.39196237404E+03  0.11651253826E+04  0.00000000000E+00 0. -1.
         -3    1    3    3    0  502 -0.10728539097E+03  0.13832593349E+03  0.97397464805E+02  0.20032594725E+03  0.00000000000E+00 0.  1.
         11    1    5    5    0    0  0.28343435095E+01  0.20536803596E+01 -0.25419442863E+01  0.43258047695E+01  0.00000000000E+00 0.  1.
        -11    1    5    5    0    0  0.11338846375E+03 -0.41464472534E+03  0.39857892249E+03  0.58621868737E+03  0.00000000000E+00 0. -1.
          3    1    6    6  503    0  0.25734259661E+03 -0.28169341699E+03 -0.15244477439E+03  0.41087200250E+03  0.00000000000E+00 0. -1.
         -3    1    6    6    0  503  0.41682905685E+03 -0.30267099198E+03 -0.15430193639E+03  0.53774090378E+03  0.00000000000E+00 0.  1.
<mgrwt>
<rscale>  0 0.28463865E+04</rscale>
<asrwt>0</asrwt>
<pdfrwt beam="1">  1        2 0.26794299E+00 0.28463865E+04</pdfrwt>
<pdfrwt beam="2">  1       -1 0.17891989E+00 0.28463865E+04</pdfrwt>
<totfact> 0.19436839E+00</totfact>
</mgrwt>
</event>
<event>
12    6  0.8914180E-008  0.2854875E+04  0.7818608E-02  0.8286431E-01
          2   -1    0    0  501    0  0.00000000000E+00  0.00000000000E+00  0.33293438290E+04  0.33293438290E+04  0.00000000000E+00 0. -1.
         -1   -1    0    0    0  501 -0.00000000000E+00 -0.00000000000E+00 -0.61200601763E+03  0.61200601763E+03  0.00000000000E+00 0.  1.
         24    2    1    2    0    0  0.11768916404E+03 -0.42042034575E+03  0.28961955554E+04  0.29300968953E+04  0.83157167677E+02 0.  0.
        254    2    1    2    0    0 -0.11768916404E+03  0.42042034575E+03 -0.17885774406E+03  0.10112529513E+04  0.89444867508E+03 0.  0.
         23    2    4    4    0    0  0.14970660289E+03  0.56760889998E+03 -0.30550490329E+03  0.66843504696E+03  0.94235002962E+02 0.  0.
         23    2    4    4    0    0 -0.26739576694E+03 -0.14718855423E+03  0.12664715923E+03  0.34281790430E+03  0.91212092915E+02 0.  0.
          4    1    3    3  502    0  0.57104012064E+02 -0.13430793682E+03  0.75009658903E+03  0.76416253700E+03  0.00000000000E+00 0. -1.
         -3    1    3    3    0  502  0.60585151978E+02 -0.28611240893E+03  0.21460989664E+04  0.21659343583E+04  0.00000000000E+00 0.  1.
         11    1    5    5    0    0  0.16528826556E+02  0.58537405320E+02 -0.17486997080E+01  0.60851358897E+02  0.00000000000E+00 0. -1.
        -11    1    5    5    0    0  0.13317777634E+03  0.50907149466E+03 -0.30375620358E+03  0.60758368806E+03  0.00000000000E+00 0.  1.
          1    1    6    6  503    0 -0.11883510890E+03 -0.35400321275E+02  0.12435044335E+02  0.12461780042E+03  0.00000000000E+00 0. -1.
         -1    1    6    6    0  503 -0.14856065803E+03 -0.11178823296E+03  0.11421211489E+03  0.21820010387E+03  0.00000000000E+00 0.  1.
<mgrwt>
<rscale>  0 0.28548754E+04</rscale>
<asrwt>0</asrwt>
<pdfrwt beam="1">  1        2 0.51220673E+00 0.28548754E+04</pdfrwt>
<pdfrwt beam="2">  1       -1 0.94154774E-01 0.28548754E+04</pdfrwt>
<totfact> 0.11443375E+00</totfact>
</mgrwt>
</event>
<event>
12    6  0.8914180E-008  0.1604184E+04  0.7818608E-02  0.8817982E-01
          2   -1    0    0  501    0  0.00000000000E+00  0.00000000000E+00  0.19225801175E+04  0.19225801175E+04  0.00000000000E+00 0. -1.
         -1   -1    0    0    0  501 -0.00000000000E+00 -0.00000000000E+00 -0.33462924603E+03  0.33462924603E+03  0.00000000000E+00 0.  1.
         24    2    1    2    0    0  0.15483278845E+02 -0.14363063688E+03  0.12975844261E+04  0.13079753066E+04  0.78769080120E+02 0.  0.
        254    2    1    2    0    0 -0.15483278845E+02  0.14363063688E+03  0.29036644532E+03  0.94923405691E+03  0.89211161323E+03 0.  0.
         23    2    4    4    0    0  0.25794130938E+03  0.14344033002E+03 -0.20861016732E+03  0.37305032705E+03  0.92409400174E+02 0.  0.
         23    2    4    4    0    0 -0.27342458823E+03  0.19030685644E+00  0.49897661264E+03  0.57618372986E+03  0.90823944732E+02 0.  0.
          4    1    3    3  502    0  0.47292515431E+02 -0.98993478745E+02  0.85552046380E+03  0.86252626327E+03  0.00000000000E+00 0. -1.
         -3    1    3    3    0  502 -0.31809236586E+02 -0.44637158133E+02  0.44206396233E+03  0.44544904334E+03  0.00000000000E+00 0.  1.
         11    1    5    5    0    0 -0.65806367294E+01  0.81462236417E+01 -0.15460078401E+02  0.18672968793E+02  0.00000000000E+00 0.  1.
        -11    1    5    5    0    0  0.26452194611E+03  0.13529410638E+03 -0.19315008891E+03  0.35437735826E+03  0.00000000000E+00 0. -1.
          1    1    6    6  503    0 -0.24727793689E+03  0.19813373891E+02  0.47418758271E+03  0.53515681016E+03  0.00000000000E+00 0. -1.
         -1    1    6    6    0  503 -0.26146651339E+02 -0.19623067034E+02  0.24789029921E+02  0.41026919705E+02  0.00000000000E+00 0.  1.
<mgrwt>
<rscale>  0 0.16041839E+04</rscale>
<asrwt>0</asrwt>
<pdfrwt beam="1">  1        2 0.29578155E+00 0.16041839E+04</pdfrwt>
<pdfrwt beam="2">  1       -1 0.51481424E-01 0.16041839E+04</pdfrwt>
<totfact> 0.30581452E+01</totfact>
</mgrwt>
</event>
<event>
12    6  0.8914180E-008  0.1376292E+04  0.7818608E-02  0.8971161E-01
          2   -1    0    0  501    0  0.00000000000E+00  0.00000000000E+00  0.50055292852E+03  0.50055292852E+03  0.00000000000E+00 0. -1.
         -1   -1    0    0    0  501 -0.00000000000E+00 -0.00000000000E+00 -0.94604332950E+03  0.94604332950E+03  0.00000000000E+00 0.  1.
         24    2    1    2    0    0 -0.33949852978E+03 -0.44667607083E+02 -0.31191274349E+03  0.46954823000E+03  0.77016452107E+02 0.  0.
        254    2    1    2    0    0  0.33949852978E+03  0.44667607083E+02 -0.13357765749E+03  0.97704802802E+03  0.90527642830E+03 0.  0.
         23    2    4    4    0    0  0.63828902862E+03  0.91901626477E+02 -0.63290680211E+02  0.65360834150E+03  0.85670069814E+02 0.  0.
         23    2    4    4    0    0 -0.29879049884E+03 -0.47234019394E+02 -0.70286977276E+02  0.32343968653E+03  0.90366790694E+02 0.  0.
          2    1    3    3  502    0 -0.97845665671E+02 -0.21948834794E+01 -0.47342478913E+02  0.10871937322E+03  0.00000000000E+00 0. -1.
         -3    1    3    3    0  502 -0.24165286411E+03 -0.42472723604E+02 -0.26457026458E+03  0.36082885678E+03  0.00000000000E+00 0.  1.
         11    1    5    5    0    0  0.48471129558E+03  0.44039253753E+02 -0.74402777399E+02  0.49236192909E+03  0.00000000000E+00 0. -1.
        -11    1    5    5    0    0  0.15357773304E+03  0.47862372724E+02  0.11112097188E+02  0.16124641240E+03  0.00000000000E+00 0.  1.
          3    1    6    6  503    0 -0.19845076150E+03 -0.10213171757E+01 -0.12696719952E+02  0.19885913237E+03  0.00000000000E+00 0. -1.
         -3    1    6    6    0  503 -0.10033973734E+03 -0.46212702218E+02 -0.57590257324E+02  0.12458055416E+03  0.00000000000E+00 0.  1.
<mgrwt>
<rscale>  0 0.13762918E+04</rscale>
<asrwt>0</asrwt>
<pdfrwt beam="1">  1        2 0.77008145E-01 0.13762918E+04</pdfrwt>
<pdfrwt beam="2">  1       -1 0.14554512E+00 0.13762918E+04</pdfrwt>
<totfact> 0.25939020E+01</totfact>
</mgrwt>
</event>
<event>
12    6  0.8914180E-008  0.1444617E+04  0.7818608E-02  0.8922141E-01
         -1   -1    0    0    0  501 -0.00000000000E+00  0.00000000000E+00  0.24571668804E+03  0.24571668804E+03  0.00000000000E+00 0.  1.
          2   -1    0    0  501    0  0.00000000000E+00 -0.00000000000E+00 -0.21232965739E+04  0.21232965739E+04  0.00000000000E+00 0. -1.
         24    2    1    2    0    0 -0.18820385652E+03  0.23282213766E+03 -0.52739402488E+02  0.31426252965E+03  0.79703535503E+02 0.  0.
        254    2    1    2    0    0  0.18820385652E+03 -0.23282213766E+03 -0.18248404834E+04  0.20547507323E+04  0.89572927981E+03 0.  0.
         23    2    4    4    0    0 -0.12134428047E+03 -0.39273439851E+03 -0.15393871505E+04  0.15957776353E+04  0.88480055674E+02 0.  0.
         23    2    4    4    0    0  0.30954813699E+03  0.15991226084E+03 -0.28545333296E+03  0.45897309700E+03  0.88208379382E+02 0.  0.
          4    1    3    3  502    0 -0.90923747807E+01  0.39253493446E+02 -0.28653243632E+02  0.49442050903E+02  0.00000000000E+00 0. -1.
         -3    1    3    3    0  502 -0.17911148174E+03  0.19356864422E+03 -0.24086158857E+02  0.26482047875E+03  0.00000000000E+00 0.  1.
         11    1    5    5    0    0 -0.12121307016E+03 -0.27366957185E+03 -0.10261994192E+04  0.10689587882E+04  0.00000000000E+00 0. -1.
        -11    1    5    5    0    0 -0.13121031196E+00 -0.11906482666E+03 -0.51318773128E+03  0.52681884714E+03  0.00000000000E+00 0.  1.
          1    1    6    6  503    0  0.11818624560E+03  0.14856834005E+02 -0.88171458764E+02  0.14819892141E+03  0.00000000000E+00 0. -1.
         -1    1    6    6    0  503  0.19136189139E+03  0.14505542684E+03 -0.19728187419E+03  0.31077417560E+03  0.00000000000E+00 0.  1.
<mgrwt>
<rscale>  0 0.14446168E+04</rscale>
<asrwt>0</asrwt>
<pdfrwt beam="1">  1        2 0.32666101E+00 0.14446168E+04</pdfrwt>
<pdfrwt beam="2">  1       -1 0.37802567E-01 0.14446168E+04</pdfrwt>
<totfact> 0.42588050E+01</totfact>
</mgrwt>
</event>
<event>
12    6  0.8914180E-008  0.1662054E+04  0.7818608E-02  0.8783307E-01
          2   -1    0    0  501    0  0.00000000000E+00  0.00000000000E+00  0.28717741226E+04  0.28717741226E+04  0.00000000000E+00 0. -1.
         -1   -1    0    0    0  501 -0.00000000000E+00 -0.00000000000E+00 -0.24048066526E+03  0.24048066526E+03  0.00000000000E+00 0.  1.
         24    2    1    2    0    0  0.44900819497E+03 -0.10174520304E+03  0.24458243500E+03  0.52690648042E+03  0.76481540957E+02 0.  0.
        254    2    1    2    0    0 -0.44900819497E+03  0.10174520304E+03  0.23867110223E+04  0.25853483074E+04  0.88072465682E+03 0.  0.
         23    2    4    4    0    0 -0.41017460029E+02  0.26408616887E+03  0.19119626979E+04  0.19326139938E+04  0.89283561814E+02 0.  0.
         23    2    4    4    0    0 -0.40799073494E+03 -0.16234096584E+03  0.47474832447E+03  0.65273431363E+03  0.88685306638E+02 0.  0.
          2    1    3    3  502    0  0.91617511264E+02 -0.25081944108E+02  0.17490819280E+02  0.96585718662E+02  0.00000000000E+00 0. -1.
         -1    1    3    3    0  502  0.35739068371E+03 -0.76663258928E+02  0.22709161572E+03  0.43032076176E+03  0.00000000000E+00 0.  1.
         11    1    5    5    0    0  0.14589327625E+02  0.62898461354E+02  0.68365178887E+03  0.68669413377E+03  0.00000000000E+00 0. -1.
        -11    1    5    5    0    0 -0.55606787654E+02  0.20118770752E+03  0.12283109090E+04  0.12459198600E+04  0.00000000000E+00 0.  1.
          3    1    6    6  503    0  0.17903788540E+01 -0.89424049572E+01  0.37603742300E+01  0.98647086733E+01  0.00000000000E+00 0. -1.
         -3    1    6    6    0  503 -0.40978111380E+03 -0.15339856088E+03  0.47098795024E+03  0.64286960496E+03  0.00000000000E+00 0.  1.
<mgrwt>
<rscale>  0 0.16620543E+04</rscale>
<asrwt>0</asrwt>
<pdfrwt beam="1">  1        2 0.44181138E+00 0.16620543E+04</pdfrwt>
<pdfrwt beam="2">  1       -1 0.36997027E-01 0.16620543E+04</pdfrwt>
<totfact> 0.16020493E+01</totfact>
</mgrwt>
</event>
<event>
12    6  0.8914180E-008  0.1635845E+04  0.7818608E-02  0.8798825E-01
          2   -1    0    0  501    0  0.00000000000E+00  0.00000000000E+00  0.35579916457E+04  0.35579916457E+04  0.00000000000E+00 0. -1.
         -1   -1    0    0    0  501 -0.00000000000E+00 -0.00000000000E+00 -0.18802663486E+03  0.18802663486E+03  0.00000000000E+00 0.  1.
         24    2    1    2    0    0 -0.92858099016E+02 -0.33599909301E+03  0.15937460849E+03  0.39222792760E+03  0.83213366110E+02 0.  0.
        254    2    1    2    0    0  0.92858099016E+02  0.33599909301E+03  0.32105904023E+04  0.33537903529E+04  0.90471044147E+03 0.  0.
         23    2    4    4    0    0 -0.74321488010E+02 -0.25584560195E+03  0.16550810163E+04  0.16787176355E+04  0.88425524809E+02 0.  0.
         23    2    4    4    0    0  0.16717958703E+03  0.59184469497E+03  0.15555093860E+04  0.16750727174E+04  0.89610276054E+02 0.  0.
          4    1    3    3  502    0 -0.64831105925E+02 -0.20165096154E+03  0.13932587721E+03  0.25353083175E+03  0.00000000000E+00 0. -1.
         -3    1    3    3    0  502 -0.28026993091E+02 -0.13434813147E+03  0.20048731278E+02  0.13869709585E+03  0.00000000000E+00 0.  1.
         11    1    5    5    0    0  0.22704611256E+01 -0.59586904014E+02  0.20790568969E+03  0.21628807163E+03  0.00000000000E+00 0.  1.
        -11    1    5    5    0    0 -0.76591949136E+02 -0.19625869794E+03  0.14471753266E+04  0.14624295639E+04  0.00000000000E+00 0. -1.
          3    1    6    6  503    0  0.27706199005E+02  0.15646567284E+03  0.50461114467E+03  0.52903832334E+03  0.00000000000E+00 0.  1.
         -3    1    6    6    0  503  0.13947338802E+03  0.43537902212E+03  0.10508982413E+04  0.11460343941E+04  0.00000000000E+00 0. -1.
<mgrwt>
<rscale>  0 0.16358450E+04</rscale>
<asrwt>0</asrwt>
<pdfrwt beam="1">  1        2 0.54738328E+00 0.16358450E+04</pdfrwt>
<pdfrwt beam="2">  1       -1 0.28927177E-01 0.16358450E+04</pdfrwt>
<totfact> 0.88675300E+00</totfact>
</mgrwt>
</event>
<event>
12    6  0.8914180E-008  0.2352961E+04  0.7818608E-02  0.8457327E-01
          2   -1    0    0  501    0  0.00000000000E+00  0.00000000000E+00  0.83410053483E+03  0.83410053483E+03  0.00000000000E+00 0. -1.
         -1   -1    0    0    0  501 -0.00000000000E+00 -0.00000000000E+00 -0.16593998317E+04  0.16593998317E+04  0.00000000000E+00 0.  1.
         24    2    1    2    0    0 -0.20242715599E+03 -0.71597630426E+03  0.36354376887E+03  0.83298910920E+03  0.90044224797E+02 0.  0.
        254    2    1    2    0    0  0.20242715599E+03  0.71597630426E+03 -0.11888430657E+04  0.16605112573E+04  0.88901686094E+03 0.  0.
         23    2    4    4    0    0  0.39808259748E+03  0.82257256345E+03 -0.96256283366E+03  0.13303892639E+04  0.91175699994E+02 0.  0.
         23    2    4    4    0    0 -0.19565544149E+03 -0.10659625919E+03 -0.22628023208E+03  0.33012199341E+03  0.90188540536E+02 0.  0.
          4    1    3    3  502    0 -0.18041438969E+03 -0.49412306892E+03  0.26912863361E+03  0.59087831291E+03  0.00000000000E+00 0. -1.
         -3    1    3    3    0  502 -0.22012766297E+02 -0.22185323534E+03  0.94415135264E+02  0.24211079629E+03  0.00000000000E+00 0.  1.
         11    1    5    5    0    0  0.28896142259E+03  0.67092560208E+03 -0.74038077326E+03  0.10400978592E+04  0.00000000000E+00 0.  1.
        -11    1    5    5    0    0  0.10912117489E+03  0.15164696137E+03 -0.22218206041E+03  0.29029140475E+03  0.00000000000E+00 0. -1.
          3    1    6    6  503    0 -0.16708068754E+02 -0.19873020802E+02  0.35510256171E+01  0.26205081572E+02  0.00000000000E+00 0. -1.
         -3    1    6    6    0  503 -0.17894737273E+03 -0.86723238388E+02 -0.22983125769E+03  0.30391691183E+03  0.00000000000E+00 0.  1.
<mgrwt>
<rscale>  0 0.23529609E+04</rscale>
<asrwt>0</asrwt>
<pdfrwt beam="1">  1        2 0.12832316E+00 0.23529609E+04</pdfrwt>
<pdfrwt beam="2">  1       -1 0.25529228E+00 0.23529609E+04</pdfrwt>
<totfact> 0.21590273E+00</totfact>
</mgrwt>
</event>
<event>
12    6  0.8914180E-008  0.1494411E+04  0.7818608E-02  0.8888178E-01
         -3   -1    0    0    0  501 -0.00000000000E+00  0.00000000000E+00  0.20592441824E+03  0.20592441824E+03  0.00000000000E+00 0.  1.
          2   -1    0    0  501    0  0.00000000000E+00 -0.00000000000E+00 -0.27112680533E+04  0.27112680533E+04  0.00000000000E+00 0. -1.
         24    2    1    2    0    0 -0.19115945155E+03 -0.40213647119E+03 -0.58693255326E+03  0.74099883630E+03  0.79585023298E+02 0.  0.
        254    2    1    2    0    0  0.19115945155E+03  0.40213647119E+03 -0.19184110818E+04  0.21761936353E+04  0.92588443229E+03 0.  0.
         23    2    4    4    0    0 -0.11509536994E+03 -0.10049860860E+03 -0.18689904710E+02  0.18527354591E+03  0.10310218119E+03 0.  0.
         23    2    4    4    0    0  0.30625482150E+03  0.50263507979E+03 -0.18997211771E+04  0.19909200894E+04  0.91587184121E+02 0.  0.
          2    1    3    3  502    0 -0.13635464075E+03 -0.22393503364E+03 -0.29561474485E+03  0.39512980742E+03  0.00000000000E+00 0. -1.
         -1    1    3    3    0  502 -0.54804810808E+02 -0.17820143755E+03 -0.29131780842E+03  0.34586902887E+03  0.00000000000E+00 0.  1.
         11    1    5    5    0    0 -0.25755553777E+02 -0.45474043987E+02 -0.53436952682E+02  0.74744532501E+02  0.00000000000E+00 0. -1.
        -11    1    5    5    0    0 -0.89339816167E+02 -0.55024564611E+02  0.34747047973E+02  0.11052901341E+03  0.00000000000E+00 0.  1.
          1    1    6    6  503    0  0.10812172994E+02  0.31595980097E+02 -0.56209343839E+02  0.65381185199E+02  0.00000000000E+00 0. -1.
         -1    1    6    6    0  503  0.29544264850E+03  0.47103909969E+03 -0.18435118333E+04  0.19255389042E+04  0.00000000000E+00 0.  1.
<mgrwt>
<rscale>  0 0.14944113E+04</rscale>
<asrwt>0</asrwt>
<pdfrwt beam="1">  1        2 0.41711816E+00 0.14944113E+04</pdfrwt>
<pdfrwt beam="2">  1       -3 0.31680680E-01 0.14944113E+04</pdfrwt>
<totfact> 0.16098370E+01</totfact>
</mgrwt>
</event>
<event>
12    6  0.8914180E-008  0.1074266E+04  0.7818608E-02  0.9230643E-01
         -1   -1    0    0    0  501 -0.00000000000E+00  0.00000000000E+00  0.15129041875E+04  0.15129041875E+04  0.00000000000E+00 0.  1.
          2   -1    0    0  501    0  0.00000000000E+00 -0.00000000000E+00 -0.19070074037E+03  0.19070074037E+03  0.00000000000E+00 0. -1.
         24    2    1    2    0    0 -0.81630772177E+02  0.33103493323E+01  0.11900761985E+02  0.11479908995E+03  0.79766293245E+02 0.  0.
        254    2    1    2    0    0  0.81630772177E+02 -0.33103493323E+01  0.13103026852E+04  0.15888058380E+04  0.89483871315E+03 0.  0.
         23    2    4    4    0    0  0.36257996133E+03 -0.33335207126E+02  0.17365541026E+03  0.41399610886E+03  0.93065096830E+02 0.  0.
         23    2    4    4    0    0 -0.28094918916E+03  0.30024857794E+02  0.11366472749E+04  0.11748097291E+04  0.91525586638E+02 0.  0.
          2    1    3    3  502    0 -0.97820781384E+02  0.25460983801E+01  0.12029424478E+02  0.98590541842E+02  0.00000000000E+00 0. -1.
         -3    1    3    3    0  502  0.16190009207E+02  0.76425095219E+00 -0.12866249256E+00  0.16208548105E+02  0.00000000000E+00 0.  1.
         11    1    5    5    0    0  0.78236400672E+00 -0.56226157216E+01 -0.67053747043E+01  0.87856673575E+01  0.00000000000E+00 0. -1.
        -11    1    5    5    0    0  0.36179759733E+03 -0.27712591405E+02  0.18036078496E+03  0.40521044151E+03  0.00000000000E+00 0.  1.
          3    1    6    6  503    0 -0.21504043998E+03 -0.14292513135E+02  0.76546167019E+03  0.79522212953E+03  0.00000000000E+00 0. -1.
         -3    1    6    6    0  503 -0.65908749177E+02  0.44317370929E+02  0.37118560474E+03  0.37958759957E+03  0.00000000000E+00 0.  1.
<mgrwt>
<rscale>  0 0.10742662E+04</rscale>
<asrwt>0</asrwt>
<pdfrwt beam="1">  1        2 0.29338576E-01 0.10742662E+04</pdfrwt>
<pdfrwt beam="2">  1       -1 0.23275448E+00 0.10742662E+04</pdfrwt>
<totfact> 0.18926503E+01</totfact>
</mgrwt>
</event>
<event>
12    6  0.8914180E-008  0.1314655E+04  0.7818608E-02  0.9018024E-01
         -1   -1    0    0    0  501 -0.00000000000E+00  0.00000000000E+00  0.25584101000E+03  0.25584101000E+03  0.00000000000E+00 0.  1.
          2   -1    0    0  501    0  0.00000000000E+00 -0.00000000000E+00 -0.16888586735E+04  0.16888586735E+04  0.00000000000E+00 0. -1.
         24    2    1    2    0    0  0.68123576412E+02  0.13562507848E+03  0.69524475900E+02  0.18594573416E+03  0.81897373144E+02 0.  0.
        254    2    1    2    0    0 -0.68123576412E+02 -0.13562507848E+03 -0.15025421394E+04  0.17587539494E+04  0.90141421670E+03 0.  0.
         23    2    4    4    0    0 -0.38434806960E+03 -0.32220711864E+03 -0.10696044157E+04  0.11847349323E+04  0.89456066847E+02 0.  0.
         23    2    4    4    0    0  0.31622449318E+03  0.18658204017E+03 -0.43293772378E+03  0.57401901708E+03  0.85158508068E+02 0.  0.
          4    1    3    3  502    0  0.35288332741E+01  0.44772307140E+02 -0.13560801604E+02  0.46913830488E+02  0.00000000000E+00 0. -1.
         -3    1    3    3    0  502  0.64594743138E+02  0.90852771338E+02  0.83085277504E+02  0.13903190367E+03  0.00000000000E+00 0.  1.
         11    1    5    5    0    0 -0.27024319035E+03 -0.27540423623E+03 -0.79355351398E+03  0.88238656767E+03  0.00000000000E+00 0.  1.
        -11    1    5    5    0    0 -0.11410487925E+03 -0.46802882410E+02 -0.27605090169E+03  0.30234836463E+03  0.00000000000E+00 0. -1.
          1    1    6    6  503    0  0.81104908492E+02  0.22178935367E+02 -0.59068007351E+02  0.10275670707E+03  0.00000000000E+00 0. -1.
         -1    1    6    6    0  503  0.23511958469E+03  0.16440310480E+03 -0.37386971643E+03  0.47126231001E+03  0.00000000000E+00 0.  1.
<mgrwt>
<rscale>  0 0.13146548E+04</rscale>
<asrwt>0</asrwt>
<pdfrwt beam="1">  1        2 0.25982441E+00 0.13146548E+04</pdfrwt>
<pdfrwt beam="2">  1       -1 0.39360156E-01 0.13146548E+04</pdfrwt>
<totfact> 0.69613478E+01</totfact>
</mgrwt>
</event>
<event>
12    6  0.8914180E-008  0.1291203E+04  0.7818608E-02  0.9036571E-01
          2   -1    0    0  501    0  0.00000000000E+00  0.00000000000E+00  0.19419701492E+04  0.19419701492E+04  0.00000000000E+00 0. -1.
         -1   -1    0    0    0  501 -0.00000000000E+00 -0.00000000000E+00 -0.21462798332E+03  0.21462798332E+03  0.00000000000E+00 0.  1.
         24    2    1    2    0    0  0.39349100991E+02 -0.28683812170E+03  0.23777561352E+03  0.38269209525E+03  0.78048302783E+02 0.  0.
        254    2    1    2    0    0 -0.39349100991E+02  0.28683812170E+03  0.14895665524E+04  0.17739060373E+04  0.91875440429E+03 0.  0.
         23    2    4    4    0    0 -0.49606052740E+02 -0.21442482267E+03  0.11179359010E+04  0.11431658537E+04  0.92783217359E+02 0.  0.
         23    2    4    4    0    0  0.10256951749E+02  0.50126294437E+03  0.37163065141E+03  0.63074018357E+03  0.91400731108E+02 0.  0.
          2    1    3    3  502    0 -0.26781417485E+01 -0.12995879482E+03  0.64178506963E+02  0.14496669117E+03  0.00000000000E+00 0. -1.
         -1    1    3    3    0  502  0.42027242739E+02 -0.15687932689E+03  0.17359710656E+03  0.23772540407E+03  0.00000000000E+00 0.  1.
         11    1    5    5    0    0  0.93549892652E+01 -0.33049731322E+02  0.69498419790E+02  0.77523099254E+02  0.00000000000E+00 0. -1.
        -11    1    5    5    0    0 -0.58961042005E+02 -0.18137509135E+03  0.10484374812E+04  0.10656427545E+04  0.00000000000E+00 0.  1.
          1    1    6    6  503    0  0.48650800612E+01  0.94384761506E+02  0.11828173786E+03  0.15140251557E+03  0.00000000000E+00 0. -1.
         -1    1    6    6    0  503  0.53918716880E+01  0.40687818286E+03  0.25334891354E+03  0.47933766800E+03  0.00000000000E+00 0.  1.
<mgrwt>
<rscale>  0 0.12912028E+04</rscale>
<asrwt>0</asrwt>
<pdfrwt beam="1">  1        2 0.29876463E+00 0.12912028E+04</pdfrwt>
<pdfrwt beam="2">  1       -1 0.33019691E-01 0.12912028E+04</pdfrwt>
<totfact> 0.69283889E+01</totfact>
</mgrwt>
</event>
<event>
12    6  0.8914180E-008  0.2061846E+04  0.7818608E-02  0.8578239E-01
          2   -1    0    0  501    0  0.00000000000E+00  0.00000000000E+00  0.27904748340E+04  0.27904748340E+04  0.00000000000E+00 0. -1.
         -1   -1    0    0    0  501 -0.00000000000E+00 -0.00000000000E+00 -0.38086796366E+03  0.38086796366E+03  0.00000000000E+00 0.  1.
         24    2    1    2    0    0 -0.34655188674E+03  0.40197338745E+03  0.19549994378E+04  0.20271437373E+04  0.74887350251E+02 0.  0.
        254    2    1    2    0    0  0.34655188674E+03 -0.40197338745E+03  0.45460743253E+03  0.11441990604E+04  0.90600372940E+03 0.  0.
         23    2    4    4    0    0  0.26464396071E+02 -0.54965337977E+03 -0.39384183017E+01  0.55791970848E+03  0.91867773611E+02 0.  0.
         23    2    4    4    0    0  0.32008749067E+03  0.14767999231E+03  0.45854585083E+03  0.58627935192E+03  0.95884301924E+02 0.  0.
          4    1    3    3  502    0 -0.28594632618E+03  0.36950082343E+03  0.16991235182E+04  0.17621909346E+04  0.00000000000E+00 0. -1.
         -3    1    3    3    0  502 -0.60605560568E+02  0.32472564026E+02  0.25587591965E+03  0.26495280267E+03  0.00000000000E+00 0.  1.
         11    1    5    5    0    0 -0.86167697949E+01 -0.15378342927E+03 -0.39207366758E+02  0.15893649502E+03  0.00000000000E+00 0. -1.
        -11    1    5    5    0    0  0.35081165866E+02 -0.39586995049E+03  0.35268948457E+02  0.39898321346E+03  0.00000000000E+00 0.  1.
          3    1    6    6  503    0  0.99554525047E+02 -0.37748671476E+00  0.11781118329E+03  0.15424240942E+03  0.00000000000E+00 0. -1.
         -3    1    6    6    0  503  0.22053296563E+03  0.14805747903E+03  0.34073466754E+03  0.43203694250E+03  0.00000000000E+00 0.  1.
<mgrwt>
<rscale>  0 0.20618462E+04</rscale>
<asrwt>0</asrwt>
<pdfrwt beam="1">  1        2 0.42930381E+00 0.20618462E+04</pdfrwt>
<pdfrwt beam="2">  1       -1 0.58595073E-01 0.20618462E+04</pdfrwt>
<totfact> 0.72857314E+00</totfact>
</mgrwt>
</event>
<event>
12    6  0.1284454E-007  0.2733801E+04  0.7818608E-02  0.8324120E-01
         -1   -1    0    0    0  501 -0.00000000000E+00  0.00000000000E+00  0.99262515775E+03  0.99262515775E+03  0.00000000000E+00 0.  1.
          2   -1    0    0  501    0  0.00000000000E+00 -0.00000000000E+00 -0.18822988441E+04  0.18822988441E+04  0.00000000000E+00 0. -1.
         24    2    1    2    0    0  0.97224041118E+02 -0.10015357626E+04  0.32050242471E+03  0.10589849642E+04  0.78746125581E+02 0.  0.
        254    2    1    2    0    0 -0.97224041118E+02  0.10015357626E+04 -0.12101761110E+04  0.18159390376E+04  0.90585979633E+03 0.  0.
         23    2    4    4    0    0  0.85231061455E+02 -0.85421544480E+02 -0.45162785387E+03  0.47505255683E+03  0.84534249023E+02 0.  0.
         23    2    4    4    0    0 -0.18245510257E+03  0.10869573071E+04 -0.75854825717E+03  0.13408864808E+04  0.88402737477E+02 0.  0.
          4    1    3    3  502    0  0.50607750778E+01 -0.32195495888E+02  0.26059018368E+02  0.41728094111E+02  0.00000000000E+00 0. -1.
         -3    1    3    3    0  502  0.92163266041E+02 -0.96934026671E+03  0.29444340634E+03  0.10172568701E+04  0.00000000000E+00 0.  1.
         11    1    5    5    0    0  0.28484069796E+02 -0.21480319191E+02 -0.35849516694E+02  0.50576023884E+02  0.00000000000E+00 0.  1.
        -11    1    5    5    0    0  0.56746991658E+02 -0.63941225289E+02 -0.41577833718E+03  0.42447653294E+03  0.00000000000E+00 0. -1.
          1    1    6    6  503    0 -0.16213340288E+03  0.10078881908E+04 -0.67351970923E+03  0.12230104841E+04  0.00000000000E+00 0. -1.
         -1    1    6    6    0  503 -0.20321699695E+02  0.79069116273E+02 -0.85028547943E+02  0.11787599667E+03  0.00000000000E+00 0.  1.
<mgrwt>
<rscale>  0 0.27338012E+04</rscale>
<asrwt>0</asrwt>
<pdfrwt beam="1">  1        2 0.28958443E+00 0.27338012E+04</pdfrwt>
<pdfrwt beam="2">  1       -1 0.15271157E+00 0.27338012E+04</pdfrwt>
<totfact> 0.25700543E+00</totfact>
</mgrwt>
</event>
<event>
12    6  0.8914180E-008  0.2472872E+04  0.7818608E-02  0.8412714E-01
         -1   -1    0    0    0  501 -0.00000000000E+00  0.00000000000E+00  0.96304100515E+03  0.96304100515E+03  0.00000000000E+00 0.  1.
          2   -1    0    0  501    0  0.00000000000E+00 -0.00000000000E+00 -0.15874437152E+04  0.15874437152E+04  0.00000000000E+00 0. -1.
         24    2    1    2    0    0  0.53095316877E+03 -0.78450218059E+03 -0.77935707978E+03  0.12293564703E+04  0.81024283447E+02 0.  0.
        254    2    1    2    0    0 -0.53095316877E+03  0.78450218059E+03  0.15495436975E+03  0.13211282500E+04  0.90775220050E+03 0.  0.
         23    2    4    4    0    0 -0.10337423597E+03  0.35218349495E+03 -0.35774371975E+03  0.52070233194E+03  0.91819947137E+02 0.  0.
         23    2    4    4    0    0 -0.42757893280E+03  0.43231868564E+03  0.51269808950E+03  0.80042591807E+03  0.89995164387E+02 0.  0.
          2    1    3    3  502    0  0.28224409632E+03 -0.39194851071E+03 -0.34803013541E+03  0.59532372715E+03  0.00000000000E+00 0. -1.
         -1    1    3    3    0  502  0.24870907245E+03 -0.39255366988E+03 -0.43132694438E+03  0.63403274316E+03  0.00000000000E+00 0.  1.
         11    1    5    5    0    0 -0.46673088252E+02  0.13242864211E+03 -0.19978317270E+03  0.24419057826E+03  0.00000000000E+00 0. -1.
        -11    1    5    5    0    0 -0.56701147720E+02  0.21975485284E+03 -0.15796054706E+03  0.27651175369E+03  0.00000000000E+00 0.  1.
          4    1    6    6  503    0 -0.31624014852E+03  0.26541925413E+03  0.32140966699E+03  0.52322020798E+03  0.00000000000E+00 0. -1.
         -4    1    6    6    0  503 -0.11133878428E+03  0.16689943151E+03  0.19128842251E+03  0.27720571010E+03  0.00000000000E+00 0.  1.
<mgrwt>
<rscale>  0 0.24728715E+04</rscale>
<asrwt>0</asrwt>
<pdfrwt beam="1">  1        2 0.24422211E+00 0.24728715E+04</pdfrwt>
<pdfrwt beam="2">  1       -1 0.14816015E+00 0.24728715E+04</pdfrwt>
<totfact> 0.41615495E+00</totfact>
</mgrwt>
</event>
<event>
12    6  0.8914180E-008  0.1390166E+04  0.7818608E-02  0.8960968E-01
          2   -1    0    0  501    0  0.00000000000E+00  0.00000000000E+00  0.84739390513E+03  0.84739390513E+03  0.00000000000E+00 0. -1.
         -1   -1    0    0    0  501 -0.00000000000E+00 -0.00000000000E+00 -0.57014861469E+03  0.57014861469E+03  0.00000000000E+00 0.  1.
         24    2    1    2    0    0 -0.20252314768E+03  0.28341531034E+03 -0.11821458860E+03  0.37456563830E+03  0.70603576107E+02 0.  0.
        254    2    1    2    0    0  0.20252314768E+03 -0.28341531034E+03  0.39545987904E+03  0.10429768815E+04  0.90004021908E+03 0.  0.
         23    2    4    4    0    0 -0.20250823423E+03 -0.45579536313E+03  0.14157997211E+03  0.52675205831E+03  0.93079774643E+02 0.  0.
         23    2    4    4    0    0  0.40503138191E+03  0.17238005279E+03  0.25387990694E+03  0.51622482321E+03  0.90927212759E+02 0.  0.
          2    1    3    3  502    0 -0.44813014364E+02  0.63656472923E+02 -0.58967312832E+02  0.97660108458E+02  0.00000000000E+00 0. -1.
         -1    1    3    3    0  502 -0.15771013331E+03  0.21975883742E+03 -0.59247275765E+02  0.27690552984E+03  0.00000000000E+00 0.  1.
         11    1    5    5    0    0 -0.12136102538E+02 -0.12572030786E+03  0.37481471871E+02  0.13174878188E+03  0.00000000000E+00 0.  1.
        -11    1    5    5    0    0 -0.19037213170E+03 -0.33007505527E+03  0.10409850023E+03  0.39500327642E+03  0.00000000000E+00 0. -1.
          1    1    6    6  503    0  0.34632719893E+03  0.17995478416E+03  0.22035598393E+03  0.44819974645E+03  0.00000000000E+00 0. -1.
         -1    1    6    6    0  503  0.58704182981E+02 -0.75747313734E+01  0.33523923008E+02  0.68025076763E+02  0.00000000000E+00 0.  1.
<mgrwt>
<rscale>  0 0.13901661E+04</rscale>
<asrwt>0</asrwt>
<pdfrwt beam="1">  1        2 0.13036829E+00 0.13901661E+04</pdfrwt>
<pdfrwt beam="2">  1       -1 0.87715171E-01 0.13901661E+04</pdfrwt>
<totfact> 0.45315460E+01</totfact>
</mgrwt>
</event>
<event>
12    6  0.8914180E-008  0.2755108E+04  0.7818608E-02  0.8317343E-01
          2   -1    0    0  501    0  0.00000000000E+00  0.00000000000E+00  0.14845589173E+04  0.14845589173E+04  0.00000000000E+00 0. -1.
         -3   -1    0    0    0  501 -0.00000000000E+00 -0.00000000000E+00 -0.12782619686E+04  0.12782619686E+04  0.00000000000E+00 0.  1.
         24    2    1    2    0    0 -0.17449172084E+03  0.69743652111E+03  0.10927274515E+04  0.13103779052E+04  0.78561502832E+02 0.  0.
        254    2    1    2    0    0  0.17449172084E+03 -0.69743652111E+03 -0.88643050276E+03  0.14524429806E+04  0.89831314928E+03 0.  0.
         23    2    4    4    0    0  0.10180405147E+03 -0.17646590081E+03 -0.89147149849E+03  0.91889636193E+03  0.90248613920E+02 0.  0.
         23    2    4    4    0    0  0.72687669367E+02 -0.52097062030E+03  0.50409957240E+01  0.53354661871E+03  0.89177901995E+02 0.  0.
          4    1    3    3  502    0 -0.16211053039E+03  0.65654764994E+03  0.10562964242E+04  0.12542315482E+04  0.00000000000E+00 0. -1.
         -3    1    3    3    0  502 -0.12381190453E+02  0.40888871164E+02  0.36431027299E+02  0.56146357070E+02  0.00000000000E+00 0.  1.
         11    1    5    5    0    0  0.96699443063E+02 -0.15650900907E+03 -0.86961544946E+03  0.88886269026E+03  0.00000000000E+00 0. -1.
        -11    1    5    5    0    0  0.51046084095E+01 -0.19956891733E+02 -0.21856049029E+02  0.30033671668E+02  0.00000000000E+00 0.  1.
          3    1    6    6  503    0  0.17339406287E+02 -0.27952738256E+03  0.41667847123E+02  0.28314735050E+03  0.00000000000E+00 0. -1.
         -3    1    6    6    0  503  0.55348263080E+02 -0.24144323774E+03 -0.36626851399E+02  0.25039926821E+03  0.00000000000E+00 0.  1.
<mgrwt>
<rscale>  0 0.27551081E+04</rscale>
<asrwt>0</asrwt>
<pdfrwt beam="1">  1        2 0.22839368E+00 0.27551081E+04</pdfrwt>
<pdfrwt beam="2">  1       -3 0.19665569E+00 0.27551081E+04</pdfrwt>
<totfact> 0.10984872E+00</totfact>
</mgrwt>
</event>
<event>
12    6  0.8914180E-008  0.1935570E+04  0.7818608E-02  0.8637351E-01
         -1   -1    0    0    0  501 -0.00000000000E+00  0.00000000000E+00  0.54064518889E+03  0.54064518889E+03  0.00000000000E+00 0.  1.
          2   -1    0    0  501    0  0.00000000000E+00 -0.00000000000E+00 -0.17323893441E+04  0.17323893441E+04  0.00000000000E+00 0. -1.
         24    2    1    2    0    0  0.19147354337E+03  0.54114688171E+02 -0.13227376988E+04  0.13399839038E+04  0.79569625460E+02 0.  0.
        254    2    1    2    0    0 -0.19147354337E+03 -0.54114688171E+02  0.13099354355E+03  0.93305062925E+03  0.90212729202E+03 0.  0.
         23    2    4    4    0    0 -0.13107867804E+02  0.21193383641E+03 -0.30586996183E+03  0.38353443591E+03  0.91948152573E+02 0.  0.
         23    2    4    4    0    0 -0.17836567556E+03 -0.26604852458E+03  0.43686350539E+03  0.54951619334E+03  0.92315723227E+02 0.  0.
          2    1    3    3  502    0  0.11065998256E+03  0.18961327741E+02 -0.96685519626E+03  0.97335200942E+03  0.00000000000E+00 0. -1.
         -1    1    3    3    0  502  0.80813560800E+02  0.35153360430E+02 -0.35588250254E+03  0.36663189437E+03  0.00000000000E+00 0.  1.
         11    1    5    5    0    0  0.31483570032E+02  0.11820443318E+03 -0.12433689205E+03  0.17442237795E+03  0.00000000000E+00 0. -1.
        -11    1    5    5    0    0 -0.44591437836E+02  0.93729403229E+02 -0.18153306978E+03  0.20911205796E+03  0.00000000000E+00 0.  1.
          4    1    6    6  503    0 -0.40461283749E+02 -0.11884516654E+03  0.11853233208E+03  0.17265921013E+03  0.00000000000E+00 0. -1.
         -4    1    6    6    0  503 -0.13790439181E+03 -0.14720335804E+03  0.31833117331E+03  0.37685698322E+03  0.00000000000E+00 0.  1.
<mgrwt>
<rscale>  0 0.19355702E+04</rscale>
<asrwt>0</asrwt>
<pdfrwt beam="1">  1        2 0.26652143E+00 0.19355702E+04</pdfrwt>
<pdfrwt beam="2">  1       -1 0.83176184E-01 0.19355702E+04</pdfrwt>
<totfact> 0.14358877E+01</totfact>
</mgrwt>
</event>
<event>
12    6  0.8914180E-008  0.1665303E+04  0.7818608E-02  0.8781404E-01
         -1   -1    0    0    0  501 -0.00000000000E+00  0.00000000000E+00  0.26892463254E+03  0.26892463254E+03  0.00000000000E+00 0.  1.
          2   -1    0    0  501    0  0.00000000000E+00 -0.00000000000E+00 -0.25780776808E+04  0.25780776808E+04  0.00000000000E+00 0. -1.
         24    2    1    2    0    0 -0.13844795171E+03  0.53691851630E+03 -0.47953035690E+03  0.73744374349E+03  0.80153497434E+02 0.  0.
        254    2    1    2    0    0  0.13844795171E+03 -0.53691851630E+03 -0.18296226914E+04  0.21095585699E+04  0.89177846936E+03 0.  0.
         23    2    4    4    0    0 -0.31105602506E+03 -0.33271075064E+03 -0.12975730355E+04  0.13780178501E+04  0.88233317639E+02 0.  0.
         23    2    4    4    0    0  0.44950397677E+03 -0.20420776567E+03 -0.53204965587E+03  0.73154071978E+03  0.91215961886E+02 0.  0.
          4    1    3    3  502    0 -0.71447832564E+02  0.23779893549E+03 -0.16423209151E+03  0.29770002751E+03  0.00000000000E+00 0. -1.
         -3    1    3    3    0  502 -0.67000119145E+02  0.29911958082E+03 -0.31529826538E+03  0.43974371599E+03  0.00000000000E+00 0.  1.
         11    1    5    5    0    0 -0.27131775347E+03 -0.23862805144E+03 -0.10368647758E+04  0.10980187765E+04  0.00000000000E+00 0.  1.
        -11    1    5    5    0    0 -0.39738271591E+02 -0.94082699200E+02 -0.26070825975E+03  0.27999907361E+03  0.00000000000E+00 0. -1.
          1    1    6    6  503    0  0.19633808971E+03 -0.87860579611E+02 -0.16703258867E+03  0.27233804839E+03  0.00000000000E+00 0. -1.
         -1    1    6    6    0  503  0.25316588706E+03 -0.11634718606E+03 -0.36501706720E+03  0.45920267140E+03  0.00000000000E+00 0.  1.
<mgrwt>
<rscale>  0 0.16653031E+04</rscale>
<asrwt>0</asrwt>
<pdfrwt beam="1">  1        2 0.39662733E+00 0.16653031E+04</pdfrwt>
<pdfrwt beam="2">  1       -1 0.41373021E-01 0.16653031E+04</pdfrwt>
<totfact> 0.19539760E+01</totfact>
</mgrwt>
</event>
<event>
12    6  0.8914180E-008  0.2870479E+04  0.7818608E-02  0.8281715E-01
          2   -1    0    0  501    0  0.00000000000E+00  0.00000000000E+00  0.12596318189E+04  0.12596318189E+04  0.00000000000E+00 0. -1.
         -1   -1    0    0    0  501 -0.00000000000E+00 -0.00000000000E+00 -0.16353291199E+04  0.16353291199E+04  0.00000000000E+00 0.  1.
         24    2    1    2    0    0  0.10945702796E+04  0.64947874263E+03 -0.11210355426E+03  0.12802080690E+04  0.80366404120E+02 0.  0.
        254    2    1    2    0    0 -0.10945702796E+04 -0.64947874263E+03 -0.26359374671E+03  0.16147528699E+04  0.95814322174E+03 0.  0.
         23    2    4    4    0    0 -0.10803683513E+04 -0.16320486268E+03 -0.15544315926E+03  0.11073509058E+04  0.90729549905E+02 0.  0.
         23    2    4    4    0    0 -0.14201928294E+02 -0.48627387995E+03 -0.10815058745E+03  0.50740196404E+03  0.95374118345E+02 0.  0.
          2    1    3    3  502    0  0.60633049407E+03  0.35303714157E+03 -0.10147620405E+03  0.70892123071E+03  0.00000000000E+00 0. -1.
         -1    1    3    3    0  502  0.48823978551E+03  0.29644160106E+03 -0.10627350209E+02  0.57128683826E+03  0.00000000000E+00 0.  1.
         11    1    5    5    0    0 -0.64598664607E+03 -0.73722161342E+02 -0.13050257834E+03  0.66314751521E+03  0.00000000000E+00 0.  1.
        -11    1    5    5    0    0 -0.43438170521E+03 -0.89482701335E+02 -0.24940580910E+02  0.44420339062E+03  0.00000000000E+00 0. -1.
          3    1    6    6  503    0  0.33494456458E+02 -0.31307647254E+03 -0.85999950701E+02  0.32639661119E+03  0.00000000000E+00 0. -1.
         -3    1    6    6    0  503 -0.47696384752E+02 -0.17319740741E+03 -0.22150636752E+02  0.18100535285E+03  0.00000000000E+00 0.  1.
<mgrwt>
<rscale>  0 0.28704791E+04</rscale>
<asrwt>0</asrwt>
<pdfrwt beam="1">  1        2 0.19378951E+00 0.28704791E+04</pdfrwt>
<pdfrwt beam="2">  1       -1 0.25158910E+00 0.28704791E+04</pdfrwt>
<totfact> 0.11712468E+00</totfact>
</mgrwt>
</event>
<event>
12    6  0.8914180E-008  0.1544708E+04  0.7818608E-02  0.8855255E-01
          2   -1    0    0  501    0  0.00000000000E+00  0.00000000000E+00  0.85005646872E+03  0.85005646872E+03  0.00000000000E+00 0. -1.
         -1   -1    0    0    0  501 -0.00000000000E+00 -0.00000000000E+00 -0.70175397620E+03  0.70175397620E+03  0.00000000000E+00 0.  1.
         24    2    1    2    0    0  0.13481671661E+02 -0.75068297840E+02 -0.45386320310E+03  0.46715752854E+03  0.80170721168E+02 0.  0.
        254    2    1    2    0    0 -0.13481671661E+02  0.75068297840E+02  0.60216569562E+03  0.10846529164E+04  0.89891680328E+03 0.  0.
         23    2    4    4    0    0 -0.21361320605E+02 -0.11861721568E+03 -0.20182147662E+03  0.25217868155E+03  0.91300761953E+02 0.  0.
         23    2    4    4    0    0  0.78796489441E+01  0.19368551352E+03  0.80398717224E+03  0.83247423482E+03  0.95088440454E+02 0.  0.
          4    1    3    3  502    0 -0.28717053929E+01  0.15319457612E+02 -0.34576133941E+02  0.37926791477E+02  0.00000000000E+00 0. -1.
         -3    1    3    3    0  502  0.16353377054E+02 -0.90387755452E+02 -0.41928706916E+03  0.42923073706E+03  0.00000000000E+00 0.  1.
         11    1    5    5    0    0 -0.55969734263E+02 -0.84486475734E+02 -0.15098801122E+03  0.18184596577E+03  0.00000000000E+00 0. -1.
        -11    1    5    5    0    0  0.34608413658E+02 -0.34130739948E+02 -0.50833465398E+02  0.70332715785E+02  0.00000000000E+00 0.  1.
          1    1    6    6  503    0  0.41631430031E+02  0.13109576559E+03  0.62333119687E+03  0.63832676328E+03  0.00000000000E+00 0. -1.
         -1    1    6    6    0  503 -0.33751781086E+02  0.62589747936E+02  0.18065597537E+03  0.19414747155E+03  0.00000000000E+00 0.  1.
<mgrwt>
<rscale>  0 0.15447077E+04</rscale>
<asrwt>0</asrwt>
<pdfrwt beam="1">  1        2 0.13077792E+00 0.15447077E+04</pdfrwt>
<pdfrwt beam="2">  1       -1 0.10796215E+00 0.15447077E+04</pdfrwt>
<totfact> 0.27833114E+01</totfact>
</mgrwt>
</event>
<event>
12    6  0.8914180E-008  0.2489020E+04  0.7818608E-02  0.8406908E-01
          2   -1    0    0  501    0  0.00000000000E+00  0.00000000000E+00  0.18890279499E+04  0.18890279499E+04  0.00000000000E+00 0. -1.
         -1   -1    0    0    0  501 -0.00000000000E+00 -0.00000000000E+00 -0.81989536679E+03  0.81989536679E+03  0.00000000000E+00 0.  1.
         24    2    1    2    0    0  0.10703085552E+04  0.39750455371E+02  0.55418326882E+03  0.12086320991E+04  0.80820500673E+02 0.  0.
        254    2    1    2    0    0 -0.10703085552E+04 -0.39750455371E+02  0.51494931433E+03  0.15002912177E+04  0.91572945755E+03 0.  0.
         23    2    4    4    0    0 -0.73427888258E+02 -0.24139840157E+03 -0.12396643711E+03  0.29563831423E+03  0.91484929113E+02 0.  0.
         23    2    4    4    0    0 -0.99688066697E+03  0.20164794620E+03  0.63891575143E+03  0.12046529034E+04  0.92424682729E+02 0.  0.
          4    1    3    3  502    0  0.70891732805E+03  0.42429221044E+02  0.32785195401E+03  0.78220900056E+03  0.00000000000E+00 0. -1.
         -3    1    3    3    0  502  0.36139122718E+03 -0.26787656734E+01  0.22633131481E+03  0.42642309850E+03  0.00000000000E+00 0.  1.
         11    1    5    5    0    0  0.21191327396E+02 -0.53127858359E+02 -0.19315258144E+02  0.60371523815E+02  0.00000000000E+00 0. -1.
        -11    1    5    5    0    0 -0.94619215654E+02 -0.18827054321E+03 -0.10465117896E+03  0.23526679041E+03  0.00000000000E+00 0.  1.
          2    1    6    6  503    0 -0.16792267697E+03 -0.86415151558E+00  0.10456767379E+03  0.19782105702E+03  0.00000000000E+00 0. -1.
         -2    1    6    6    0  503 -0.82895798999E+03  0.20251209772E+03  0.53434807764E+03  0.10068318464E+04  0.00000000000E+00 0.  1.
<mgrwt>
<rscale>  0 0.24890201E+04</rscale>
<asrwt>0</asrwt>
<pdfrwt beam="1">  1        2 0.29061968E+00 0.24890201E+04</pdfrwt>
<pdfrwt beam="2">  1       -1 0.12613775E+00 0.24890201E+04</pdfrwt>
<totfact> 0.42803284E+00</totfact>
</mgrwt>
</event>
<event>
12    6  0.8914180E-008  0.2129324E+04  0.7818608E-02  0.8548435E-01
          2   -1    0    0  501    0  0.00000000000E+00  0.00000000000E+00  0.23914154877E+04  0.23914154877E+04  0.00000000000E+00 0. -1.
         -1   -1    0    0    0  501 -0.00000000000E+00 -0.00000000000E+00 -0.47398914337E+03  0.47398914337E+03  0.00000000000E+00 0.  1.
         24    2    1    2    0    0 -0.59423847019E+03  0.57501241217E+03  0.12236898816E+04  0.14789404713E+04  0.78034337369E+02 0.  0.
        254    2    1    2    0    0  0.59423847019E+03 -0.57501241217E+03  0.69373646278E+03  0.13864641598E+04  0.87020339747E+03 0.  0.
         23    2    4    4    0    0  0.15379759048E+03  0.16125110475E+03 -0.51214021960E+02  0.24670013949E+03  0.92641595185E+02 0.  0.
         23    2    4    4    0    0  0.44044087971E+03 -0.73626351692E+03  0.74495048474E+03  0.11397640203E+04  0.89658587785E+02 0.  0.
          2    1    3    3  502    0 -0.40593990678E+03  0.43879081161E+03  0.90142387000E+03  0.10816143387E+04  0.00000000000E+00 0. -1.
         -1    1    3    3    0  502 -0.18829856341E+03  0.13622160056E+03  0.32226601159E+03  0.39732613263E+03  0.00000000000E+00 0.  1.
         11    1    5    5    0    0  0.10209942519E+03  0.72813976071E+02  0.12559904755E+02  0.12603142046E+03  0.00000000000E+00 0.  1.
        -11    1    5    5    0    0  0.51698165283E+02  0.88437128681E+02 -0.63773926715E+02  0.12066871903E+03  0.00000000000E+00 0. -1.
          1    1    6    6  503    0  0.22843261529E+03 -0.35378350168E+03  0.42159648878E+03  0.59589246106E+03  0.00000000000E+00 0. -1.
         -1    1    6    6    0  503  0.21200826442E+03 -0.38248001525E+03  0.32335399596E+03  0.54387155924E+03  0.00000000000E+00 0.  1.
<mgrwt>
<rscale>  0 0.21293238E+04</rscale>
<asrwt>0</asrwt>
<pdfrwt beam="1">  1        2 0.36791007E+00 0.21293238E+04</pdfrwt>
<pdfrwt beam="2">  1       -1 0.72921408E-01 0.21293238E+04</pdfrwt>
<totfact> 0.79771298E+00</totfact>
</mgrwt>
</event>
<event>
12    6  0.8914180E-008  0.1248053E+04  0.7818608E-02  0.9071805E-01
          2   -1    0    0  501    0  0.00000000000E+00  0.00000000000E+00  0.11344643590E+04  0.11344643590E+04  0.00000000000E+00 0. -1.
         -1   -1    0    0    0  501 -0.00000000000E+00 -0.00000000000E+00 -0.34325355001E+03  0.34325355001E+03  0.00000000000E+00 0.  1.
         24    2    1    2    0    0 -0.53608120012E+02 -0.14188520420E+03  0.50860881855E+03  0.53666879795E+03  0.79531293774E+02 0.  0.
        254    2    1    2    0    0  0.53608120012E+02  0.14188520420E+03  0.28260199045E+03  0.94104911107E+03  0.88470577185E+03 0.  0.
         23    2    4    4    0    0  0.20558681612E+02  0.32680187412E+03 -0.21472304682E+03  0.40157637089E+03  0.89081257848E+02 0.  0.
         23    2    4    4    0    0  0.33049438400E+02 -0.18491666992E+03  0.49732503727E+03  0.53947274018E+03  0.91718070781E+02 0.  0.
          2    1    3    3  502    0 -0.61074913169E+01 -0.10551014522E+03  0.38652188918E+03  0.40071044785E+03  0.00000000000E+00 0. -1.
         -1    1    3    3    0  502 -0.47500628695E+02 -0.36375058977E+02  0.12208692936E+03  0.13595835010E+03  0.00000000000E+00 0.  1.
         11    1    5    5    0    0  0.67297596318E+01  0.19310815525E+03 -0.17684126196E+03  0.26193297086E+03  0.00000000000E+00 0. -1.
        -11    1    5    5    0    0  0.13828921980E+02  0.13369371887E+03 -0.37881784862E+02  0.13964340003E+03  0.00000000000E+00 0.  1.
          3    1    6    6  503    0  0.43046247114E+01  0.77681985912E+01  0.60834010312E+02  0.61478870467E+02  0.00000000000E+00 0. -1.
         -3    1    6    6    0  503  0.28744813689E+02 -0.19268486852E+03  0.43649102696E+03  0.47799386972E+03  0.00000000000E+00 0.  1.
<mgrwt>
<rscale>  0 0.12480528E+04</rscale>
<asrwt>0</asrwt>
<pdfrwt beam="1">  1        2 0.17453298E+00 0.12480528E+04</pdfrwt>
<pdfrwt beam="2">  1       -1 0.52808239E-01 0.12480528E+04</pdfrwt>
<totfact> 0.84106550E+01</totfact>
</mgrwt>
</event>
<event>
12    6  0.8914180E-008  0.1604798E+04  0.7818608E-02  0.8817606E-01
          2   -1    0    0  501    0  0.00000000000E+00  0.00000000000E+00  0.19818145004E+04  0.19818145004E+04  0.00000000000E+00 0. -1.
         -1   -1    0    0    0  501 -0.00000000000E+00 -0.00000000000E+00 -0.32487595082E+03  0.32487595082E+03  0.00000000000E+00 0.  1.
         24    2    1    2    0    0 -0.16648560543E+02  0.25857835841E+03  0.12905931953E+04  0.13187332560E+04  0.79288477532E+02 0.  0.
        254    2    1    2    0    0  0.16648560543E+02 -0.25857835841E+03  0.36634535424E+03  0.98795719519E+03  0.88017643627E+03 0.  0.
         23    2    4    4    0    0 -0.28370755332E+03 -0.70407876549E+00 -0.14741982754E+03  0.33229835128E+03  0.90548976649E+02 0.  0.
         23    2    4    4    0    0  0.30035611387E+03 -0.25787427965E+03  0.51376518178E+03  0.65565884391E+03  0.96025612998E+02 0.  0.
          2    1    3    3  502    0  0.26900346573E+02  0.15615949558E+03  0.69554509428E+03  0.71336694266E+03  0.00000000000E+00 0. -1.
         -1    1    3    3    0  502 -0.43548907116E+02  0.10241886283E+03  0.59504810102E+03  0.60536631332E+03  0.00000000000E+00 0.  1.
         11    1    5    5    0    0 -0.81813581720E+02 -0.41179675187E+02 -0.38513910369E+02  0.99360701962E+02  0.00000000000E+00 0. -1.
        -11    1    5    5    0    0 -0.20189397160E+03  0.40475596422E+02 -0.10890591717E+03  0.23293764932E+03  0.00000000000E+00 0.  1.
          3    1    6    6  503    0  0.21862667759E+03 -0.15918983654E+03  0.28128307024E+03  0.39020404126E+03  0.00000000000E+00 0. -1.
         -3    1    6    6    0  503  0.81729436273E+02 -0.98684443112E+02  0.23248211154E+03  0.26545480265E+03  0.00000000000E+00 0.  1.
<mgrwt>
<rscale>  0 0.16047976E+04</rscale>
<asrwt>0</asrwt>
<pdfrwt beam="1">  1        2 0.30489453E+00 0.16047976E+04</pdfrwt>
<pdfrwt beam="2">  1       -1 0.49980917E-01 0.16047976E+04</pdfrwt>
<totfact> 0.29998860E+01</totfact>
</mgrwt>
</event>
<event>
12    6  0.8914180E-008  0.2513261E+04  0.7818608E-02  0.8398277E-01
         -1   -1    0    0    0  501 -0.00000000000E+00  0.00000000000E+00  0.23504721557E+04  0.23504721557E+04  0.00000000000E+00 0.  1.
          2   -1    0    0  501    0  0.00000000000E+00 -0.00000000000E+00 -0.67183089183E+03  0.67183089183E+03  0.00000000000E+00 0. -1.
         24    2    1    2    0    0  0.30007700154E+02  0.98467894352E+03  0.13022016082E+04  0.16349136686E+04  0.81979213383E+02 0.  0.
        254    2    1    2    0    0 -0.30007700154E+02 -0.98467894352E+03  0.37643965569E+03  0.13873893790E+04  0.90147068206E+03 0.  0.
         23    2    4    4    0    0 -0.38671995981E+03 -0.42435140998E+03  0.41750371563E+03  0.71551701277E+03  0.89603551944E+02 0.  0.
         23    2    4    4    0    0  0.35671225966E+03 -0.56032753354E+03 -0.41064059945E+02  0.67187236620E+03  0.92280216784E+02 0.  0.
          2    1    3    3  502    0 -0.20603905389E+02  0.47085963296E+03  0.65681136747E+03  0.80841479904E+03  0.00000000000E+00 0. -1.
         -1    1    3    3    0  502  0.50611605543E+02  0.51381931056E+03  0.64539024074E+03  0.82649886955E+03  0.00000000000E+00 0.  1.
         11    1    5    5    0    0 -0.52559201693E+02 -0.25896102022E+02  0.23697899993E+02  0.63203387936E+02  0.00000000000E+00 0.  1.
        -11    1    5    5    0    0 -0.33416075812E+03 -0.39845530796E+03  0.39380581564E+03  0.65231362483E+03  0.00000000000E+00 0. -1.
          4    1    6    6  503    0  0.40181082761E+02 -0.34581222190E+02 -0.23378839815E+02  0.57939196500E+02  0.00000000000E+00 0.  1.
         -4    1    6    6    0  503  0.31653117690E+03 -0.52574631135E+03 -0.17685220130E+02  0.61393316970E+03  0.00000000000E+00 0. -1.
<mgrwt>
<rscale>  0 0.25132607E+04</rscale>
<asrwt>0</asrwt>
<pdfrwt beam="1">  1        2 0.10335860E+00 0.25132607E+04</pdfrwt>
<pdfrwt beam="2">  1       -1 0.36161110E+00 0.25132607E+04</pdfrwt>
<totfact> 0.57048153E-01</totfact>
</mgrwt>
</event>
<event>
12    6  0.8914180E-008  0.1767021E+04  0.7818608E-02  0.8724037E-01
         -1   -1    0    0    0  501 -0.00000000000E+00  0.00000000000E+00  0.13178098897E+04  0.13178098897E+04  0.00000000000E+00 0.  1.
          2   -1    0    0  501    0  0.00000000000E+00 -0.00000000000E+00 -0.59233944697E+03  0.59233944697E+03  0.00000000000E+00 0. -1.
         24    2    1    2    0    0  0.19473382034E+03  0.49930649452E+03  0.66913039673E+03  0.86089416734E+03  0.78581443571E+02 0.  0.
        254    2    1    2    0    0 -0.19473382034E+03 -0.49930649452E+03  0.56340045974E+02  0.10492551693E+04  0.90029660294E+03 0.  0.
         23    2    4    4    0    0  0.92693643674E+02 -0.59420466991E+03  0.27173173900E+03  0.66601129579E+03  0.89786451198E+02 0.  0.
         23    2    4    4    0    0 -0.28742746402E+03  0.94898175384E+02 -0.21539169303E+03  0.38324387351E+03  0.94138591399E+02 0.  0.
          4    1    3    3  502    0  0.57058239594E+02  0.14959359835E+03  0.25997324644E+03  0.30531946587E+03  0.00000000000E+00 0. -1.
         -3    1    3    3    0  502  0.13767558075E+03  0.34971289617E+03  0.40915715030E+03  0.55557470148E+03  0.00000000000E+00 0.  1.
         11    1    5    5    0    0  0.48105803893E+02 -0.18962432250E+03  0.47546834897E+02  0.20132623664E+03  0.00000000000E+00 0. -1.
        -11    1    5    5    0    0  0.44587839781E+02 -0.40458034741E+03  0.22418490411E+03  0.46468505915E+03  0.00000000000E+00 0.  1.
          3    1    6    6  503    0 -0.89574105946E+02 -0.82854999098E+01 -0.35843938444E+02  0.96834693617E+02  0.00000000000E+00 0. -1.
         -3    1    6    6    0  503 -0.19785335807E+03  0.10318367529E+03 -0.17954775459E+03  0.28640917989E+03  0.00000000000E+00 0.  1.
<mgrwt>
<rscale>  0 0.17670210E+04</rscale>
<asrwt>0</asrwt>
<pdfrwt beam="1">  1        2 0.91129146E-01 0.17670210E+04</pdfrwt>
<pdfrwt beam="2">  1       -1 0.20273998E+00 0.17670210E+04</pdfrwt>
<totfact> 0.78477334E+00</totfact>
</mgrwt>
</event>
<event>
12    6  0.8914180E-008  0.1525875E+04  0.7818608E-02  0.8867426E-01
          2   -1    0    0  501    0  0.00000000000E+00  0.00000000000E+00  0.19603814723E+04  0.19603814723E+04  0.00000000000E+00 0. -1.
         -1   -1    0    0    0  501 -0.00000000000E+00 -0.00000000000E+00 -0.29691871900E+03  0.29691871900E+03  0.00000000000E+00 0.  1.
         24    2    1    2    0    0 -0.15111866362E+03 -0.11268261900E+03  0.12050111164E+04  0.12222449083E+04  0.79351131771E+02 0.  0.
        254    2    1    2    0    0  0.15111866362E+03  0.11268261900E+03  0.45845163693E+03  0.10350552830E+04  0.90864036473E+03 0.  0.
         23    2    4    4    0    0  0.35977595382E+03 -0.28464620211E+03  0.27313697385E+03  0.54067781386E+03  0.85243736350E+02 0.  0.
         23    2    4    4    0    0 -0.20865729021E+03  0.39732882112E+03  0.18531466308E+03  0.49437746917E+03  0.93056438945E+02 0.  0.
          4    1    3    3  502    0 -0.74682097003E+02 -0.17377031280E+02  0.33279222010E+03  0.34151140330E+03  0.00000000000E+00 0. -1.
         -1    1    3    3    0  502 -0.76436566614E+02 -0.95305587723E+02  0.87221889627E+03  0.88073350497E+03  0.00000000000E+00 0.  1.
         11    1    5    5    0    0  0.31280586925E+03 -0.26771979012E+03  0.21651666722E+03  0.46518906376E+03  0.00000000000E+00 0. -1.
        -11    1    5    5    0    0  0.46970084572E+02 -0.16926411991E+02  0.56620306637E+02  0.75488750098E+02  0.00000000000E+00 0.  1.
          3    1    6    6  503    0 -0.61550878017E+02  0.17191910637E+03  0.34483587062E+02  0.18583274065E+03  0.00000000000E+00 0. -1.
         -3    1    6    6    0  503 -0.14710641219E+03  0.22540971474E+03  0.15083107602E+03  0.30854472853E+03  0.00000000000E+00 0.  1.
<mgrwt>
<rscale>  0 0.15258754E+04</rscale>
<asrwt>0</asrwt>
<pdfrwt beam="1">  1        2 0.30159714E+00 0.15258754E+04</pdfrwt>
<pdfrwt beam="2">  1       -1 0.45679804E-01 0.15258754E+04</pdfrwt>
<totfact> 0.36774653E+01</totfact>
</mgrwt>
</event>
<event>
12    6  0.8914180E-008  0.1088809E+04  0.7818608E-02  0.9216169E-01
          2   -1    0    0  501    0  0.00000000000E+00  0.00000000000E+00  0.25261895715E+03  0.25261895715E+03  0.00000000000E+00 0. -1.
         -1   -1    0    0    0  501 -0.00000000000E+00 -0.00000000000E+00 -0.11732146564E+04  0.11732146564E+04  0.00000000000E+00 0.  1.
         24    2    1    2    0    0  0.95171466625E+02 -0.30025292708E+02  0.10387152337E+01  0.12813398738E+03  0.80362388784E+02 0.  0.
        254    2    1    2    0    0 -0.95171466625E+02  0.30025292708E+02 -0.92163441449E+03  0.12976996262E+04  0.90810528000E+03 0.  0.
         23    2    4    4    0    0 -0.14273338108E+03  0.44662438077E+03 -0.56121327007E+03  0.73709226856E+03  0.92187430231E+02 0.  0.
         23    2    4    4    0    0  0.47561914452E+02 -0.41659908806E+03 -0.36042114442E+03  0.56060735763E+03  0.92521739052E+02 0.  0.
          4    1    3    3  502    0  0.10960343541E+03 -0.24367117220E+02  0.40067665430E+01  0.11235089512E+03  0.00000000000E+00 0. -1.
         -3    1    3    3    0  502 -0.14431968785E+02 -0.56581754884E+01 -0.29680513093E+01  0.15783092265E+02  0.00000000000E+00 0.  1.
         11    1    5    5    0    0 -0.79838685954E+02  0.11660640437E+03 -0.14991660338E+03  0.20602489481E+03  0.00000000000E+00 0.  1.
        -11    1    5    5    0    0 -0.62894695123E+02  0.33001797641E+03 -0.41129666669E+03  0.53106737375E+03  0.00000000000E+00 0. -1.
          4    1    6    6  503    0  0.16539807399E+02 -0.10922978383E+03 -0.45562535288E+02  0.11950169675E+03  0.00000000000E+00 0. -1.
         -4    1    6    6    0  503  0.31022107053E+02 -0.30736930423E+03 -0.31485860914E+03  0.44110566088E+03  0.00000000000E+00 0.  1.
<mgrwt>
<rscale>  0 0.10888090E+04</rscale>
<asrwt>0</asrwt>
<pdfrwt beam="1">  1        2 0.38864454E-01 0.10888090E+04</pdfrwt>
<pdfrwt beam="2">  1       -1 0.18049457E+00 0.10888090E+04</pdfrwt>
<totfact> 0.31297071E+01</totfact>
</mgrwt>
</event>
<event>
12    6  0.8914180E-008  0.2309435E+04  0.7818608E-02  0.8474210E-01
          2   -1    0    0  501    0  0.00000000000E+00  0.00000000000E+00  0.16565566251E+04  0.16565566251E+04  0.00000000000E+00 0. -1.
         -1   -1    0    0    0  501 -0.00000000000E+00 -0.00000000000E+00 -0.80490631142E+03  0.80490631142E+03  0.00000000000E+00 0.  1.
         24    2    1    2    0    0  0.51294011976E+03 -0.79668513683E+03  0.62424330315E+03  0.11378164648E+04  0.84450176063E+02 0.  0.
        254    2    1    2    0    0 -0.51294011976E+03  0.79668513683E+03  0.22740701054E+03  0.13236464718E+04  0.89582992811E+03 0.  0.
         23    2    4    4    0    0 -0.55936801026E+03  0.79432309269E+03 -0.99801503032E+02  0.98048289847E+03  0.86859816431E+02 0.  0.
         23    2    4    4    0    0  0.46427890494E+02  0.23620441400E+01  0.32720851358E+03  0.34316357330E+03  0.92383431510E+02 0.  0.
          2    1    3    3  502    0  0.86574299260E+01 -0.67400984848E+01  0.19746062919E+02  0.22589533446E+02  0.00000000000E+00 0. -1.
         -1    1    3    3    0  502  0.50428268984E+03 -0.78994503834E+03  0.60449724024E+03  0.11152269313E+04  0.00000000000E+00 0.  1.
         11    1    5    5    0    0 -0.50007371491E+03  0.72324300743E+03 -0.11465030689E+03  0.88673494405E+03  0.00000000000E+00 0. -1.
        -11    1    5    5    0    0 -0.59294295350E+02  0.71080085264E+02  0.14848803858E+02  0.93747954421E+02  0.00000000000E+00 0.  1.
          1    1    6    6  503    0  0.24042628147E+02 -0.24642814424E+02  0.28996836591E+03  0.29200508472E+03  0.00000000000E+00 0. -1.
         -1    1    6    6    0  503  0.22385262347E+02  0.27004858564E+02  0.37240147663E+02  0.51158488586E+02  0.00000000000E+00 0.  1.
<mgrwt>
<rscale>  0 0.23094353E+04</rscale>
<asrwt>0</asrwt>
<pdfrwt beam="1">  1        2 0.25485486E+00 0.23094353E+04</pdfrwt>
<pdfrwt beam="2">  1       -1 0.12383174E+00 0.23094353E+04</pdfrwt>
<totfact> 0.61279241E+00</totfact>
</mgrwt>
</event>
<event>
12    6  0.8914180E-008  0.1684823E+04  0.7818608E-02  0.8770068E-01
         -1   -1    0    0    0  501 -0.00000000000E+00  0.00000000000E+00  0.48820494641E+03  0.48820494641E+03  0.00000000000E+00 0.  1.
          2   -1    0    0  501    0  0.00000000000E+00 -0.00000000000E+00 -0.14536049559E+04  0.14536049559E+04  0.00000000000E+00 0. -1.
         24    2    1    2    0    0 -0.40207911075E+03  0.17763993185E+03 -0.80286079386E+03  0.91892716535E+03  0.81351854360E+02 0.  0.
        254    2    1    2    0    0  0.40207911075E+03 -0.17763993185E+03 -0.16253921560E+03  0.10228827369E+04  0.90920104499E+03 0.  0.
         23    2    4    4    0    0  0.62381484875E+03  0.98842883687E+01 -0.28713994616E+03  0.69281547825E+03  0.91111325062E+02 0.  0.
         23    2    4    4    0    0 -0.22173573799E+03 -0.18752422022E+03  0.12460073055E+03  0.33006725868E+03  0.95325665630E+02 0.  0.
          2    1    3    3  502    0 -0.24937369591E+03  0.10881889080E+03 -0.41252645569E+03  0.49417291291E+03  0.00000000000E+00 0. -1.
         -1    1    3    3    0  502 -0.15270541484E+03  0.68821041054E+02 -0.39033433817E+03  0.42475425244E+03  0.00000000000E+00 0.  1.
         11    1    5    5    0    0  0.18922028835E+03 -0.37748253300E+02 -0.77121510096E+02  0.20779070112E+03  0.00000000000E+00 0.  1.
        -11    1    5    5    0    0  0.43459456039E+03  0.47632541669E+02 -0.21001843606E+03  0.48502477713E+03  0.00000000000E+00 0. -1.
          3    1    6    6  503    0 -0.92862240667E+02 -0.21750142103E+02  0.45685313615E+02  0.10575259951E+03  0.00000000000E+00 0.  1.
         -3    1    6    6    0  503 -0.12887349732E+03 -0.16577407812E+03  0.78915416936E+02  0.22431465917E+03  0.00000000000E+00 0. -1.
<mgrwt>
<rscale>  0 0.16848230E+04</rscale>
<asrwt>0</asrwt>
<pdfrwt beam="1">  1        2 0.22363153E+00 0.16848230E+04</pdfrwt>
<pdfrwt beam="2">  1       -1 0.75108455E-01 0.16848230E+04</pdfrwt>
<totfact> 0.26098988E+01</totfact>
</mgrwt>
</event>
<event>
12    6  0.8914180E-008  0.1256399E+04  0.7818608E-02  0.9064874E-01
         -1   -1    0    0    0  501 -0.00000000000E+00  0.00000000000E+00  0.14724099080E+03  0.14724099080E+03  0.00000000000E+00 0.  1.
          2   -1    0    0  501    0  0.00000000000E+00 -0.00000000000E+00 -0.26801936528E+04  0.26801936528E+04  0.00000000000E+00 0. -1.
         24    2    1    2    0    0  0.29014757053E+03  0.35045806177E+02 -0.75083687816E+03  0.81013955148E+03  0.84594645613E+02 0.  0.
        254    2    1    2    0    0 -0.29014757053E+03 -0.35045806177E+02 -0.17821157838E+04  0.20172950921E+04  0.89895995483E+03 0.  0.
         23    2    4    4    0    0 -0.16728526804E+02  0.16840410418E+02  0.87071429238E+02  0.12528441348E+03  0.86898259129E+02 0.  0.
         23    2    4    4    0    0 -0.27341904372E+03 -0.51886216595E+02 -0.18691872131E+04  0.18920106786E+04  0.91615596624E+02 0.  0.
          4    1    3    3  502    0  0.16330144019E+03  0.27644401656E+02 -0.31145696797E+03  0.35275631278E+03  0.00000000000E+00 0. -1.
         -3    1    3    3    0  502  0.12684613034E+03  0.74014045216E+01 -0.43937991019E+03  0.45738323870E+03  0.00000000000E+00 0.  1.
         11    1    5    5    0    0 -0.63963569013E+01  0.16441570980E+02  0.10397940444E+03  0.10546542175E+03  0.00000000000E+00 0. -1.
        -11    1    5    5    0    0 -0.10332169902E+02  0.39883943811E+00 -0.16907975201E+02  0.19818991729E+02  0.00000000000E+00 0.  1.
          2    1    6    6  503    0 -0.73887007630E+02 -0.57107754450E+02 -0.58999998499E+03  0.59734459720E+03  0.00000000000E+00 0.  1.
         -2    1    6    6    0  503 -0.19953203609E+03  0.52215378549E+01 -0.12791872281E+04  0.12946660814E+04  0.00000000000E+00 0. -1.
<mgrwt>
<rscale>  0 0.12563986E+04</rscale>
<asrwt>0</asrwt>
<pdfrwt beam="1">  1        2 0.41233746E+00 0.12563986E+04</pdfrwt>
<pdfrwt beam="2">  1       -1 0.22652461E-01 0.12563986E+04</pdfrwt>
<totfact> 0.51036594E+01</totfact>
</mgrwt>
</event>
<event>
12    6  0.8914180E-008  0.1856897E+04  0.7818608E-02  0.8676614E-01
         -1   -1    0    0    0  501 -0.00000000000E+00  0.00000000000E+00  0.12759135830E+04  0.12759135830E+04  0.00000000000E+00 0.  1.
          2   -1    0    0  501    0  0.00000000000E+00 -0.00000000000E+00 -0.67560760681E+03  0.67560760681E+03  0.00000000000E+00 0. -1.
         24    2    1    2    0    0  0.37734949420E+03 -0.38967840497E+03 -0.25055432122E+03  0.60307756055E+03  0.81750694694E+02 0.  0.
        254    2    1    2    0    0 -0.37734949420E+03  0.38967840497E+03  0.85086029739E+03  0.13484436292E+04  0.89448033825E+03 0.  0.
         23    2    4    4    0    0 -0.30287785572E+03 -0.24240602798E+03  0.26782484526E+03  0.48031390469E+03  0.92063138189E+02 0.  0.
         23    2    4    4    0    0 -0.74471638482E+02  0.63208443295E+03  0.58303545213E+03  0.86812972456E+03  0.92963029721E+02 0.  0.
          2    1    3    3  502    0  0.31704705790E+03 -0.36406309753E+03 -0.21420202886E+03  0.52815081661E+03  0.00000000000E+00 0. -1.
         -1    1    3    3    0  502  0.60302436300E+02 -0.25615307433E+02 -0.36352292354E+02  0.74926743944E+02  0.00000000000E+00 0.  1.
         11    1    5    5    0    0 -0.28769319363E+03 -0.19489142472E+03  0.24661930357E+03  0.42611163090E+03  0.00000000000E+00 0. -1.
        -11    1    5    5    0    0 -0.15184662092E+02 -0.47514603269E+02  0.21205541682E+02  0.54202273796E+02  0.00000000000E+00 0.  1.
          3    1    6    6  503    0  0.32496806048E+01  0.31142627018E+03  0.31580775819E+03  0.44354416051E+03  0.00000000000E+00 0. -1.
         -3    1    6    6    0  503 -0.77721319086E+02  0.32065816277E+03  0.26722769394E+03  0.42458556405E+03  0.00000000000E+00 0.  1.
<mgrwt>
<rscale>  0 0.18568973E+04</rscale>
<asrwt>0</asrwt>
<pdfrwt beam="1">  1        2 0.10393963E+00 0.18568973E+04</pdfrwt>
<pdfrwt beam="2">  1       -1 0.19629440E+00 0.18568973E+04</pdfrwt>
<totfact> 0.73405990E+00</totfact>
</mgrwt>
</event>
<event>
12    6  0.8914180E-008  0.3005373E+04  0.7818608E-02  0.8242198E-01
          2   -1    0    0  501    0  0.00000000000E+00  0.00000000000E+00  0.29920512827E+04  0.29920512827E+04  0.00000000000E+00 0. -1.
         -1   -1    0    0    0  501 -0.00000000000E+00 -0.00000000000E+00 -0.75468842850E+03  0.75468842850E+03  0.00000000000E+00 0.  1.
         24    2    1    2    0    0 -0.73151372276E+03  0.77999054203E+03  0.20783012106E+04  0.23386063108E+04  0.79031530348E+02 0.  0.
        254    2    1    2    0    0  0.73151372276E+03 -0.77999054203E+03  0.15906164365E+03  0.14081334004E+04  0.90224248105E+03 0.  0.
         23    2    4    4    0    0  0.26722519912E+03  0.10900822745E+03 -0.17014739255E+03  0.34846927771E+03  0.95857193854E+02 0.  0.
         23    2    4    4    0    0  0.46428852364E+03 -0.88899876949E+03  0.32920903620E+03  0.10596641227E+04  0.92880665862E+02 0.  0.
          4    1    3    3  502    0 -0.65724383447E+03  0.71312239794E+03  0.18332893408E+04  0.20739968225E+04  0.00000000000E+00 0. -1.
         -1    1    3    3    0  502 -0.74269888291E+02  0.66868144091E+02  0.24501186974E+03  0.26460948833E+03  0.00000000000E+00 0.  1.
         11    1    5    5    0    0  0.39465438353E+02  0.39511037906E+02 -0.71484749833E+02  0.90712250548E+02  0.00000000000E+00 0.  1.
        -11    1    5    5    0    0  0.22775976077E+03  0.69497189549E+02 -0.98662642722E+02  0.25775702716E+03  0.00000000000E+00 0. -1.
          3    1    6    6  503    0  0.29430343887E+03 -0.64367151891E+03  0.25302493759E+03  0.75163099818E+03  0.00000000000E+00 0. -1.
         -3    1    6    6    0  503  0.16998508477E+03 -0.24532725058E+03  0.76184098611E+02  0.30803312452E+03  0.00000000000E+00 0.  1.
<mgrwt>
<rscale>  0 0.30053728E+04</rscale>
<asrwt>0</asrwt>
<pdfrwt beam="1">  1        2 0.46031558E+00 0.30053728E+04</pdfrwt>
<pdfrwt beam="2">  1       -1 0.11610591E+00 0.30053728E+04</pdfrwt>
<totfact> 0.11478142E+00</totfact>
</mgrwt>
</event>
<event>
12    6  0.8914180E-008  0.1996924E+04  0.7818608E-02  0.8608060E-01
         -1   -1    0    0    0  501 -0.00000000000E+00  0.00000000000E+00  0.71547191299E+03  0.71547191299E+03  0.00000000000E+00 0.  1.
          2   -1    0    0  501    0  0.00000000000E+00 -0.00000000000E+00 -0.13933834019E+04  0.13933834019E+04  0.00000000000E+00 0. -1.
         24    2    1    2    0    0 -0.34679289605E+03 -0.70913389355E+03 -0.35187095418E+03  0.86776938454E+03  0.77938081978E+02 0.  0.
        254    2    1    2    0    0  0.34679289605E+03  0.70913389355E+03 -0.32604053472E+03  0.12410859303E+04  0.90047524366E+03 0.  0.
         23    2    4    4    0    0  0.55930216041E+03  0.23808075040E+03 -0.36494051589E+03  0.71479220085E+03  0.90801761628E+02 0.  0.
         23    2    4    4    0    0 -0.21250926436E+03  0.47105314315E+03  0.38899981175E+02  0.52629372947E+03  0.91763990961E+02 0.  0.
          2    1    3    3  502    0 -0.34387101964E+03 -0.71094264364E+03 -0.34966102451E+03  0.86368371106E+03  0.00000000000E+00 0. -1.
         -1    1    3    3    0  502 -0.29218764050E+01  0.18087500908E+01 -0.22099296704E+01  0.40856734775E+01  0.00000000000E+00 0.  1.
         11    1    5    5    0    0  0.33010185111E+03  0.94609946048E+02 -0.18581487465E+03  0.39044262272E+03  0.00000000000E+00 0.  1.
        -11    1    5    5    0    0  0.22920030930E+03  0.14347080435E+03 -0.17912564124E+03  0.32434957813E+03  0.00000000000E+00 0. -1.
          4    1    6    6  503    0 -0.20655288420E+02  0.56216677369E+01  0.26010540743E+01  0.21564080554E+02  0.00000000000E+00 0. -1.
         -4    1    6    6    0  503 -0.19185397594E+03  0.46543147541E+03  0.36298927100E+02  0.50472964892E+03  0.00000000000E+00 0.  1.
<mgrwt>
<rscale>  0 0.19969243E+04</rscale>
<asrwt>0</asrwt>
<pdfrwt beam="1">  1        2 0.21436667E+00 0.19969243E+04</pdfrwt>
<pdfrwt beam="2">  1       -1 0.11007260E+00 0.19969243E+04</pdfrwt>
<totfact> 0.11780684E+01</totfact>
</mgrwt>
</event>
<event>
12    6  0.8914180E-008  0.1368267E+04  0.7818608E-02  0.8977114E-01
         -1   -1    0    0    0  501 -0.00000000000E+00  0.00000000000E+00  0.31540573372E+03  0.31540573372E+03  0.00000000000E+00 0.  1.
          2   -1    0    0  501    0  0.00000000000E+00 -0.00000000000E+00 -0.14839255355E+04  0.14839255355E+04  0.00000000000E+00 0. -1.
         24    2    1    2    0    0  0.11544916764E+03  0.10214690762E+02 -0.83684464529E+03  0.84864483978E+03  0.80350815268E+02 0.  0.
        254    2    1    2    0    0 -0.11544916764E+03 -0.10214690762E+02 -0.33167515651E+03  0.95068642946E+03  0.88338181297E+03 0.  0.
         23    2    4    4    0    0  0.13268317488E+03  0.35185604472E+03 -0.32067050702E+03  0.50268019085E+03  0.91925508426E+02 0.  0.
         23    2    4    4    0    0 -0.24813234252E+03 -0.36207073548E+03 -0.11004649495E+02  0.44800623861E+03  0.89014665238E+02 0.  0.
          4    1    3    3  502    0  0.87560944965E+02  0.71646060382E+01 -0.78315571441E+03  0.78806796895E+03  0.00000000000E+00 0. -1.
         -3    1    3    3    0  502  0.27888222678E+02  0.30500847234E+01 -0.53688930880E+02  0.60576870834E+02  0.00000000000E+00 0.  1.
         11    1    5    5    0    0  0.95944446605E+02  0.24392695529E+03 -0.27486788548E+03  0.37981317884E+03  0.00000000000E+00 0.  1.
        -11    1    5    5    0    0  0.36738728277E+02  0.10792908943E+03 -0.45802621536E+02  0.12286701201E+03  0.00000000000E+00 0. -1.
          1    1    6    6  503    0 -0.79734833047E+02 -0.85882117119E+02 -0.38526104287E+02  0.12335980850E+03  0.00000000000E+00 0. -1.
         -1    1    6    6    0  503 -0.16839750948E+03 -0.27618861836E+03  0.27521454791E+02  0.32464643011E+03  0.00000000000E+00 0.  1.
<mgrwt>
<rscale>  0 0.13682670E+04</rscale>
<asrwt>0</asrwt>
<pdfrwt beam="1">  1        2 0.22829623E+00 0.13682670E+04</pdfrwt>
<pdfrwt beam="2">  1       -1 0.48523959E-01 0.13682670E+04</pdfrwt>
<totfact> 0.61217317E+01</totfact>
</mgrwt>
</event>
<event>
12    6  0.8914180E-008  0.2620190E+04  0.7818608E-02  0.8361375E-01
          2   -1    0    0  501    0  0.00000000000E+00  0.00000000000E+00  0.19140645337E+04  0.19140645337E+04  0.00000000000E+00 0. -1.
         -1   -1    0    0    0  501 -0.00000000000E+00 -0.00000000000E+00 -0.89670381653E+03  0.89670381653E+03  0.00000000000E+00 0.  1.
         24    2    1    2    0    0 -0.98268416286E+03 -0.34335240736E+03 -0.86564627764E+02  0.10476481569E+04  0.80710508873E+02 0.  0.
        254    2    1    2    0    0  0.98268416286E+03  0.34335240736E+03  0.11039253450E+04  0.17631201934E+04  0.89798808984E+03 0.  0.
         23    2    4    4    0    0  0.12025522129E+03 -0.49078605854E+02 -0.12952237492E+03  0.20501291820E+03  0.91565404080E+02 0.  0.
         23    2    4    4    0    0  0.86242894157E+03  0.39243101321E+03  0.12334477199E+04  0.15581072752E+04  0.92299641813E+02 0.  0.
          4    1    3    3  502    0 -0.30129697551E+02 -0.26338412493E+02 -0.64500371232E+01  0.40535337992E+02  0.00000000000E+00 0. -1.
         -3    1    3    3    0  502 -0.95255446531E+03 -0.31701399487E+03 -0.80114590640E+02  0.10071128189E+04  0.00000000000E+00 0.  1.
         11    1    5    5    0    0  0.36580994815E+02 -0.82472602784E+01 -0.10084494754E+03  0.10759130972E+03  0.00000000000E+00 0.  1.
        -11    1    5    5    0    0  0.83674226473E+02 -0.40831345575E+02 -0.28677427385E+02  0.97421608480E+02  0.00000000000E+00 0. -1.
          2    1    6    6  503    0  0.83833433444E+03  0.36429570092E+03  0.11712241797E+04  0.14856923952E+04  0.00000000000E+00 0.  1.
         -2    1    6    6    0  503  0.24094607133E+02  0.28135312291E+02  0.62223540176E+02  0.72414879981E+02  0.00000000000E+00 0. -1.
<mgrwt>
<rscale>  0 0.26201900E+04</rscale>
<asrwt>0</asrwt>
<pdfrwt beam="1">  1        2 0.29447147E+00 0.26201900E+04</pdfrwt>
<pdfrwt beam="2">  1       -1 0.13795443E+00 0.26201900E+04</pdfrwt>
<totfact> 0.32645122E+00</totfact>
</mgrwt>
</event>
<event>
12    6  0.8914180E-008  0.1614683E+04  0.7818608E-02  0.8811578E-01
          2   -1    0    0  501    0  0.00000000000E+00  0.00000000000E+00  0.15284889496E+04  0.15284889496E+04  0.00000000000E+00 0. -1.
         -1   -1    0    0    0  501 -0.00000000000E+00 -0.00000000000E+00 -0.42643451240E+03  0.42643451240E+03  0.00000000000E+00 0.  1.
         24    2    1    2    0    0 -0.87340005037E+02 -0.15232975076E+03  0.10166644839E+04  0.10344124630E+04  0.74631369997E+02 0.  0.
        254    2    1    2    0    0  0.87340005037E+02  0.15232975076E+03  0.85389953308E+02  0.92051099898E+03  0.89956457560E+03 0.  0.
         23    2    4    4    0    0 -0.28434628175E+03  0.17382457598E+03 -0.23626229303E+03  0.42011287853E+03  0.98016164181E+02 0.  0.
         23    2    4    4    0    0  0.37168628678E+03 -0.21494825220E+02  0.32165224634E+03  0.50039812045E+03  0.91243564608E+02 0.  0.
          4    1    3    3  502    0 -0.47754074033E+02 -0.13404547989E+03  0.86412862901E+03  0.87576648128E+03  0.00000000000E+00 0. -1.
         -3    1    3    3    0  502 -0.39585931004E+02 -0.18284270871E+02  0.15253585484E+03  0.15864598169E+03  0.00000000000E+00 0.  1.
         11    1    5    5    0    0 -0.26319693327E+03  0.18323676048E+03 -0.20286337363E+03  0.37947580217E+03  0.00000000000E+00 0.  1.
        -11    1    5    5    0    0 -0.21149348478E+02 -0.94121844967E+01 -0.33398919397E+02  0.40637076358E+02  0.00000000000E+00 0. -1.
          4    1    6    6  503    0  0.11197445026E+03  0.63318192979E+01  0.47680480688E+02  0.12186795184E+03  0.00000000000E+00 0. -1.
         -4    1    6    6    0  503  0.25971183652E+03 -0.27826644518E+02  0.27397176565E+03  0.37853016861E+03  0.00000000000E+00 0.  1.
<mgrwt>
<rscale>  0 0.16146832E+04</rscale>
<asrwt>0</asrwt>
<pdfrwt beam="1">  1        2 0.23515214E+00 0.16146832E+04</pdfrwt>
<pdfrwt beam="2">  1       -1 0.65605310E-01 0.16146832E+04</pdfrwt>
<totfact> 0.31442168E+01</totfact>
</mgrwt>
</event>
<event>
12    6  0.8914180E-008  0.1708385E+04  0.7818608E-02  0.8756597E-01
          2   -1    0    0  501    0  0.00000000000E+00  0.00000000000E+00  0.14453188520E+04  0.14453188520E+04  0.00000000000E+00 0. -1.
         -1   -1    0    0    0  501 -0.00000000000E+00 -0.00000000000E+00 -0.50483291326E+03  0.50483291326E+03  0.00000000000E+00 0.  1.
         24    2    1    2    0    0  0.30267406031E+03  0.35991639333E+03  0.78784104028E+03  0.92114886241E+03  0.81672057641E+02 0.  0.
        254    2    1    2    0    0 -0.30267406031E+03 -0.35991639333E+03  0.15264489845E+03  0.10290029028E+04  0.90243842563E+03 0.  0.
         23    2    4    4    0    0 -0.43479043025E+03 -0.18910615609E+03  0.44347863176E+03  0.65557243612E+03  0.91093719098E+02 0.  0.
         23    2    4    4    0    0  0.13211636994E+03 -0.17081023724E+03 -0.29083373331E+03  0.37343046672E+03  0.90747896366E+02 0.  0.
          2    1    3    3  502    0  0.29351777017E+03  0.35129118356E+03  0.78423125694E+03  0.90806213521E+03  0.00000000000E+00 0. -1.
         -1    1    3    3    0  502  0.91562901482E+01  0.86252097749E+01  0.36097833349E+01  0.13086727195E+02  0.00000000000E+00 0.  1.
         11    1    5    5    0    0 -0.72600673036E+02  0.23822931392E+00  0.86452664790E+02  0.11289365672E+03  0.00000000000E+00 0. -1.
        -11    1    5    5    0    0 -0.36218975722E+03 -0.18934438541E+03  0.35702596697E+03  0.54267877940E+03  0.00000000000E+00 0.  1.
          2    1    6    6  503    0 -0.87137035416E+01 -0.43581371496E+02 -0.55602824008E+02  0.71182431881E+02  0.00000000000E+00 0. -1.
         -2    1    6    6    0  503  0.14083007348E+03 -0.12722886574E+03 -0.23523090930E+03  0.30224803484E+03  0.00000000000E+00 0.  1.
<mgrwt>
<rscale>  0 0.17083846E+04</rscale>
<asrwt>0</asrwt>
<pdfrwt beam="1">  1        2 0.22235674E+00 0.17083846E+04</pdfrwt>
<pdfrwt beam="2">  1       -1 0.77666603E-01 0.17083846E+04</pdfrwt>
<totfact> 0.24542613E+01</totfact>
</mgrwt>
</event>
<event>
12    6  0.8914180E-008  0.1797380E+04  0.7818608E-02  0.8707694E-01
          2   -1    0    0  501    0  0.00000000000E+00  0.00000000000E+00  0.24250814446E+04  0.24250814446E+04  0.00000000000E+00 0. -1.
         -1   -1    0    0    0  501 -0.00000000000E+00 -0.00000000000E+00 -0.33303777317E+03  0.33303777317E+03  0.00000000000E+00 0.  1.
         24    2    1    2    0    0 -0.50966248446E+03 -0.32253476533E+03  0.12268638582E+04  0.13693844116E+04  0.78957058738E+02 0.  0.
        254    2    1    2    0    0  0.50966248446E+03  0.32253476533E+03  0.86517981315E+03  0.13887348061E+04  0.90347314835E+03 0.  0.
         23    2    4    4    0    0  0.34827935571E+03  0.15674173055E+03  0.10223411452E+04  0.10951926493E+04  0.91646287933E+02 0.  0.
         23    2    4    4    0    0  0.16138312875E+03  0.16579303478E+03 -0.15716133208E+03  0.29354215686E+03  0.89081249026E+02 0.  0.
          2    1    3    3  502    0 -0.45770290555E+03 -0.31328602905E+03  0.11394244026E+04  0.12672521671E+04  0.00000000000E+00 0. -1.
         -1    1    3    3    0  502 -0.51959578908E+02 -0.92487362802E+01  0.87439455600E+02  0.10213224446E+03  0.00000000000E+00 0.  1.
         11    1    5    5    0    0  0.26152292257E+03  0.93908752543E+02  0.82663063439E+03  0.87208445608E+03  0.00000000000E+00 0. -1.
        -11    1    5    5    0    0  0.86756433138E+02  0.62832978008E+02  0.19571051085E+03  0.22310819320E+03  0.00000000000E+00 0.  1.
          1    1    6    6  503    0  0.14045719542E+03  0.14553838065E+03 -0.16752565214E+03  0.26262994520E+03  0.00000000000E+00 0. -1.
         -1    1    6    6    0  503  0.20925933326E+02  0.20254654130E+02  0.10364320066E+02  0.30912211664E+02  0.00000000000E+00 0.  1.
<mgrwt>
<rscale>  0 0.17973800E+04</rscale>
<asrwt>0</asrwt>
<pdfrwt beam="1">  1        2 0.37308944E+00 0.17973800E+04</pdfrwt>
<pdfrwt beam="2">  1       -1 0.51236582E-01 0.17973800E+04</pdfrwt>
<totfact> 0.15854314E+01</totfact>
</mgrwt>
</event>
<event>
12    6  0.8914180E-008  0.1487349E+04  0.7818608E-02  0.8892909E-01
         -1   -1    0    0    0  501 -0.00000000000E+00  0.00000000000E+00  0.10881248127E+04  0.10881248127E+04  0.00000000000E+00 0.  1.
          2   -1    0    0  501    0  0.00000000000E+00 -0.00000000000E+00 -0.50826143359E+03  0.50826143359E+03  0.00000000000E+00 0. -1.
         24    2    1    2    0    0  0.31813808705E+03  0.13911028256E+03 -0.14987246280E+03  0.38654892024E+03  0.79967490201E+02 0.  0.
        254    2    1    2    0    0 -0.31813808705E+03 -0.13911028256E+03  0.72973584187E+03  0.12098373260E+04  0.90034906750E+03 0.  0.
         23    2    4    4    0    0 -0.12702908047E+03 -0.50185709888E+03  0.28455063513E+03  0.59774840557E+03  0.91308035898E+02 0.  0.
         23    2    4    4    0    0 -0.19110900658E+03  0.36274681632E+03  0.44518520674E+03  0.61208892044E+03  0.91406088880E+02 0.  0.
          4    1    3    3  502    0  0.27163966223E+03  0.12953993046E+03 -0.98631750579E+02  0.31669689279E+03  0.00000000000E+00 0. -1.
         -3    1    3    3    0  502  0.46498424814E+02  0.95703520950E+01 -0.51240712222E+02  0.69852027446E+02  0.00000000000E+00 0.  1.
         11    1    5    5    0    0 -0.64157218189E+02 -0.10954654033E+03  0.50554145208E+02  0.13664667848E+03  0.00000000000E+00 0. -1.
        -11    1    5    5    0    0 -0.62871862284E+02 -0.39231055855E+03  0.23399648993E+03  0.46110172708E+03  0.00000000000E+00 0.  1.
          1    1    6    6  503    0 -0.12800618078E+03  0.16319753062E+03  0.26032550707E+03  0.33284889357E+03  0.00000000000E+00 0. -1.
         -1    1    6    6    0  503 -0.63102825795E+02  0.19954928570E+03  0.18485969967E+03  0.27924002688E+03  0.00000000000E+00 0.  1.
<mgrwt>
<rscale>  0 0.14873492E+04</rscale>
<asrwt>0</asrwt>
<pdfrwt beam="1">  1        2 0.78194067E-01 0.14873492E+04</pdfrwt>
<pdfrwt beam="2">  1       -1 0.16740382E+00 0.14873492E+04</pdfrwt>
<totfact> 0.17176823E+01</totfact>
</mgrwt>
</event>
<event>
12    6  0.8914180E-008  0.4816890E+04  0.7818608E-02  0.7857391E-01
          2   -1    0    0  501    0  0.00000000000E+00  0.00000000000E+00  0.26312393836E+04  0.26312393836E+04  0.00000000000E+00 0. -1.
         -1   -1    0    0    0  501 -0.00000000000E+00 -0.00000000000E+00 -0.22045155844E+04  0.22045155844E+04  0.00000000000E+00 0.  1.
         24    2    1    2    0    0  0.13784498634E+04  0.14467363286E+04 -0.98635943574E+03  0.22298606184E+04  0.78761731448E+02 0.  0.
        254    2    1    2    0    0 -0.13784498634E+04 -0.14467363286E+04  0.14130832349E+04  0.26058943497E+04  0.89482462105E+03 0.  0.
         23    2    4    4    0    0  0.10051041301E+03 -0.24029079719E+03  0.13954625021E+03  0.30923828619E+03  0.91176484690E+02 0.  0.
         23    2    4    4    0    0 -0.14789602764E+04 -0.12064455315E+04  0.12735369847E+04  0.22966560635E+04  0.99490215882E+02 0.  0.
          2    1    3    3  502    0  0.39500914094E+03  0.40705133772E+03 -0.31946907610E+03  0.65098656173E+03  0.00000000000E+00 0. -1.
         -1    1    3    3    0  502  0.98344072245E+03  0.10396849909E+04 -0.66689035964E+03  0.15788740566E+04  0.00000000000E+00 0.  1.
         11    1    5    5    0    0 -0.97859894507E+01 -0.18728514491E+02  0.34312431117E+02  0.40297217940E+02  0.00000000000E+00 0. -1.
        -11    1    5    5    0    0  0.11029640246E+03 -0.22156228270E+03  0.10523381910E+03  0.26894106825E+03  0.00000000000E+00 0.  1.
          1    1    6    6  503    0 -0.29101418970E+03 -0.19253136806E+03  0.25242102555E+03  0.43066687873E+03  0.00000000000E+00 0. -1.
         -1    1    6    6    0  503 -0.11879460867E+04 -0.10139141634E+04  0.10211159591E+04  0.18659891848E+04  0.00000000000E+00 0.  1.
<mgrwt>
<rscale>  0 0.48168904E+04</rscale>
<asrwt>0</asrwt>
<pdfrwt beam="1">  1        2 0.40480606E+00 0.48168904E+04</pdfrwt>
<pdfrwt beam="2">  1       -1 0.33915624E+00 0.48168904E+04</pdfrwt>
<totfact> 0.44906607E-02</totfact>
</mgrwt>
</event>
<event>
12    6  0.8914180E-008  0.3040818E+04  0.7818608E-02  0.8232170E-01
          2   -1    0    0  501    0  0.00000000000E+00  0.00000000000E+00  0.31836608993E+04  0.31836608993E+04  0.00000000000E+00 0. -1.
         -1   -1    0    0    0  501 -0.00000000000E+00 -0.00000000000E+00 -0.72609587066E+03  0.72609587066E+03  0.00000000000E+00 0.  1.
         24    2    1    2    0    0  0.17130918934E+03  0.12042479161E+03  0.28883960583E+04  0.28970587613E+04  0.79175173358E+02 0.  0.
        254    2    1    2    0    0 -0.17130918934E+03 -0.12042479161E+03 -0.43083102971E+03  0.10126980086E+04  0.89224038896E+03 0.  0.
         23    2    4    4    0    0 -0.39625114406E+03 -0.32779046347E+03 -0.45308606006E+03  0.69168950493E+03  0.93197834199E+02 0.  0.
         23    2    4    4    0    0  0.22494195472E+03  0.20736567186E+03  0.22255030353E+02  0.32100850368E+03  0.94613784405E+02 0.  0.
          2    1    3    3  502    0  0.11506382416E+03  0.69777347035E+02  0.22808469945E+04  0.22848132471E+04  0.00000000000E+00 0. -1.
         -1    1    3    3    0  502  0.56245365172E+02  0.50647444580E+02  0.60754906378E+03  0.61224551419E+03  0.00000000000E+00 0.  1.
         11    1    5    5    0    0 -0.36844702226E+03 -0.32160633145E+03 -0.40149397828E+03  0.63275686898E+03  0.00000000000E+00 0.  1.
        -11    1    5    5    0    0 -0.27804121800E+02 -0.61841320167E+01 -0.51592081783E+02  0.58932635955E+02  0.00000000000E+00 0. -1.
          3    1    6    6  503    0  0.11139845477E+03  0.15934030453E+03 -0.60688643003E+01  0.19451421410E+03  0.00000000000E+00 0. -1.
         -3    1    6    6    0  503  0.11354349995E+03  0.48025367327E+02  0.28323894653E+02  0.12649428958E+03  0.00000000000E+00 0.  1.
<mgrwt>
<rscale>  0 0.30408177E+04</rscale>
<asrwt>0</asrwt>
<pdfrwt beam="1">  1        2 0.48979398E+00 0.30408177E+04</pdfrwt>
<pdfrwt beam="2">  1       -1 0.11170706E+00 0.30408177E+04</pdfrwt>
<totfact> 0.94698995E-01</totfact>
</mgrwt>
</event>
<event>
12    6  0.8914180E-008  0.2134068E+04  0.7818608E-02  0.8546383E-01
         -1   -1    0    0    0  501 -0.00000000000E+00  0.00000000000E+00  0.52902034634E+03  0.52902034634E+03  0.00000000000E+00 0.  1.
          2   -1    0    0  501    0  0.00000000000E+00 -0.00000000000E+00 -0.21522076162E+04  0.21522076162E+04  0.00000000000E+00 0. -1.
         24    2    1    2    0    0 -0.18687938416E+03 -0.50167985125E+03 -0.15387263261E+04  0.16312967939E+04  0.82728143988E+02 0.  0.
        254    2    1    2    0    0  0.18687938416E+03  0.50167985125E+03 -0.84460943722E+02  0.10499311686E+04  0.89923035448E+03 0.  0.
         23    2    4    4    0    0 -0.70021550684E+02  0.31337903138E+03 -0.44785266475E+03  0.55834410190E+03  0.89814764601E+02 0.  0.
         23    2    4    4    0    0  0.25690093484E+03  0.18830081987E+03  0.36339172103E+03  0.49158706670E+03  0.90271879042E+02 0.  0.
          2    1    3    3  502    0 -0.82416789842E+02 -0.31553318515E+03 -0.99953221823E+03  0.10513887832E+04  0.00000000000E+00 0. -1.
         -3    1    3    3    0  502 -0.10446259431E+03 -0.18614666610E+03 -0.53919410790E+03  0.57990801073E+03  0.00000000000E+00 0.  1.
         11    1    5    5    0    0 -0.77657176060E+02  0.25041397667E+03 -0.30599406744E+03  0.40295181600E+03  0.00000000000E+00 0. -1.
        -11    1    5    5    0    0  0.76356253762E+01  0.62965054705E+02 -0.14185859731E+03  0.15539228591E+03  0.00000000000E+00 0.  1.
          2    1    6    6  503    0  0.22644024737E+03  0.12073227472E+03  0.27256146904E+03  0.37435440721E+03  0.00000000000E+00 0. -1.
         -2    1    6    6    0  503  0.30460687467E+02  0.67568545155E+02  0.90830251985E+02  0.11723265949E+03  0.00000000000E+00 0.  1.
<mgrwt>
<rscale>  0 0.21340681E+04</rscale>
<asrwt>0</asrwt>
<pdfrwt beam="1">  1        2 0.33110887E+00 0.21340681E+04</pdfrwt>
<pdfrwt beam="2">  1       -1 0.81387744E-01 0.21340681E+04</pdfrwt>
<totfact> 0.86390871E+00</totfact>
</mgrwt>
</event>
<event>
12    6  0.8914180E-008  0.1668830E+04  0.7818608E-02  0.8779344E-01
         -1   -1    0    0    0  501 -0.00000000000E+00  0.00000000000E+00  0.48738115387E+03  0.48738115387E+03  0.00000000000E+00 0.  1.
          2   -1    0    0  501    0  0.00000000000E+00 -0.00000000000E+00 -0.14285503492E+04  0.14285503492E+04  0.00000000000E+00 0. -1.
         24    2    1    2    0    0 -0.37286024087E+03  0.18275774052E+03 -0.82686841588E+03  0.92852286670E+03  0.77576967310E+02 0.  0.
        254    2    1    2    0    0  0.37286024087E+03 -0.18275774052E+03 -0.11430077949E+03  0.98740863642E+03  0.88853024492E+03 0.  0.
         23    2    4    4    0    0 -0.15252791182E+03 -0.37432421203E+03 -0.49380755784E+02  0.41703114733E+03  0.89961876414E+02 0.  0.
         23    2    4    4    0    0  0.52538815269E+03  0.19156647150E+03 -0.64920023703E+02  0.57037748908E+03  0.91572084086E+02 0.  0.
          4    1    3    3  502    0 -0.20742351133E+03  0.98229062731E+02 -0.54003647269E+03  0.58678177685E+03  0.00000000000E+00 0. -1.
         -3    1    3    3    0  502 -0.16543672954E+03  0.84528677794E+02 -0.28683194319E+03  0.34174108984E+03  0.00000000000E+00 0.  1.
         11    1    5    5    0    0 -0.14144828934E+03 -0.28369191022E+03 -0.88247113729E+01  0.31712236442E+03  0.00000000000E+00 0.  1.
        -11    1    5    5    0    0 -0.11079622479E+02 -0.90632301807E+02 -0.40556044412E+02  0.99908782914E+02  0.00000000000E+00 0. -1.
          1    1    6    6  503    0  0.24220004721E+03  0.87039578099E+02  0.15982944333E+02  0.25786082590E+03  0.00000000000E+00 0. -1.
         -1    1    6    6    0  503  0.28318810548E+03  0.10452689341E+03 -0.80902968036E+02  0.31251666318E+03  0.00000000000E+00 0.  1.
<mgrwt>
<rscale>  0 0.16688302E+04</rscale>
<asrwt>0</asrwt>
<pdfrwt beam="1">  1        2 0.21977698E+00 0.16688302E+04</pdfrwt>
<pdfrwt beam="2">  1       -1 0.74981716E-01 0.16688302E+04</pdfrwt>
<totfact> 0.27101682E+01</totfact>
</mgrwt>
</event>
<event>
12    6  0.8914180E-008  0.2912377E+04  0.7818608E-02  0.8269204E-01
          2   -1    0    0  501    0  0.00000000000E+00  0.00000000000E+00  0.74254993503E+03  0.74254993503E+03  0.00000000000E+00 0. -1.
         -1   -1    0    0    0  501 -0.00000000000E+00 -0.00000000000E+00 -0.28556797751E+04  0.28556797751E+04  0.00000000000E+00 0.  1.
         24    2    1    2    0    0 -0.37805402945E+03  0.24210266941E+03 -0.24743732220E+04  0.25160329249E+04  0.79751399996E+02 0.  0.
        254    2    1    2    0    0  0.37805402945E+03 -0.24210266941E+03  0.36124338189E+03  0.10821967852E+04  0.91603195867E+03 0.  0.
         23    2    4    4    0    0  0.13721314180E+03  0.34278243874E+03  0.15262292403E+03  0.40976156787E+03  0.91013949311E+02 0.  0.
         23    2    4    4    0    0  0.24084088766E+03 -0.58488510815E+03  0.20862045786E+03  0.67243521737E+03  0.92475419550E+02 0.  0.
          2    1    3    3  502    0 -0.46745400856E+02  0.65648760746E+02 -0.43760929541E+03  0.44496829968E+03  0.00000000000E+00 0. -1.
         -3    1    3    3    0  502 -0.33130862860E+03  0.17645390867E+03 -0.20367639266E+04  0.20710646252E+04  0.00000000000E+00 0.  1.
         11    1    5    5    0    0  0.14730583807E+03  0.30405868641E+03  0.12142163445E+03  0.35901797730E+03  0.00000000000E+00 0.  1.
        -11    1    5    5    0    0 -0.10092696267E+02  0.38723752329E+02  0.31201289576E+02  0.50743590567E+02  0.00000000000E+00 0. -1.
          4    1    6    6  503    0  0.53186608721E+02 -0.11812253312E+03  0.83212267399E+02  0.15396762525E+03  0.00000000000E+00 0. -1.
         -4    1    6    6    0  503  0.18765427893E+03 -0.46676257503E+03  0.12540819046E+03  0.51846759213E+03  0.00000000000E+00 0.  1.
<mgrwt>
<rscale>  0 0.29123769E+04</rscale>
<asrwt>0</asrwt>
<pdfrwt beam="1">  1        2 0.11423845E+00 0.29123769E+04</pdfrwt>
<pdfrwt beam="2">  1       -1 0.43933535E+00 0.29123769E+04</pdfrwt>
<totfact> 0.14301988E-01</totfact>
</mgrwt>
</event>
<event>
12    6  0.8914180E-008  0.1426748E+04  0.7818608E-02  0.8934681E-01
          2   -1    0    0  501    0  0.00000000000E+00  0.00000000000E+00  0.25219777685E+04  0.25219777685E+04  0.00000000000E+00 0. -1.
         -1   -1    0    0    0  501 -0.00000000000E+00 -0.00000000000E+00 -0.20178714139E+03  0.20178714139E+03  0.00000000000E+00 0.  1.
         24    2    1    2    0    0  0.21800773842E+03 -0.53868240755E+01  0.13907831617E+04  0.14100474926E+04  0.79998352556E+02 0.  0.
        254    2    1    2    0    0 -0.21800773842E+03  0.53868240755E+01  0.92940746537E+03  0.13137174173E+04  0.90249588589E+03 0.  0.
         23    2    4    4    0    0  0.15320618558E+03 -0.32609183549E+03  0.61276606527E+03  0.71680332724E+03  0.92286178340E+02 0.  0.
         23    2    4    4    0    0 -0.37121392400E+03  0.33147865957E+03  0.31664140010E+03  0.59691409010E+03  0.91470080277E+02 0.  0.
          2    1    3    3  502    0  0.21343616767E+03  0.12518034021E+02  0.12818532094E+04  0.12995612141E+04  0.00000000000E+00 0. -1.
         -1    1    3    3    0  502  0.45715707487E+01 -0.17904858096E+02  0.10892995235E+03  0.11048627843E+03  0.00000000000E+00 0.  1.
         11    1    5    5    0    0  0.65903274817E+02 -0.66601856803E+02  0.11148518887E+03  0.14562965460E+03  0.00000000000E+00 0.  1.
        -11    1    5    5    0    0  0.87302910766E+02 -0.25948997869E+03  0.50128087640E+03  0.57117367263E+03  0.00000000000E+00 0. -1.
          2    1    6    6  503    0 -0.93679460889E+02  0.10681758802E+03  0.13631362300E+03  0.19689398751E+03  0.00000000000E+00 0.  1.
         -2    1    6    6    0  503 -0.27753446311E+03  0.22466107155E+03  0.18032777710E+03  0.40002010259E+03  0.00000000000E+00 0. -1.
<mgrwt>
<rscale>  0 0.14267483E+04</rscale>
<asrwt>0</asrwt>
<pdfrwt beam="1">  1        2 0.38799656E+00 0.14267483E+04</pdfrwt>
<pdfrwt beam="2">  1       -1 0.31044177E-01 0.14267483E+04</pdfrwt>
<totfact> 0.36057323E+01</totfact>
</mgrwt>
</event>
<event>
12    6  0.8914180E-008  0.1615420E+04  0.7818608E-02  0.8811131E-01
         -1   -1    0    0    0  501 -0.00000000000E+00  0.00000000000E+00  0.50899139579E+03  0.50899139579E+03  0.00000000000E+00 0.  1.
          2   -1    0    0  501    0  0.00000000000E+00 -0.00000000000E+00 -0.12817409722E+04  0.12817409722E+04  0.00000000000E+00 0. -1.
         24    2    1    2    0    0 -0.32087825606E+03  0.27938329917E+03  0.12139047195E+03  0.44979898994E+03  0.81028399974E+02 0.  0.
        254    2    1    2    0    0  0.32087825606E+03 -0.27938329917E+03 -0.89414004831E+03  0.13409333780E+04  0.90421126691E+03 0.  0.
         23    2    4    4    0    0 -0.10845081868E+03 -0.77361580854E+02 -0.83894716974E+03  0.85442928519E+03  0.92036164126E+02 0.  0.
         23    2    4    4    0    0  0.42932907474E+03 -0.20202171831E+03 -0.55192878573E+02  0.48650409282E+03  0.92215776321E+02 0.  0.
          4    1    3    3  502    0 -0.37516658879E+02  0.84408911295E+01 -0.27795135004E+01  0.38554818529E+02  0.00000000000E+00 0. -1.
         -3    1    3    3    0  502 -0.28336159718E+03  0.27094240804E+03  0.12416998545E+03  0.41124417141E+03  0.00000000000E+00 0.  1.
         11    1    5    5    0    0 -0.37766326152E+02 -0.52239899605E+02 -0.61244142002E+03  0.61582448430E+03  0.00000000000E+00 0.  1.
        -11    1    5    5    0    0 -0.70684492525E+02 -0.25121681249E+02 -0.22650574972E+03  0.23860480089E+03  0.00000000000E+00 0. -1.
          3    1    6    6  503    0  0.34232776575E+03 -0.12717396583E+03 -0.66461355743E+02  0.37118543694E+03  0.00000000000E+00 0. -1.
         -3    1    6    6    0  503  0.87001308993E+02 -0.74847752482E+02  0.11268477170E+02  0.11531865589E+03  0.00000000000E+00 0.  1.
<mgrwt>
<rscale>  0 0.16154196E+04</rscale>
<asrwt>0</asrwt>
<pdfrwt beam="1">  1        2 0.19719092E+00 0.16154196E+04</pdfrwt>
<pdfrwt beam="2">  1       -1 0.78306368E-01 0.16154196E+04</pdfrwt>
<totfact> 0.30204924E+01</totfact>
</mgrwt>
</event>
<event>
12    6  0.8914180E-008  0.4157017E+04  0.7818608E-02  0.7973599E-01
         -1   -1    0    0    0  501 -0.00000000000E+00  0.00000000000E+00  0.15550502459E+04  0.15550502459E+04  0.00000000000E+00 0.  1.
          2   -1    0    0  501    0  0.00000000000E+00 -0.00000000000E+00 -0.27781726773E+04  0.27781726773E+04  0.00000000000E+00 0. -1.
         24    2    1    2    0    0 -0.15704173954E+04 -0.11780168939E+04 -0.30426913632E+03  0.19882170782E+04  0.80578190112E+02 0.  0.
        254    2    1    2    0    0  0.15704173954E+04  0.11780168939E+04 -0.91885329514E+03  0.23450058450E+04  0.89488906420E+03 0.  0.
         23    2    4    4    0    0  0.10502324522E+04  0.38330743326E+03 -0.81227178003E+03  0.13848712987E+04  0.90389585550E+02 0.  0.
         23    2    4    4    0    0  0.52018494321E+03  0.79470946060E+03 -0.10658151511E+03  0.96013454637E+03  0.91341260442E+02 0.  0.
          2    1    3    3  502    0 -0.13281345410E+04 -0.10215126943E+04 -0.23910701669E+03  0.16925134295E+04  0.00000000000E+00 0. -1.
         -1    1    3    3    0  502 -0.24228285442E+03 -0.15650419955E+03 -0.65162119631E+02  0.29570364871E+03  0.00000000000E+00 0.  1.
         11    1    5    5    0    0  0.46360285433E+03  0.17954396928E+03 -0.41557565703E+03  0.64797127264E+03  0.00000000000E+00 0.  1.
        -11    1    5    5    0    0  0.58662959787E+03  0.20376346398E+03 -0.39669612300E+03  0.73690002602E+03  0.00000000000E+00 0. -1.
          4    1    6    6  503    0  0.15090960336E+03  0.29332595806E+03 -0.63705950356E+02  0.33596469185E+03  0.00000000000E+00 0. -1.
         -4    1    6    6    0  503  0.36927533984E+03  0.50138350255E+03 -0.42875564753E+02  0.62416985453E+03  0.00000000000E+00 0.  1.
<mgrwt>
<rscale>  0 0.41570173E+04</rscale>
<asrwt>0</asrwt>
<pdfrwt beam="1">  1        2 0.42741118E+00 0.41570173E+04</pdfrwt>
<pdfrwt beam="2">  1       -1 0.23923850E+00 0.41570173E+04</pdfrwt>
<totfact> 0.17298621E-01</totfact>
</mgrwt>
</event>
<event>
12    6  0.8914180E-008  0.2305807E+04  0.7818608E-02  0.8475635E-01
          2   -1    0    0  501    0  0.00000000000E+00  0.00000000000E+00  0.19605203446E+04  0.19605203446E+04  0.00000000000E+00 0. -1.
         -1   -1    0    0    0  501 -0.00000000000E+00 -0.00000000000E+00 -0.67797631759E+03  0.67797631759E+03  0.00000000000E+00 0.  1.
         24    2    1    2    0    0  0.70469585702E+03 -0.26609334826E+03 -0.16497235240E+03  0.77515290181E+03  0.79020397634E+02 0.  0.
        254    2    1    2    0    0 -0.70469585702E+03  0.26609334826E+03  0.14475163794E+04  0.18633437603E+04  0.89963569282E+03 0.  0.
         23    2    4    4    0    0  0.11366264358E+03  0.31690413863E+03  0.43966419382E+03  0.56097409249E+03  0.89665486609E+02 0.  0.
         23    2    4    4    0    0 -0.81835850060E+03 -0.50810790372E+02  0.10078521855E+04  0.13023696679E+04  0.90046387656E+02 0.  0.
          4    1    3    3  502    0  0.31327621069E+03 -0.15026267701E+03 -0.10210718268E+03  0.36214186867E+03  0.00000000000E+00 0. -1.
         -3    1    3    3    0  502  0.39141964632E+03 -0.11583067124E+03 -0.62865169715E+02  0.41301103314E+03  0.00000000000E+00 0.  1.
         11    1    5    5    0    0  0.76238589414E+02  0.29508303653E+03  0.39250860011E+03  0.49693995827E+03  0.00000000000E+00 0.  1.
        -11    1    5    5    0    0  0.37424054167E+02  0.21821102101E+02  0.47155593709E+02  0.64034134219E+02  0.00000000000E+00 0. -1.
          1    1    6    6  503    0 -0.10081170797E+02 -0.10046948066E+02  0.28814324903E+02  0.32137773565E+02  0.00000000000E+00 0. -1.
         -1    1    6    6    0  503 -0.80827732980E+03 -0.40763842306E+02  0.97903786064E+03  0.12702318943E+04  0.00000000000E+00 0.  1.
<mgrwt>
<rscale>  0 0.23058069E+04</rscale>
<asrwt>0</asrwt>
<pdfrwt beam="1">  1        2 0.30161851E+00 0.23058069E+04</pdfrwt>
<pdfrwt beam="2">  1       -1 0.10430405E+00 0.23058069E+04</pdfrwt>
<totfact> 0.62669201E+00</totfact>
</mgrwt>
</event>
<event>
12    6  0.8914180E-008  0.1112244E+04  0.7818608E-02  0.9193340E-01
          2   -1    0    0  501    0  0.00000000000E+00  0.00000000000E+00  0.16894750799E+04  0.16894750799E+04  0.00000000000E+00 0. -1.
         -1   -1    0    0    0  501 -0.00000000000E+00 -0.00000000000E+00 -0.18305776948E+03  0.18305776948E+03  0.00000000000E+00 0.  1.
         24    2    1    2    0    0 -0.15871386982E+03 -0.14492886403E+02  0.41844199010E+03  0.45492696351E+03  0.80403400521E+02 0.  0.
        254    2    1    2    0    0  0.15871386982E+03  0.14492886403E+02  0.10879753203E+04  0.14176058859E+04  0.89471560497E+03 0.  0.
         23    2    4    4    0    0 -0.16901429002E+03 -0.23628288521E+03  0.66128175988E+02  0.31177522530E+03  0.91844560946E+02 0.  0.
         23    2    4    4    0    0  0.32772815984E+03  0.25077577161E+03  0.10218471443E+04  0.11058306606E+04  0.91627665560E+02 0.  0.
          2    1    3    3  502    0 -0.70506439731E+02 -0.27082872253E+02  0.28222505083E+03  0.29215684029E+03  0.00000000000E+00 0. -1.
         -1    1    3    3    0  502 -0.88207430091E+02  0.12589985850E+02  0.13621693927E+03  0.16277012321E+03  0.00000000000E+00 0.  1.
         11    1    5    5    0    0 -0.33734620855E+02 -0.10920256327E+03  0.52187362309E+02  0.12564531529E+03  0.00000000000E+00 0. -1.
        -11    1    5    5    0    0 -0.13527966917E+03 -0.12708032194E+03  0.13940813678E+02  0.18612991001E+03  0.00000000000E+00 0.  1.
          1    1    6    6  503    0  0.28393064647E+02  0.63612175503E+02  0.17280760485E+03  0.18632000238E+03  0.00000000000E+00 0. -1.
         -1    1    6    6    0  503  0.29933509520E+03  0.18716359611E+03  0.84903953947E+03  0.91951065818E+03  0.00000000000E+00 0.  1.
<mgrwt>
<rscale>  0 0.11122437E+04</rscale>
<asrwt>0</asrwt>
<pdfrwt beam="1">  1        2 0.25991923E+00 0.11122437E+04</pdfrwt>
<pdfrwt beam="2">  1       -1 0.28162735E-01 0.11122437E+04</pdfrwt>
<totfact> 0.12805073E+02</totfact>
</mgrwt>
</event>
<event>
12    6  0.8914180E-008  0.1623045E+04  0.7818608E-02  0.8806514E-01
         -1   -1    0    0    0  501 -0.00000000000E+00  0.00000000000E+00  0.19713668564E+03  0.19713668564E+03  0.00000000000E+00 0.  1.
          2   -1    0    0  501    0  0.00000000000E+00 -0.00000000000E+00 -0.33406723929E+04  0.33406723929E+04  0.00000000000E+00 0. -1.
         24    2    1    2    0    0  0.10664689673E+03  0.53165787424E+03 -0.86332762461E+03  0.10226574487E+04  0.80374212663E+02 0.  0.
        254    2    1    2    0    0 -0.10664689673E+03 -0.53165787424E+03 -0.22802080826E+04  0.25151516299E+04  0.91247200794E+03 0.  0.
         23    2    4    4    0    0 -0.25340913970E+03 -0.67971257506E+03 -0.21047727945E+04  0.22280929978E+04  0.90025073176E+02 0.  0.
         23    2    4    4    0    0  0.14676224297E+03  0.14805470082E+03 -0.17543528814E+03  0.28705863203E+03  0.90364636344E+02 0.  0.
          2    1    3    3  502    0  0.97325143089E+02  0.45381438158E+03 -0.68030503917E+03  0.82355001228E+03  0.00000000000E+00 0. -1.
         -1    1    3    3    0  502  0.93217536431E+01  0.77843492657E+02 -0.18302258544E+03  0.19910743638E+03  0.00000000000E+00 0.  1.
         11    1    5    5    0    0 -0.18168714145E+02 -0.12981635690E+03 -0.44172967837E+03  0.46076837722E+03  0.00000000000E+00 0. -1.
        -11    1    5    5    0    0 -0.23524042556E+03 -0.54989621816E+03 -0.16630431161E+04  0.17673246206E+04  0.00000000000E+00 0.  1.
          1    1    6    6  503    0 -0.57256058136E+01 -0.50973936911E+01  0.14233932317E+01  0.77969245646E+01  0.00000000000E+00 0. -1.
         -1    1    6    6    0  503  0.15248784878E+03  0.15315209451E+03 -0.17685868138E+03  0.27926170747E+03  0.00000000000E+00 0.  1.
<mgrwt>
<rscale>  0 0.16230454E+04</rscale>
<asrwt>0</asrwt>
<pdfrwt beam="1">  1        2 0.51394960E+00 0.16230454E+04</pdfrwt>
<pdfrwt beam="2">  1       -1 0.30328721E-01 0.16230454E+04</pdfrwt>
<totfact> 0.11519843E+01</totfact>
</mgrwt>
</event>
<event>
12    6  0.8914180E-008  0.1755518E+04  0.7818608E-02  0.8730319E-01
         -1   -1    0    0    0  501 -0.00000000000E+00  0.00000000000E+00  0.44612502929E+03  0.44612502929E+03  0.00000000000E+00 0.  1.
          2   -1    0    0  501    0  0.00000000000E+00 -0.00000000000E+00 -0.17270056446E+04  0.17270056446E+04  0.00000000000E+00 0. -1.
         24    2    1    2    0    0 -0.61221133152E+03 -0.66276379456E+02 -0.53431929450E+03  0.81904108298E+03  0.78332076610E+02 0.  0.
        254    2    1    2    0    0  0.61221133152E+03  0.66276379456E+02 -0.74656132084E+03  0.13540895909E+04  0.94710587666E+03 0.  0.
         23    2    4    4    0    0  0.82574045915E+03 -0.93500902700E+02 -0.62853131893E+03  0.10459453140E+04  0.91434437439E+02 0.  0.
         23    2    4    4    0    0 -0.21352912763E+03  0.15977728216E+03 -0.11803000191E+03  0.30814427692E+03  0.99490430746E+02 0.  0.
          2    1    3    3  502    0 -0.46118581838E+03 -0.46849624866E+02 -0.35554471265E+03  0.58420825834E+03  0.00000000000E+00 0. -1.
         -1    1    3    3    0  502 -0.15102551314E+03 -0.19426754590E+02 -0.17877458185E+03  0.23483282464E+03  0.00000000000E+00 0.  1.
         11    1    5    5    0    0  0.93552392768E+02 -0.10649374390E+02 -0.37542261774E+02  0.10136508663E+03  0.00000000000E+00 0. -1.
        -11    1    5    5    0    0  0.73218806638E+03 -0.82851528310E+02 -0.59098905716E+03  0.94458022739E+03  0.00000000000E+00 0.  1.
          4    1    6    6  503    0 -0.10107477906E+03  0.10365408380E+03 -0.11070034818E+03  0.18224940916E+03  0.00000000000E+00 0. -1.
         -4    1    6    6    0  503 -0.11245434858E+03  0.56123198354E+02 -0.73296537318E+01  0.12589486777E+03  0.00000000000E+00 0.  1.
<mgrwt>
<rscale>  0 0.17555175E+04</rscale>
<asrwt>0</asrwt>
<pdfrwt beam="1">  1        2 0.26569318E+00 0.17555175E+04</pdfrwt>
<pdfrwt beam="2">  1       -1 0.68634618E-01 0.17555175E+04</pdfrwt>
<totfact> 0.21962833E+01</totfact>
</mgrwt>
</event>
<event>
12    6  0.8914180E-008  0.1724306E+04  0.7818608E-02  0.8747622E-01
          2   -1    0    0  501    0  0.00000000000E+00  0.00000000000E+00  0.22718188631E+04  0.22718188631E+04  0.00000000000E+00 0. -1.
         -1   -1    0    0    0  501 -0.00000000000E+00 -0.00000000000E+00 -0.32718628260E+03  0.32718628260E+03  0.00000000000E+00 0.  1.
         24    2    1    2    0    0 -0.31810809231E+03  0.34066504264E+03  0.13179176909E+04  0.14001611376E+04  0.79364612446E+02 0.  0.
        254    2    1    2    0    0  0.31810809231E+03 -0.34066504264E+03  0.62671488960E+03  0.11988440081E+04  0.90951084278E+03 0.  0.
         23    2    4    4    0    0  0.45361874874E+03 -0.77024881296E+02 -0.32142702437E+02  0.47051521335E+03  0.92997909269E+02 0.  0.
         23    2    4    4    0    0 -0.13551065643E+03 -0.26364016134E+03  0.65885759204E+03  0.72832879471E+03  0.92196713252E+02 0.  0.
          4    1    3    3  502    0 -0.24726743248E+03  0.30743521035E+03  0.10946501430E+04  0.11635791883E+04  0.00000000000E+00 0. -1.
         -1    1    3    3    0  502 -0.70840659831E+02  0.33229832283E+02  0.22326754785E+03  0.23658194935E+03  0.00000000000E+00 0.  1.
         11    1    5    5    0    0  0.18404145333E+03  0.14365961606E+02 -0.18782171087E+02  0.18555432452E+03  0.00000000000E+00 0. -1.
        -11    1    5    5    0    0  0.26957729541E+03 -0.91390842902E+02 -0.13360531351E+02  0.28496088883E+03  0.00000000000E+00 0.  1.
          3    1    6    6  503    0  0.11516504389E+02 -0.11538899190E+02  0.59519835179E+02  0.61712128853E+02  0.00000000000E+00 0. -1.
         -3    1    6    6    0  503 -0.14702716082E+03 -0.25210126215E+03  0.59933775686E+03  0.66661666585E+03  0.00000000000E+00 0.  1.
<mgrwt>
<rscale>  0 0.17243062E+04</rscale>
<asrwt>0</asrwt>
<pdfrwt beam="1">  1        2 0.34951058E+00 0.17243062E+04</pdfrwt>
<pdfrwt beam="2">  1       -1 0.50336353E-01 0.17243062E+04</pdfrwt>
<totfact> 0.20172533E+01</totfact>
</mgrwt>
</event>
<event>
12    6  0.8914180E-008  0.1543156E+04  0.7818608E-02  0.8856251E-01
         -1   -1    0    0    0  501 -0.00000000000E+00  0.00000000000E+00  0.55353738085E+03  0.55353738085E+03  0.00000000000E+00 0.  1.
          2   -1    0    0  501    0  0.00000000000E+00 -0.00000000000E+00 -0.10755062502E+04  0.10755062502E+04  0.00000000000E+00 0. -1.
         24    2    1    2    0    0  0.15704908920E+03 -0.28869248692E+03  0.24600713342E+03  0.41855451635E+03  0.81612529894E+02 0.  0.
        254    2    1    2    0    0 -0.15704908920E+03  0.28869248692E+03 -0.76797600277E+03  0.12104891147E+04  0.87606448825E+03 0.  0.
         23    2    4    4    0    0 -0.33898425259E+03  0.26806819921E+03 -0.87106464456E+03  0.97658382918E+03  0.90506781435E+02 0.  0.
         23    2    4    4    0    0  0.18193516339E+03  0.20624287712E+02  0.10308864180E+03  0.23390528552E+03  0.10275528991E+03 0.  0.
          4    1    3    3  502    0  0.13465766788E+03 -0.18484282242E+03  0.13823374569E+03  0.26722298735E+03  0.00000000000E+00 0. -1.
         -1    1    3    3    0  502  0.22391421315E+02 -0.10384966450E+03  0.10777338773E+03  0.15133152899E+03  0.00000000000E+00 0.  1.
         11    1    5    5    0    0 -0.46294144808E+01 -0.71153267552E+01 -0.18123633844E+02  0.20013132114E+02  0.00000000000E+00 0.  1.
        -11    1    5    5    0    0 -0.33435483811E+03  0.27518352596E+03 -0.85294101072E+03  0.95657069707E+03  0.00000000000E+00 0. -1.
          1    1    6    6  503    0  0.13779335007E+03  0.29653093212E+02  0.12066422510E+03  0.18554290199E+03  0.00000000000E+00 0. -1.
         -1    1    6    6    0  503  0.44141813323E+02 -0.90288054994E+01 -0.17575583303E+02  0.48362383529E+02  0.00000000000E+00 0.  1.
<mgrwt>
<rscale>  0 0.15431564E+04</rscale>
<asrwt>0</asrwt>
<pdfrwt beam="1">  1        2 0.16546250E+00 0.15431564E+04</pdfrwt>
<pdfrwt beam="2">  1       -1 0.85159598E-01 0.15431564E+04</pdfrwt>
<totfact> 0.33802267E+01</totfact>
</mgrwt>
</event>
<event>
12    6  0.8914180E-008  0.2091563E+04  0.7818608E-02  0.8564969E-01
          2   -1    0    0  501    0  0.00000000000E+00  0.00000000000E+00  0.14711440503E+04  0.14711440503E+04  0.00000000000E+00 0. -1.
         -1   -1    0    0    0  501 -0.00000000000E+00 -0.00000000000E+00 -0.74340742479E+03  0.74340742479E+03  0.00000000000E+00 0.  1.
         24    2    1    2    0    0  0.73959426975E+03 -0.24235554897E+03  0.65496161309E+03  0.10202786262E+04  0.79106666016E+02 0.  0.
        254    2    1    2    0    0 -0.73959426975E+03  0.24235554897E+03  0.72775012393E+02  0.11942728488E+04  0.90291502314E+03 0.  0.
         23    2    4    4    0    0 -0.31951927814E+03  0.94573145752E+02 -0.40672198086E+03  0.53389015703E+03  0.92624408557E+02 0.  0.
         23    2    4    4    0    0 -0.42007499161E+03  0.14778240322E+03  0.47949699326E+03  0.66038269177E+03  0.88799187914E+02 0.  0.
          2    1    3    3  502    0  0.62332779505E+03 -0.17315672506E+03  0.53657043457E+03  0.84049308312E+03  0.00000000000E+00 0. -1.
         -1    1    3    3    0  502  0.11626647470E+03 -0.69198823907E+02  0.11839117851E+03  0.17978554313E+03  0.00000000000E+00 0.  1.
         11    1    5    5    0    0 -0.18277198311E+03  0.96617043861E+02 -0.21376906925E+03  0.29738471034E+03  0.00000000000E+00 0. -1.
        -11    1    5    5    0    0 -0.13674729503E+03 -0.20438981088E+01 -0.19295291161E+03  0.23650544670E+03  0.00000000000E+00 0.  1.
          3    1    6    6  503    0 -0.36223547432E+03  0.92479685814E+02  0.38732605007E+03  0.53832007227E+03  0.00000000000E+00 0. -1.
         -3    1    6    6    0  503 -0.57839517291E+02  0.55302717403E+02  0.92170943184E+02  0.12206261950E+03  0.00000000000E+00 0.  1.
<mgrwt>
<rscale>  0 0.20915634E+04</rscale>
<asrwt>0</asrwt>
<pdfrwt beam="1">  1        2 0.22632985E+00 0.20915634E+04</pdfrwt>
<pdfrwt beam="2">  1       -1 0.11437037E+00 0.20915634E+04</pdfrwt>
<totfact> 0.96324158E+00</totfact>
</mgrwt>
</event>
<event>
12    6  0.8914180E-008  0.1556605E+04  0.7818608E-02  0.8847660E-01
          2   -1    0    0  501    0  0.00000000000E+00  0.00000000000E+00  0.75890899367E+03  0.75890899367E+03  0.00000000000E+00 0. -1.
         -1   -1    0    0    0  501 -0.00000000000E+00 -0.00000000000E+00 -0.79819123154E+03  0.79819123154E+03  0.00000000000E+00 0.  1.
         24    2    1    2    0    0  0.16733742040E+03 -0.16147314767E+02 -0.50520408106E+03  0.53831747373E+03  0.79322071108E+02 0.  0.
        254    2    1    2    0    0 -0.16733742040E+03  0.16147314767E+02  0.46592184318E+03  0.10187827515E+04  0.89026545633E+03 0.  0.
         23    2    4    4    0    0  0.22274518766E+03  0.32237057182E+03  0.20528125811E+03  0.45143757176E+03  0.90095960278E+02 0.  0.
         23    2    4    4    0    0 -0.39008260806E+03 -0.30622325706E+03  0.26064058507E+03  0.56734517973E+03  0.89498123449E+02 0.  0.
          2    1    3    3  502    0  0.57458287708E+02  0.30189600577E+02 -0.14438764179E+03  0.15830558395E+03  0.00000000000E+00 0. -1.
         -1    1    3    3    0  502  0.10987913269E+03 -0.46336915344E+02 -0.36081643927E+03  0.38001188977E+03  0.00000000000E+00 0.  1.
         11    1    5    5    0    0  0.80801151475E+02  0.13277725628E+03  0.13085134858E+03  0.20317652741E+03  0.00000000000E+00 0. -1.
        -11    1    5    5    0    0  0.14194403619E+03  0.18959331554E+03  0.74429909530E+02  0.24826104435E+03  0.00000000000E+00 0.  1.
          3    1    6    6  503    0 -0.22842808295E+03 -0.16866505407E+03  0.99609334864E+02  0.30091412253E+03  0.00000000000E+00 0. -1.
         -3    1    6    6    0  503 -0.16165452511E+03 -0.13755820299E+03  0.16103125020E+03  0.26643105720E+03  0.00000000000E+00 0.  1.
<mgrwt>
<rscale>  0 0.15566046E+04</rscale>
<asrwt>0</asrwt>
<pdfrwt beam="1">  1        2 0.11675523E+00 0.15566046E+04</pdfrwt>
<pdfrwt beam="2">  1       -1 0.12279865E+00 0.15566046E+04</pdfrwt>
<totfact> 0.23733560E+01</totfact>
</mgrwt>
</event>
<event>
12    6  0.8914180E-008  0.2336716E+04  0.7818608E-02  0.8463584E-01
         -3   -1    0    0    0  501 -0.00000000000E+00  0.00000000000E+00  0.97738361976E+03  0.97738361976E+03  0.00000000000E+00 0.  1.
          2   -1    0    0  501    0  0.00000000000E+00 -0.00000000000E+00 -0.13966470545E+04  0.13966470545E+04  0.00000000000E+00 0. -1.
         24    2    1    2    0    0 -0.33432738952E+03  0.16872037977E+03 -0.11122948721E+04  0.11763364629E+04  0.79537547623E+02 0.  0.
        254    2    1    2    0    0  0.33432738952E+03 -0.16872037977E+03  0.69303143735E+03  0.11976942114E+04  0.90218483743E+03 0.  0.
         23    2    4    4    0    0  0.51224681811E+03 -0.22678859758E+03  0.11106246576E+03  0.57958573897E+03  0.98766830760E+02 0.  0.
         23    2    4    4    0    0 -0.17791942858E+03  0.58068217813E+02  0.58196897159E+03  0.61810847242E+03  0.91339798539E+02 0.  0.
          2    1    3    3  502    0 -0.30012236368E+03  0.17570852774E+03 -0.10201185917E+04  0.10777703193E+04  0.00000000000E+00 0. -1.
         -1    1    3    3    0  502 -0.34205025850E+02 -0.69881479675E+01 -0.92176280315E+02  0.98566143569E+02  0.00000000000E+00 0.  1.
         11    1    5    5    0    0  0.49852137585E+03 -0.19751789187E+03  0.10900112987E+03  0.54719112392E+03  0.00000000000E+00 0.  1.
        -11    1    5    5    0    0  0.13725442261E+02 -0.29270705718E+02  0.20613358938E+01  0.32394615049E+02  0.00000000000E+00 0. -1.
          4    1    6    6  503    0  0.54185065192E+01 -0.76876263805E+01  0.64782440640E+02  0.65461625610E+02  0.00000000000E+00 0. -1.
         -4    1    6    6    0  503 -0.18333793510E+03  0.65755844194E+02  0.51718653095E+03  0.55264684681E+03  0.00000000000E+00 0.  1.
<mgrwt>
<rscale>  0 0.23367156E+04</rscale>
<asrwt>0</asrwt>
<pdfrwt beam="1">  1        2 0.21486878E+00 0.23367156E+04</pdfrwt>
<pdfrwt beam="2">  1       -3 0.15036671E+00 0.23367156E+04</pdfrwt>
<totfact> 0.26664613E+00</totfact>
</mgrwt>
</event>
<event>
12    6  0.8914180E-008  0.2197663E+04  0.7818608E-02  0.8519401E-01
         -1   -1    0    0    0  501 -0.00000000000E+00  0.00000000000E+00  0.54227664187E+03  0.54227664187E+03  0.00000000000E+00 0.  1.
          2   -1    0    0  501    0  0.00000000000E+00 -0.00000000000E+00 -0.22265961048E+04  0.22265961048E+04  0.00000000000E+00 0. -1.
         24    2    1    2    0    0 -0.79662045371E+03 -0.31126947789E+03 -0.30093009770E+03  0.91028790312E+03  0.81069770716E+02 0.  0.
        254    2    1    2    0    0  0.79662045371E+03  0.31126947789E+03 -0.13833893652E+04  0.18585848435E+04  0.89948799308E+03 0.  0.
         23    2    4    4    0    0  0.42848070876E+03  0.29194726671E+03 -0.13817863218E+04  0.14785000947E+04  0.88318550618E+02 0.  0.
         23    2    4    4    0    0  0.36813974495E+03  0.19322211182E+02 -0.16030433492E+01  0.38008474885E+03  0.92529059779E+02 0.  0.
          4    1    3    3  502    0 -0.35182793481E+03 -0.10854159700E+03 -0.97879606824E+02  0.38097846582E+03  0.00000000000E+00 0. -1.
         -3    1    3    3    0  502 -0.44479251890E+03 -0.20272788089E+03 -0.20305049088E+03  0.52930943729E+03  0.00000000000E+00 0.  1.
         11    1    5    5    0    0  0.35717765721E+03  0.24311933006E+03 -0.12320520643E+04  0.13056167802E+04  0.00000000000E+00 0. -1.
        -11    1    5    5    0    0  0.71303051545E+02  0.48827936647E+02 -0.14973425754E+03  0.17288331452E+03  0.00000000000E+00 0.  1.
          2    1    6    6  503    0  0.15504476080E+03  0.46737908781E+02  0.24031464508E+02  0.16370956373E+03  0.00000000000E+00 0. -1.
         -2    1    6    6    0  503  0.21309498414E+03 -0.27415697599E+02 -0.25634507857E+02  0.21637518512E+03  0.00000000000E+00 0.  1.
<mgrwt>
<rscale>  0 0.21976634E+04</rscale>
<asrwt>0</asrwt>
<pdfrwt beam="1">  1        2 0.34255325E+00 0.21976634E+04</pdfrwt>
<pdfrwt beam="2">  1       -1 0.83427174E-01 0.21976634E+04</pdfrwt>
<totfact> 0.73988397E+00</totfact>
</mgrwt>
</event>
<event>
12    6  0.9055184E-008  0.2090680E+04  0.7818608E-02  0.8565360E-01
          2   -1    0    0  501    0  0.00000000000E+00  0.00000000000E+00  0.87430732625E+03  0.87430732625E+03  0.00000000000E+00 0. -1.
         -1   -1    0    0    0  501 -0.00000000000E+00 -0.00000000000E+00 -0.12498305191E+04  0.12498305191E+04  0.00000000000E+00 0.  1.
         24    2    1    2    0    0  0.77201757591E+03 -0.17649538476E+03  0.12647477648E+03  0.80562049587E+03  0.76594751364E+02 0.  0.
        254    2    1    2    0    0 -0.77201757591E+03  0.17649538476E+03 -0.50199796935E+03  0.13185173495E+04  0.92699745487E+03 0.  0.
         23    2    4    4    0    0 -0.39563100428E+03  0.47381161711E+03 -0.54504762485E+03  0.82836330052E+03  0.89930552287E+02 0.  0.
         23    2    4    4    0    0 -0.37638657163E+03 -0.29731623235E+03  0.43049655503E+02  0.49015404898E+03  0.91290336657E+02 0.  0.
          4    1    3    3  502    0  0.67609958462E+03 -0.15921613235E+03  0.85277194253E+02  0.69980899179E+03  0.00000000000E+00 0. -1.
         -3    1    3    3    0  502  0.95917991282E+02 -0.17279252406E+02  0.41197582222E+02  0.10581150408E+03  0.00000000000E+00 0.  1.
         11    1    5    5    0    0 -0.35984062884E+03  0.39099716362E+03 -0.44007520863E+03  0.68994945422E+03  0.00000000000E+00 0. -1.
        -11    1    5    5    0    0 -0.35790375438E+02  0.82814453493E+02 -0.10497241622E+03  0.13841384630E+03  0.00000000000E+00 0.  1.
          3    1    6    6  503    0 -0.36247437554E+03 -0.30148841360E+03  0.33264311363E+02  0.47264093229E+03  0.00000000000E+00 0. -1.
         -3    1    6    6    0  503 -0.13912196083E+02  0.41721812492E+01  0.97853441404E+01  0.17513116689E+02  0.00000000000E+00 0.  1.
<mgrwt>
<rscale>  0 0.20906803E+04</rscale>
<asrwt>0</asrwt>
<pdfrwt beam="1">  1        2 0.13450882E+00 0.20906803E+04</pdfrwt>
<pdfrwt beam="2">  1       -1 0.19228162E+00 0.20906803E+04</pdfrwt>
<totfact> 0.54707349E+00</totfact>
</mgrwt>
</event>
<event>
12    6  0.8914180E-008  0.1760902E+04  0.7818608E-02  0.8727372E-01
         -1   -1    0    0    0  501 -0.00000000000E+00  0.00000000000E+00  0.70915704146E+03  0.70915704146E+03  0.00000000000E+00 0.  1.
          2   -1    0    0  501    0  0.00000000000E+00 -0.00000000000E+00 -0.10931202301E+04  0.10931202301E+04  0.00000000000E+00 0. -1.
         24    2    1    2    0    0 -0.42282818508E+03  0.17188040825E+03 -0.60505440232E+03  0.76196726867E+03  0.78592238347E+02 0.  0.
        254    2    1    2    0    0  0.42282818508E+03 -0.17188040825E+03  0.22109121369E+03  0.10403100029E+04  0.90831548952E+03 0.  0.
         23    2    4    4    0    0 -0.39134601700E+02 -0.10543545814E+02  0.47206991383E+03  0.48273564645E+03  0.92417624986E+02 0.  0.
         23    2    4    4    0    0  0.46196278678E+03 -0.16133686244E+03 -0.25097870014E+03  0.55757435643E+03  0.91976385440E+02 0.  0.
          4    1    3    3  502    0 -0.37383650278E+03  0.13671608795E+03 -0.55825190046E+03  0.68563124482E+03  0.00000000000E+00 0. -1.
         -3    1    3    3    0  502 -0.48991682298E+02  0.35164320302E+02 -0.46802501861E+02  0.76336023850E+02  0.00000000000E+00 0.  1.
         11    1    5    5    0    0 -0.28732395181E+02 -0.16356817163E+02  0.46808690036E+02  0.57307499190E+02  0.00000000000E+00 0.  1.
        -11    1    5    5    0    0 -0.10402206520E+02  0.58132713491E+01  0.42526122379E+03  0.42542814726E+03  0.00000000000E+00 0. -1.
          3    1    6    6  503    0  0.43794001592E+03 -0.13298369059E+03 -0.24731745806E+03  0.52023268310E+03  0.00000000000E+00 0. -1.
         -3    1    6    6    0  503  0.24022770855E+02 -0.28353171850E+02 -0.36612420840E+01  0.37341673330E+02  0.00000000000E+00 0.  1.
<mgrwt>
<rscale>  0 0.17609019E+04</rscale>
<asrwt>0</asrwt>
<pdfrwt beam="1">  1        2 0.16817234E+00 0.17609019E+04</pdfrwt>
<pdfrwt beam="2">  1       -1 0.10910108E+00 0.17609019E+04</pdfrwt>
<totfact> 0.18494225E+01</totfact>
</mgrwt>
</event>
<event>
12    6  0.8914180E-008  0.1782822E+04  0.7818608E-02  0.8715488E-01
         -1   -1    0    0    0  501 -0.00000000000E+00  0.00000000000E+00  0.42756875861E+03  0.42756875861E+03  0.00000000000E+00 0.  1.
          2   -1    0    0  501    0  0.00000000000E+00 -0.00000000000E+00 -0.18584468523E+04  0.18584468523E+04  0.00000000000E+00 0. -1.
         24    2    1    2    0    0  0.36462791477E+03 -0.60716134662E+02 -0.12314767194E+04  0.12882608228E+04  0.80256288981E+02 0.  0.
        254    2    1    2    0    0 -0.36462791477E+03  0.60716134662E+02 -0.19940137434E+03  0.99775478815E+03  0.90504902848E+03 0.  0.
         23    2    4    4    0    0 -0.51321060596E+00  0.33891674011E+03 -0.36078974282E+03  0.50331163867E+03  0.91041457509E+02 0.  0.
         23    2    4    4    0    0 -0.36411470417E+03 -0.27820060545E+03  0.16138836847E+03  0.49444314949E+03  0.91938718358E+02 0.  0.
          4    1    3    3  502    0  0.33805232578E+03 -0.77181124620E+02 -0.11161265566E+04  0.11687492422E+04  0.00000000000E+00 0. -1.
         -3    1    3    3    0  502  0.26575588996E+02  0.16464989957E+02 -0.11535016281E+03  0.11951158055E+03  0.00000000000E+00 0.  1.
         11    1    5    5    0    0 -0.45690049733E+02  0.17453578808E+03 -0.18174812237E+03  0.25609119850E+03  0.00000000000E+00 0.  1.
        -11    1    5    5    0    0  0.45176839127E+02  0.16438095203E+03 -0.17904162044E+03  0.24722044017E+03  0.00000000000E+00 0. -1.
          3    1    6    6  503    0 -0.36514425636E+03 -0.25792054914E+03  0.15382786821E+03  0.47277515868E+03  0.00000000000E+00 0. -1.
         -3    1    6    6    0  503  0.10295521955E+01 -0.20280056305E+02  0.75605002657E+01  0.21667990809E+02  0.00000000000E+00 0.  1.
<mgrwt>
<rscale>  0 0.17828223E+04</rscale>
<asrwt>0</asrwt>
<pdfrwt beam="1">  1        2 0.28591491E+00 0.17828223E+04</pdfrwt>
<pdfrwt beam="2">  1       -1 0.65779807E-01 0.17828223E+04</pdfrwt>
<totfact> 0.20196045E+01</totfact>
</mgrwt>
</event>
<event>
12    6  0.8914180E-008  0.1741053E+04  0.7818608E-02  0.8738291E-01
          2   -1    0    0  501    0  0.00000000000E+00  0.00000000000E+00  0.99614323833E+03  0.99614323833E+03  0.00000000000E+00 0. -1.
         -1   -1    0    0    0  501 -0.00000000000E+00 -0.00000000000E+00 -0.76075030349E+03  0.76075030349E+03  0.00000000000E+00 0.  1.
         24    2    1    2    0    0 -0.61311937737E+03  0.14257392663E+03  0.69215346147E+01  0.63458352903E+03  0.80035318523E+02 0.  0.
        254    2    1    2    0    0  0.61311937737E+03 -0.14257392663E+03  0.22847140023E+03  0.11223100128E+04  0.90063193849E+03 0.  0.
         23    2    4    4    0    0  0.69793918211E+03  0.14481181914E+03  0.33222797816E+03  0.79202444647E+03  0.94009198767E+02 0.  0.
         23    2    4    4    0    0 -0.84819804736E+02 -0.28738574576E+03 -0.10375657793E+03  0.33028556632E+03  0.92402173752E+02 0.  0.
          2    1    3    3  502    0 -0.50462780805E+03  0.13384846935E+03  0.31408452398E+02  0.52302115472E+03  0.00000000000E+00 0. -1.
         -3    1    3    3    0  502 -0.10849156932E+03  0.87254572783E+01 -0.24486917783E+02  0.11156237431E+03  0.00000000000E+00 0.  1.
         11    1    5    5    0    0  0.14751155475E+03  0.36829738122E+02  0.30381189892E+02  0.15504549363E+03  0.00000000000E+00 0. -1.
        -11    1    5    5    0    0  0.55042762736E+03  0.10798208101E+03  0.30184678826E+03  0.63697895285E+03  0.00000000000E+00 0.  1.
          1    1    6    6  503    0 -0.24440154511E+02 -0.15920429522E+03 -0.12077053994E+02  0.16152146607E+03  0.00000000000E+00 0. -1.
         -1    1    6    6    0  503 -0.60379650225E+02 -0.12818145055E+03 -0.91679523932E+02  0.16876410025E+03  0.00000000000E+00 0.  1.
<mgrwt>
<rscale>  0 0.17410529E+04</rscale>
<asrwt>0</asrwt>
<pdfrwt beam="1">  1        2 0.15325281E+00 0.17410529E+04</pdfrwt>
<pdfrwt beam="2">  1       -1 0.11703851E+00 0.17410529E+04</pdfrwt>
<totfact> 0.18039534E+01</totfact>
</mgrwt>
</event>
<event>
12    6  0.8914180E-008  0.1528917E+04  0.7818608E-02  0.8865448E-01
         -1   -1    0    0    0  501 -0.00000000000E+00  0.00000000000E+00  0.20582752393E+03  0.20582752393E+03  0.00000000000E+00 0.  1.
          2   -1    0    0  501    0  0.00000000000E+00 -0.00000000000E+00 -0.28392556587E+04  0.28392556587E+04  0.00000000000E+00 0. -1.
         24    2    1    2    0    0  0.31929551717E+03  0.33312657983E+03 -0.12258808688E+04  0.13123501272E+04  0.80969169501E+02 0.  0.
        254    2    1    2    0    0 -0.31929551717E+03 -0.33312657983E+03 -0.14075472660E+04  0.17327330555E+04  0.89902813637E+03 0.  0.
         23    2    4    4    0    0  0.30480458161E+03 -0.12765991031E+03 -0.40589531814E+03  0.53130012889E+03  0.91246545115E+02 0.  0.
         23    2    4    4    0    0 -0.62410009879E+03 -0.20546666952E+03 -0.10016519479E+04  0.12014329266E+04  0.91744028730E+02 0.  0.
          2    1    3    3  502    0  0.22335135294E+03  0.28164672599E+03 -0.92692762011E+03  0.99418585689E+03  0.00000000000E+00 0. -1.
         -1    1    3    3    0  502  0.95944164234E+02  0.51479853841E+02 -0.29895324869E+03  0.31816427031E+03  0.00000000000E+00 0.  1.
         11    1    5    5    0    0  0.11324343189E+03 -0.95978432415E+02 -0.16654713165E+03  0.22310060828E+03  0.00000000000E+00 0.  1.
        -11    1    5    5    0    0  0.19156114973E+03 -0.31681477893E+02 -0.23934818649E+03  0.30819952061E+03  0.00000000000E+00 0. -1.
          4    1    6    6  503    0 -0.32549579836E+03 -0.12689068997E+03 -0.60687073536E+03  0.70024342295E+03  0.00000000000E+00 0. -1.
         -4    1    6    6    0  503 -0.29860430043E+03 -0.78575979556E+02 -0.39478121251E+03  0.50118950363E+03  0.00000000000E+00 0.  1.
<mgrwt>
<rscale>  0 0.15289172E+04</rscale>
<asrwt>0</asrwt>
<pdfrwt beam="1">  1        2 0.43680858E+00 0.15289172E+04</pdfrwt>
<pdfrwt beam="2">  1       -1 0.31665771E-01 0.15289172E+04</pdfrwt>
<totfact> 0.22408693E+01</totfact>
</mgrwt>
</event>
<event>
12    6  0.8914180E-008  0.1775165E+04  0.7818608E-02  0.8719619E-01
         -1   -1    0    0    0  501 -0.00000000000E+00  0.00000000000E+00  0.43578654465E+03  0.43578654465E+03  0.00000000000E+00 0.  1.
          2   -1    0    0  501    0  0.00000000000E+00 -0.00000000000E+00 -0.18077720150E+04  0.18077720150E+04  0.00000000000E+00 0. -1.
         24    2    1    2    0    0 -0.10300791029E+03 -0.17270422030E+03  0.28045948926E+03  0.35407688095E+03  0.79218275761E+02 0.  0.
        254    2    1    2    0    0  0.10300791029E+03  0.17270422030E+03 -0.16524449596E+04  0.18894816787E+04  0.89394031808E+03 0.  0.
         23    2    4    4    0    0  0.54426438143E+02 -0.93044667324E+02  0.61275040273E+02  0.15219996416E+03  0.88264665876E+02 0.  0.
         23    2    4    4    0    0  0.48581472152E+02  0.26574888762E+03 -0.17137199999E+04  0.17372817145E+04  0.91262735900E+02 0.  0.
          2    1    3    3  502    0  0.75018390422E+01 -0.68145779479E+01  0.42362770039E+02  0.43558240862E+02  0.00000000000E+00 0. -1.
         -1    1    3    3    0  502 -0.11050974934E+03 -0.16588964235E+03  0.23809671922E+03  0.31051864009E+03  0.00000000000E+00 0.  1.
         11    1    5    5    0    0  0.13443384165E+02  0.65324027060E+01 -0.14267804383E+02  0.20663182350E+02  0.00000000000E+00 0.  1.
        -11    1    5    5    0    0  0.40983053978E+02 -0.99577070030E+02  0.75542844656E+02  0.13153678181E+03  0.00000000000E+00 0. -1.
          4    1    6    6  503    0  0.24390138559E+02  0.12453426427E+03 -0.53287021141E+03  0.54777214610E+03  0.00000000000E+00 0.  1.
         -4    1    6    6    0  503  0.24191333593E+02  0.14121462336E+03 -0.11808497885E+04  0.11895095684E+04  0.00000000000E+00 0. -1.
<mgrwt>
<rscale>  0 0.17751650E+04</rscale>
<asrwt>0</asrwt>
<pdfrwt beam="1">  1        2 0.27811877E+00 0.17751650E+04</pdfrwt>
<pdfrwt beam="2">  1       -1 0.67044084E-01 0.17751650E+04</pdfrwt>
<totfact> 0.20743790E+01</totfact>
</mgrwt>
</event>
<event>
12    6  0.8914180E-008  0.1933633E+04  0.7818608E-02  0.8638294E-01
          2   -1    0    0  501    0  0.00000000000E+00  0.00000000000E+00  0.65719768883E+03  0.65719768883E+03  0.00000000000E+00 0. -1.
         -1   -1    0    0    0  501 -0.00000000000E+00 -0.00000000000E+00 -0.14223034800E+04  0.14223034800E+04  0.00000000000E+00 0.  1.
         24    2    1    2    0    0 -0.14989845865E+03  0.54554735911E+03 -0.84059095472E+03  0.10164663376E+04  0.80741522046E+02 0.  0.
        254    2    1    2    0    0  0.14989845865E+03 -0.54554735911E+03  0.75485163573E+02  0.10630348312E+04  0.89680185855E+03 0.  0.
         23    2    4    4    0    0  0.14749573049E+03 -0.15448432248E+03 -0.38752391669E+03  0.45039129233E+03  0.84006748484E+02 0.  0.
         23    2    4    4    0    0  0.24027281579E+01 -0.39106303664E+03  0.46300908026E+03  0.61264353888E+03  0.89546778808E+02 0.  0.
          4    1    3    3  502    0 -0.37455135458E+02  0.15542809498E+03 -0.30524154834E+03  0.34457681686E+03  0.00000000000E+00 0. -1.
         -3    1    3    3    0  502 -0.11244332319E+03  0.39011926413E+03 -0.53534940637E+03  0.67188952074E+03  0.00000000000E+00 0.  1.
         11    1    5    5    0    0  0.36616761282E+02 -0.72175850375E+01 -0.29042235799E+02  0.47289874189E+02  0.00000000000E+00 0. -1.
        -11    1    5    5    0    0  0.11087896921E+03 -0.14726673744E+03 -0.35848168089E+03  0.40310141814E+03  0.00000000000E+00 0.  1.
          3    1    6    6  503    0  0.94542563374E+01 -0.30262992164E+02  0.95417023941E+01  0.33110055001E+02  0.00000000000E+00 0. -1.
         -3    1    6    6    0  503 -0.70515281795E+01 -0.36080004447E+03  0.45346737787E+03  0.57953348388E+03  0.00000000000E+00 0.  1.
<mgrwt>
<rscale>  0 0.19336334E+04</rscale>
<asrwt>0</asrwt>
<pdfrwt beam="1">  1        2 0.10110734E+00 0.19336334E+04</pdfrwt>
<pdfrwt beam="2">  1       -1 0.21881592E+00 0.19336334E+04</pdfrwt>
<totfact> 0.53009627E+00</totfact>
</mgrwt>
</event>
<event>
12    6  0.8914180E-008  0.1625887E+04  0.7818608E-02  0.8804801E-01
          2   -1    0    0  501    0  0.00000000000E+00  0.00000000000E+00  0.13094169371E+04  0.13094169371E+04  0.00000000000E+00 0. -1.
         -1   -1    0    0    0  501 -0.00000000000E+00 -0.00000000000E+00 -0.50471074070E+03  0.50471074070E+03  0.00000000000E+00 0.  1.
         24    2    1    2    0    0 -0.46282062404E+03  0.18832055281E+03 -0.64572533957E+01  0.50572023395E+03  0.77741226286E+02 0.  0.
        254    2    1    2    0    0  0.46282062404E+03 -0.18832055281E+03  0.81116344979E+03  0.13084074438E+04  0.89681454950E+03 0.  0.
         23    2    4    4    0    0  0.55432636596E+03 -0.37700055895E+03  0.83868031287E+03  0.10775366555E+04  0.91068299670E+02 0.  0.
         23    2    4    4    0    0 -0.91505741922E+02  0.18868000614E+03 -0.27516863077E+02  0.23087078839E+03  0.92578062508E+02 0.  0.
          2    1    3    3  502    0  0.23324686387E+01  0.82864973099E+00  0.32778157463E+01  0.41074501085E+01  0.00000000000E+00 0. -1.
         -1    1    3    3    0  502 -0.46515309268E+03  0.18749190308E+03 -0.97350691421E+01  0.50161278385E+03  0.00000000000E+00 0.  1.
         11    1    5    5    0    0  0.39026084258E+01  0.38810286505E+01  0.16186035942E+02  0.17096212897E+02  0.00000000000E+00 0. -1.
        -11    1    5    5    0    0  0.55042375753E+03 -0.38088158760E+03  0.82249427693E+03  0.10604404426E+04  0.00000000000E+00 0.  1.
          1    1    6    6  503    0 -0.12140857356E+02  0.66582372014E+02  0.30345048169E+02  0.74171656505E+02  0.00000000000E+00 0. -1.
         -1    1    6    6    0  503 -0.79364884566E+02  0.12209763413E+03 -0.57861911245E+02  0.15669913189E+03  0.00000000000E+00 0.  1.
<mgrwt>
<rscale>  0 0.16258866E+04</rscale>
<asrwt>0</asrwt>
<pdfrwt beam="1">  1        2 0.20144876E+00 0.16258866E+04</pdfrwt>
<pdfrwt beam="2">  1       -1 0.77647807E-01 0.16258866E+04</pdfrwt>
<totfact> 0.29599575E+01</totfact>
</mgrwt>
</event>
<event>
12    6  0.8914180E-008  0.1412366E+04  0.7818608E-02  0.8944916E-01
         -1   -1    0    0    0  501 -0.00000000000E+00  0.00000000000E+00  0.15364410515E+04  0.15364410515E+04  0.00000000000E+00 0.  1.
          2   -1    0    0  501    0  0.00000000000E+00 -0.00000000000E+00 -0.32457765715E+03  0.32457765715E+03  0.00000000000E+00 0. -1.
         24    2    1    2    0    0  0.42353725737E+02  0.23980485394E+00 -0.18439411892E+03  0.20556160711E+03  0.80377158660E+02 0.  0.
        254    2    1    2    0    0 -0.42353725737E+02 -0.23980485394E+00  0.13962575133E+04  0.16554571016E+04  0.88837451341E+03 0.  0.
         23    2    4    4    0    0 -0.10864739391E+03 -0.25818204254E+03  0.13347535372E+04  0.13670119395E+04  0.93233118012E+02 0.  0.
         23    2    4    4    0    0  0.66293668173E+02  0.25794223769E+03  0.61503976069E+02  0.28844516206E+03  0.92134814369E+02 0.  0.
          4    1    3    3  502    0 -0.21732124847E+02  0.11729894144E+02 -0.37705272885E+02  0.45072866231E+02  0.00000000000E+00 0. -1.
         -3    1    3    3    0  502  0.64085850584E+02 -0.11490089290E+02 -0.14668884604E+03  0.16048874088E+03  0.00000000000E+00 0.  1.
         11    1    5    5    0    0 -0.37588811966E+02 -0.93182762104E+02  0.70538421430E+03  0.71250462154E+03  0.00000000000E+00 0.  1.
        -11    1    5    5    0    0 -0.71058581944E+02 -0.16499928044E+03  0.62936932294E+03  0.65450731797E+03  0.00000000000E+00 0. -1.
          2    1    6    6  503    0  0.52088258531E+02  0.80925979091E+02  0.54766708201E+02  0.11073207799E+03  0.00000000000E+00 0. -1.
         -2    1    6    6    0  503  0.14205409642E+02  0.17701625860E+03  0.67372678686E+01  0.17771308407E+03  0.00000000000E+00 0.  1.
<mgrwt>
<rscale>  0 0.14123660E+04</rscale>
<asrwt>0</asrwt>
<pdfrwt beam="1">  1        2 0.49935025E-01 0.14123660E+04</pdfrwt>
<pdfrwt beam="2">  1       -1 0.23637554E+00 0.14123660E+04</pdfrwt>
<totfact> 0.95946618E+00</totfact>
</mgrwt>
</event>
<event>
12    6  0.8914180E-008  0.3677663E+04  0.7818608E-02  0.8072930E-01
         -1   -1    0    0    0  501 -0.00000000000E+00  0.00000000000E+00  0.12938463313E+04  0.12938463313E+04  0.00000000000E+00 0.  1.
          2   -1    0    0  501    0  0.00000000000E+00 -0.00000000000E+00 -0.26133716313E+04  0.26133716313E+04  0.00000000000E+00 0. -1.
         24    2    1    2    0    0 -0.26982410052E+03 -0.43669961637E+03  0.11295415248E+04  0.12434443917E+04  0.82330425821E+02 0.  0.
        254    2    1    2    0    0  0.26982410052E+03  0.43669961637E+03 -0.24490668247E+04  0.26637735709E+04  0.91337271952E+03 0.  0.
         23    2    4    4    0    0  0.31941795211E+03  0.47357955983E+03 -0.24797089890E+04  0.25462767762E+04  0.90902825282E+02 0.  0.
         23    2    4    4    0    0 -0.49593851582E+02 -0.36879943461E+02  0.30642164219E+02  0.11749679466E+03  0.95115057598E+02 0.  0.
          2    1    3    3  502    0 -0.17187978572E+03 -0.32704129696E+03  0.74059352524E+03  0.82763363892E+03  0.00000000000E+00 0. -1.
         -1    1    3    3    0  502 -0.97944314805E+02 -0.10965831941E+03  0.38894799954E+03  0.41581075283E+03  0.00000000000E+00 0.  1.
         11    1    5    5    0    0  0.22063808108E+03  0.38934589209E+03 -0.18544673097E+04  0.19077002881E+04  0.00000000000E+00 0. -1.
        -11    1    5    5    0    0  0.98779871027E+02  0.84233667737E+02 -0.62524167923E+03  0.63857648810E+03  0.00000000000E+00 0.  1.
          1    1    6    6  503    0 -0.41442663264E+02 -0.51787885642E+02  0.56112239285E+02  0.86879588139E+02  0.00000000000E+00 0. -1.
         -1    1    6    6    0  503 -0.81511883180E+01  0.14907942181E+02 -0.25470075065E+02  0.30617206517E+02  0.00000000000E+00 0.  1.
<mgrwt>
<rscale>  0 0.36776630E+04</rscale>
<asrwt>0</asrwt>
<pdfrwt beam="1">  1        2 0.40205717E+00 0.36776630E+04</pdfrwt>
<pdfrwt beam="2">  1       -1 0.19905328E+00 0.36776630E+04</pdfrwt>
<totfact> 0.42011970E-01</totfact>
</mgrwt>
</event>
<event>
12    6  0.8914180E-008  0.2604409E+04  0.7818608E-02  0.8366705E-01
          2   -1    0    0  501    0  0.00000000000E+00  0.00000000000E+00  0.11179167709E+04  0.11179167709E+04  0.00000000000E+00 0. -1.
         -1   -1    0    0    0  501 -0.00000000000E+00 -0.00000000000E+00 -0.15168719247E+04  0.15168719247E+04  0.00000000000E+00 0.  1.
         24    2    1    2    0    0 -0.11823053612E+03  0.26708216015E+01 -0.13275163632E+04  0.13351171304E+04  0.79072524993E+02 0.  0.
        254    2    1    2    0    0  0.11823053612E+03 -0.26708216015E+01  0.92856120945E+03  0.12996715653E+04  0.90162889535E+03 0.  0.
         23    2    4    4    0    0  0.40968493621E+03  0.11146953064E+03  0.86466830793E+03  0.96748198146E+03  0.90016101312E+02 0.  0.
         23    2    4    4    0    0 -0.29145440008E+03 -0.11414035224E+03  0.63892901522E+02  0.33218958382E+03  0.91071012919E+02 0.  0.
          2    1    3    3  502    0 -0.30863204508E+02 -0.29481223702E+02 -0.25294909127E+03  0.25652470197E+03  0.00000000000E+00 0. -1.
         -1    1    3    3    0  502 -0.87367331613E+02  0.32152045304E+02 -0.10745672719E+04  0.10785924284E+04  0.00000000000E+00 0.  1.
         11    1    5    5    0    0  0.26943179627E+03  0.99618782692E+02  0.50076931502E+03  0.57731040314E+03  0.00000000000E+00 0. -1.
        -11    1    5    5    0    0  0.14025313993E+03  0.11850747951E+02  0.36389899291E+03  0.39017157832E+03  0.00000000000E+00 0.  1.
          3    1    6    6  503    0 -0.16210731302E+03 -0.51590144759E+02  0.79290646513E+02  0.18768945254E+03  0.00000000000E+00 0. -1.
         -3    1    6    6    0  503 -0.12934708706E+03 -0.62550207485E+02 -0.15397744991E+02  0.14450013128E+03  0.00000000000E+00 0.  1.
<mgrwt>
<rscale>  0 0.26044090E+04</rscale>
<asrwt>0</asrwt>
<pdfrwt beam="1">  1        2 0.17198720E+00 0.26044090E+04</pdfrwt>
<pdfrwt beam="2">  1       -1 0.23336491E+00 0.26044090E+04</pdfrwt>
<totfact> 0.19193295E+00</totfact>
</mgrwt>
</event>
<event>
12    6  0.8914180E-008  0.1860864E+04  0.7818608E-02  0.8674586E-01
          2   -1    0    0  501    0  0.00000000000E+00  0.00000000000E+00  0.39799414607E+03  0.39799414607E+03  0.00000000000E+00 0. -1.
         -1   -1    0    0    0  501 -0.00000000000E+00 -0.00000000000E+00 -0.21751670583E+04  0.21751670583E+04  0.00000000000E+00 0.  1.
         24    2    1    2    0    0 -0.55285564836E+03  0.30324995493E+03 -0.27829896315E+03  0.69390409748E+03  0.80266309980E+02 0.  0.
        254    2    1    2    0    0  0.55285564836E+03 -0.30324995493E+03 -0.14988739491E+04  0.18792571069E+04  0.94200544343E+03 0.  0.
         23    2    4    4    0    0  0.47259552785E+03  0.22254870405E+03 -0.43274922313E+03  0.68436870609E+03  0.90632097739E+02 0.  0.
         23    2    4    4    0    0  0.80260120509E+02 -0.52579865898E+03 -0.10661247259E+04  0.11948884008E+04  0.90721785401E+02 0.  0.
          2    1    3    3  502    0 -0.44461109241E+03  0.26977435582E+03 -0.25049857184E+03  0.57724064397E+03  0.00000000000E+00 0. -1.
         -1    1    3    3    0  502 -0.10824455594E+03  0.33475599114E+02 -0.27800391305E+02  0.11666345351E+03  0.00000000000E+00 0.  1.
         11    1    5    5    0    0  0.33743117524E+03  0.12837237527E+03 -0.25488053803E+03  0.44193138995E+03  0.00000000000E+00 0. -1.
        -11    1    5    5    0    0  0.13516435261E+03  0.94176328773E+02 -0.17786868510E+03  0.24243731614E+03  0.00000000000E+00 0.  1.
          4    1    6    6  503    0  0.47091362104E+02 -0.40655619115E+03 -0.89032234097E+03  0.97988744444E+03  0.00000000000E+00 0. -1.
         -4    1    6    6    0  503  0.33168758405E+02 -0.11924246782E+03 -0.17580238497E+03  0.21500095634E+03  0.00000000000E+00 0.  1.
<mgrwt>
<rscale>  0 0.18608641E+04</rscale>
<asrwt>0</asrwt>
<pdfrwt beam="1">  1        2 0.61229869E-01 0.18608641E+04</pdfrwt>
<pdfrwt beam="2">  1       -1 0.33464109E+00 0.18608641E+04</pdfrwt>
<totfact> 0.16887680E+00</totfact>
</mgrwt>
</event>
<event>
12    6  0.8914180E-008  0.1488775E+04  0.7818608E-02  0.8891952E-01
          2   -1    0    0  501    0  0.00000000000E+00  0.00000000000E+00  0.17081630277E+04  0.17081630277E+04  0.00000000000E+00 0. -1.
         -1   -1    0    0    0  501 -0.00000000000E+00 -0.00000000000E+00 -0.32439106659E+03  0.32439106659E+03  0.00000000000E+00 0.  1.
         24    2    1    2    0    0  0.51544123092E+02  0.18219296156E+03 -0.14614340765E+03  0.25194026155E+03  0.79151297642E+02 0.  0.
        254    2    1    2    0    0 -0.51544123092E+02 -0.18219296156E+03  0.15299153687E+04  0.17806138327E+04  0.89111924785E+03 0.  0.
         23    2    4    4    0    0 -0.18341549813E+03  0.32024025112E+03  0.57611740690E+03  0.69031611318E+03  0.91815065159E+02 0.  0.
         23    2    4    4    0    0  0.13187137504E+03 -0.50243321269E+03  0.95379796182E+03  0.10902977195E+04  0.95861214525E+02 0.  0.
          4    1    3    3  502    0 -0.14839674756E+02  0.47994536651E+02 -0.63356809175E+02  0.80856519613E+02  0.00000000000E+00 0. -1.
         -3    1    3    3    0  502  0.66383797848E+02  0.13419842491E+03 -0.82786598479E+02  0.17108374193E+03  0.00000000000E+00 0.  1.
         11    1    5    5    0    0 -0.38483288232E+01 -0.37540061710E+01 -0.12947815116E-01  0.53760919551E+01  0.00000000000E+00 0.  1.
        -11    1    5    5    0    0 -0.17956716931E+03  0.32399425730E+03  0.57613035471E+03  0.68494002122E+03  0.00000000000E+00 0. -1.
          2    1    6    6  503    0  0.61149944310E+02 -0.32244966605E+03  0.68043508024E+03  0.75545019772E+03  0.00000000000E+00 0. -1.
         -2    1    6    6    0  503  0.70721430732E+02 -0.17998354664E+03  0.27336288159E+03  0.33484752180E+03  0.00000000000E+00 0.  1.
<mgrwt>
<rscale>  0 0.14887751E+04</rscale>
<asrwt>0</asrwt>
<pdfrwt beam="1">  1        2 0.26279431E+00 0.14887751E+04</pdfrwt>
<pdfrwt beam="2">  1       -1 0.49906319E-01 0.14887751E+04</pdfrwt>
<totfact> 0.43065884E+01</totfact>
</mgrwt>
</event>
<event>
12    6  0.8914180E-008  0.1963443E+04  0.7818608E-02  0.8623905E-01
          2   -1    0    0  501    0  0.00000000000E+00  0.00000000000E+00  0.46800021103E+03  0.46800021103E+03  0.00000000000E+00 0. -1.
         -1   -1    0    0    0  501 -0.00000000000E+00 -0.00000000000E+00 -0.20593524166E+04  0.20593524166E+04  0.00000000000E+00 0.  1.
         24    2    1    2    0    0 -0.17585746586E+03 -0.42545050577E+03  0.16900586008E+03  0.49678679027E+03  0.79373503714E+02 0.  0.
        254    2    1    2    0    0  0.17585746586E+03  0.42545050577E+03 -0.17603580656E+04  0.20305658373E+04  0.90133407755E+03 0.  0.
         23    2    4    4    0    0  0.36703719980E+03  0.61841405727E+03 -0.12276918818E+04  0.14257456912E+04  0.91494082303E+02 0.  0.
         23    2    4    4    0    0 -0.19117973394E+03 -0.19296355151E+03 -0.53266618382E+03  0.60482014611E+03  0.91046816944E+02 0.  0.
          2    1    3    3  502    0 -0.12160973997E+03 -0.36906493216E+03  0.13365739252E+03  0.41092840202E+03  0.00000000000E+00 0. -1.
         -3    1    3    3    0  502 -0.54247725894E+02 -0.56385573601E+02  0.35348467561E+02  0.85858388256E+02  0.00000000000E+00 0.  1.
         11    1    5    5    0    0  0.30309842734E+03  0.52568046899E+03 -0.10931777239E+04  0.12502984237E+04  0.00000000000E+00 0.  1.
        -11    1    5    5    0    0  0.63938772464E+02  0.92733588283E+02 -0.13451415786E+03  0.17544726753E+03  0.00000000000E+00 0. -1.
          3    1    6    6  503    0 -0.54248014923E+02 -0.35364875321E+02 -0.21621292985E+03  0.22570235392E+03  0.00000000000E+00 0. -1.
         -3    1    6    6    0  503 -0.13693171902E+03 -0.15759867619E+03 -0.31645325397E+03  0.37911779219E+03  0.00000000000E+00 0.  1.
<mgrwt>
<rscale>  0 0.19634433E+04</rscale>
<asrwt>0</asrwt>
<pdfrwt beam="1">  1        2 0.72000032E-01 0.19634433E+04</pdfrwt>
<pdfrwt beam="2">  1       -1 0.31682345E+00 0.19634433E+04</pdfrwt>
<totfact> 0.18191111E+00</totfact>
</mgrwt>
</event>
<event>
12    6  0.8914180E-008  0.3072532E+04  0.7818608E-02  0.8223317E-01
          2   -1    0    0  501    0  0.00000000000E+00  0.00000000000E+00  0.23920654000E+04  0.23920654000E+04  0.00000000000E+00 0. -1.
         -1   -1    0    0    0  501 -0.00000000000E+00 -0.00000000000E+00 -0.98664235033E+03  0.98664235033E+03  0.00000000000E+00 0.  1.
         24    2    1    2    0    0 -0.82211691704E+03  0.32495707508E+03  0.18401103872E+04  0.20431229215E+04  0.82895775200E+02 0.  0.
        254    2    1    2    0    0  0.82211691704E+03 -0.32495707508E+03 -0.43468733750E+03  0.13355848288E+04  0.90186497194E+03 0.  0.
         23    2    4    4    0    0 -0.15729504428E+03  0.17542631913E+02  0.47129693099E+02  0.18796330384E+03  0.89774833483E+02 0.  0.
         23    2    4    4    0    0  0.97941196133E+03 -0.34249970699E+03 -0.48181703060E+03  0.11476215250E+04  0.91288960553E+02 0.  0.
          4    1    3    3  502    0 -0.73397271813E+03  0.27271836138E+03  0.16717883214E+04  0.18460681047E+04  0.00000000000E+00 0. -1.
         -3    1    3    3    0  502 -0.88144198910E+02  0.52238713699E+02  0.16832206578E+03  0.19705481683E+03  0.00000000000E+00 0.  1.
         11    1    5    5    0    0  0.11622488073E+02 -0.16146886638E+00  0.65421992707E+01  0.13338240982E+02  0.00000000000E+00 0. -1.
        -11    1    5    5    0    0 -0.16891753236E+03  0.17704100780E+02  0.40587493828E+02  0.17462506285E+03  0.00000000000E+00 0.  1.
          1    1    6    6  503    0  0.10785534353E+03 -0.50601611929E+02 -0.27211663267E+02  0.12220381694E+03  0.00000000000E+00 0. -1.
         -1    1    6    6    0  503  0.87155661780E+03 -0.29189809506E+03 -0.45460536733E+03  0.10254177080E+04  0.00000000000E+00 0.  1.
<mgrwt>
<rscale>  0 0.30725319E+04</rscale>
<asrwt>0</asrwt>
<pdfrwt beam="1">  1        2 0.36801006E+00 0.30725319E+04</pdfrwt>
<pdfrwt beam="2">  1       -1 0.15179113E+00 0.30725319E+04</pdfrwt>
<totfact> 0.13127142E+00</totfact>
</mgrwt>
</event>
<event>
12    6  0.8914180E-008  0.1343001E+04  0.7818608E-02  0.8996143E-01
          2   -1    0    0  501    0  0.00000000000E+00  0.00000000000E+00  0.89027349382E+03  0.89027349382E+03  0.00000000000E+00 0. -1.
         -1   -1    0    0    0  501 -0.00000000000E+00 -0.00000000000E+00 -0.50648815735E+03  0.50648815735E+03  0.00000000000E+00 0.  1.
         24    2    1    2    0    0  0.11903801639E+02  0.22844647581E+03 -0.17209553508E+03  0.29726153048E+03  0.80112742484E+02 0.  0.
        254    2    1    2    0    0 -0.11903801639E+02 -0.22844647581E+03  0.55588087155E+03  0.10995001207E+04  0.92063428094E+03 0.  0.
         23    2    4    4    0    0 -0.38363038636E+03  0.24029043205E+02  0.50127364779E+03  0.63804407532E+03  0.89862694305E+02 0.  0.
         23    2    4    4    0    0  0.37172658472E+03 -0.25247551902E+03  0.54607223759E+02  0.46145604537E+03  0.89639229292E+02 0.  0.
          2    1    3    3  502    0  0.92788051518E+01  0.13409374931E+02  0.66620970386E+01  0.17615081551E+02  0.00000000000E+00 0. -1.
         -1    1    3    3    0  502  0.26249964869E+01  0.21503710088E+03 -0.17875763212E+03  0.27964644893E+03  0.00000000000E+00 0.  1.
         11    1    5    5    0    0 -0.33839467129E+03  0.34538040334E+02  0.47636951177E+03  0.58534753910E+03  0.00000000000E+00 0. -1.
        -11    1    5    5    0    0 -0.45235715071E+02 -0.10508997129E+02  0.24904136016E+02  0.52696536218E+02  0.00000000000E+00 0.  1.
          4    1    6    6  503    0  0.17657432439E+03 -0.79104396064E+02 -0.55913387305E+01  0.19356461603E+03  0.00000000000E+00 0. -1.
         -4    1    6    6    0  503  0.19515226033E+03 -0.17337112295E+03  0.60198562490E+02  0.26789142934E+03  0.00000000000E+00 0.  1.
<mgrwt>
<rscale>  0 0.13430011E+04</rscale>
<asrwt>0</asrwt>
<pdfrwt beam="1">  1        2 0.13696515E+00 0.13430011E+04</pdfrwt>
<pdfrwt beam="2">  1       -1 0.77921255E-01 0.13430011E+04</pdfrwt>
<totfact> 0.54795020E+01</totfact>
</mgrwt>
</event>
<event>
12    6  0.8914180E-008  0.1670315E+04  0.7818608E-02  0.8778478E-01
         -1   -1    0    0    0  501 -0.00000000000E+00  0.00000000000E+00  0.61202485551E+03  0.61202485551E+03  0.00000000000E+00 0.  1.
          2   -1    0    0  501    0  0.00000000000E+00 -0.00000000000E+00 -0.11396403972E+04  0.11396403972E+04  0.00000000000E+00 0. -1.
         24    2    1    2    0    0  0.46527431125E+03 -0.33859034623E+02  0.18795195102E+03  0.50930890830E+03  0.80268357690E+02 0.  0.
        254    2    1    2    0    0 -0.46527431125E+03  0.33859034623E+02 -0.71556749275E+03  0.12423563445E+04  0.90210078760E+03 0.  0.
         23    2    4    4    0    0 -0.53414261825E+03 -0.78940020974E+02 -0.86396897389E+03  0.10228731107E+04  0.91033780275E+02 0.  0.
         23    2    4    4    0    0  0.68868307009E+02  0.11279905560E+03  0.14840148115E+03  0.21948323377E+03  0.93184868128E+02 0.  0.
          4    1    3    3  502    0  0.17070956039E+03  0.14456267072E+02  0.98851948241E+02  0.19779394666E+03  0.00000000000E+00 0. -1.
         -3    1    3    3    0  502  0.29456475086E+03 -0.48315301694E+02  0.89100002781E+02  0.31151496163E+03  0.00000000000E+00 0.  1.
         11    1    5    5    0    0 -0.10110055218E+03 -0.38578968226E+02 -0.22845436609E+03  0.25278658158E+03  0.00000000000E+00 0. -1.
        -11    1    5    5    0    0 -0.43304206608E+03 -0.40361052749E+02 -0.63551460781E+03  0.77008652910E+03  0.00000000000E+00 0.  1.
          1    1    6    6  503    0 -0.52564062884E+01  0.37295376666E+02  0.92373340213E+02  0.99756748693E+02  0.00000000000E+00 0. -1.
         -1    1    6    6    0  503  0.74124713298E+02  0.75503678931E+02  0.56028140932E+02  0.11972648508E+03  0.00000000000E+00 0.  1.
<mgrwt>
<rscale>  0 0.16703152E+04</rscale>
<asrwt>0</asrwt>
<pdfrwt beam="1">  1        2 0.17532929E+00 0.16703152E+04</pdfrwt>
<pdfrwt beam="2">  1       -1 0.94157669E-01 0.16703152E+04</pdfrwt>
<totfact> 0.24480099E+01</totfact>
</mgrwt>
</event>
<event>
12    6  0.8914180E-008  0.1718724E+04  0.7818608E-02  0.8750757E-01
         -1   -1    0    0    0  501 -0.00000000000E+00  0.00000000000E+00  0.13607630740E+04  0.13607630740E+04  0.00000000000E+00 0.  1.
          2   -1    0    0  501    0  0.00000000000E+00 -0.00000000000E+00 -0.54271253258E+03  0.54271253258E+03  0.00000000000E+00 0. -1.
         24    2    1    2    0    0 -0.27887484948E+03 -0.54989478817E+03  0.39691896917E+03  0.73762324563E+03  0.79924493643E+02 0.  0.
        254    2    1    2    0    0  0.27887484948E+03  0.54989478817E+03  0.42113157227E+03  0.11658523610E+04  0.89537950987E+03 0.  0.
         23    2    4    4    0    0 -0.20278087772E+02  0.65473306059E+03  0.40729783943E+02  0.66265678902E+03  0.91479633075E+02 0.  0.
         23    2    4    4    0    0  0.29915293725E+03 -0.10483827242E+03  0.38040178833E+03  0.50319557194E+03  0.89536137013E+02 0.  0.
          4    1    3    3  502    0 -0.46150872674E+01 -0.31108680996E+02  0.39626131765E+02  0.50589320834E+02  0.00000000000E+00 0. -1.
         -3    1    3    3    0  502 -0.27425976221E+03 -0.51878610717E+03  0.35729283740E+03  0.68703392479E+03  0.00000000000E+00 0.  1.
         11    1    5    5    0    0 -0.50508235831E+02  0.53551361189E+03  0.22887870349E+02  0.53837697297E+03  0.00000000000E+00 0.  1.
        -11    1    5    5    0    0  0.30230148059E+02  0.11921944870E+03  0.17841913595E+02  0.12427981606E+03  0.00000000000E+00 0. -1.
          3    1    6    6  503    0  0.57700445666E+02 -0.54994079533E+02  0.12466864178E+03  0.14797283689E+03  0.00000000000E+00 0. -1.
         -3    1    6    6    0  503  0.24145249158E+03 -0.49844192891E+02  0.25573314655E+03  0.35522273505E+03  0.00000000000E+00 0.  1.
<mgrwt>
<rscale>  0 0.17187241E+04</rscale>
<asrwt>0</asrwt>
<pdfrwt beam="1">  1        2 0.83494236E-01 0.17187241E+04</pdfrwt>
<pdfrwt beam="2">  1       -1 0.20934817E+00 0.17187241E+04</pdfrwt>
<totfact> 0.78852417E+00</totfact>
</mgrwt>
</event>
<event>
12    6  0.8914180E-008  0.1414470E+04  0.7818608E-02  0.8943410E-01
         -1   -1    0    0    0  501 -0.00000000000E+00  0.00000000000E+00  0.53961255782E+03  0.53961255782E+03  0.00000000000E+00 0.  1.
          2   -1    0    0  501    0  0.00000000000E+00 -0.00000000000E+00 -0.92692706998E+03  0.92692706998E+03  0.00000000000E+00 0. -1.
         24    2    1    2    0    0  0.22885550244E+03 -0.14536507123E+03 -0.43759126303E+03  0.52106075866E+03  0.80699168584E+02 0.  0.
        254    2    1    2    0    0 -0.22885550244E+03  0.14536507123E+03  0.50276750872E+02  0.94547886913E+03  0.90437641243E+03 0.  0.
         23    2    4    4    0    0 -0.75231371406E+02  0.20862209670E+03 -0.39506059561E+03  0.46190435484E+03  0.89999001878E+02 0.  0.
         23    2    4    4    0    0 -0.15362413103E+03 -0.63257025467E+02  0.44533734648E+03  0.48357451429E+03  0.88978277075E+02 0.  0.
          4    1    3    3  502    0  0.16956793512E+03 -0.12639291226E+03 -0.27471290351E+03  0.34669241734E+03  0.00000000000E+00 0. -1.
         -3    1    3    3    0  502  0.59287567320E+02 -0.18972158974E+02 -0.16287835952E+03  0.17436834132E+03  0.00000000000E+00 0.  1.
         11    1    5    5    0    0 -0.50326791020E+02  0.99556412104E+02 -0.28008689940E+03  0.30148455400E+03  0.00000000000E+00 0. -1.
        -11    1    5    5    0    0 -0.24904580386E+02  0.10906568459E+03 -0.11497369621E+03  0.16041980084E+03  0.00000000000E+00 0.  1.
          3    1    6    6  503    0 -0.15594621015E+03 -0.35972432276E+02  0.39655653738E+03  0.42763339870E+03  0.00000000000E+00 0. -1.
         -3    1    6    6    0  503  0.23220791116E+01 -0.27284593191E+02  0.48780809107E+02  0.55941115596E+02  0.00000000000E+00 0.  1.
<mgrwt>
<rscale>  0 0.14144702E+04</rscale>
<asrwt>0</asrwt>
<pdfrwt beam="1">  1        2 0.14260416E+00 0.14144702E+04</pdfrwt>
<pdfrwt beam="2">  1       -1 0.83017317E-01 0.14144702E+04</pdfrwt>
<totfact> 0.44975442E+01</totfact>
</mgrwt>
</event>
<event>
12    6  0.8914180E-008  0.1227171E+04  0.7818608E-02  0.9089400E-01
          2   -1    0    0  501    0  0.00000000000E+00  0.00000000000E+00  0.20882980468E+04  0.20882980468E+04  0.00000000000E+00 0. -1.
         -1   -1    0    0    0  501 -0.00000000000E+00 -0.00000000000E+00 -0.18028435480E+03  0.18028435480E+03  0.00000000000E+00 0.  1.
         24    2    1    2    0    0 -0.61064031502E+02 -0.20738764041E+03  0.73338905192E+03  0.76876634752E+03  0.80023410737E+02 0.  0.
        254    2    1    2    0    0  0.61064031502E+02  0.20738764041E+03  0.11746246401E+04  0.14998160541E+04  0.90717512181E+03 0.  0.
         23    2    4    4    0    0  0.21063135557E+03 -0.59780220766E+02 -0.43101634413E+02  0.24090875740E+03  0.90774642699E+02 0.  0.
         23    2    4    4    0    0 -0.14956732407E+03  0.26716786118E+03  0.12177262745E+04  0.12589072967E+04  0.90781339293E+02 0.  0.
          4    1    3    3  502    0 -0.72320926261E+02 -0.20691621854E+03  0.69329908016E+03  0.72712327182E+03  0.00000000000E+00 0. -1.
         -3    1    3    3    0  502  0.11256894758E+02 -0.47142187066E+00  0.40089971765E+02  0.41643075706E+02  0.00000000000E+00 0.  1.
         11    1    5    5    0    0  0.64945429362E+02 -0.24374315988E+02  0.28211663606E+02  0.74886006959E+02  0.00000000000E+00 0. -1.
        -11    1    5    5    0    0  0.14568592621E+03 -0.35405904778E+02 -0.71313298019E+02  0.16602275044E+03  0.00000000000E+00 0.  1.
          1    1    6    6  503    0 -0.36639828276E+02  0.39689033692E+02  0.37106771165E+03  0.37497859011E+03  0.00000000000E+00 0. -1.
         -1    1    6    6    0  503 -0.11292749579E+03  0.22747882749E+03  0.84665856283E+03  0.88392870655E+03  0.00000000000E+00 0.  1.
<mgrwt>
<rscale>  0 0.12271715E+04</rscale>
<asrwt>0</asrwt>
<pdfrwt beam="1">  1        2 0.32127661E+00 0.12271715E+04</pdfrwt>
<pdfrwt beam="2">  1       -1 0.27736056E-01 0.12271715E+04</pdfrwt>
<totfact> 0.78481281E+01</totfact>
</mgrwt>
</event>
<event>
12    6  0.8914180E-008  0.1328851E+04  0.7818608E-02  0.9006994E-01
          2   -1    0    0  501    0  0.00000000000E+00  0.00000000000E+00  0.68585306540E+03  0.68585306540E+03  0.00000000000E+00 0. -1.
         -1   -1    0    0    0  501 -0.00000000000E+00 -0.00000000000E+00 -0.64366721167E+03  0.64366721167E+03  0.00000000000E+00 0.  1.
         24    2    1    2    0    0 -0.16696893756E+03 -0.19568692864E+03 -0.23226908726E+03  0.35525896400E+03  0.78025652514E+02 0.  0.
        254    2    1    2    0    0  0.16696893756E+03  0.19568692864E+03  0.27445494100E+03  0.97426131308E+03  0.89871441035E+03 0.  0.
         23    2    4    4    0    0  0.34619971760E+03  0.43241887703E+03  0.34003315772E+03  0.65616457440E+03  0.89939261021E+02 0.  0.
         23    2    4    4    0    0 -0.17923078004E+03 -0.23673194839E+03 -0.65578216725E+02  0.31809673868E+03  0.93377431688E+02 0.  0.
          2    1    3    3  502    0 -0.47385451776E+02 -0.65570052630E+02 -0.29074090675E+02  0.85965781509E+02  0.00000000000E+00 0. -1.
         -1    1    3    3    0  502 -0.11958348578E+03 -0.13011687601E+03 -0.20319499659E+03  0.26929318249E+03  0.00000000000E+00 0.  1.
         11    1    5    5    0    0  0.10441519636E+03  0.87477988335E+02  0.51716600696E+02  0.14570359797E+03  0.00000000000E+00 0. -1.
        -11    1    5    5    0    0  0.24178452124E+03  0.34494088869E+03  0.28831655702E+03  0.51046097643E+03  0.00000000000E+00 0.  1.
          4    1    6    6  503    0 -0.11248743760E+03 -0.91118448059E+02 -0.63048099577E+02  0.15789571892E+03  0.00000000000E+00 0.  1.
         -4    1    6    6    0  503 -0.66743342441E+02 -0.14561350033E+03 -0.25301171482E+01  0.16020101976E+03  0.00000000000E+00 0. -1.
<mgrwt>
<rscale>  0 0.13288508E+04</rscale>
<asrwt>0</asrwt>
<pdfrwt beam="1">  1        2 0.10551586E+00 0.13288508E+04</pdfrwt>
<pdfrwt beam="2">  1       -1 0.99025725E-01 0.13288508E+04</pdfrwt>
<totfact> 0.45814928E+01</totfact>
</mgrwt>
</event>
<event>
12    6  0.8914180E-008  0.1402207E+04  0.7818608E-02  0.8952222E-01
          2   -1    0    0  501    0  0.00000000000E+00  0.00000000000E+00  0.28608060546E+04  0.28608060546E+04  0.00000000000E+00 0. -1.
         -1   -1    0    0    0  501 -0.00000000000E+00 -0.00000000000E+00 -0.17182091927E+03  0.17182091927E+03  0.00000000000E+00 0.  1.
         24    2    1    2    0    0 -0.39017953161E+02  0.40814841857E+03  0.81290722432E+03  0.91389550309E+03  0.79242053002E+02 0.  0.
        254    2    1    2    0    0  0.39017953161E+02 -0.40814841857E+03  0.18760779110E+04  0.21187314708E+04  0.89512411699E+03 0.  0.
         23    2    4    4    0    0  0.35287852220E+03  0.76495894811E+02  0.50491473091E+03  0.62832065957E+03  0.97329812465E+02 0.  0.
         23    2    4    4    0    0 -0.31386056904E+03 -0.48464431338E+03  0.13711631801E+04  0.14904108112E+04  0.88585283348E+02 0.  0.
          4    1    3    3  502    0 -0.40056932606E+02  0.40105316991E+03  0.81217876738E+03  0.90668768224E+03  0.00000000000E+00 0. -1.
         -3    1    3    3    0  502  0.10389794446E+01  0.70952486638E+01  0.72845694039E+00  0.72078208497E+01  0.00000000000E+00 0.  1.
         11    1    5    5    0    0  0.31510286723E+03  0.73819599078E+02  0.49081582820E+03  0.58791098592E+03  0.00000000000E+00 0.  1.
        -11    1    5    5    0    0  0.37775654965E+02  0.26762957330E+01  0.14098902708E+02  0.40409673649E+02  0.00000000000E+00 0. -1.
          3    1    6    6  503    0 -0.13017876082E+03 -0.28207895928E+03  0.72044351291E+03  0.78457243408E+03  0.00000000000E+00 0. -1.
         -3    1    6    6    0  503 -0.18368180822E+03 -0.20256535410E+03  0.65071966719E+03  0.70583837712E+03  0.00000000000E+00 0.  1.
<mgrwt>
<rscale>  0 0.14022073E+04</rscale>
<asrwt>0</asrwt>
<pdfrwt beam="1">  1        2 0.44012397E+00 0.14022073E+04</pdfrwt>
<pdfrwt beam="2">  1       -1 0.26433990E-01 0.14022073E+04</pdfrwt>
<totfact> 0.30163944E+01</totfact>
</mgrwt>
</event>
<event>
12    6  0.8914180E-008  0.1478737E+04  0.7818608E-02  0.8898717E-01
          2   -1    0    0  501    0  0.00000000000E+00  0.00000000000E+00  0.18118217863E+04  0.18118217863E+04  0.00000000000E+00 0. -1.
         -1   -1    0    0    0  501 -0.00000000000E+00 -0.00000000000E+00 -0.30172175483E+03  0.30172175483E+03  0.00000000000E+00 0.  1.
         24    2    1    2    0    0 -0.11434050905E+03  0.43671287574E+03  0.40138014363E+03  0.60941344558E+03  0.80540921919E+02 0.  0.
        254    2    1    2    0    0  0.11434050905E+03 -0.43671287574E+03  0.11087198879E+04  0.15041300956E+04  0.91068966548E+03 0.  0.
         23    2    4    4    0    0  0.35330640303E+03 -0.59520255179E+03  0.89422356698E+03  0.11347769884E+04  0.94823697435E+02 0.  0.
         23    2    4    4    0    0 -0.23896589399E+03  0.15848967605E+03  0.21449632090E+03  0.36935310717E+03  0.90495139080E+02 0.  0.
          2    1    3    3  502    0 -0.21826378787E+02  0.14460896880E+02  0.26129031363E+02  0.36989655710E+02  0.00000000000E+00 0. -1.
         -1    1    3    3    0  502 -0.92514130258E+02  0.42225197886E+03  0.37525111227E+03  0.57242378987E+03  0.00000000000E+00 0.  1.
         11    1    5    5    0    0  0.56915372410E+02 -0.17310344324E+03  0.21246569010E+03  0.27990325320E+03  0.00000000000E+00 0. -1.
        -11    1    5    5    0    0  0.29639103062E+03 -0.42209910855E+03  0.68175787688E+03  0.85487373521E+03  0.00000000000E+00 0.  1.
          1    1    6    6  503    0 -0.22941174315E+02  0.44037821837E+02  0.68506420921E+02  0.84609437644E+02  0.00000000000E+00 0. -1.
         -1    1    6    6    0  503 -0.21602471967E+03  0.11445185422E+03  0.14598989998E+03  0.28474366953E+03  0.00000000000E+00 0.  1.
<mgrwt>
<rscale>  0 0.14787374E+04</rscale>
<asrwt>0</asrwt>
<pdfrwt beam="1">  1        2 0.27874181E+00 0.14787374E+04</pdfrwt>
<pdfrwt beam="2">  1       -1 0.46418732E-01 0.14787374E+04</pdfrwt>
<totfact> 0.43295234E+01</totfact>
</mgrwt>
</event>
<event>
12    6  0.8914180E-008  0.1996311E+04  0.7818608E-02  0.8608347E-01
         -1   -1    0    0    0  501 -0.00000000000E+00  0.00000000000E+00  0.56242902806E+03  0.56242902806E+03  0.00000000000E+00 0.  1.
          2   -1    0    0  501    0  0.00000000000E+00 -0.00000000000E+00 -0.17714489422E+04  0.17714489422E+04  0.00000000000E+00 0. -1.
         24    2    1    2    0    0  0.63548143183E+03  0.17534492111E+03 -0.10030024255E+04  0.12029100379E+04  0.79976261171E+02 0.  0.
        254    2    1    2    0    0 -0.63548143183E+03 -0.17534492111E+03 -0.20601748868E+03  0.11309679323E+04  0.89557957028E+03 0.  0.
         23    2    4    4    0    0 -0.61029369154E+03 -0.48181923385E+03 -0.82402066894E+02  0.78736547872E+03  0.92445294156E+02 0.  0.
         23    2    4    4    0    0 -0.25187740293E+02  0.30647431274E+03 -0.12361542178E+03  0.34360245358E+03  0.90669437948E+02 0.  0.
          2    1    3    3  502    0  0.56104009678E+03  0.13361511452E+03 -0.90279338931E+03  0.10712865596E+04  0.00000000000E+00 0. -1.
         -1    1    3    3    0  502  0.74441335046E+02  0.41729806596E+02 -0.10020903614E+03  0.13162347832E+03  0.00000000000E+00 0.  1.
         11    1    5    5    0    0 -0.10230686727E+03 -0.85251302369E+02  0.20537345979E+02  0.13474517515E+03  0.00000000000E+00 0.  1.
        -11    1    5    5    0    0 -0.50798682427E+03 -0.39656793148E+03 -0.10293941287E+03  0.65262030357E+03  0.00000000000E+00 0. -1.
          2    1    6    6  503    0  0.42460039542E+01  0.72169561478E+02 -0.71693067217E+02  0.10181537232E+03  0.00000000000E+00 0.  1.
         -2    1    6    6    0  503 -0.29433744247E+02  0.23430475126E+03 -0.51922354566E+02  0.24178708126E+03  0.00000000000E+00 0. -1.
<mgrwt>
<rscale>  0 0.19963109E+04</rscale>
<asrwt>0</asrwt>
<pdfrwt beam="1">  1        2 0.27253061E+00 0.19963109E+04</pdfrwt>
<pdfrwt beam="2">  1       -1 0.86527543E-01 0.19963109E+04</pdfrwt>
<totfact> 0.12474017E+01</totfact>
</mgrwt>
</event>
<event>
12    6  0.8914180E-008  0.3877563E+04  0.7818608E-02  0.8029712E-01
          2   -1    0    0  501    0  0.00000000000E+00  0.00000000000E+00  0.33845326636E+04  0.33845326636E+04  0.00000000000E+00 0. -1.
         -1   -1    0    0    0  501 -0.00000000000E+00 -0.00000000000E+00 -0.11106032549E+04  0.11106032549E+04  0.00000000000E+00 0.  1.
         24    2    1    2    0    0 -0.44620808564E+03  0.13597378102E+04  0.23970250531E+04  0.27928837422E+04  0.80510397730E+02 0.  0.
        254    2    1    2    0    0  0.44620808564E+03 -0.13597378102E+04 -0.12309564440E+03  0.17022521762E+04  0.91352140957E+03 0.  0.
         23    2    4    4    0    0  0.21368557469E+03 -0.28960922123E+02  0.20228768450E+03  0.30973698271E+03  0.92284512868E+02 0.  0.
         23    2    4    4    0    0  0.23252251095E+03 -0.13307768880E+04 -0.32538332889E+03  0.13925151935E+04  0.90500882020E+02 0.  0.
          4    1    3    3  502    0 -0.20460105802E+03  0.50308312072E+03  0.88743795782E+03  0.10404327697E+04  0.00000000000E+00 0. -1.
         -3    1    3    3    0  502 -0.24160702762E+03  0.85665468943E+03  0.15095870953E+04  0.17524509725E+04  0.00000000000E+00 0.  1.
         11    1    5    5    0    0  0.18431944339E+03 -0.10081164810E+02  0.20357013639E+03  0.27480190597E+03  0.00000000000E+00 0. -1.
        -11    1    5    5    0    0  0.29366131301E+02 -0.18879757313E+02 -0.12824518898E+01  0.34935076737E+02  0.00000000000E+00 0.  1.
          4    1    6    6  503    0  0.18090572397E+03 -0.10966940616E+04 -0.30114169594E+03  0.11515863262E+04  0.00000000000E+00 0. -1.
         -4    1    6    6    0  503  0.51616786978E+02 -0.23408282647E+03 -0.24241632958E+02  0.24092886733E+03  0.00000000000E+00 0.  1.
<mgrwt>
<rscale>  0 0.38775626E+04</rscale>
<asrwt>0</asrwt>
<pdfrwt beam="1">  1        2 0.52069733E+00 0.38775626E+04</pdfrwt>
<pdfrwt beam="2">  1       -1 0.17086204E+00 0.38775626E+04</pdfrwt>
<totfact> 0.21390407E-01</totfact>
</mgrwt>
</event>
<event>
12    6  0.8914180E-008  0.2437099E+04  0.7818608E-02  0.8425743E-01
         -3   -1    0    0    0  501 -0.00000000000E+00  0.00000000000E+00  0.61273718548E+03  0.61273718548E+03  0.00000000000E+00 0.  1.
          2   -1    0    0  501    0  0.00000000000E+00 -0.00000000000E+00 -0.24233277051E+04  0.24233277051E+04  0.00000000000E+00 0. -1.
         24    2    1    2    0    0  0.56914126926E+03 -0.85659877564E+03 -0.51578631496E+03  0.11531892100E+04  0.78272501753E+02 0.  0.
        254    2    1    2    0    0 -0.56914126926E+03  0.85659877564E+03 -0.12948042047E+04  0.18828756806E+04  0.90056629594E+03 0.  0.
         23    2    4    4    0    0 -0.74005623879E+03  0.36981623458E+03 -0.67744550750E+03  0.10732028006E+04  0.91567197126E+02 0.  0.
         23    2    4    4    0    0  0.17091496953E+03  0.48678254107E+03 -0.61735869718E+03  0.80967288005E+03  0.90935375988E+02 0.  0.
          2    1    3    3  502    0  0.29431377157E+03 -0.40608765914E+03 -0.21403601735E+03  0.54528818048E+03  0.00000000000E+00 0. -1.
         -1    1    3    3    0  502  0.27482749768E+03 -0.45051111650E+03 -0.30175029760E+03  0.60790102951E+03  0.00000000000E+00 0.  1.
         11    1    5    5    0    0 -0.60529649793E+03  0.33885393113E+03 -0.55218068854E+03  0.88662807864E+03  0.00000000000E+00 0.  1.
        -11    1    5    5    0    0 -0.13475974086E+03  0.30962303447E+02 -0.12526481896E+03  0.18657472192E+03  0.00000000000E+00 0. -1.
          3    1    6    6  503    0 -0.81122348972E+01  0.80755427096E+01 -0.63462160268E+01  0.13088055736E+02  0.00000000000E+00 0. -1.
         -3    1    6    6    0  503  0.17902720443E+03  0.47870699836E+03 -0.61101248115E+03  0.79658482431E+03  0.00000000000E+00 0.  1.
<mgrwt>
<rscale>  0 0.24370991E+04</rscale>
<asrwt>0</asrwt>
<pdfrwt beam="1">  1        2 0.37281965E+00 0.24370991E+04</pdfrwt>
<pdfrwt beam="2">  1       -3 0.94267258E-01 0.24370991E+04</pdfrwt>
<totfact> 0.22141169E+00</totfact>
</mgrwt>
</event>
<event>
12    6  0.8914180E-008  0.6130288E+04  0.7818608E-02  0.7674454E-01
          2   -1    0    0  501    0  0.00000000000E+00  0.00000000000E+00  0.36762965072E+04  0.36762965072E+04  0.00000000000E+00 0. -1.
         -1   -1    0    0    0  501 -0.00000000000E+00 -0.00000000000E+00 -0.25555906614E+04  0.25555906614E+04  0.00000000000E+00 0.  1.
         24    2    1    2    0    0 -0.24216173313E+04 -0.11196863978E+04 -0.84267587667E+03  0.27990259125E+04  0.80717392473E+02 0.  0.
        254    2    1    2    0    0  0.24216173313E+04  0.11196863978E+04  0.19633817225E+04  0.34328612561E+04  0.90096641850E+03 0.  0.
         23    2    4    4    0    0  0.12982992128E+04  0.79069973885E+03  0.15876882231E+04  0.22000866275E+04  0.94023145463E+02 0.  0.
         23    2    4    4    0    0  0.11233181185E+04  0.32898665895E+03  0.37569349938E+03  0.12327746286E+04  0.92259755195E+02 0.  0.
          4    1    3    3  502    0 -0.86316550233E+03 -0.38049871875E+03 -0.33439837444E+03  0.10008277735E+04  0.00000000000E+00 0. -1.
         -3    1    3    3    0  502 -0.15584518289E+04 -0.73918767905E+03 -0.50827750223E+03  0.17981981390E+04  0.00000000000E+00 0.  1.
         11    1    5    5    0    0  0.79126378747E+03  0.48799720250E+03  0.90449536492E+03  0.12970549395E+04  0.00000000000E+00 0. -1.
        -11    1    5    5    0    0  0.50703542528E+03  0.30270253636E+03  0.68319285815E+03  0.90303168795E+03  0.00000000000E+00 0.  1.
          2    1    6    6  503    0  0.50297199439E+03  0.13852661372E+03  0.12022395045E+03  0.53537299905E+03  0.00000000000E+00 0. -1.
         -2    1    6    6    0  503  0.62034612411E+03  0.19046004523E+03  0.25546954893E+03  0.69740162959E+03  0.00000000000E+00 0.  1.
<mgrwt>
<rscale>  0 0.61302884E+04</rscale>
<asrwt>0</asrwt>
<pdfrwt beam="1">  1        2 0.56558407E+00 0.61302884E+04</pdfrwt>
<pdfrwt beam="2">  1       -1 0.39316780E+00 0.61302884E+04</pdfrwt>
<totfact> 0.36589963E-03</totfact>
</mgrwt>
</event>
<event>
12    6  0.8914180E-008  0.1241782E+04  0.7818608E-02  0.9077051E-01
          2   -1    0    0  501    0  0.00000000000E+00  0.00000000000E+00  0.13291744711E+04  0.13291744711E+04  0.00000000000E+00 0. -1.
         -3   -1    0    0    0  501 -0.00000000000E+00 -0.00000000000E+00 -0.29003399087E+03  0.29003399087E+03  0.00000000000E+00 0.  1.
         24    2    1    2    0    0  0.94669200795E+02  0.16344735731E+03 -0.39498632377E+02  0.20941024344E+03  0.81333952965E+02 0.  0.
        254    2    1    2    0    0 -0.94669200795E+02 -0.16344735731E+03  0.10786391126E+04  0.14097982186E+04  0.88791406428E+03 0.  0.
         23    2    4    4    0    0  0.77629206919E+02 -0.19189696331E+03  0.11712913159E+04  0.11928515384E+04  0.90114968677E+02 0.  0.
         23    2    4    4    0    0 -0.17229840771E+03  0.28449605991E+02 -0.92652203299E+02  0.21694668016E+03  0.89360561067E+02 0.  0.
          4    1    3    3  502    0  0.11639727451E+02  0.69029500116E+02  0.16261991604E+02  0.71867986701E+02  0.00000000000E+00 0. -1.
         -3    1    3    3    0  502  0.83029473344E+02  0.94417857199E+02 -0.55760623982E+02  0.13754225674E+03  0.00000000000E+00 0.  1.
         11    1    5    5    0    0  0.66124473948E+02 -0.14018083802E+03  0.62237015716E+03  0.64137954904E+03  0.00000000000E+00 0.  1.
        -11    1    5    5    0    0  0.11504732971E+02 -0.51716125283E+02  0.54892115877E+03  0.55147198935E+03  0.00000000000E+00 0. -1.
          1    1    6    6  503    0 -0.11803190659E+03 -0.18391528805E+02 -0.80976784431E+02  0.14431569188E+03  0.00000000000E+00 0. -1.
         -1    1    6    6    0  503 -0.54266501120E+02  0.46841134796E+02 -0.11675418868E+02  0.72630988280E+02  0.00000000000E+00 0.  1.
<mgrwt>
<rscale>  0 0.12417822E+04</rscale>
<asrwt>0</asrwt>
<pdfrwt beam="1">  1        2 0.20448838E+00 0.12417822E+04</pdfrwt>
<pdfrwt beam="2">  1       -3 0.44620615E-01 0.12417822E+04</pdfrwt>
<totfact> 0.50052301E+01</totfact>
</mgrwt>
</event>
<event>
12    6  0.8914180E-008  0.1611842E+04  0.7818608E-02  0.8813306E-01
          2   -1    0    0  501    0  0.00000000000E+00  0.00000000000E+00  0.45864691665E+04  0.45864691665E+04  0.00000000000E+00 0. -1.
         -1   -1    0    0    0  501 -0.00000000000E+00 -0.00000000000E+00 -0.14161405144E+03  0.14161405144E+03  0.00000000000E+00 0.  1.
         24    2    1    2    0    0  0.77038208675E+02 -0.48413802614E+03  0.79347855369E+03  0.93604554059E+03  0.79047611827E+02 0.  0.
        254    2    1    2    0    0 -0.77038208675E+02  0.48413802614E+03  0.36513765613E+04  0.37920376773E+04  0.89815056624E+03 0.  0.
         23    2    4    4    0    0 -0.19065071523E+03 -0.10466470120E+03  0.27848515132E+03  0.36504385910E+03  0.91655030764E+02 0.  0.
         23    2    4    4    0    0  0.11361250655E+03  0.58880272733E+03  0.33728914100E+04  0.34269938182E+04  0.91069825304E+02 0.  0.
          4    1    3    3  502    0 -0.15194515462E+02 -0.37997074075E+02  0.61362092684E+02  0.73756066577E+02  0.00000000000E+00 0. -1.
         -3    1    3    3    0  502  0.92232724138E+02 -0.44614095206E+03  0.73211646101E+03  0.86228947401E+03  0.00000000000E+00 0.  1.
         11    1    5    5    0    0 -0.16665006768E+03 -0.92901724258E+02  0.27936480201E+03  0.33830114991E+03  0.00000000000E+00 0. -1.
        -11    1    5    5    0    0 -0.24000647548E+02 -0.11762976939E+02 -0.87965069243E+00  0.26742709184E+02  0.00000000000E+00 0.  1.
          4    1    6    6  503    0  0.55252877021E+02  0.46441102174E+03  0.25032069933E+04  0.25465222812E+04  0.00000000000E+00 0. -1.
         -4    1    6    6    0  503  0.58359629530E+02  0.12439170559E+03  0.86968441670E+03  0.88047153697E+03  0.00000000000E+00 0.  1.
<mgrwt>
<rscale>  0 0.16118418E+04</rscale>
<asrwt>0</asrwt>
<pdfrwt beam="1">  1        2 0.70561053E+00 0.16118418E+04</pdfrwt>
<pdfrwt beam="2">  1       -1 0.21786781E-01 0.16118418E+04</pdfrwt>
<totfact> 0.20129182E+00</totfact>
</mgrwt>
</event>
<event>
12    6  0.8914180E-008  0.2011470E+04  0.7818608E-02  0.8601277E-01
         -1   -1    0    0    0  501 -0.00000000000E+00  0.00000000000E+00  0.75307741436E+03  0.75307741436E+03  0.00000000000E+00 0.  1.
          2   -1    0    0  501    0  0.00000000000E+00 -0.00000000000E+00 -0.13431589339E+04  0.13431589339E+04  0.00000000000E+00 0. -1.
         24    2    1    2    0    0 -0.37592011897E+02 -0.43597708359E+03 -0.93245316655E+03  0.10331164053E+04  0.79821189163E+02 0.  0.
        254    2    1    2    0    0  0.37592011897E+02  0.43597708359E+03  0.34237164700E+03  0.10631199430E+04  0.90637546955E+03 0.  0.
         23    2    4    4    0    0  0.17423685631E+03  0.62528015792E+03  0.23784168371E+02  0.65771120824E+03  0.10336628462E+03 0.  0.
         23    2    4    4    0    0 -0.13664484441E+03 -0.18930307432E+03  0.31858747863E+03  0.40540873478E+03  0.91382674760E+02 0.  0.
          2    1    3    3  502    0 -0.48041181565E+02 -0.42441410593E+03 -0.91458661964E+03  0.10094077339E+04  0.00000000000E+00 0. -1.
         -1    1    3    3    0  502  0.10449169669E+02 -0.11562977664E+02 -0.17866546910E+02  0.23708671361E+02  0.00000000000E+00 0.  1.
         11    1    5    5    0    0  0.15971353154E+03  0.46625629606E+03 -0.16117653653E+02  0.49311573138E+03  0.00000000000E+00 0.  1.
        -11    1    5    5    0    0  0.14523324766E+02  0.15902386185E+03  0.39901822024E+02  0.16459547686E+03  0.00000000000E+00 0. -1.
          3    1    6    6  503    0 -0.60348856502E+02 -0.12179141814E+03  0.11618533441E+03  0.17881321524E+03  0.00000000000E+00 0. -1.
         -3    1    6    6    0  503 -0.76295987910E+02 -0.67511656186E+02  0.20240214422E+03  0.22659551954E+03  0.00000000000E+00 0.  1.
<mgrwt>
<rscale>  0 0.20114698E+04</rscale>
<asrwt>0</asrwt>
<pdfrwt beam="1">  1        2 0.20663984E+00 0.20114698E+04</pdfrwt>
<pdfrwt beam="2">  1       -1 0.11585806E+00 0.20114698E+04</pdfrwt>
<totfact> 0.11130535E+01</totfact>
</mgrwt>
</event>
<event>
12    6  0.8914180E-008  0.2403237E+04  0.7818608E-02  0.8438293E-01
         -1   -1    0    0    0  501 -0.00000000000E+00  0.00000000000E+00  0.20213145072E+04  0.20213145072E+04  0.00000000000E+00 0.  1.
          2   -1    0    0  501    0  0.00000000000E+00 -0.00000000000E+00 -0.71433098266E+03  0.71433098266E+03  0.00000000000E+00 0. -1.
         24    2    1    2    0    0  0.81673934088E+03  0.34354729835E+03 -0.37495228651E+02  0.89027992922E+03  0.78131703230E+02 0.  0.
        254    2    1    2    0    0 -0.81673934088E+03 -0.34354729835E+03  0.13444787532E+04  0.18453655607E+04  0.90147825127E+03 0.  0.
         23    2    4    4    0    0 -0.37447557432E+03 -0.42476187390E+03  0.12516897674E+04  0.13768292274E+04  0.90977152864E+02 0.  0.
         23    2    4    4    0    0 -0.44226376656E+03  0.81214575545E+02  0.92788985765E+02  0.46853633322E+03  0.93399428131E+02 0.  0.
          4    1    3    3  502    0  0.49053676283E+03  0.17848633623E+03 -0.50694655412E+02  0.52445556151E+03  0.00000000000E+00 0. -1.
         -3    1    3    3    0  502  0.32620257805E+03  0.16506096213E+03  0.13199426762E+02  0.36582436771E+03  0.00000000000E+00 0.  1.
         11    1    5    5    0    0 -0.33708112488E+03 -0.38559625854E+03  0.10538352772E+04  0.11716983190E+04  0.00000000000E+00 0. -1.
        -11    1    5    5    0    0 -0.37394449438E+02 -0.39165615353E+02  0.19785449029E+03  0.20513090845E+03  0.00000000000E+00 0.  1.
          2    1    6    6  503    0 -0.31311828822E+03  0.98057114955E+02  0.53085237525E+02  0.33237975668E+03  0.00000000000E+00 0. -1.
         -2    1    6    6    0  503 -0.12914547834E+03 -0.16842539409E+02  0.39703748240E+02  0.13615657654E+03  0.00000000000E+00 0.  1.
<mgrwt>
<rscale>  0 0.24032375E+04</rscale>
<asrwt>0</asrwt>
<pdfrwt beam="1">  1        2 0.10989707E+00 0.24032375E+04</pdfrwt>
<pdfrwt beam="2">  1       -1 0.31097146E+00 0.24032375E+04</pdfrwt>
<totfact> 0.11480500E+00</totfact>
</mgrwt>
</event>
<event>
12    6  0.8914180E-008  0.1813863E+04  0.7818608E-02  0.8698962E-01
         -1   -1    0    0    0  501 -0.00000000000E+00  0.00000000000E+00  0.86644575368E+03  0.86644575368E+03  0.00000000000E+00 0.  1.
          2   -1    0    0  501    0  0.00000000000E+00 -0.00000000000E+00 -0.94930915907E+03  0.94930915907E+03  0.00000000000E+00 0. -1.
         24    2    1    2    0    0  0.54330679236E+02  0.57237358010E+03  0.32008241763E+03  0.66281336746E+03  0.79406977687E+02 0.  0.
        254    2    1    2    0    0 -0.54330679236E+02 -0.57237358010E+03 -0.40294582302E+03  0.11529415453E+04  0.91451929049E+03 0.  0.
         23    2    4    4    0    0  0.55265596843E+02 -0.74143182347E+02 -0.58801211682E+03  0.60223141994E+03  0.91503748300E+02 0.  0.
         23    2    4    4    0    0 -0.10959627608E+03 -0.49823039775E+03  0.18506629380E+03  0.55071012536E+03  0.93740258660E+02 0.  0.
          2    1    3    3  502    0  0.35222042313E+02  0.21509699220E+03  0.16245017738E+03  0.27184070417E+03  0.00000000000E+00 0. -1.
         -1    1    3    3    0  502  0.19108636923E+02  0.35727658790E+03  0.15763224025E+03  0.39097266328E+03  0.00000000000E+00 0.  1.
         11    1    5    5    0    0  0.62603571122E+02 -0.16788576962E+02 -0.40923662532E+03  0.41433763881E+03  0.00000000000E+00 0. -1.
        -11    1    5    5    0    0 -0.73379742788E+01 -0.57354605384E+02 -0.17877549151E+03  0.18789378113E+03  0.00000000000E+00 0.  1.
          1    1    6    6  503    0 -0.11843194814E+03 -0.49353652894E+03  0.17596669430E+03  0.53718591683E+03  0.00000000000E+00 0. -1.
         -1    1    6    6    0  503  0.88356720602E+01 -0.46938688152E+01  0.90995995038E+01  0.13524208529E+02  0.00000000000E+00 0.  1.
<mgrwt>
<rscale>  0 0.18138632E+04</rscale>
<asrwt>0</asrwt>
<pdfrwt beam="1">  1        2 0.14604756E+00 0.18138632E+04</pdfrwt>
<pdfrwt beam="2">  1       -1 0.13329935E+00 0.18138632E+04</pdfrwt>
<totfact> 0.13917102E+01</totfact>
</mgrwt>
</event>
<event>
12    6  0.8914180E-008  0.1903846E+04  0.7818608E-02  0.8652944E-01
          2   -1    0    0  501    0  0.00000000000E+00  0.00000000000E+00  0.80968624877E+03  0.80968624877E+03  0.00000000000E+00 0. -1.
         -1   -1    0    0    0  501 -0.00000000000E+00 -0.00000000000E+00 -0.11191462440E+04  0.11191462440E+04  0.00000000000E+00 0.  1.
         24    2    1    2    0    0 -0.14144000714E+03 -0.34912579965E+03 -0.76018687785E+03  0.85246478902E+03  0.83174681630E+02 0.  0.
        254    2    1    2    0    0  0.14144000714E+03  0.34912579965E+03  0.45072688263E+03  0.10763677037E+04  0.90195266578E+03 0.  0.
         23    2    4    4    0    0 -0.35930201509E+03  0.21462528678E+03  0.31976846419E+03  0.53463446191E+03  0.91761568181E+02 0.  0.
         23    2    4    4    0    0  0.50074202224E+03  0.13450051287E+03  0.13095841844E+03  0.54173324182E+03  0.86555399237E+02 0.  0.
          2    1    3    3  502    0 -0.12157478397E+03 -0.19231883400E+03 -0.43577182347E+03  0.49159337276E+03  0.00000000000E+00 0. -1.
         -1    1    3    3    0  502 -0.19865223172E+02 -0.15680696565E+03 -0.32441505438E+03  0.36087141626E+03  0.00000000000E+00 0.  1.
         11    1    5    5    0    0 -0.31876850506E+03  0.21696818620E+03  0.27167576754E+03  0.47169510948E+03  0.00000000000E+00 0.  1.
        -11    1    5    5    0    0 -0.40533510030E+02 -0.23428994130E+01  0.48092696647E+02  0.62939352426E+02  0.00000000000E+00 0. -1.
          1    1    6    6  503    0  0.44280775373E+03  0.12066599917E+03  0.14349782974E+03  0.48086444791E+03  0.00000000000E+00 0.  1.
         -1    1    6    6    0  503  0.57934268509E+02  0.13834513695E+02 -0.12539411303E+02  0.60868793915E+02  0.00000000000E+00 0. -1.
<mgrwt>
<rscale>  0 0.19038459E+04</rscale>
<asrwt>0</asrwt>
<pdfrwt beam="1">  1        2 0.12456712E+00 0.19038459E+04</pdfrwt>
<pdfrwt beam="2">  1       -1 0.17217634E+00 0.19038459E+04</pdfrwt>
<totfact> 0.85909402E+00</totfact>
</mgrwt>
</event>
<event>
12    6  0.8914180E-008  0.1572932E+04  0.7818608E-02  0.8837351E-01
         -1   -1    0    0    0  501 -0.00000000000E+00  0.00000000000E+00  0.30166271441E+03  0.30166271441E+03  0.00000000000E+00 0.  1.
          2   -1    0    0  501    0  0.00000000000E+00 -0.00000000000E+00 -0.20503993304E+04  0.20503993304E+04  0.00000000000E+00 0. -1.
         24    2    1    2    0    0  0.47071893689E+03  0.15985669290E+03 -0.31192523222E+03  0.59235600893E+03  0.80360506505E+02 0.  0.
        254    2    1    2    0    0 -0.47071893689E+03 -0.15985669290E+03 -0.14368113838E+04  0.17597060359E+04  0.88600671576E+03 0.  0.
         23    2    4    4    0    0  0.18474304417E+02  0.24317209884E+03 -0.85718165145E+03  0.89595458478E+03  0.92196880771E+02 0.  0.
         23    2    4    4    0    0 -0.48919324131E+03 -0.40302879174E+03 -0.57962973232E+03  0.86375145110E+03  0.91398623495E+02 0.  0.
          4    1    3    3  502    0  0.59759473483E+01  0.53236334369E+01 -0.21540669354E+02  0.22979413742E+02  0.00000000000E+00 0. -1.
         -3    1    3    3    0  502  0.46474298955E+03  0.15453305946E+03 -0.29038456287E+03  0.56937659519E+03  0.00000000000E+00 0.  1.
         11    1    5    5    0    0  0.28840187710E+02  0.15604748140E+03 -0.39808298162E+03  0.42854711892E+03  0.00000000000E+00 0.  1.
        -11    1    5    5    0    0 -0.10365883293E+02  0.87124617440E+02 -0.45909866983E+03  0.46740746586E+03  0.00000000000E+00 0. -1.
          1    1    6    6  503    0 -0.41194214327E+01 -0.59622246836E+01 -0.27385405251E+02  0.28328045766E+02  0.00000000000E+00 0. -1.
         -1    1    6    6    0  503 -0.48507381988E+03 -0.39706656706E+03 -0.55224432706E+03  0.83542340533E+03  0.00000000000E+00 0.  1.
<mgrwt>
<rscale>  0 0.15729323E+04</rscale>
<asrwt>0</asrwt>
<pdfrwt beam="1">  1        2 0.31544605E+00 0.15729323E+04</pdfrwt>
<pdfrwt beam="2">  1       -1 0.46409649E-01 0.15729323E+04</pdfrwt>
<totfact> 0.31695405E+01</totfact>
</mgrwt>
</event>
<event>
12    6  0.8914180E-008  0.1893186E+04  0.7818608E-02  0.8658256E-01
         -1   -1    0    0    0  501 -0.00000000000E+00  0.00000000000E+00  0.74064770700E+03  0.74064770700E+03  0.00000000000E+00 0.  1.
          2   -1    0    0  501    0  0.00000000000E+00 -0.00000000000E+00 -0.12098032951E+04  0.12098032951E+04  0.00000000000E+00 0. -1.
         24    2    1    2    0    0 -0.24805754881E+03  0.12096990596E+03 -0.88083388019E+03  0.92644122471E+03  0.79112278933E+02 0.  0.
        254    2    1    2    0    0  0.24805754881E+03 -0.12096990596E+03  0.41167829208E+03  0.10240097774E+04  0.89607518791E+03 0.  0.
         23    2    4    4    0    0 -0.54484724890E+02  0.14087113228E+03 -0.21263343840E+03  0.27725414845E+03  0.94040536746E+02 0.  0.
         23    2    4    4    0    0  0.30254227370E+03 -0.26184103825E+03  0.62431173048E+03  0.74675562895E+03  0.88239876901E+02 0.  0.
          4    1    3    3  502    0 -0.24477932224E+03  0.12052650469E+03 -0.88175811655E+03  0.92300646316E+03  0.00000000000E+00 0. -1.
         -3    1    3    3    0  502 -0.32782265620E+01  0.44340126772E+00  0.92423635572E+00  0.34347615518E+01  0.00000000000E+00 0.  1.
         11    1    5    5    0    0  0.21174933678E+02  0.84630246399E+01 -0.13732500786E+02  0.26619206978E+02  0.00000000000E+00 0.  1.
        -11    1    5    5    0    0 -0.75659658567E+02  0.13240810764E+03 -0.19890093761E+03  0.25063494148E+03  0.00000000000E+00 0. -1.
          2    1    6    6  503    0  0.23414726094E+03 -0.23585359381E+03  0.54898268806E+03  0.64174282179E+03  0.00000000000E+00 0. -1.
         -2    1    6    6    0  503  0.68395012751E+02 -0.25987444437E+02  0.75329042413E+02  0.10501280716E+03  0.00000000000E+00 0.  1.
<mgrwt>
<rscale>  0 0.18931857E+04</rscale>
<asrwt>0</asrwt>
<pdfrwt beam="1">  1        2 0.18612358E+00 0.18931857E+04</pdfrwt>
<pdfrwt beam="2">  1       -1 0.11394580E+00 0.18931857E+04</pdfrwt>
<totfact> 0.14012241E+01</totfact>
</mgrwt>
</event>
<event>
12    6  0.8914180E-008  0.1583606E+04  0.7818608E-02  0.8830683E-01
          2   -1    0    0  501    0  0.00000000000E+00  0.00000000000E+00  0.18457819388E+04  0.18457819388E+04  0.00000000000E+00 0. -1.
         -1   -1    0    0    0  501 -0.00000000000E+00 -0.00000000000E+00 -0.33966744064E+03  0.33966744064E+03  0.00000000000E+00 0.  1.
         24    2    1    2    0    0  0.17119513138E+03  0.79863773675E+02 -0.17752632799E+03  0.27179309201E+03  0.81669409095E+02 0.  0.
        254    2    1    2    0    0 -0.17119513138E+03 -0.79863773675E+02  0.16836408262E+04  0.19136562874E+04  0.88980220250E+03 0.  0.
         23    2    4    4    0    0  0.13770809405E+02 -0.43917587618E+03  0.11738237214E+04  0.12567210665E+04  0.91763962455E+02 0.  0.
         23    2    4    4    0    0 -0.18496594079E+03  0.35931210251E+03  0.50981710479E+03  0.65693522090E+03  0.91284269521E+02 0.  0.
          2    1    3    3  502    0  0.18928425703E+02 -0.13149710885E+02 -0.49757879262E+01  0.23578775656E+02  0.00000000000E+00 0. -1.
         -1    1    3    3    0  502  0.15226670568E+03  0.93013484560E+02 -0.17255054007E+03  0.24821431636E+03  0.00000000000E+00 0.  1.
         11    1    5    5    0    0  0.18436195451E+02 -0.30932882125E+02  0.55059412890E+02  0.65789630239E+02  0.00000000000E+00 0. -1.
        -11    1    5    5    0    0 -0.46653860462E+01 -0.40824299406E+03  0.11187643085E+04  0.11909314363E+04  0.00000000000E+00 0.  1.
          2    1    6    6  503    0 -0.93597219466E+02  0.90638806505E+02  0.17071801888E+03  0.21475678035E+03  0.00000000000E+00 0. -1.
         -2    1    6    6    0  503 -0.91368721320E+02  0.26867329600E+03  0.33909908591E+03  0.44217844055E+03  0.00000000000E+00 0.  1.
<mgrwt>
<rscale>  0 0.15836060E+04</rscale>
<asrwt>0</asrwt>
<pdfrwt beam="1">  1        2 0.28396645E+00 0.15836060E+04</pdfrwt>
<pdfrwt beam="2">  1       -1 0.52256530E-01 0.15836060E+04</pdfrwt>
<totfact> 0.32832224E+01</totfact>
</mgrwt>
</event>
<event>
12    6  0.8914180E-008  0.1620776E+04  0.7818608E-02  0.8807885E-01
          2   -1    0    0  501    0  0.00000000000E+00  0.00000000000E+00  0.94634253002E+03  0.94634253002E+03  0.00000000000E+00 0. -1.
         -1   -1    0    0    0  501 -0.00000000000E+00 -0.00000000000E+00 -0.69396506110E+03  0.69396506110E+03  0.00000000000E+00 0.  1.
         24    2    1    2    0    0  0.36424039829E+03 -0.33846882454E+03  0.34736371740E+03  0.61174508095E+03  0.79613309027E+02 0.  0.
        254    2    1    2    0    0 -0.36424039829E+03  0.33846882454E+03 -0.94986248480E+02  0.10285625102E+04  0.89536932994E+03 0.  0.
         23    2    4    4    0    0  0.28331394760E+03  0.18735459570E+03 -0.72336764284E+00  0.35100651684E+03  0.88524088081E+02 0.  0.
         23    2    4    4    0    0 -0.64755434589E+03  0.15111422884E+03 -0.94262880838E+02  0.67755599333E+03  0.89635329835E+02 0.  0.
          2    1    3    3  502    0  0.25067688041E+03 -0.25645305574E+03  0.21015027017E+03  0.41565635352E+03  0.00000000000E+00 0. -1.
         -1    1    3    3    0  502  0.11356351788E+03 -0.82015768795E+02  0.13721344723E+03  0.19608872743E+03  0.00000000000E+00 0.  1.
         11    1    5    5    0    0  0.23422265750E+03  0.17951736267E+03 -0.24069507760E+02  0.29608457912E+03  0.00000000000E+00 0. -1.
        -11    1    5    5    0    0  0.49091290097E+02  0.78372330281E+01  0.23346140118E+02  0.54921937723E+02  0.00000000000E+00 0.  1.
          3    1    6    6  503    0 -0.13060341476E+03  0.14925031163E+02 -0.51770462157E+02  0.14128053388E+03  0.00000000000E+00 0. -1.
         -3    1    6    6    0  503 -0.51695093113E+03  0.13618919768E+03 -0.42492418680E+02  0.53627545945E+03  0.00000000000E+00 0.  1.
<mgrwt>
<rscale>  0 0.16207759E+04</rscale>
<asrwt>0</asrwt>
<pdfrwt beam="1">  1        2 0.14559116E+00 0.16207759E+04</pdfrwt>
<pdfrwt beam="2">  1       -1 0.10676386E+00 0.16207759E+04</pdfrwt>
<totfact> 0.24428700E+01</totfact>
</mgrwt>
</event>
<event>
12    6  0.8914180E-008  0.1239778E+04  0.7818608E-02  0.9078734E-01
          2   -1    0    0  501    0  0.00000000000E+00  0.00000000000E+00  0.77755405427E+03  0.77755405427E+03  0.00000000000E+00 0. -1.
         -1   -1    0    0    0  501 -0.00000000000E+00 -0.00000000000E+00 -0.49419353728E+03  0.49419353728E+03  0.00000000000E+00 0.  1.
         24    2    1    2    0    0  0.25169441864E+03 -0.10266703780E+03  0.19017933152E+02  0.29394660500E+03  0.11023757883E+03 0.  0.
        254    2    1    2    0    0 -0.25169441864E+03  0.10266703780E+03  0.26434258384E+03  0.97780098654E+03  0.90129194306E+03 0.  0.
         23    2    4    4    0    0 -0.48179799749E+03  0.33610973048E+03  0.22137171307E+03  0.63444051852E+03  0.91707550919E+02 0.  0.
         23    2    4    4    0    0  0.23010357884E+03 -0.23344269268E+03  0.42970870770E+02  0.34336046802E+03  0.92772665703E+02 0.  0.
          4    1    3    3  502    0  0.10255662069E+03 -0.78161424413E+02  0.52366047157E+02  0.13917353056E+03  0.00000000000E+00 0. -1.
         -3    1    3    3    0  502  0.14913779795E+03 -0.24505613383E+02 -0.33348114004E+02  0.15477307445E+03  0.00000000000E+00 0.  1.
         11    1    5    5    0    0 -0.33782193617E+03  0.25777405845E+03  0.11936324202E+03  0.44138272430E+03  0.00000000000E+00 0.  1.
        -11    1    5    5    0    0 -0.14397606131E+03  0.78335672030E+02  0.10200847105E+03  0.19305779422E+03  0.00000000000E+00 0. -1.
          1    1    6    6  503    0  0.26898318876E+00 -0.85585914978E+01 -0.14376117483E+02  0.16733039003E+02  0.00000000000E+00 0. -1.
         -1    1    6    6    0  503  0.22983459566E+03 -0.22488410118E+03  0.57346988253E+02  0.32662742902E+03  0.00000000000E+00 0.  1.
<mgrwt>
<rscale>  0 0.12397777E+04</rscale>
<asrwt>0</asrwt>
<pdfrwt beam="1">  1        2 0.11962370E+00 0.12397777E+04</pdfrwt>
<pdfrwt beam="2">  1       -1 0.76029775E-01 0.12397777E+04</pdfrwt>
<totfact> 0.69865503E+01</totfact>
</mgrwt>
</event>
<event>
12    6  0.8914180E-008  0.1564571E+04  0.7818608E-02  0.8842614E-01
          2   -1    0    0  501    0  0.00000000000E+00  0.00000000000E+00  0.95371257181E+03  0.95371257181E+03  0.00000000000E+00 0. -1.
         -1   -1    0    0    0  501 -0.00000000000E+00 -0.00000000000E+00 -0.64167163709E+03  0.64167163709E+03  0.00000000000E+00 0.  1.
         24    2    1    2    0    0 -0.94077663568E+02 -0.17094965695E+03 -0.38607622679E+03  0.43997356459E+03  0.80296280445E+02 0.  0.
        254    2    1    2    0    0  0.94077663568E+02  0.17094965695E+03  0.69811716151E+03  0.11554106443E+04  0.89973984784E+03 0.  0.
         23    2    4    4    0    0  0.32753112979E+03 -0.75398788276E+02  0.72373375662E+03  0.80278219166E+03  0.87789968289E+02 0.  0.
         23    2    4    4    0    0 -0.23345346622E+03  0.24634844522E+03 -0.25616595103E+02  0.35262845265E+03  0.92209209501E+02 0.  0.
          4    1    3    3  502    0 -0.61896092846E+02 -0.37743245925E+02 -0.10974369283E+03  0.13152702019E+03  0.00000000000E+00 0. -1.
         -3    1    3    3    0  502 -0.32181570722E+02 -0.13320641102E+03 -0.27633253396E+03  0.30844654440E+03  0.00000000000E+00 0.  1.
         11    1    5    5    0    0  0.27744049754E+03 -0.36701482565E+02  0.53595612966E+03  0.60462318961E+03  0.00000000000E+00 0.  1.
        -11    1    5    5    0    0  0.50090632248E+02 -0.38697305710E+02  0.18777762696E+03  0.19815900205E+03  0.00000000000E+00 0. -1.
          3    1    6    6  503    0 -0.67659922524E+02  0.94460789899E+02 -0.49933714680E+02  0.12646771053E+03  0.00000000000E+00 0. -1.
         -3    1    6    6    0  503 -0.16579354369E+03  0.15188765533E+03  0.24317119577E+02  0.22616074212E+03  0.00000000000E+00 0.  1.
<mgrwt>
<rscale>  0 0.15645706E+04</rscale>
<asrwt>0</asrwt>
<pdfrwt beam="1">  1        2 0.14672501E+00 0.15645706E+04</pdfrwt>
<pdfrwt beam="2">  1       -1 0.98718713E-01 0.15645706E+04</pdfrwt>
<totfact> 0.29083969E+01</totfact>
</mgrwt>
</event>
<event>
12    6  0.8914180E-008  0.1514389E+04  0.7818608E-02  0.8874940E-01
         -1   -1    0    0    0  501 -0.00000000000E+00  0.00000000000E+00  0.16671121058E+04  0.16671121058E+04  0.00000000000E+00 0.  1.
          2   -1    0    0  501    0  0.00000000000E+00 -0.00000000000E+00 -0.34391425909E+03  0.34391425909E+03  0.00000000000E+00 0. -1.
         24    2    1    2    0    0 -0.18027017566E+03 -0.14018668806E+03 -0.13877458242E+03  0.27910566158E+03  0.80572587511E+02 0.  0.
        254    2    1    2    0    0  0.18027017566E+03  0.14018668806E+03  0.14619724291E+04  0.17319207033E+04  0.90002016383E+03 0.  0.
         23    2    4    4    0    0  0.10928881052E+03  0.48390264008E+03  0.53096992849E+03  0.73253587714E+03  0.92595556872E+02 0.  0.
         23    2    4    4    0    0  0.70981365139E+02 -0.34371595203E+03  0.93100250064E+03  0.99938482618E+03  0.93943412333E+02 0.  0.
          2    1    3    3  502    0 -0.11755424258E+03 -0.10385588506E+03 -0.13428357723E+03  0.20648758782E+03  0.00000000000E+00 0. -1.
         -3    1    3    3    0  502 -0.62715933085E+02 -0.36330802999E+02 -0.44910051893E+01  0.72618073762E+02  0.00000000000E+00 0.  1.
         11    1    5    5    0    0  0.76136014851E+02  0.17605121061E+03  0.24405013326E+03  0.31040487924E+03  0.00000000000E+00 0. -1.
        -11    1    5    5    0    0  0.33152795672E+02  0.30785142948E+03  0.28691979523E+03  0.42213099790E+03  0.00000000000E+00 0.  1.
          1    1    6    6  503    0  0.53698211521E+02 -0.31021314799E+03  0.88821331280E+03  0.94235799150E+03  0.00000000000E+00 0. -1.
         -1    1    6    6    0  503  0.17283153618E+02 -0.33502804037E+02  0.42789187834E+02  0.57026834673E+02  0.00000000000E+00 0.  1.
<mgrwt>
<rscale>  0 0.15143892E+04</rscale>
<asrwt>0</asrwt>
<pdfrwt beam="1">  1        2 0.52909887E-01 0.15143892E+04</pdfrwt>
<pdfrwt beam="2">  1       -1 0.25647878E+00 0.15143892E+04</pdfrwt>
<totfact> 0.65901698E+00</totfact>
</mgrwt>
</event>
<event>
12    6  0.8914180E-008  0.1461415E+04  0.7818608E-02  0.8910525E-01
          2   -1    0    0  501    0  0.00000000000E+00  0.00000000000E+00  0.71540519652E+03  0.71540519652E+03  0.00000000000E+00 0. -1.
         -1   -1    0    0    0  501 -0.00000000000E+00 -0.00000000000E+00 -0.74633757806E+03  0.74633757806E+03  0.00000000000E+00 0.  1.
         24    2    1    2    0    0  0.38874580835E+03 -0.26425420860E+01  0.22439992103E+03  0.45595178640E+03  0.80040117615E+02 0.  0.
        254    2    1    2    0    0 -0.38874580835E+03  0.26425420860E+01 -0.25533230257E+03  0.10057909882E+04  0.89179069329E+03 0.  0.
         23    2    4    4    0    0 -0.83129607510E+02 -0.16068450625E+02 -0.55483249339E+03  0.56857070982E+03  0.90911108161E+02 0.  0.
         23    2    4    4    0    0 -0.30561620084E+03  0.18710992711E+02  0.29950019082E+03  0.43722027836E+03  0.87805717625E+02 0.  0.
          4    1    3    3  502    0  0.13157449301E+03 -0.39550971324E+01  0.12090626023E+03  0.17873391890E+03  0.00000000000E+00 0. -1.
         -3    1    3    3    0  502  0.25717131534E+03  0.13125550465E+01  0.10349366080E+03  0.27721786750E+03  0.00000000000E+00 0.  1.
         11    1    5    5    0    0 -0.76339463426E+02 -0.46657123954E+01 -0.54860556023E+03  0.55391113300E+03  0.00000000000E+00 0. -1.
        -11    1    5    5    0    0 -0.67901440833E+01 -0.11402738229E+02 -0.62269331642E+01  0.14659576816E+02  0.00000000000E+00 0.  1.
          3    1    6    6  503    0 -0.19505784929E+03  0.52123271668E+02  0.20794252357E+03  0.28983528621E+03  0.00000000000E+00 0. -1.
         -3    1    6    6    0  503 -0.11055835154E+03 -0.33412278957E+02  0.91557667250E+02  0.14738499216E+03  0.00000000000E+00 0.  1.
<mgrwt>
<rscale>  0 0.14614155E+04</rscale>
<asrwt>0</asrwt>
<pdfrwt beam="1">  1        2 0.11006234E+00 0.14614155E+04</pdfrwt>
<pdfrwt beam="2">  1       -1 0.11482117E+00 0.14614155E+04</pdfrwt>
<totfact> 0.30397171E+01</totfact>
</mgrwt>
</event>
<event>
12    6  0.8914180E-008  0.3669973E+04  0.7818608E-02  0.8074649E-01
         -1   -1    0    0    0  501 -0.00000000000E+00  0.00000000000E+00  0.24073861851E+04  0.24073861851E+04  0.00000000000E+00 0.  1.
          2   -1    0    0  501    0  0.00000000000E+00 -0.00000000000E+00 -0.13986853893E+04  0.13986853893E+04  0.00000000000E+00 0. -1.
         24    2    1    2    0    0  0.96094854828E+03 -0.21788002089E+02 -0.10100795261E+04  0.13965019547E+04  0.77847484857E+02 0.  0.
        254    2    1    2    0    0 -0.96094854828E+03  0.21788002089E+02  0.20187803219E+04  0.24095696197E+04  0.89813970779E+03 0.  0.
         23    2    4    4    0    0 -0.29976915207E+03 -0.36661576532E+03  0.44517976155E+03  0.65665151385E+03  0.93474737948E+02 0.  0.
         23    2    4    4    0    0 -0.66117939621E+03  0.38840376741E+03  0.15736005603E+04  0.17529181058E+04  0.92127530404E+02 0.  0.
          2    1    3    3  502    0  0.95445237990E+03 -0.19594329522E+02 -0.99009172162E+03  0.13753708229E+04  0.00000000000E+00 0. -1.
         -1    1    3    3    0  502  0.64961683807E+01 -0.21936725678E+01 -0.19987804443E+02  0.21131131759E+02  0.00000000000E+00 0.  1.
         11    1    5    5    0    0 -0.23793588712E+03 -0.22326316805E+03  0.31193821573E+03  0.45140378712E+03  0.00000000000E+00 0.  1.
        -11    1    5    5    0    0 -0.61833264944E+02 -0.14335259726E+03  0.13324154582E+03  0.20524772673E+03  0.00000000000E+00 0. -1.
          4    1    6    6  503    0 -0.87868008842E+02  0.26486836454E+02  0.14505199771E+03  0.17164621033E+03  0.00000000000E+00 0. -1.
         -4    1    6    6    0  503 -0.57331138737E+03  0.36191693095E+03  0.14285485626E+04  0.15812718955E+04  0.00000000000E+00 0.  1.
<mgrwt>
<rscale>  0 0.36699732E+04</rscale>
<asrwt>0</asrwt>
<pdfrwt beam="1">  1        2 0.21518237E+00 0.36699732E+04</pdfrwt>
<pdfrwt beam="2">  1       -1 0.37036711E+00 0.36699732E+04</pdfrwt>
<totfact> 0.15190643E-01</totfact>
</mgrwt>
</event>
<event>
12    6  0.8914180E-008  0.1167747E+04  0.7818608E-02  0.9141565E-01
          2   -1    0    0  501    0  0.00000000000E+00  0.00000000000E+00  0.11580240480E+04  0.11580240480E+04  0.00000000000E+00 0. -1.
         -1   -1    0    0    0  501 -0.00000000000E+00 -0.00000000000E+00 -0.29438797161E+03  0.29438797161E+03  0.00000000000E+00 0.  1.
         24    2    1    2    0    0 -0.21529983669E+02 -0.16933441729E+03  0.35703566551E+03  0.40318037847E+03  0.77086095144E+02 0.  0.
        254    2    1    2    0    0  0.21529983669E+02  0.16933441729E+03  0.50660041087E+03  0.10492316411E+04  0.90283186439E+03 0.  0.
         23    2    4    4    0    0  0.31946664878E+03  0.28137735772E+03 -0.10673762410E+02  0.43484594308E+03  0.88005158299E+02 0.  0.
         23    2    4    4    0    0 -0.29793666511E+03 -0.11204294043E+03  0.51727417328E+03  0.61438569804E+03  0.92613922812E+02 0.  0.
          2    1    3    3  502    0  0.19407520634E+01 -0.41993638448E+02  0.17379117455E+03  0.17880325651E+03  0.00000000000E+00 0. -1.
         -1    1    3    3    0  502 -0.23470735733E+02 -0.12734077884E+03  0.18324449096E+03  0.22437712196E+03  0.00000000000E+00 0.  1.
         11    1    5    5    0    0  0.24449504507E+03  0.16349534411E+03  0.57598836023E+01  0.29417975945E+03  0.00000000000E+00 0.  1.
        -11    1    5    5    0    0  0.74971603708E+02  0.11788201361E+03 -0.16433646012E+02  0.14066618363E+03  0.00000000000E+00 0. -1.
          3    1    6    6  503    0 -0.28021771164E+03 -0.12619547259E+03  0.46470358239E+03  0.55713255398E+03  0.00000000000E+00 0. -1.
         -3    1    6    6    0  503 -0.17718953472E+02  0.14152532156E+02  0.52570590887E+02  0.57253144061E+02  0.00000000000E+00 0.  1.
<mgrwt>
<rscale>  0 0.11677471E+04</rscale>
<asrwt>0</asrwt>
<pdfrwt beam="1">  1        2 0.17815754E+00 0.11677471E+04</pdfrwt>
<pdfrwt beam="2">  1       -1 0.45290458E-01 0.11677471E+04</pdfrwt>
<totfact> 0.10945464E+02</totfact>
</mgrwt>
</event>
<event>
12    6  0.8914180E-008  0.1420335E+04  0.7818608E-02  0.8939229E-01
          2   -1    0    0  501    0  0.00000000000E+00  0.00000000000E+00  0.27246524863E+04  0.27246524863E+04  0.00000000000E+00 0. -1.
         -1   -1    0    0    0  501 -0.00000000000E+00 -0.00000000000E+00 -0.18510164139E+03  0.18510164139E+03  0.00000000000E+00 0.  1.
         24    2    1    2    0    0  0.53747253546E+02  0.87640422902E+01  0.16234246968E+04  0.16262759485E+04  0.79373414030E+02 0.  0.
        254    2    1    2    0    0 -0.53747253546E+02 -0.87640422902E+01  0.91612614818E+03  0.12834781792E+04  0.89725333184E+03 0.  0.
         23    2    4    4    0    0  0.21464802734E+02 -0.39861050160E+03  0.19155191458E+03  0.45208489039E+03  0.91310144003E+02 0.  0.
         23    2    4    4    0    0 -0.75212056280E+02  0.38984645931E+03  0.72457423359E+03  0.83139328885E+03  0.92573568107E+02 0.  0.
          4    1    3    3  502    0  0.43560706372E+02  0.88037528009E+01  0.16013245532E+04  0.16019411243E+04  0.00000000000E+00 0. -1.
         -3    1    3    3    0  502  0.10186547174E+02 -0.39710510636E-01  0.22100143598E+02  0.24334824168E+02  0.00000000000E+00 0.  1.
         11    1    5    5    0    0 -0.21680251436E+02 -0.26382888781E+03  0.97210145383E+02  0.28200270869E+03  0.00000000000E+00 0.  1.
        -11    1    5    5    0    0  0.43145054170E+02 -0.13478161379E+03  0.94341769200E+02  0.17008218170E+03  0.00000000000E+00 0. -1.
          4    1    6    6  503    0  0.70421092376E+01  0.81357038883E+01  0.57013854385E+02  0.58020346191E+02  0.00000000000E+00 0. -1.
         -4    1    6    6    0  503 -0.82254165518E+02  0.38171075542E+03  0.66756037921E+03  0.77337294266E+03  0.00000000000E+00 0.  1.
<mgrwt>
<rscale>  0 0.14203347E+04</rscale>
<asrwt>0</asrwt>
<pdfrwt beam="1">  1        2 0.41917728E+00 0.14203347E+04</pdfrwt>
<pdfrwt beam="2">  1       -1 0.28477177E-01 0.14203347E+04</pdfrwt>
<totfact> 0.31938934E+01</totfact>
</mgrwt>
</event>
<event>
12    6  0.8914180E-008  0.1578850E+04  0.7818608E-02  0.8833648E-01
          2   -1    0    0  501    0  0.00000000000E+00  0.00000000000E+00  0.13768591451E+04  0.13768591451E+04  0.00000000000E+00 0. -1.
         -1   -1    0    0    0  501 -0.00000000000E+00 -0.00000000000E+00 -0.45261816133E+03  0.45261816133E+03  0.00000000000E+00 0.  1.
         24    2    1    2    0    0  0.17287279432E+02 -0.38355735615E+03 -0.10764789818E+03  0.40668752837E+03  0.79947359309E+02 0.  0.
        254    2    1    2    0    0 -0.17287279432E+02  0.38355735615E+03  0.10318888819E+04  0.14227897780E+04  0.90117755872E+03 0.  0.
         23    2    4    4    0    0 -0.28191023148E+03 -0.14231413527E+03  0.60890839634E+03  0.69197572891E+03  0.91292291854E+02 0.  0.
         23    2    4    4    0    0  0.26462295204E+03  0.52587149142E+03  0.42298048558E+03  0.73081404912E+03  0.92793054569E+02 0.  0.
          4    1    3    3  502    0  0.44010114416E+01 -0.13502662693E+03  0.10935799736E+01  0.13510275644E+03  0.00000000000E+00 0. -1.
         -1    1    3    3    0  502  0.12886267991E+02 -0.24853072922E+03 -0.10874147816E+03  0.27158477192E+03  0.00000000000E+00 0.  1.
         11    1    5    5    0    0 -0.78791491735E+02 -0.36158584229E+02  0.91322617182E+02  0.12591807969E+03  0.00000000000E+00 0.  1.
        -11    1    5    5    0    0 -0.20311873974E+03 -0.10615555104E+03  0.51758577916E+03  0.56605764922E+03  0.00000000000E+00 0. -1.
          2    1    6    6  503    0  0.90985172273E+02  0.26516465876E+03  0.16722887790E+03  0.32642931154E+03  0.00000000000E+00 0. -1.
         -2    1    6    6    0  503  0.17363777977E+03  0.26070683266E+03  0.25575160767E+03  0.40438473758E+03  0.00000000000E+00 0.  1.
<mgrwt>
<rscale>  0 0.15788495E+04</rscale>
<asrwt>0</asrwt>
<pdfrwt beam="1">  1        2 0.21182448E+00 0.15788495E+04</pdfrwt>
<pdfrwt beam="2">  1       -1 0.69633564E-01 0.15788495E+04</pdfrwt>
<totfact> 0.34066098E+01</totfact>
</mgrwt>
</event>
<event>
12    6  0.8914180E-008  0.1334766E+04  0.7818608E-02  0.9002441E-01
         -1   -1    0    0    0  501 -0.00000000000E+00  0.00000000000E+00  0.91619953232E+03  0.91619953232E+03  0.00000000000E+00 0.  1.
          2   -1    0    0  501    0  0.00000000000E+00 -0.00000000000E+00 -0.48613863725E+03  0.48613863725E+03  0.00000000000E+00 0. -1.
         24    2    1    2    0    0  0.27181410476E+03 -0.52101976272E+02  0.35653547041E+03  0.45844517305E+03  0.80354909951E+02 0.  0.
        254    2    1    2    0    0 -0.27181410476E+03  0.52101976272E+02  0.73525424661E+02  0.94389299652E+03  0.89940562448E+03 0.  0.
         23    2    4    4    0    0 -0.17715424699E+03  0.44639210834E+03 -0.90518125158E+02  0.49720306096E+03  0.91475741225E+02 0.  0.
         23    2    4    4    0    0 -0.94659857770E+02 -0.39429013207E+03  0.16404354982E+03  0.44668993556E+03  0.90534056444E+02 0.  0.
          4    1    3    3  502    0  0.19539058043E+02 -0.22645673824E+02  0.66509937576E+02  0.72925805642E+02  0.00000000000E+00 0. -1.
         -3    1    3    3    0  502  0.25227504672E+03 -0.29456302448E+02  0.29002553283E+03  0.38551936740E+03  0.00000000000E+00 0.  1.
         11    1    5    5    0    0 -0.89229538487E+02  0.19071132855E+03  0.45426065699E+01  0.21060236620E+03  0.00000000000E+00 0. -1.
        -11    1    5    5    0    0 -0.87924708502E+02  0.25568077979E+03 -0.95060731728E+02  0.28660069476E+03  0.00000000000E+00 0.  1.
          3    1    6    6  503    0 -0.13175902879E+02 -0.80243633971E+02 -0.37875384881E+01  0.81406330573E+02  0.00000000000E+00 0. -1.
         -3    1    6    6    0  503 -0.81483954891E+02 -0.31404649810E+03  0.16783108831E+03  0.36528360499E+03  0.00000000000E+00 0.  1.
<mgrwt>
<rscale>  0 0.13347659E+04</rscale>
<asrwt>0</asrwt>
<pdfrwt beam="1">  1        2 0.74790560E-01 0.13347659E+04</pdfrwt>
<pdfrwt beam="2">  1       -1 0.14095377E+00 0.13347659E+04</pdfrwt>
<totfact> 0.29300894E+01</totfact>
</mgrwt>
</event>
<event>
12    6  0.8914180E-008  0.1873264E+04  0.7818608E-02  0.8668280E-01
         -1   -1    0    0    0  501 -0.00000000000E+00  0.00000000000E+00  0.21794339851E+03  0.21794339851E+03  0.00000000000E+00 0.  1.
          2   -1    0    0  501    0  0.00000000000E+00 -0.00000000000E+00 -0.40252633796E+04  0.40252633796E+04  0.00000000000E+00 0. -1.
         24    2    1    2    0    0  0.16375138680E+03  0.71448212414E+02  0.10522131742E+03  0.22566861530E+03  0.89081056096E+02 0.  0.
        254    2    1    2    0    0 -0.16375138680E+03 -0.71448212414E+02 -0.39125412985E+04  0.40175381628E+04  0.89482630346E+03 0.  0.
         23    2    4    4    0    0 -0.10642968959E+03  0.38328180618E+03 -0.12665893760E+04  0.13305501517E+04  0.88785342205E+02 0.  0.
         23    2    4    4    0    0 -0.57321697210E+02 -0.45473001859E+03 -0.26459519225E+04  0.26869880111E+04  0.93690068281E+02 0.  0.
          2    1    3    3  502    0  0.28759018285E+02  0.54660502148E+02  0.19032112322E+02  0.64630278718E+02  0.00000000000E+00 0. -1.
         -1    1    3    3    0  502  0.13499236851E+03  0.16787710266E+02  0.86189205095E+02  0.16103833658E+03  0.00000000000E+00 0.  1.
         11    1    5    5    0    0 -0.11805868376E+03  0.28363401008E+03 -0.94842679608E+03  0.99694507974E+03  0.00000000000E+00 0. -1.
        -11    1    5    5    0    0  0.11628994166E+02  0.99647796097E+02 -0.31816257989E+03  0.33360507193E+03  0.00000000000E+00 0.  1.
          1    1    6    6  503    0 -0.69797250255E+02 -0.44588911898E+03 -0.25181286431E+04  0.25582534327E+04  0.00000000000E+00 0. -1.
         -1    1    6    6    0  503  0.12475553046E+02 -0.88408996098E+01 -0.12782327942E+03  0.12873457846E+03  0.00000000000E+00 0.  1.
<mgrwt>
<rscale>  0 0.18732641E+04</rscale>
<asrwt>0</asrwt>
<pdfrwt beam="1">  1        2 0.61927133E+00 0.18732641E+04</pdfrwt>
<pdfrwt beam="2">  1       -1 0.33529751E-01 0.18732641E+04</pdfrwt>
<totfact> 0.29604461E+00</totfact>
</mgrwt>
</event>
<event>
12    6  0.8914180E-008  0.1116127E+04  0.7818608E-02  0.9189614E-01
         -1   -1    0    0    0  501 -0.00000000000E+00  0.00000000000E+00  0.17838356151E+03  0.17838356151E+03  0.00000000000E+00 0.  1.
          2   -1    0    0  501    0  0.00000000000E+00 -0.00000000000E+00 -0.17458735621E+04  0.17458735621E+04  0.00000000000E+00 0. -1.
         24    2    1    2    0    0  0.14019316627E+03  0.10475210667E+03 -0.31304230446E+03  0.36778712217E+03  0.81515367468E+02 0.  0.
        254    2    1    2    0    0 -0.14019316627E+03 -0.10475210667E+03 -0.12544476961E+04  0.15564700014E+04  0.90461744142E+03 0.  0.
         23    2    4    4    0    0  0.16278146367E+03  0.92721470839E+02 -0.11485651260E+04  0.11675290452E+04  0.93952896275E+02 0.  0.
         23    2    4    4    0    0 -0.30297462994E+03 -0.19747357751E+03 -0.10588257014E+03  0.38894095621E+03  0.96304249945E+02 0.  0.
          4    1    3    3  502    0  0.95677213983E+02  0.10752796712E+03 -0.26910420701E+03  0.30517776331E+03  0.00000000000E+00 0. -1.
         -3    1    3    3    0  502  0.44515952288E+02 -0.27758604548E+01 -0.43938097446E+02  0.62609358858E+02  0.00000000000E+00 0.  1.
         11    1    5    5    0    0 -0.81831219435E+01  0.23617757454E+02 -0.15349549752E+03  0.15551729714E+03  0.00000000000E+00 0. -1.
        -11    1    5    5    0    0  0.17096458562E+03  0.69103713385E+02 -0.99506962848E+03  0.10120117481E+04  0.00000000000E+00 0.  1.
          3    1    6    6  503    0 -0.35804849958E+02 -0.43404820074E+02  0.14111973162E+02  0.58009598108E+02  0.00000000000E+00 0. -1.
         -3    1    6    6    0  503 -0.26716977999E+03 -0.15406875743E+03 -0.11999454330E+03  0.33093135810E+03  0.00000000000E+00 0.  1.
<mgrwt>
<rscale>  0 0.11161275E+04</rscale>
<asrwt>0</asrwt>
<pdfrwt beam="1">  1        2 0.26859593E+00 0.11161275E+04</pdfrwt>
<pdfrwt beam="2">  1       -1 0.27443625E-01 0.11161275E+04</pdfrwt>
<totfact> 0.12461477E+02</totfact>
</mgrwt>
</event>
<event>
12    6  0.8914180E-008  0.2823179E+04  0.7818608E-02  0.8296108E-01
          2   -1    0    0  501    0  0.00000000000E+00  0.00000000000E+00  0.27348949434E+04  0.27348949434E+04  0.00000000000E+00 0. -1.
         -1   -1    0    0    0  501 -0.00000000000E+00 -0.00000000000E+00 -0.72857810216E+03  0.72857810216E+03  0.00000000000E+00 0.  1.
         24    2    1    2    0    0  0.40496070195E+03  0.62735642820E+03 -0.35090020213E+03  0.82941026535E+03  0.84977516354E+02 0.  0.
        254    2    1    2    0    0 -0.40496070195E+03 -0.62735642820E+03  0.23572170433E+04  0.26340627802E+04  0.90787955283E+03 0.  0.
         23    2    4    4    0    0 -0.51249325434E+03 -0.13765601184E+03  0.60807255319E+03  0.81220471638E+03  0.91245591901E+02 0.  0.
         23    2    4    4    0    0  0.10753255238E+03 -0.48970041635E+03  0.17491444901E+04  0.18218580638E+04  0.91052784838E+02 0.  0.
          4    1    3    3  502    0  0.11921317775E+02  0.75756615229E+01  0.33041307428E+01  0.14506058906E+02  0.00000000000E+00 0. -1.
         -3    1    3    3    0  502  0.39303938418E+03  0.61978076667E+03 -0.35420433287E+03  0.81490420644E+03  0.00000000000E+00 0.  1.
         11    1    5    5    0    0 -0.65657253075E+02 -0.48346621756E+02  0.11303575455E+03  0.13937486331E+03  0.00000000000E+00 0. -1.
        -11    1    5    5    0    0 -0.44683600126E+03 -0.89309390087E+02  0.49503679864E+03  0.67282985307E+03  0.00000000000E+00 0.  1.
          2    1    6    6  503    0  0.67844559582E+02 -0.31561333411E+03  0.12742273911E+04  0.13144847300E+04  0.00000000000E+00 0. -1.
         -2    1    6    6    0  503  0.39687992801E+02 -0.17408708224E+03  0.47491709900E+03  0.50737333385E+03  0.00000000000E+00 0.  1.
<mgrwt>
<rscale>  0 0.28231788E+04</rscale>
<asrwt>0</asrwt>
<pdfrwt beam="1">  1        2 0.42075306E+00 0.28231788E+04</pdfrwt>
<pdfrwt beam="2">  1       -1 0.11208894E+00 0.28231788E+04</pdfrwt>
<totfact> 0.18228264E+00</totfact>
</mgrwt>
</event>
<event>
12    6  0.8914180E-008  0.1295984E+04  0.7818608E-02  0.9032756E-01
          2   -1    0    0  501    0  0.00000000000E+00  0.00000000000E+00  0.83765896556E+03  0.83765896556E+03  0.00000000000E+00 0. -1.
         -1   -1    0    0    0  501 -0.00000000000E+00 -0.00000000000E+00 -0.50127055267E+03  0.50127055267E+03  0.00000000000E+00 0.  1.
         24    2    1    2    0    0  0.42008859963E+02  0.26058968193E+03 -0.10605506812E+03  0.29987916270E+03  0.94911053663E+02 0.  0.
        254    2    1    2    0    0 -0.42008859963E+02 -0.26058968193E+03  0.44244348101E+03  0.10390503555E+04  0.90232903134E+03 0.  0.
         23    2    4    4    0    0  0.33507334146E+03 -0.38287689411E+03  0.34191347902E+03  0.61976344692E+03  0.91285501588E+02 0.  0.
         23    2    4    4    0    0 -0.37708220142E+03  0.12228721218E+03  0.10053000199E+03  0.41928690861E+03  0.92466650973E+02 0.  0.
          2    1    3    3  502    0  0.55504231619E+02  0.17143736191E+03 -0.31608953623E+02  0.18294976014E+03  0.00000000000E+00 0. -1.
         -1    1    3    3    0  502 -0.13495371656E+02  0.89152320024E+02 -0.74446114493E+02  0.11692940257E+03  0.00000000000E+00 0.  1.
         11    1    5    5    0    0  0.20413280040E+03 -0.29368397434E+03  0.22060512727E+03  0.42022267807E+03  0.00000000000E+00 0. -1.
        -11    1    5    5    0    0  0.13094054106E+03 -0.89192919773E+02  0.12130835175E+03  0.19954076885E+03  0.00000000000E+00 0.  1.
          4    1    6    6  503    0 -0.13410970787E+03  0.90941780785E+02  0.42685391580E+02  0.16756450666E+03  0.00000000000E+00 0.  1.
         -4    1    6    6    0  503 -0.24297249355E+03  0.31345431396E+02  0.57844610406E+02  0.25172240195E+03  0.00000000000E+00 0. -1.
<mgrwt>
<rscale>  0 0.12959842E+04</rscale>
<asrwt>0</asrwt>
<pdfrwt beam="1">  1        2 0.12887061E+00 0.12959842E+04</pdfrwt>
<pdfrwt beam="2">  1       -1 0.77118546E-01 0.12959842E+04</pdfrwt>
<totfact> 0.61124221E+01</totfact>
</mgrwt>
</event>
<event>
12    6  0.8914180E-008  0.1916484E+04  0.7818608E-02  0.8646695E-01
          2   -1    0    0  501    0  0.00000000000E+00  0.00000000000E+00  0.16966054833E+04  0.16966054833E+04  0.00000000000E+00 0. -1.
         -1   -1    0    0    0  501 -0.00000000000E+00 -0.00000000000E+00 -0.54121444286E+03  0.54121444286E+03  0.00000000000E+00 0.  1.
         24    2    1    2    0    0 -0.10462546291E+03 -0.29206983296E+03  0.12417314342E+04  0.12818530145E+04  0.70703049999E+02 0.  0.
        254    2    1    2    0    0  0.10462546291E+03  0.29206983296E+03 -0.86340393733E+02  0.95596691170E+03  0.90009266070E+03 0.  0.
         23    2    4    4    0    0  0.24473378260E+03  0.57036655063E+03 -0.78167313860E+02  0.63141134278E+03  0.85776036361E+02 0.  0.
         23    2    4    4    0    0 -0.14010831968E+03 -0.27829671767E+03 -0.81730798734E+01  0.32455556891E+03  0.90499247341E+02 0.  0.
          2    1    3    3  502    0 -0.92866192881E+02 -0.28917625719E+03  0.12168448637E+04  0.12541764070E+04  0.00000000000E+00 0. -1.
         -1    1    3    3    0  502 -0.11759270034E+02 -0.28935757711E+01  0.24886570461E+02  0.27676607484E+02  0.00000000000E+00 0.  1.
         11    1    5    5    0    0  0.12650442647E+03  0.26019839327E+03 -0.77313549041E+02  0.29947280117E+03  0.00000000000E+00 0.  1.
        -11    1    5    5    0    0  0.11822935612E+03  0.31016815736E+03 -0.85376481875E+00  0.33193854161E+03  0.00000000000E+00 0. -1.
          1    1    6    6  503    0 -0.12646414273E+03 -0.26039317796E+03 -0.32635569487E+02  0.29131231852E+03  0.00000000000E+00 0. -1.
         -1    1    6    6    0  503 -0.13644176951E+02 -0.17903539709E+02  0.24462489614E+02  0.33243250395E+02  0.00000000000E+00 0.  1.
<mgrwt>
<rscale>  0 0.19164836E+04</rscale>
<asrwt>0</asrwt>
<pdfrwt beam="1">  1        2 0.26101623E+00 0.19164836E+04</pdfrwt>
<pdfrwt beam="2">  1       -1 0.83263761E-01 0.19164836E+04</pdfrwt>
<totfact> 0.15022402E+01</totfact>
</mgrwt>
</event>
<event>
12    6  0.8914180E-008  0.1928358E+04  0.7818608E-02  0.8640868E-01
          2   -1    0    0  501    0  0.00000000000E+00  0.00000000000E+00  0.12720793951E+04  0.12720793951E+04  0.00000000000E+00 0. -1.
         -1   -1    0    0    0  501 -0.00000000000E+00 -0.00000000000E+00 -0.73080409374E+03  0.73080409374E+03  0.00000000000E+00 0.  1.
         24    2    1    2    0    0  0.26001378002E+03 -0.50893387588E+03  0.72752026519E+03  0.92912853753E+03  0.85867614129E+02 0.  0.
        254    2    1    2    0    0 -0.26001378002E+03  0.50893387588E+03 -0.18624496381E+03  0.10737549513E+04  0.88974246451E+03 0.  0.
         23    2    4    4    0    0  0.23238455956E+03  0.53002843562E+02  0.17390061413E+03  0.30654742953E+03  0.83174623576E+02 0.  0.
         23    2    4    4    0    0 -0.49239833958E+03  0.45593103232E+03 -0.36014557794E+03  0.76720752181E+03  0.92592187372E+02 0.  0.
          2    1    3    3  502    0  0.26034367809E+03 -0.49394558704E+03  0.72293149966E+03  0.91345006808E+03  0.00000000000E+00 0. -1.
         -1    1    3    3    0  502 -0.32989806075E+00 -0.14988288836E+02  0.45887655336E+01  0.15678469443E+02  0.00000000000E+00 0.  1.
         11    1    5    5    0    0  0.15734221127E+03  0.61632259400E+02  0.15352894029E+03  0.22831172189E+03  0.00000000000E+00 0. -1.
        -11    1    5    5    0    0  0.75042348288E+02 -0.86294158381E+01  0.20371673844E+02  0.78235707637E+02  0.00000000000E+00 0.  1.
          4    1    6    6  503    0 -0.28438135261E+03  0.32354859548E+03 -0.22294423585E+03  0.48503667866E+03  0.00000000000E+00 0. -1.
         -4    1    6    6    0  503 -0.20801698698E+03  0.13238243684E+03 -0.13720134209E+03  0.28217084315E+03  0.00000000000E+00 0.  1.
<mgrwt>
<rscale>  0 0.19283577E+04</rscale>
<asrwt>0</asrwt>
<pdfrwt beam="1">  1        2 0.19570452E+00 0.19283577E+04</pdfrwt>
<pdfrwt beam="2">  1       -1 0.11243140E+00 0.19283577E+04</pdfrwt>
<totfact> 0.13250050E+01</totfact>
</mgrwt>
</event>
<event>
12    6  0.8914180E-008  0.1935452E+04  0.7818608E-02  0.8637408E-01
          2   -1    0    0  501    0  0.00000000000E+00  0.00000000000E+00  0.28997507179E+04  0.28997507179E+04  0.00000000000E+00 0. -1.
         -1   -1    0    0    0  501 -0.00000000000E+00 -0.00000000000E+00 -0.32295674330E+03  0.32295674330E+03  0.00000000000E+00 0.  1.
         24    2    1    2    0    0 -0.31905701400E+03 -0.38679292518E+03  0.46196767471E+02  0.50986286628E+03  0.80124003449E+02 0.  0.
        254    2    1    2    0    0  0.31905701400E+03  0.38679292518E+03  0.25305972071E+04  0.27128445949E+04  0.83916471944E+03 0.  0.
         23    2    4    4    0    0  0.49088902697E+03 -0.34475314093E+01  0.17356505405E+04  0.18060361037E+04  0.91102618310E+02 0.  0.
         23    2    4    4    0    0 -0.17183201297E+03  0.39024045659E+03  0.79494666667E+03  0.90680849121E+03  0.92453135388E+02 0.  0.
          2    1    3    3  502    0 -0.17259408415E+03 -0.14667072894E+03  0.21521369433E+02  0.22751744978E+03  0.00000000000E+00 0. -1.
         -1    1    3    3    0  502 -0.14646292985E+03 -0.24012219625E+03  0.24675398038E+02  0.28234541650E+03  0.00000000000E+00 0.  1.
         11    1    5    5    0    0  0.49462442732E+03 -0.11749888630E+01  0.17136948521E+04  0.17836492791E+04  0.00000000000E+00 0. -1.
        -11    1    5    5    0    0 -0.37354003476E+01 -0.22725425463E+01  0.21955688390E+02  0.22386824654E+02  0.00000000000E+00 0.  1.
          2    1    6    6  503    0  0.38010558278E+01  0.64553379557E+02  0.14814293702E+03  0.16164132092E+03  0.00000000000E+00 0.  1.
         -2    1    6    6    0  503 -0.17563306879E+03  0.32568707703E+03  0.64680372964E+03  0.74516717029E+03  0.00000000000E+00 0. -1.
<mgrwt>
<rscale>  0 0.19354525E+04</rscale>
<asrwt>0</asrwt>
<pdfrwt beam="1">  1        2 0.44611548E+00 0.19354525E+04</pdfrwt>
<pdfrwt beam="2">  1       -1 0.49685655E-01 0.19354525E+04</pdfrwt>
<totfact> 0.86995438E+00</totfact>
</mgrwt>
</event>
<event>
12    6  0.8914180E-008  0.1405267E+04  0.7818608E-02  0.8950015E-01
          2   -1    0    0  501    0  0.00000000000E+00  0.00000000000E+00  0.12924280285E+04  0.12924280285E+04  0.00000000000E+00 0. -1.
         -1   -1    0    0    0  501 -0.00000000000E+00 -0.00000000000E+00 -0.38198959423E+03  0.38198959423E+03  0.00000000000E+00 0.  1.
         24    2    1    2    0    0  0.82353185562E+02 -0.31362295024E+03 -0.19935439169E+02  0.33456371891E+03  0.79962855035E+02 0.  0.
        254    2    1    2    0    0 -0.82353185562E+02  0.31362295024E+03  0.93037387341E+03  0.13398539038E+04  0.90800415037E+03 0.  0.
         23    2    4    4    0    0  0.22282518321E+03  0.40059970298E+02  0.88479584843E+03  0.91740424700E+03  0.86665999825E+02 0.  0.
         23    2    4    4    0    0 -0.30517836877E+03  0.27356297994E+03  0.45578024980E+02  0.42244965679E+03  0.91737753398E+02 0.  0.
          4    1    3    3  502    0  0.99459310017E+00 -0.28094578638E+02 -0.25009912104E+02  0.37626988555E+02  0.00000000000E+00 0. -1.
         -3    1    3    3    0  502  0.81358592462E+02 -0.28552837160E+03  0.50744729355E+01  0.29693673035E+03  0.00000000000E+00 0.  1.
         11    1    5    5    0    0  0.50930117682E+02 -0.27132000189E+02  0.22486656783E+03  0.23215295744E+03  0.00000000000E+00 0.  1.
        -11    1    5    5    0    0  0.17189506553E+03  0.67191970487E+02  0.65992928060E+03  0.68525128956E+03  0.00000000000E+00 0. -1.
          2    1    6    6  503    0 -0.25735163222E+03  0.23306552887E+03  0.39689097371E+01  0.34722493516E+03  0.00000000000E+00 0. -1.
         -2    1    6    6    0  503 -0.47826736553E+02  0.40497451074E+02  0.41609115243E+02  0.75224721628E+02  0.00000000000E+00 0.  1.
<mgrwt>
<rscale>  0 0.14052673E+04</rscale>
<asrwt>0</asrwt>
<pdfrwt beam="1">  1        2 0.19883508E+00 0.14052673E+04</pdfrwt>
<pdfrwt beam="2">  1       -1 0.58767631E-01 0.14052673E+04</pdfrwt>
<totfact> 0.54352706E+01</totfact>
</mgrwt>
</event>
<event>
12    6  0.8914180E-008  0.1659240E+04  0.7818608E-02  0.8784959E-01
          2   -1    0    0  501    0  0.00000000000E+00  0.00000000000E+00  0.56308258580E+03  0.56308258580E+03  0.00000000000E+00 0. -1.
         -1   -1    0    0    0  501 -0.00000000000E+00 -0.00000000000E+00 -0.12223232579E+04  0.12223232579E+04  0.00000000000E+00 0.  1.
         24    2    1    2    0    0  0.39855784067E+03 -0.25256542469E+03 -0.61035002620E+03  0.77607732391E+03  0.84446504320E+02 0.  0.
        254    2    1    2    0    0 -0.39855784067E+03  0.25256542469E+03 -0.48890645875E+02  0.10093285198E+04  0.89090746963E+03 0.  0.
         23    2    4    4    0    0  0.14427371109E+03  0.33209802042E+02 -0.31267942358E+03  0.36042688958E+03  0.10110057440E+03 0.  0.
         23    2    4    4    0    0 -0.54283155176E+03  0.21935562265E+03  0.26378877770E+03  0.64890163018E+03  0.93305003262E+02 0.  0.
          2    1    3    3  502    0  0.12117263132E+03 -0.81963833528E+02 -0.25574569343E+03  0.29462982927E+03  0.00000000000E+00 0. -1.
         -1    1    3    3    0  502  0.27738520935E+03 -0.17060159116E+03 -0.35460433277E+03  0.48144749463E+03  0.00000000000E+00 0.  1.
         11    1    5    5    0    0  0.72883314314E+02  0.13480647219E+02 -0.54952971741E+02  0.92268816281E+02  0.00000000000E+00 0.  1.
        -11    1    5    5    0    0  0.71390396772E+02  0.19729154823E+02 -0.25772645183E+03  0.26815807330E+03  0.00000000000E+00 0. -1.
          4    1    6    6  503    0 -0.33110628881E+03  0.14532660782E+03  0.21035489219E+03  0.41833046518E+03  0.00000000000E+00 0. -1.
         -4    1    6    6    0  503 -0.21172526294E+03  0.74029014831E+02  0.53433885508E+02  0.23057116499E+03  0.00000000000E+00 0.  1.
<mgrwt>
<rscale>  0 0.16592395E+04</rscale>
<asrwt>0</asrwt>
<pdfrwt beam="1">  1        2 0.86628090E-01 0.16592395E+04</pdfrwt>
<pdfrwt beam="2">  1       -1 0.18804973E+00 0.16592395E+04</pdfrwt>
<totfact> 0.10647359E+01</totfact>
</mgrwt>
</event>
<event>
12    6  0.8914180E-008  0.3791830E+04  0.7818608E-02  0.8047910E-01
          2   -1    0    0  501    0  0.00000000000E+00  0.00000000000E+00  0.16409946948E+04  0.16409946948E+04  0.00000000000E+00 0. -1.
         -1   -1    0    0    0  501 -0.00000000000E+00 -0.00000000000E+00 -0.21904356498E+04  0.21904356498E+04  0.00000000000E+00 0.  1.
         24    2    1    2    0    0 -0.14408854365E+04  0.66533717136E+03  0.57409147192E+03  0.16896474592E+04  0.80641958958E+02 0.  0.
        254    2    1    2    0    0  0.14408854365E+04 -0.66533717136E+03 -0.11235324269E+04  0.21417828855E+04  0.89782204339E+03 0.  0.
         23    2    4    4    0    0  0.14388945588E+04 -0.80519894705E+03 -0.10640493987E+04  0.19645162240E+04  0.91432902970E+02 0.  0.
         23    2    4    4    0    0  0.19908777206E+01  0.13986177569E+03 -0.59483028166E+02  0.17726666151E+03  0.91213807893E+02 0.  0.
          2    1    3    3  502    0 -0.12590808166E+04  0.55263457133E+03  0.48758533232E+03  0.14589136124E+04  0.00000000000E+00 0. -1.
         -1    1    3    3    0  502 -0.18180461989E+03  0.11270260002E+03  0.86506139593E+02  0.23073384678E+03  0.00000000000E+00 0.  1.
         11    1    5    5    0    0  0.13182208175E+04 -0.74008133944E+03 -0.94417930862E+03  0.17823863441E+04  0.00000000000E+00 0. -1.
        -11    1    5    5    0    0  0.12067374121E+03 -0.65117607608E+02 -0.11987009011E+03  0.18212987987E+03  0.00000000000E+00 0.  1.
          3    1    6    6  503    0  0.49008083834E+01  0.73548381865E+02 -0.79031147438E+02  0.10807083169E+03  0.00000000000E+00 0. -1.
         -3    1    6    6    0  503 -0.29099306627E+01  0.66313393824E+02  0.19548119272E+02  0.69195829817E+02  0.00000000000E+00 0.  1.
<mgrwt>
<rscale>  0 0.37918298E+04</rscale>
<asrwt>0</asrwt>
<pdfrwt beam="1">  1        2 0.25246072E+00 0.37918298E+04</pdfrwt>
<pdfrwt beam="2">  1       -1 0.33699010E+00 0.37918298E+04</pdfrwt>
<totfact> 0.18294342E-01</totfact>
</mgrwt>
</event>
<event>
12    6  0.8914180E-008  0.1763033E+04  0.7818608E-02  0.8726209E-01
          2   -1    0    0  501    0  0.00000000000E+00  0.00000000000E+00  0.36022136765E+04  0.36022136765E+04  0.00000000000E+00 0. -1.
         -1   -1    0    0    0  501 -0.00000000000E+00 -0.00000000000E+00 -0.21572049598E+03  0.21572049598E+03  0.00000000000E+00 0.  1.
         24    2    1    2    0    0  0.10032669102E+03 -0.45500795288E+03  0.21348388299E+04  0.21865366501E+04  0.79422985660E+02 0.  0.
        254    2    1    2    0    0 -0.10032669102E+03  0.45500795288E+03  0.12516543507E+04  0.16313975224E+04  0.93686796314E+03 0.  0.
         23    2    4    4    0    0 -0.47568944008E+03  0.27711488969E+03  0.42799147906E+03  0.70329664412E+03  0.91522445259E+02 0.  0.
         23    2    4    4    0    0  0.37536274906E+03  0.17789306318E+03  0.82366287162E+03  0.92810087827E+03  0.10201754184E+03 0.  0.
          4    1    3    3  502    0  0.98596409061E+02 -0.45328122571E+03  0.21341698242E+04  0.21840022802E+04  0.00000000000E+00 0. -1.
         -3    1    3    3    0  502  0.17302819631E+01 -0.17267271676E+01  0.66900572386E+00  0.25343699496E+01  0.00000000000E+00 0.  1.
         11    1    5    5    0    0 -0.68903172202E+01  0.16982818508E+02  0.31627784013E+02  0.36554196988E+02  0.00000000000E+00 0.  1.
        -11    1    5    5    0    0 -0.46879912286E+03  0.26013207119E+03  0.39636369504E+03  0.66674244713E+03  0.00000000000E+00 0. -1.
          1    1    6    6  503    0  0.27929295514E+03  0.12076019627E+03  0.68826842070E+03  0.75252973278E+03  0.00000000000E+00 0. -1.
         -1    1    6    6    0  503  0.96069793922E+02  0.57132866909E+02  0.13539445092E+03  0.17557114548E+03  0.00000000000E+00 0.  1.
<mgrwt>
<rscale>  0 0.17630330E+04</rscale>
<asrwt>0</asrwt>
<pdfrwt beam="1">  1        2 0.55418667E+00 0.17630330E+04</pdfrwt>
<pdfrwt beam="2">  1       -1 0.33187771E-01 0.17630330E+04</pdfrwt>
<totfact> 0.63917722E+00</totfact>
</mgrwt>
</event>
<event>
12    6  0.8914180E-008  0.1742883E+04  0.7818608E-02  0.8737278E-01
         -1   -1    0    0    0  501 -0.00000000000E+00  0.00000000000E+00  0.95030489393E+03  0.95030489393E+03  0.00000000000E+00 0.  1.
          2   -1    0    0  501    0  0.00000000000E+00 -0.00000000000E+00 -0.79912276741E+03  0.79912276741E+03  0.00000000000E+00 0. -1.
         24    2    1    2    0    0  0.10820904494E+03  0.38405946098E+03  0.55546798747E+03  0.68806251525E+03  0.75329096681E+02 0.  0.
        254    2    1    2    0    0 -0.10820904494E+03 -0.38405946098E+03 -0.40428586094E+03  0.10613651461E+04  0.89657015845E+03 0.  0.
         23    2    4    4    0    0  0.98390839487E+02 -0.52420630178E+03  0.42056919378E+02  0.54206272636E+03  0.87121815433E+02 0.  0.
         23    2    4    4    0    0 -0.20659988443E+03  0.14014684079E+03 -0.44634278032E+03  0.51930241974E+03  0.90158063255E+02 0.  0.
          2    1    3    3  502    0  0.40480959672E+01  0.17148453747E+02  0.49013062784E+01  0.18288776616E+02  0.00000000000E+00 0. -1.
         -1    1    3    3    0  502  0.10416094898E+03  0.36691100724E+03  0.55056668119E+03  0.66977373863E+03  0.00000000000E+00 0.  1.
         11    1    5    5    0    0  0.73532561417E+01 -0.22337164937E+03  0.43830458980E+02  0.22775002361E+03  0.00000000000E+00 0. -1.
        -11    1    5    5    0    0  0.91037583345E+02 -0.30083465240E+03 -0.17735396021E+01  0.31431270275E+03  0.00000000000E+00 0.  1.
          1    1    6    6  503    0 -0.11724725084E+03  0.10428829516E+03 -0.34766384172E+03  0.38143559506E+03  0.00000000000E+00 0. -1.
         -1    1    6    6    0  503 -0.89352633587E+02  0.35858545635E+02 -0.98678938600E+02  0.13786682468E+03  0.00000000000E+00 0.  1.
<mgrwt>
<rscale>  0 0.17428830E+04</rscale>
<asrwt>0</asrwt>
<pdfrwt beam="1">  1        2 0.12294196E+00 0.17428830E+04</pdfrwt>
<pdfrwt beam="2">  1       -1 0.14620075E+00 0.17428830E+04</pdfrwt>
<totfact> 0.13960234E+01</totfact>
</mgrwt>
</event>
<event>
12    6  0.8914180E-008  0.1314150E+04  0.7818608E-02  0.9018419E-01
         -1   -1    0    0    0  501 -0.00000000000E+00  0.00000000000E+00  0.80324238040E+03  0.80324238040E+03  0.00000000000E+00 0.  1.
          2   -1    0    0  501    0  0.00000000000E+00 -0.00000000000E+00 -0.53750608140E+03  0.53750608140E+03  0.00000000000E+00 0. -1.
         24    2    1    2    0    0 -0.18157757145E+03 -0.96830651094E+02 -0.19927445497E+03  0.29802191458E+03  0.82220214794E+02 0.  0.
        254    2    1    2    0    0  0.18157757145E+03  0.96830651094E+02  0.46501075397E+03  0.10427265472E+04  0.91032799669E+03 0.  0.
         23    2    4    4    0    0 -0.35634686922E+03 -0.15690507532E+02  0.25563641038E+03  0.44769581327E+03  0.88613112358E+02 0.  0.
         23    2    4    4    0    0  0.53792444067E+03  0.11252115863E+03  0.20937434359E+03  0.59503073396E+03  0.90555196373E+02 0.  0.
          4    1    3    3  502    0 -0.17546725466E+03 -0.63672838620E+02 -0.17933315599E+03  0.25885008919E+03  0.00000000000E+00 0. -1.
         -3    1    3    3    0  502 -0.61103167893E+01 -0.33157812474E+02 -0.19941298979E+02  0.39171825389E+02  0.00000000000E+00 0.  1.
         11    1    5    5    0    0 -0.32773162809E+03 -0.24081748451E+02  0.20033372158E+03  0.38486562676E+03  0.00000000000E+00 0. -1.
        -11    1    5    5    0    0 -0.28615241131E+02  0.83912409185E+01  0.55302688797E+02  0.62830186513E+02  0.00000000000E+00 0.  1.
          2    1    6    6  503    0  0.41599953792E+03  0.53213754793E+02  0.13614069598E+03  0.44093265739E+03  0.00000000000E+00 0. -1.
         -2    1    6    6    0  503  0.12192490275E+03  0.59307403833E+02  0.73233647609E+02  0.15409807657E+03  0.00000000000E+00 0.  1.
<mgrwt>
<rscale>  0 0.13141502E+04</rscale>
<asrwt>0</asrwt>
<pdfrwt beam="1">  1        2 0.82693243E-01 0.13141502E+04</pdfrwt>
<pdfrwt beam="2">  1       -1 0.12357575E+00 0.13141502E+04</pdfrwt>
<totfact> 0.36478532E+01</totfact>
</mgrwt>
</event>
<event>
12    6  0.8914180E-008  0.3078232E+04  0.7818608E-02  0.8221737E-01
          2   -1    0    0  501    0  0.00000000000E+00  0.00000000000E+00  0.31690822939E+04  0.31690822939E+04  0.00000000000E+00 0. -1.
         -1   -1    0    0    0  501 -0.00000000000E+00 -0.00000000000E+00 -0.74749674785E+03  0.74749674785E+03  0.00000000000E+00 0.  1.
         24    2    1    2    0    0 -0.10254283543E+04  0.19956208624E+03  0.23701139554E+04  0.25913904864E+04  0.80846493065E+02 0.  0.
        254    2    1    2    0    0  0.10254283543E+04 -0.19956208624E+03  0.51471590693E+02  0.13251885554E+04  0.81372418331E+03 0.  0.
         23    2    4    4    0    0  0.33409162986E+03 -0.34878557436E+03  0.29032447948E+03  0.57291001027E+03  0.10329076659E+03 0.  0.
         23    2    4    4    0    0  0.69133672447E+03  0.14922348811E+03 -0.23885288878E+03  0.75227854510E+03  0.93049400460E+02 0.  0.
          2    1    3    3  502    0 -0.74701256357E+03  0.12368663363E+03  0.16417922788E+04  0.18079845243E+04  0.00000000000E+00 0. -1.
         -1    1    3    3    0  502 -0.27841579076E+03  0.75875452615E+02  0.72832167661E+03  0.78340596212E+03  0.00000000000E+00 0.  1.
         11    1    5    5    0    0  0.18719166520E+03 -0.20543216568E+03  0.10734948138E+03  0.29793792201E+03  0.00000000000E+00 0.  1.
        -11    1    5    5    0    0  0.14689996466E+03 -0.14335340868E+03  0.18297499810E+03  0.27497208826E+03  0.00000000000E+00 0. -1.
          3    1    6    6  503    0  0.23252429326E+02 -0.11799765348E+02 -0.68840124253E+01  0.26968491966E+02  0.00000000000E+00 0. -1.
         -3    1    6    6    0  503  0.66808429515E+03  0.16102325346E+03 -0.23196887636E+03  0.72531005313E+03  0.00000000000E+00 0.  1.
<mgrwt>
<rscale>  0 0.30782324E+04</rscale>
<asrwt>0</asrwt>
<pdfrwt beam="1">  1        2 0.48755111E+00 0.30782324E+04</pdfrwt>
<pdfrwt beam="2">  1       -1 0.11499950E+00 0.30782324E+04</pdfrwt>
<totfact> 0.90008312E-01</totfact>
</mgrwt>
</event>
<event>
12    6  0.8914180E-008  0.2331407E+04  0.7818608E-02  0.8465640E-01
         -1   -1    0    0    0  501 -0.00000000000E+00  0.00000000000E+00  0.66069977053E+03  0.66069977053E+03  0.00000000000E+00 0.  1.
          2   -1    0    0  501    0  0.00000000000E+00 -0.00000000000E+00 -0.20567052187E+04  0.20567052187E+04  0.00000000000E+00 0. -1.
         24    2    1    2    0    0 -0.84936709316E+03 -0.46149783528E+03 -0.83125783287E+03  0.12772489462E+04  0.77269495402E+02 0.  0.
        254    2    1    2    0    0  0.84936709316E+03  0.46149783528E+03 -0.56474761535E+03  0.14401560431E+04  0.90592761770E+03 0.  0.
         23    2    4    4    0    0  0.56128586670E+03  0.63388114945E+01  0.10223402080E+03  0.57778222460E+03  0.91096099635E+02 0.  0.
         23    2    4    4    0    0  0.28808122646E+03  0.45515902378E+03 -0.66698163615E+03  0.86237381849E+03  0.93078299769E+02 0.  0.
          2    1    3    3  502    0 -0.23588536657E+03 -0.10041385574E+03 -0.18932834254E+03  0.31870059598E+03  0.00000000000E+00 0. -1.
         -1    1    3    3    0  502 -0.61348172659E+03 -0.36108397954E+03 -0.64192949033E+03  0.95854835021E+03  0.00000000000E+00 0.  1.
         11    1    5    5    0    0  0.25467235367E+03  0.43908343047E+02  0.66252455973E+02  0.26678706534E+03  0.00000000000E+00 0.  1.
        -11    1    5    5    0    0  0.30661351303E+03 -0.37569531553E+02  0.35981564825E+02  0.31099515926E+03  0.00000000000E+00 0. -1.
          1    1    6    6  503    0  0.23877637620E+03  0.41495214611E+03 -0.54972669843E+03  0.72897111353E+03  0.00000000000E+00 0. -1.
         -1    1    6    6    0  503  0.49304850264E+02  0.40206877668E+02 -0.11725493772E+03  0.13340270496E+03  0.00000000000E+00 0.  1.
<mgrwt>
<rscale>  0 0.23314070E+04</rscale>
<asrwt>0</asrwt>
<pdfrwt beam="1">  1        2 0.31641619E+00 0.23314070E+04</pdfrwt>
<pdfrwt beam="2">  1       -1 0.10164612E+00 0.23314070E+04</pdfrwt>
<totfact> 0.58681248E+00</totfact>
</mgrwt>
</event>
<event>
12    6  0.8914180E-008  0.1795785E+04  0.7818608E-02  0.8708544E-01
          2   -1    0    0  501    0  0.00000000000E+00  0.00000000000E+00  0.75413597046E+03  0.75413597046E+03  0.00000000000E+00 0. -1.
         -1   -1    0    0    0  501 -0.00000000000E+00 -0.00000000000E+00 -0.10690519271E+04  0.10690519271E+04  0.00000000000E+00 0.  1.
         24    2    1    2    0    0  0.23496363851E+03 -0.51905422381E+03 -0.47353058190E+03  0.74520316563E+03  0.80444685346E+02 0.  0.
        254    2    1    2    0    0 -0.23496363851E+03  0.51905422381E+03  0.15861462530E+03  0.10779847319E+04  0.90125872209E+03 0.  0.
         23    2    4    4    0    0 -0.56885574216E+02  0.10870935337E+03 -0.35778692398E+03  0.38872882977E+03  0.89693522982E+02 0.  0.
         23    2    4    4    0    0 -0.17807806429E+03  0.41034487044E+03  0.51640154928E+03  0.68925590211E+03  0.91150583185E+02 0.  0.
          4    1    3    3  502    0  0.26120010799E+02 -0.16241606635E+02 -0.21119862148E+02  0.37310766910E+02  0.00000000000E+00 0. -1.
         -3    1    3    3    0  502  0.20884362771E+03 -0.50281261717E+03 -0.45241071976E+03  0.70789239872E+03  0.00000000000E+00 0.  1.
         11    1    5    5    0    0  0.58527085759E+01  0.29139997098E+02 -0.19391534775E+02  0.35488381894E+02  0.00000000000E+00 0. -1.
        -11    1    5    5    0    0 -0.62738282792E+02  0.79569356270E+02 -0.33839538920E+03  0.35324044788E+03  0.00000000000E+00 0.  1.
          2    1    6    6  503    0 -0.29462063104E+01  0.13240295360E+02  0.51496028202E+02  0.53252478566E+02  0.00000000000E+00 0. -1.
         -2    1    6    6    0  503 -0.17513185798E+03  0.39710457508E+03  0.46490552108E+03  0.63600342354E+03  0.00000000000E+00 0.  1.
<mgrwt>
<rscale>  0 0.17957845E+04</rscale>
<asrwt>0</asrwt>
<pdfrwt beam="1">  1        2 0.11602092E+00 0.17957845E+04</pdfrwt>
<pdfrwt beam="2">  1       -1 0.16446953E+00 0.17957845E+04</pdfrwt>
<totfact> 0.10856263E+01</totfact>
</mgrwt>
</event>
<event>
12    6  0.8914180E-008  0.1693050E+04  0.7818608E-02  0.8765338E-01
          2   -1    0    0  501    0  0.00000000000E+00  0.00000000000E+00  0.13995655656E+04  0.13995655656E+04  0.00000000000E+00 0. -1.
         -3   -1    0    0    0  501 -0.00000000000E+00 -0.00000000000E+00 -0.51201903704E+03  0.51201903704E+03  0.00000000000E+00 0.  1.
         24    2    1    2    0    0 -0.11122463028E+03  0.18977941756E+03  0.95860096934E+03  0.98673165014E+03  0.79601414934E+02 0.  0.
        254    2    1    2    0    0  0.11122463028E+03 -0.18977941756E+03 -0.71054440803E+02  0.92485295247E+03  0.89549824368E+03 0.  0.
         23    2    4    4    0    0  0.36538517713E+03  0.30982427836E+01  0.25871123622E+03  0.45712037886E+03  0.92258388455E+02 0.  0.
         23    2    4    4    0    0 -0.25416054686E+03 -0.19287766034E+03 -0.32976567702E+03  0.46773257362E+03  0.90713743411E+02 0.  0.
          2    1    3    3  502    0 -0.26116037836E+02  0.10098767911E+03  0.55833214101E+03  0.56799237535E+03  0.00000000000E+00 0. -1.
         -1    1    3    3    0  502 -0.85108592440E+02  0.88791738445E+02  0.40026882833E+03  0.41873927479E+03  0.00000000000E+00 0.  1.
         11    1    5    5    0    0  0.11806963137E+03  0.34786902123E+02  0.11949304093E+03  0.17154927351E+03  0.00000000000E+00 0.  1.
        -11    1    5    5    0    0  0.24731554577E+03 -0.31688659339E+02  0.13921819529E+03  0.28557110535E+03  0.00000000000E+00 0. -1.
          1    1    6    6  503    0 -0.38932190852E+02 -0.37968939414E+01 -0.14436460390E+02  0.41695842439E+02  0.00000000000E+00 0. -1.
         -1    1    6    6    0  503 -0.21522835601E+03 -0.18908076640E+03 -0.31532921663E+03  0.42603673118E+03  0.00000000000E+00 0.  1.
<mgrwt>
<rscale>  0 0.16930496E+04</rscale>
<asrwt>0</asrwt>
<pdfrwt beam="1">  1        2 0.21531778E+00 0.16930496E+04</pdfrwt>
<pdfrwt beam="2">  1       -3 0.78772160E-01 0.16930496E+04</pdfrwt>
<totfact> 0.13221606E+01</totfact>
</mgrwt>
</event>
<event>
12    6  0.8914180E-008  0.1700643E+04  0.7818608E-02  0.8760998E-01
         -1   -1    0    0    0  501 -0.00000000000E+00  0.00000000000E+00  0.58968745467E+03  0.58968745467E+03  0.00000000000E+00 0.  1.
          2   -1    0    0  501    0  0.00000000000E+00 -0.00000000000E+00 -0.12261518314E+04  0.12261518314E+04  0.00000000000E+00 0. -1.
         24    2    1    2    0    0  0.10671373674E+03  0.14195773111E+03 -0.83640183139E+03  0.85867813037E+03  0.78868808734E+02 0.  0.
        254    2    1    2    0    0 -0.10671373674E+03 -0.14195773111E+03  0.19993745464E+03  0.95716115573E+03  0.91904443486E+03 0.  0.
         23    2    4    4    0    0 -0.40093896516E+03 -0.26262547356E+03  0.34375750914E+03  0.59689091803E+03  0.91571555560E+02 0.  0.
         23    2    4    4    0    0  0.29422522843E+03  0.12066774245E+03 -0.14382005450E+03  0.36027023770E+03  0.89337825063E+02 0.  0.
          4    1    3    3  502    0  0.59941717657E+02  0.62344969495E+02 -0.23867534751E+03  0.25386182511E+03  0.00000000000E+00 0. -1.
         -3    1    3    3    0  502  0.46772019079E+02  0.79612761613E+02 -0.59772648388E+03  0.60481630526E+03  0.00000000000E+00 0.  1.
         11    1    5    5    0    0 -0.25811450114E+03 -0.14000910600E+03  0.16266907627E+03  0.33568865611E+03  0.00000000000E+00 0.  1.
        -11    1    5    5    0    0 -0.14282446402E+03 -0.12261636755E+03  0.18108843286E+03  0.26120226192E+03  0.00000000000E+00 0. -1.
          4    1    6    6  503    0  0.17846495077E+03  0.10523313578E+03 -0.12502882804E+03  0.24198338654E+03  0.00000000000E+00 0. -1.
         -4    1    6    6    0  503  0.11576027766E+03  0.15434606671E+02 -0.18791226457E+02  0.11828685117E+03  0.00000000000E+00 0.  1.
<mgrwt>
<rscale>  0 0.17006426E+04</rscale>
<asrwt>0</asrwt>
<pdfrwt beam="1">  1        2 0.18863874E+00 0.17006426E+04</pdfrwt>
<pdfrwt beam="2">  1       -1 0.90721147E-01 0.17006426E+04</pdfrwt>
<totfact> 0.23529580E+01</totfact>
</mgrwt>
</event>
<event>
12    6  0.8914180E-008  0.2139891E+04  0.7818608E-02  0.8543872E-01
         -1   -1    0    0    0  501 -0.00000000000E+00  0.00000000000E+00  0.69193979400E+03  0.69193979400E+03  0.00000000000E+00 0.  1.
          2   -1    0    0  501    0  0.00000000000E+00 -0.00000000000E+00 -0.16544548856E+04  0.16544548856E+04  0.00000000000E+00 0. -1.
         24    2    1    2    0    0  0.21854679861E+03 -0.44978318436E+03  0.39674189318E+03  0.64332528162E+03  0.79972945774E+02 0.  0.
        254    2    1    2    0    0 -0.21854679861E+03  0.44978318436E+03 -0.13592569848E+04  0.17030693980E+04  0.89599007113E+03 0.  0.
         23    2    4    4    0    0 -0.39235427479E+03  0.46803978440E+03 -0.42875344728E+03  0.75168528077E+03  0.90543503629E+02 0.  0.
         23    2    4    4    0    0  0.17380747618E+03 -0.18256600034E+02 -0.93050353749E+03  0.95138411721E+03  0.93555133346E+02 0.  0.
          2    1    3    3  502    0  0.67171032649E+02 -0.70185423493E+02  0.64093643754E+02  0.11638701159E+03  0.00000000000E+00 0. -1.
         -1    1    3    3    0  502  0.15137576596E+03 -0.37959776087E+03  0.33264824942E+03  0.52693827003E+03  0.00000000000E+00 0.  1.
         11    1    5    5    0    0 -0.35338124653E+03  0.41675200120E+03 -0.41417867168E+03  0.68564167608E+03  0.00000000000E+00 0. -1.
        -11    1    5    5    0    0 -0.38973028257E+02  0.51287783197E+02 -0.14574775603E+02  0.66043604692E+02  0.00000000000E+00 0.  1.
          4    1    6    6  503    0  0.16104946969E+03 -0.41148519290E+02 -0.70340646582E+03  0.72277990321E+03  0.00000000000E+00 0. -1.
         -4    1    6    6    0  503  0.12758006488E+02  0.22891919256E+02 -0.22709707167E+03  0.22860421400E+03  0.00000000000E+00 0.  1.
<mgrwt>
<rscale>  0 0.21398908E+04</rscale>
<asrwt>0</asrwt>
<pdfrwt beam="1">  1        2 0.25453152E+00 0.21398908E+04</pdfrwt>
<pdfrwt beam="2">  1       -1 0.10645228E+00 0.21398908E+04</pdfrwt>
<totfact> 0.89674753E+00</totfact>
</mgrwt>
</event>
<event>
12    6  0.8914180E-008  0.1384403E+04  0.7818608E-02  0.8965186E-01
         -1   -1    0    0    0  501 -0.00000000000E+00  0.00000000000E+00  0.58322955418E+03  0.58322955418E+03  0.00000000000E+00 0.  1.
          2   -1    0    0  501    0  0.00000000000E+00 -0.00000000000E+00 -0.82153433417E+03  0.82153433417E+03  0.00000000000E+00 0. -1.
         24    2    1    2    0    0 -0.41925225830E+02  0.61506675407E+02  0.32335513804E+03  0.34069377618E+03  0.77284591902E+02 0.  0.
        254    2    1    2    0    0  0.41925225830E+02 -0.61506675407E+02 -0.56165991804E+03  0.10640701122E+04  0.90069003793E+03 0.  0.
         23    2    4    4    0    0  0.23577864843E+02 -0.47228711531E+03 -0.31568346857E+03  0.57626619109E+03  0.93891616621E+02 0.  0.
         23    2    4    4    0    0  0.18347360987E+02  0.41078043990E+03 -0.24597644947E+03  0.48780392108E+03  0.91493476663E+02 0.  0.
          2    1    3    3  502    0 -0.42552843770E+02  0.48578245192E+02  0.11464711793E+03  0.13158477141E+03  0.00000000000E+00 0. -1.
         -1    1    3    3    0  502  0.62761793994E+00  0.12928430215E+02  0.20870802012E+03  0.20910900476E+03  0.00000000000E+00 0.  1.
         11    1    5    5    0    0  0.48492028154E+02 -0.38253811559E+03 -0.22591034352E+03  0.44690308791E+03  0.00000000000E+00 0. -1.
        -11    1    5    5    0    0 -0.24914163311E+02 -0.89748999718E+02 -0.89773125053E+02  0.12936310318E+03  0.00000000000E+00 0.  1.
          3    1    6    6  503    0  0.15552446718E+02  0.41114428415E+03 -0.22955901303E+03  0.47114630578E+03  0.00000000000E+00 0. -1.
         -3    1    6    6    0  503  0.27949142683E+01 -0.36384424963E+00 -0.16417436436E+02  0.16657615301E+02  0.00000000000E+00 0.  1.
<mgrwt>
<rscale>  0 0.13844033E+04</rscale>
<asrwt>0</asrwt>
<pdfrwt beam="1">  1        2 0.12638990E+00 0.13844033E+04</pdfrwt>
<pdfrwt beam="2">  1       -1 0.89727624E-01 0.13844033E+04</pdfrwt>
<totfact> 0.44984722E+01</totfact>
</mgrwt>
</event>
<event>
12    6  0.8914180E-008  0.1922451E+04  0.7818608E-02  0.8643761E-01
          2   -1    0    0  501    0  0.00000000000E+00  0.00000000000E+00  0.12460214907E+04  0.12460214907E+04  0.00000000000E+00 0. -1.
         -1   -1    0    0    0  501 -0.00000000000E+00 -0.00000000000E+00 -0.74152380673E+03  0.74152380673E+03  0.00000000000E+00 0.  1.
         24    2    1    2    0    0  0.52219473854E+03  0.40281313400E+03 -0.18360408485E+03  0.69020318862E+03  0.87887517473E+02 0.  0.
        254    2    1    2    0    0 -0.52219473854E+03 -0.40281313400E+03  0.68810176878E+03  0.12973421088E+04  0.88015154214E+03 0.  0.
         23    2    4    4    0    0 -0.43964328833E+03 -0.32541970602E+03  0.89027818670E+03  0.10486604041E+04  0.88933612263E+02 0.  0.
         23    2    4    4    0    0 -0.82551450207E+02 -0.77393427983E+02 -0.20217641792E+03  0.24868170467E+03  0.90348224396E+02 0.  0.
          4    1    3    3  502    0  0.71889961333E+02  0.51931926862E+02  0.54256580293E+01  0.88851163938E+02  0.00000000000E+00 0. -1.
         -3    1    3    3    0  502  0.45030477721E+03  0.35088120714E+03 -0.18902974288E+03  0.60135202468E+03  0.00000000000E+00 0.  1.
         11    1    5    5    0    0 -0.19764667110E+03 -0.17833174678E+03  0.36305983544E+03  0.45019869238E+03  0.00000000000E+00 0.  1.
        -11    1    5    5    0    0 -0.24199661723E+03 -0.14708795923E+03  0.52721835125E+03  0.59846171172E+03  0.00000000000E+00 0. -1.
          1    1    6    6  503    0 -0.10512099184E+01 -0.44276945003E+02 -0.24976997249E+02  0.50846861188E+02  0.00000000000E+00 0. -1.
         -1    1    6    6    0  503 -0.81500240289E+02 -0.33116482980E+02 -0.17719942067E+03  0.19783484349E+03  0.00000000000E+00 0.  1.
<mgrwt>
<rscale>  0 0.19224511E+04</rscale>
<asrwt>0</asrwt>
<pdfrwt beam="1">  1        2 0.19169561E+00 0.19224511E+04</pdfrwt>
<pdfrwt beam="2">  1       -1 0.11408059E+00 0.19224511E+04</pdfrwt>
<totfact> 0.13264624E+01</totfact>
</mgrwt>
</event>
<event>
12    6  0.8914180E-008  0.2382074E+04  0.7818608E-02  0.8446245E-01
          2   -1    0    0  501    0  0.00000000000E+00  0.00000000000E+00  0.57546517901E+03  0.57546517901E+03  0.00000000000E+00 0. -1.
         -1   -1    0    0    0  501 -0.00000000000E+00 -0.00000000000E+00 -0.24650828936E+04  0.24650828936E+04  0.00000000000E+00 0.  1.
         24    2    1    2    0    0  0.72581142788E+03  0.13238344978E+03  0.88879176286E+02  0.74729059659E+03  0.78842381690E+02 0.  0.
        254    2    1    2    0    0 -0.72581142788E+03 -0.13238344978E+03 -0.19784968909E+04  0.22932574760E+04  0.89456821845E+03 0.  0.
         23    2    4    4    0    0 -0.85574883133E+03 -0.14064341749E+03 -0.19420900755E+04  0.21288935170E+04  0.91581177617E+02 0.  0.
         23    2    4    4    0    0  0.12993740345E+03  0.82599677067E+01 -0.36406815325E+02  0.16436395898E+03  0.93477799123E+02 0.  0.
          4    1    3    3  502    0  0.28573946327E+03  0.17912152118E+02  0.15768888140E+02  0.28673427402E+03  0.00000000000E+00 0. -1.
         -3    1    3    3    0  502  0.44007196461E+03  0.11447129766E+03  0.73110288146E+02  0.46055632257E+03  0.00000000000E+00 0.  1.
         11    1    5    5    0    0 -0.68353102745E+03 -0.13946592069E+03 -0.16151138071E+04  0.17593345385E+04  0.00000000000E+00 0.  1.
        -11    1    5    5    0    0 -0.17221780388E+03 -0.11774967941E+01 -0.32697626845E+03  0.36955897852E+03  0.00000000000E+00 0. -1.
          4    1    6    6  503    0  0.12045430229E+02  0.16154707069E+02 -0.41462367254E+02  0.46099835663E+02  0.00000000000E+00 0. -1.
         -4    1    6    6    0  503  0.11789197322E+03 -0.78947393619E+01  0.50555519290E+01  0.11826412332E+03  0.00000000000E+00 0.  1.
<mgrwt>
<rscale>  0 0.23820742E+04</rscale>
<asrwt>0</asrwt>
<pdfrwt beam="1">  1        2 0.88533104E-01 0.23820742E+04</pdfrwt>
<pdfrwt beam="2">  1       -1 0.37924352E+00 0.23820742E+04</pdfrwt>
<totfact> 0.53098276E-01</totfact>
</mgrwt>
</event>
<event>
12    6  0.8914180E-008  0.2042423E+04  0.7818608E-02  0.8587040E-01
          2   -1    0    0  501    0  0.00000000000E+00  0.00000000000E+00  0.16102218062E+04  0.16102218062E+04  0.00000000000E+00 0. -1.
         -1   -1    0    0    0  501 -0.00000000000E+00 -0.00000000000E+00 -0.64765764168E+03  0.64765764168E+03  0.00000000000E+00 0.  1.
         24    2    1    2    0    0 -0.55984577610E+03  0.48082483807E+03  0.70059867411E+03  0.10207442493E+04  0.80377250469E+02 0.  0.
        254    2    1    2    0    0  0.55984577610E+03 -0.48082483807E+03  0.26196549041E+03  0.12371351986E+04  0.95773574824E+03 0.  0.
         23    2    4    4    0    0  0.28348305848E+03  0.79443249768E+02 -0.27132191875E+03  0.41101323302E+03  0.92964615532E+02 0.  0.
         23    2    4    4    0    0  0.27636271762E+03 -0.56026808784E+03  0.53328740916E+03  0.82612196556E+03  0.88347944313E+02 0.  0.
          4    1    3    3  502    0 -0.39984453028E+03  0.34103768843E+03  0.54720761015E+03  0.75869527606E+03  0.00000000000E+00 0. -1.
         -3    1    3    3    0  502 -0.16000124583E+03  0.13978714964E+03  0.15339106397E+03  0.26204897324E+03  0.00000000000E+00 0.  1.
         11    1    5    5    0    0  0.16021633220E+03  0.60863025352E+02 -0.97714867691E+02  0.19728602669E+03  0.00000000000E+00 0.  1.
        -11    1    5    5    0    0  0.12326672628E+03  0.18580224416E+02 -0.17360705106E+03  0.21372720633E+03  0.00000000000E+00 0. -1.
          2    1    6    6  503    0  0.22557297108E+03 -0.37999085666E+03  0.40200840902E+03  0.59740018191E+03  0.00000000000E+00 0. -1.
         -2    1    6    6    0  503  0.50789746540E+02 -0.18027723118E+03  0.13127900015E+03  0.22872178365E+03  0.00000000000E+00 0.  1.
<mgrwt>
<rscale>  0 0.20424225E+04</rscale>
<asrwt>0</asrwt>
<pdfrwt beam="1">  1        2 0.24772643E+00 0.20424225E+04</pdfrwt>
<pdfrwt beam="2">  1       -1 0.99639638E-01 0.20424225E+04</pdfrwt>
<totfact> 0.11155113E+01</totfact>
</mgrwt>
</event>
<event>
12    6  0.8914180E-008  0.2287162E+04  0.7818608E-02  0.8483000E-01
         -1   -1    0    0    0  501 -0.00000000000E+00  0.00000000000E+00  0.12141168338E+04  0.12141168338E+04  0.00000000000E+00 0.  1.
          2   -1    0    0  501    0  0.00000000000E+00 -0.00000000000E+00 -0.10771427997E+04  0.10771427997E+04  0.00000000000E+00 0. -1.
         24    2    1    2    0    0  0.52306024637E+03 -0.81325199303E+03  0.12485546104E+03  0.97831095345E+03  0.80824563111E+02 0.  0.
        254    2    1    2    0    0 -0.52306024637E+03  0.81325199303E+03  0.12118573043E+02  0.13129486800E+04  0.88809715179E+03 0.  0.
         23    2    4    4    0    0 -0.48304686372E+03  0.38588752953E+03  0.38757696125E+03  0.73556149249E+03  0.92689537372E+02 0.  0.
         23    2    4    4    0    0 -0.40013382648E+02  0.42736446349E+03 -0.37545838821E+03  0.57738718751E+03  0.90363198183E+02 0.  0.
          2    1    3    3  502    0  0.92623633954E+02 -0.11819948461E+03  0.45593775134E+02  0.15693644593E+03  0.00000000000E+00 0. -1.
         -1    1    3    3    0  502  0.43043661242E+03 -0.69505250841E+03  0.79261685906E+02  0.82137450752E+03  0.00000000000E+00 0.  1.
         11    1    5    5    0    0 -0.22263501083E+03  0.17099783994E+03  0.23027745232E+03  0.36308995353E+03  0.00000000000E+00 0. -1.
        -11    1    5    5    0    0 -0.26041185289E+03  0.21488968959E+03  0.15729950893E+03  0.37247153895E+03  0.00000000000E+00 0.  1.
          4    1    6    6  503    0 -0.54115277640E+02  0.14007667834E+03 -0.11202950604E+03  0.18735140596E+03  0.00000000000E+00 0. -1.
         -4    1    6    6    0  503  0.14101894993E+02  0.28728778515E+03 -0.26342888217E+03  0.39003578156E+03  0.00000000000E+00 0.  1.
<mgrwt>
<rscale>  0 0.22871617E+04</rscale>
<asrwt>0</asrwt>
<pdfrwt beam="1">  1        2 0.16571428E+00 0.22871617E+04</pdfrwt>
<pdfrwt beam="2">  1       -1 0.18678720E+00 0.22871617E+04</pdfrwt>
<totfact> 0.43361480E+00</totfact>
</mgrwt>
</event>
<event>
12    6  0.8914180E-008  0.1163191E+04  0.7818608E-02  0.9145700E-01
          2   -1    0    0  501    0  0.00000000000E+00  0.00000000000E+00  0.14768284610E+04  0.14768284610E+04  0.00000000000E+00 0. -1.
         -1   -1    0    0    0  501 -0.00000000000E+00 -0.00000000000E+00 -0.22904039005E+03  0.22904039005E+03  0.00000000000E+00 0.  1.
         24    2    1    2    0    0  0.20381598943E+03 -0.88224553807E+01  0.32420427172E+03  0.39146275319E+03  0.80721026199E+02 0.  0.
        254    2    1    2    0    0 -0.20381598943E+03  0.88224553807E+01  0.92358379923E+03  0.13144060978E+04  0.91270891449E+03 0.  0.
         23    2    4    4    0    0 -0.23805040488E+02 -0.33862455002E+03  0.82959193292E+03  0.90101564474E+03  0.91504923811E+02 0.  0.
         23    2    4    4    0    0 -0.18001094894E+03  0.34744700540E+03  0.93991866315E+02  0.41339045311E+03  0.94518953033E+02 0.  0.
          4    1    3    3  502    0  0.14395645477E+03  0.24111887797E+02  0.17883928515E+03  0.23084266052E+03  0.00000000000E+00 0. -1.
         -3    1    3    3    0  502  0.59859534657E+02 -0.32934343177E+02  0.14536498656E+03  0.16062009267E+03  0.00000000000E+00 0.  1.
         11    1    5    5    0    0 -0.13156143244E+02 -0.21120744348E+03  0.62400667995E+03  0.65891274453E+03  0.00000000000E+00 0. -1.
        -11    1    5    5    0    0 -0.10648897244E+02 -0.12741710655E+03  0.20558525296E+03  0.24210290021E+03  0.00000000000E+00 0.  1.
          3    1    6    6  503    0 -0.18897990431E+03  0.34136466362E+03  0.85060950815E+02  0.39934772211E+03  0.00000000000E+00 0. -1.
         -3    1    6    6    0  503  0.89689553754E+01  0.60823417892E+01  0.89309155000E+01  0.14042730996E+02  0.00000000000E+00 0.  1.
<mgrwt>
<rscale>  0 0.11631911E+04</rscale>
<asrwt>0</asrwt>
<pdfrwt beam="1">  1        2 0.22720437E+00 0.11631911E+04</pdfrwt>
<pdfrwt beam="2">  1       -1 0.35236984E-01 0.11631911E+04</pdfrwt>
<totfact> 0.11296534E+02</totfact>
</mgrwt>
</event>
<event>
12    6  0.8914180E-008  0.1110305E+04  0.7818608E-02  0.9195205E-01
         -1   -1    0    0    0  501 -0.00000000000E+00  0.00000000000E+00  0.12811070470E+03  0.12811070470E+03  0.00000000000E+00 0.  1.
          2   -1    0    0  501    0  0.00000000000E+00 -0.00000000000E+00 -0.24056889432E+04  0.24056889432E+04  0.00000000000E+00 0. -1.
         24    2    1    2    0    0  0.14024004827E+03 -0.80490626243E+02 -0.22924522045E+03  0.29197155040E+03  0.80919732401E+02 0.  0.
        254    2    1    2    0    0 -0.14024004827E+03  0.80490626243E+02 -0.20483330180E+04  0.22418280975E+04  0.89664879070E+03 0.  0.
         23    2    4    4    0    0 -0.67243008178E+02  0.33678988254E+03 -0.18787055275E+04  0.19125625571E+04  0.10203934897E+03 0.  0.
         23    2    4    4    0    0 -0.72997040094E+02 -0.25629925629E+03 -0.16962749053E+03  0.32926554036E+03  0.92867830189E+02 0.  0.
          2    1    3    3  502    0  0.11380918643E+03 -0.47125994936E+02 -0.21369383131E+03  0.24665450301E+03  0.00000000000E+00 0. -1.
         -1    1    3    3    0  502  0.26430861846E+02 -0.33364631307E+02 -0.15551389137E+02  0.45317047391E+02  0.00000000000E+00 0.  1.
         11    1    5    5    0    0 -0.11821050183E+02  0.10487014825E+02 -0.25379752460E+03  0.25428900527E+03  0.00000000000E+00 0. -1.
        -11    1    5    5    0    0 -0.55421957995E+02  0.32630286771E+03 -0.16249080029E+04  0.16582735518E+04  0.00000000000E+00 0.  1.
          2    1    6    6  503    0 -0.30333597384E+01  0.47481094930E+01 -0.19097900796E+02  0.19911695806E+02  0.00000000000E+00 0. -1.
         -2    1    6    6    0  503 -0.69963680355E+02 -0.26104736579E+03 -0.15052958974E+03  0.30935384455E+03  0.00000000000E+00 0.  1.
<mgrwt>
<rscale>  0 0.11103054E+04</rscale>
<asrwt>0</asrwt>
<pdfrwt beam="1">  1        2 0.37010596E+00 0.11103054E+04</pdfrwt>
<pdfrwt beam="2">  1       -1 0.19709341E-01 0.11103054E+04</pdfrwt>
<totfact> 0.94146076E+01</totfact>
</mgrwt>
</event>
<event>
12    6  0.8914180E-008  0.1975593E+04  0.7818608E-02  0.8618118E-01
          2   -1    0    0  501    0  0.00000000000E+00  0.00000000000E+00  0.16486641092E+04  0.16486641092E+04  0.00000000000E+00 0. -1.
         -1   -1    0    0    0  501 -0.00000000000E+00 -0.00000000000E+00 -0.59183774308E+03  0.59183774308E+03  0.00000000000E+00 0.  1.
         24    2    1    2    0    0  0.49155315926E+03  0.31739449259E+03  0.10013067670E+04  0.11625219670E+04  0.80487948928E+02 0.  0.
        254    2    1    2    0    0 -0.49155315926E+03 -0.31739449259E+03  0.55519599160E+02  0.10779798853E+04  0.90365614856E+03 0.  0.
         23    2    4    4    0    0 -0.13685778831E+03 -0.67759932033E+02  0.45086776434E+03  0.48459913740E+03  0.90736544066E+02 0.  0.
         23    2    4    4    0    0 -0.35469537094E+03 -0.24963456056E+03 -0.39534816518E+03  0.59338074786E+03  0.87603197582E+02 0.  0.
          4    1    3    3  502    0  0.42387085657E+03  0.24295293375E+03  0.79793397281E+03  0.93562345846E+03  0.00000000000E+00 0. -1.
         -3    1    3    3    0  502  0.67682302683E+02  0.74441558843E+02  0.20337279415E+03  0.22689850854E+03  0.00000000000E+00 0.  1.
         11    1    5    5    0    0 -0.10623073634E+03 -0.33314437230E+01  0.26663173369E+03  0.28703405594E+03  0.00000000000E+00 0.  1.
        -11    1    5    5    0    0 -0.30627051976E+02 -0.64428488310E+02  0.18423603066E+03  0.19756508146E+03  0.00000000000E+00 0. -1.
          4    1    6    6  503    0 -0.28352641866E+03 -0.21028984789E+03 -0.36160107841E+03  0.50533591809E+03  0.00000000000E+00 0.  1.
         -4    1    6    6    0  503 -0.71168952286E+02 -0.39344712664E+02 -0.33747086773E+02  0.88044829774E+02  0.00000000000E+00 0. -1.
<mgrwt>
<rscale>  0 0.19755927E+04</rscale>
<asrwt>0</asrwt>
<pdfrwt beam="1">  1        2 0.25364063E+00 0.19755927E+04</pdfrwt>
<pdfrwt beam="2">  1       -1 0.91051961E-01 0.19755927E+04</pdfrwt>
<totfact> 0.13075408E+01</totfact>
</mgrwt>
</event>
<event>
12    6  0.8914180E-008  0.1701110E+04  0.7818608E-02  0.8760731E-01
         -1   -1    0    0    0  501 -0.00000000000E+00  0.00000000000E+00  0.83560186716E+03  0.83560186716E+03  0.00000000000E+00 0.  1.
          2   -1    0    0  501    0  0.00000000000E+00 -0.00000000000E+00 -0.86577617620E+03  0.86577617620E+03  0.00000000000E+00 0. -1.
         24    2    1    2    0    0  0.18603019005E+03 -0.50497371928E+03 -0.29731898977E+03  0.61982558852E+03  0.78609730496E+02 0.  0.
        254    2    1    2    0    0 -0.18603019005E+03  0.50497371928E+03  0.26714468073E+03  0.10815524548E+04  0.89932404802E+03 0.  0.
         23    2    4    4    0    0 -0.26462347696E+02  0.74012537609E+03  0.14986830036E+03  0.76095896865E+03  0.90067843023E+02 0.  0.
         23    2    4    4    0    0 -0.15956784235E+03 -0.23515165681E+03  0.11727638037E+03  0.32059348618E+03  0.90929840975E+02 0.  0.
          2    1    3    3  502    0  0.95506084758E+02 -0.31987998284E+03 -0.14693984985E+03  0.36474091506E+03  0.00000000000E+00 0. -1.
         -1    1    3    3    0  502  0.90524105287E+02 -0.18509373645E+03 -0.15037913992E+03  0.25508467346E+03  0.00000000000E+00 0.  1.
         11    1    5    5    0    0  0.13368504164E+02  0.74931552856E+02  0.38618230873E+02  0.85351170307E+02  0.00000000000E+00 0.  1.
        -11    1    5    5    0    0 -0.39830851860E+02  0.66519382323E+03  0.11125006948E+03  0.67560779835E+03  0.00000000000E+00 0. -1.
          3    1    6    6  503    0 -0.46647930236E+02 -0.10964162077E+03  0.90562992930E+02  0.14966285474E+03  0.00000000000E+00 0. -1.
         -3    1    6    6    0  503 -0.11291991211E+03 -0.12551003603E+03  0.26713387445E+02  0.17093063144E+03  0.00000000000E+00 0.  1.
<mgrwt>
<rscale>  0 0.17011104E+04</rscale>
<asrwt>0</asrwt>
<pdfrwt beam="1">  1        2 0.13319634E+00 0.17011104E+04</pdfrwt>
<pdfrwt beam="2">  1       -1 0.12855413E+00 0.17011104E+04</pdfrwt>
<totfact> 0.17534826E+01</totfact>
</mgrwt>
</event>
<event>
12    6  0.8914180E-008  0.1677340E+04  0.7818608E-02  0.8774395E-01
         -1   -1    0    0    0  501 -0.00000000000E+00  0.00000000000E+00  0.37454252877E+03  0.37454252877E+03  0.00000000000E+00 0.  1.
          2   -1    0    0  501    0  0.00000000000E+00 -0.00000000000E+00 -0.18779363008E+04  0.18779363008E+04  0.00000000000E+00 0. -1.
         24    2    1    2    0    0  0.15050818729E+02  0.47862246479E+03 -0.64372431378E+02  0.48966816856E+03  0.79530588006E+02 0.  0.
        254    2    1    2    0    0 -0.15050818729E+02 -0.47862246479E+03 -0.14390213407E+04  0.17628106611E+04  0.89856163774E+03 0.  0.
         23    2    4    4    0    0  0.40066350282E+03 -0.54388673731E+02 -0.65286714905E+03  0.77336482601E+03  0.91478245946E+02 0.  0.
         23    2    4    4    0    0 -0.41571432155E+03 -0.42423379106E+03 -0.78615419164E+03  0.98944583504E+03  0.90398787734E+02 0.  0.
          2    1    3    3  502    0 -0.25261447297E+02  0.74072858741E+02 -0.19435235941E+02  0.80639057024E+02  0.00000000000E+00 0. -1.
         -1    1    3    3    0  502  0.40312266026E+02  0.40454960605E+03 -0.44937195438E+02  0.40902911153E+03  0.00000000000E+00 0.  1.
         11    1    5    5    0    0  0.25341770638E+03  0.45976195810E+01 -0.35958161114E+03  0.43993250287E+03  0.00000000000E+00 0. -1.
        -11    1    5    5    0    0  0.14724579645E+03 -0.58986293312E+02 -0.29328553791E+03  0.33343232314E+03  0.00000000000E+00 0.  1.
          2    1    6    6  503    0 -0.19678114778E+03 -0.25344099437E+03 -0.46403457617E+03  0.56416597348E+03  0.00000000000E+00 0. -1.
         -2    1    6    6    0  503 -0.21893317378E+03 -0.17079279669E+03 -0.32211961547E+03  0.42527986156E+03  0.00000000000E+00 0.  1.
<mgrwt>
<rscale>  0 0.16773396E+04</rscale>
<asrwt>0</asrwt>
<pdfrwt beam="1">  1        2 0.28891328E+00 0.16773396E+04</pdfrwt>
<pdfrwt beam="2">  1       -1 0.57621928E-01 0.16773396E+04</pdfrwt>
<totfact> 0.25870716E+01</totfact>
</mgrwt>
</event>
<event>
12    6  0.8914180E-008  0.3442731E+04  0.7818608E-02  0.8127498E-01
         -1   -1    0    0    0  501 -0.00000000000E+00  0.00000000000E+00  0.34663987694E+04  0.34663987694E+04  0.00000000000E+00 0.  1.
          2   -1    0    0  501    0  0.00000000000E+00 -0.00000000000E+00 -0.85480641738E+03  0.85480641738E+03  0.00000000000E+00 0. -1.
         24    2    1    2    0    0 -0.10538606546E+04  0.11866621442E+04  0.15040881077E+04  0.21880011630E+04  0.79238434322E+02 0.  0.
        254    2    1    2    0    0  0.10538606546E+04 -0.11866621442E+04  0.11075042442E+04  0.21332040238E+04  0.89733184064E+03 0.  0.
         23    2    4    4    0    0  0.60850486525E+03 -0.13545868507E+03  0.63498184776E+03  0.89450364750E+03  0.91146047704E+02 0.  0.
         23    2    4    4    0    0  0.44535578933E+03 -0.10512034592E+04  0.47252239648E+03  0.12387003763E+04  0.87924486746E+02 0.  0.
          4    1    3    3  502    0 -0.83034331981E+01  0.20611048113E+02  0.14176168412E+02  0.26357656536E+02  0.00000000000E+00 0. -1.
         -3    1    3    3    0  502 -0.10455572214E+04  0.11660510961E+04  0.14899119393E+04  0.21616435064E+04  0.00000000000E+00 0.  1.
         11    1    5    5    0    0  0.60157819545E+03 -0.13885293393E+03  0.60826851136E+03  0.86669893528E+03  0.00000000000E+00 0.  1.
        -11    1    5    5    0    0  0.69266698011E+01  0.33942488684E+01  0.26713336408E+02  0.27804712226E+02  0.00000000000E+00 0. -1.
          2    1    6    6  503    0  0.16574372930E+03 -0.29008989236E+03  0.13110212299E+03  0.35890234898E+03  0.00000000000E+00 0. -1.
         -2    1    6    6    0  503  0.27961206003E+03 -0.76111356680E+03  0.34142027349E+03  0.87979802730E+03  0.00000000000E+00 0.  1.
<mgrwt>
<rscale>  0 0.34427314E+04</rscale>
<asrwt>0</asrwt>
<pdfrwt beam="1">  1        2 0.13150868E+00 0.34427314E+04</pdfrwt>
<pdfrwt beam="2">  1       -1 0.53329211E+00 0.34427314E+04</pdfrwt>
<totfact> 0.27496336E-02</totfact>
</mgrwt>
</event>
<event>
12    6  0.8914180E-008  0.2153577E+04  0.7818608E-02  0.8538003E-01
         -1   -1    0    0    0  501 -0.00000000000E+00  0.00000000000E+00  0.55082285850E+03  0.55082285850E+03  0.00000000000E+00 0.  1.
          2   -1    0    0  501    0  0.00000000000E+00 -0.00000000000E+00 -0.21049833606E+04  0.21049833606E+04  0.00000000000E+00 0. -1.
         24    2    1    2    0    0 -0.60339853171E+03  0.30594438755E+03 -0.13542852598E+04  0.15159994201E+04  0.80460676034E+02 0.  0.
        254    2    1    2    0    0  0.60339853171E+03 -0.30594438755E+03 -0.19987524226E+03  0.11398067990E+04  0.89527519244E+03 0.  0.
         23    2    4    4    0    0 -0.56552330242E+02 -0.26043214078E+03  0.21492195191E+03  0.35408958325E+03  0.90359955446E+02 0.  0.
         23    2    4    4    0    0  0.65995086195E+03 -0.45512246773E+02 -0.41479719416E+03  0.78571721573E+03  0.87683099905E+02 0.  0.
          4    1    3    3  502    0 -0.30464844756E+03  0.18067432788E+03 -0.63431207491E+03  0.72650237283E+03  0.00000000000E+00 0. -1.
         -3    1    3    3    0  502 -0.29875008416E+03  0.12527005967E+03 -0.71997318492E+03  0.78949704726E+03  0.00000000000E+00 0.  1.
         11    1    5    5    0    0 -0.89598364892E+01  0.42678591827E+01  0.18705276641E+02  0.21175000971E+02  0.00000000000E+00 0. -1.
        -11    1    5    5    0    0 -0.47592493753E+02 -0.26469999996E+03  0.19621667527E+03  0.33291458228E+03  0.00000000000E+00 0.  1.
          3    1    6    6  503    0  0.88115357052E+02 -0.36528718495E+02 -0.57707240691E+02  0.11148447897E+03  0.00000000000E+00 0. -1.
         -3    1    6    6    0  503  0.57183550490E+03 -0.89835282777E+01 -0.35708995347E+03  0.67423273676E+03  0.00000000000E+00 0.  1.
<mgrwt>
<rscale>  0 0.21535765E+04</rscale>
<asrwt>0</asrwt>
<pdfrwt beam="1">  1        2 0.32384359E+00 0.21535765E+04</pdfrwt>
<pdfrwt beam="2">  1       -1 0.84741979E-01 0.21535765E+04</pdfrwt>
<totfact> 0.84022734E+00</totfact>
</mgrwt>
</event>
<event>
12    6  0.8914180E-008  0.4367874E+04  0.7818608E-02  0.7934185E-01
          2   -1    0    0  501    0  0.00000000000E+00  0.00000000000E+00  0.19308490869E+04  0.19308490869E+04  0.00000000000E+00 0. -1.
         -1   -1    0    0    0  501 -0.00000000000E+00 -0.00000000000E+00 -0.24701988848E+04  0.24701988848E+04  0.00000000000E+00 0.  1.
         24    2    1    2    0    0  0.13470916766E+04 -0.15256500645E+04  0.21938792323E+03  0.20485915439E+04  0.79574798076E+02 0.  0.
        254    2    1    2    0    0 -0.13470916766E+04  0.15256500645E+04 -0.75873772115E+03  0.23524564278E+04  0.90338486302E+03 0.  0.
         23    2    4    4    0    0 -0.60829347822E+03  0.10127144720E+04 -0.20146951746E+02  0.11850520735E+04  0.91274091139E+02 0.  0.
         23    2    4    4    0    0 -0.73879819835E+03  0.51293559255E+03 -0.73859076940E+03  0.11674043544E+04  0.91601866388E+02 0.  0.
          2    1    3    3  502    0  0.13311023215E+04 -0.15039557002E+04  0.20738709679E+03  0.20190902769E+04  0.00000000000E+00 0. -1.
         -1    1    3    3    0  502  0.15989355087E+02 -0.21694364340E+02  0.12000826440E+02  0.29501267014E+02  0.00000000000E+00 0.  1.
         11    1    5    5    0    0 -0.59879217593E+03  0.96277781388E+03 -0.24240273489E+02  0.11340550162E+04  0.00000000000E+00 0.  1.
        -11    1    5    5    0    0 -0.95013022944E+01  0.49936658113E+02  0.40933217431E+01  0.50997057285E+02  0.00000000000E+00 0. -1.
          2    1    6    6  503    0 -0.84751048974E+02  0.55828552053E+02 -0.12382319598E+03  0.16009919234E+03  0.00000000000E+00 0. -1.
         -2    1    6    6    0  503 -0.65404714938E+03  0.45710704050E+03 -0.61476757343E+03  0.10073051620E+04  0.00000000000E+00 0.  1.
<mgrwt>
<rscale>  0 0.43678742E+04</rscale>
<asrwt>0</asrwt>
<pdfrwt beam="1">  1        2 0.29705371E+00 0.43678742E+04</pdfrwt>
<pdfrwt beam="2">  1       -1 0.38003060E+00 0.43678742E+04</pdfrwt>
<totfact> 0.62214023E-02</totfact>
</mgrwt>
</event>
<event>
12    6  0.8914180E-008  0.1207596E+04  0.7818608E-02  0.9106234E-01
          2   -1    0    0  501    0  0.00000000000E+00  0.00000000000E+00  0.19684277746E+04  0.19684277746E+04  0.00000000000E+00 0. -1.
         -1   -1    0    0    0  501 -0.00000000000E+00 -0.00000000000E+00 -0.18520963024E+03  0.18520963024E+03  0.00000000000E+00 0.  1.
         24    2    1    2    0    0 -0.21177340704E+03  0.45070728782E+02  0.64036661204E+03  0.68081511171E+03  0.80996740648E+02 0.  0.
        254    2    1    2    0    0  0.21177340704E+03 -0.45070728782E+02  0.11428515323E+04  0.14728222931E+04  0.90344702981E+03 0.  0.
         23    2    4    4    0    0 -0.21887291055E+03  0.25108501838E+03  0.70431827558E+03  0.78446291336E+03  0.91481100207E+02 0.  0.
         23    2    4    4    0    0  0.43064631759E+03 -0.29615574716E+03  0.43853325675E+03  0.68835937977E+03  0.91448023585E+02 0.  0.
          2    1    3    3  502    0 -0.74156853685E+02  0.31289363723E+02  0.13798835102E+03  0.15974682547E+03  0.00000000000E+00 0. -1.
         -1    1    3    3    0  502 -0.13761655335E+03  0.13781365060E+02  0.50237826101E+03  0.52106828624E+03  0.00000000000E+00 0.  1.
         11    1    5    5    0    0 -0.14143036328E+02 -0.63544129532E+01  0.21031322853E+02  0.26128922318E+02  0.00000000000E+00 0. -1.
        -11    1    5    5    0    0 -0.20472987422E+03  0.25743943133E+03  0.68328695273E+03  0.75833399105E+03  0.00000000000E+00 0.  1.
          1    1    6    6  503    0  0.34008286578E+03 -0.18477567540E+03  0.32051174748E+03  0.50251983651E+03  0.00000000000E+00 0. -1.
         -1    1    6    6    0  503  0.90563451808E+02 -0.11138007176E+03  0.11802150927E+03  0.18583954326E+03  0.00000000000E+00 0.  1.
<mgrwt>
<rscale>  0 0.12075956E+04</rscale>
<asrwt>0</asrwt>
<pdfrwt beam="1">  1        2 0.30283503E+00 0.12075956E+04</pdfrwt>
<pdfrwt beam="2">  1       -1 0.28493791E-01 0.12075956E+04</pdfrwt>
<totfact> 0.87385267E+01</totfact>
</mgrwt>
</event>
<event>
12    6  0.8914180E-008  0.2033864E+04  0.7818608E-02  0.8590950E-01
         -1   -1    0    0    0  501 -0.00000000000E+00  0.00000000000E+00  0.28673878095E+03  0.28673878095E+03  0.00000000000E+00 0.  1.
          2   -1    0    0  501    0  0.00000000000E+00 -0.00000000000E+00 -0.36065945314E+04  0.36065945314E+04  0.00000000000E+00 0. -1.
         24    2    1    2    0    0 -0.23740409245E+03 -0.30426161846E+03  0.40265067864E+02  0.39612688339E+03  0.79745824175E+02 0.  0.
        254    2    1    2    0    0  0.23740409245E+03  0.30426161846E+03 -0.33601208183E+04  0.34972064290E+04  0.88944086793E+03 0.  0.
         23    2    4    4    0    0  0.37674635447E+02  0.54706145632E+03 -0.27391665864E+04  0.27949958451E+04  0.90953676957E+02 0.  0.
         23    2    4    4    0    0  0.19972945701E+03 -0.24279983786E+03 -0.62095423198E+03  0.70221058385E+03  0.93123190435E+02 0.  0.
          4    1    3    3  502    0 -0.19802288129E+03 -0.26062560525E+03  0.62589763576E+02  0.33325102570E+03  0.00000000000E+00 0. -1.
         -1    1    3    3    0  502 -0.39381211158E+02 -0.43636013210E+02 -0.22324695713E+02  0.62875857686E+02  0.00000000000E+00 0.  1.
         11    1    5    5    0    0 -0.14541408249E+02  0.31120923973E+03 -0.16785874614E+04  0.17072546702E+04  0.00000000000E+00 0.  1.
        -11    1    5    5    0    0  0.52216043696E+02  0.23585221659E+03 -0.10605791250E+04  0.10877411749E+04  0.00000000000E+00 0. -1.
          1    1    6    6  503    0  0.13267535857E+03 -0.22011643317E+03 -0.49385453151E+03  0.55672820408E+03  0.00000000000E+00 0. -1.
         -1    1    6    6    0  503  0.67054098431E+02 -0.22683404697E+02 -0.12709970047E+03  0.14548237977E+03  0.00000000000E+00 0.  1.
<mgrwt>
<rscale>  0 0.20338638E+04</rscale>
<asrwt>0</asrwt>
<pdfrwt beam="1">  1        2 0.55486069E+00 0.20338638E+04</pdfrwt>
<pdfrwt beam="2">  1       -1 0.44113659E-01 0.20338638E+04</pdfrwt>
<totfact> 0.36825821E+00</totfact>
</mgrwt>
</event>
<event>
12    6  0.8914180E-008  0.2947542E+04  0.7818608E-02  0.8258871E-01
         -1   -1    0    0    0  501 -0.00000000000E+00  0.00000000000E+00  0.87757512199E+03  0.87757512199E+03  0.00000000000E+00 0.  1.
          2   -1    0    0  501    0  0.00000000000E+00 -0.00000000000E+00 -0.24750028273E+04  0.24750028273E+04  0.00000000000E+00 0. -1.
         24    2    1    2    0    0  0.11181462650E+04 -0.73052732652E+03 -0.72742701320E+03  0.15232184664E+04  0.84399005883E+02 0.  0.
        254    2    1    2    0    0 -0.11181462650E+04  0.73052732652E+03 -0.87000069205E+03  0.18293594828E+04  0.89762668667E+03 0.  0.
         23    2    4    4    0    0 -0.53414557630E+03  0.79048410612E+03 -0.29549958652E+03  0.10027901598E+04  0.89952655628E+02 0.  0.
         23    2    4    4    0    0 -0.58400068867E+03 -0.59956779599E+02 -0.57450110553E+03  0.82656932304E+03  0.92269744451E+02 0.  0.
          4    1    3    3  502    0  0.60730235570E+02 -0.50896383056E+02 -0.64237402854E+02  0.10200513343E+03  0.00000000000E+00 0. -1.
         -3    1    3    3    0  502  0.10574160294E+04 -0.67963094346E+03 -0.66318961035E+03  0.14212133330E+04  0.00000000000E+00 0.  1.
         11    1    5    5    0    0 -0.40029994464E+03  0.64514921553E+03 -0.25646409707E+03  0.80139340468E+03  0.00000000000E+00 0.  1.
        -11    1    5    5    0    0 -0.13384563167E+03  0.14533489059E+03 -0.39035489454E+02  0.20139675512E+03  0.00000000000E+00 0. -1.
          3    1    6    6  503    0 -0.98013452319E+02 -0.24178685757E+02 -0.14699177218E+03  0.17831945146E+03  0.00000000000E+00 0. -1.
         -3    1    6    6    0  503 -0.48598723635E+03 -0.35778093842E+02 -0.42750933335E+03  0.64824987157E+03  0.00000000000E+00 0.  1.
<mgrwt>
<rscale>  0 0.29475420E+04</rscale>
<asrwt>0</asrwt>
<pdfrwt beam="1">  1        2 0.38076966E+00 0.29475420E+04</pdfrwt>
<pdfrwt beam="2">  1       -1 0.13501156E+00 0.29475420E+04</pdfrwt>
<totfact> 0.16194667E+00</totfact>
</mgrwt>
</event>
<event>
12    6  0.8914180E-008  0.1293174E+04  0.7818608E-02  0.9034996E-01
         -1   -1    0    0    0  501 -0.00000000000E+00  0.00000000000E+00  0.46918091867E+03  0.46918091867E+03  0.00000000000E+00 0.  1.
          2   -1    0    0  501    0  0.00000000000E+00 -0.00000000000E+00 -0.89107391714E+03  0.89107391714E+03  0.00000000000E+00 0. -1.
         24    2    1    2    0    0 -0.26521139522E+03  0.89297657426E+02 -0.28065619759E+03  0.40415761678E+03  0.79147471076E+02 0.  0.
        254    2    1    2    0    0  0.26521139522E+03 -0.89297657426E+02 -0.14123680088E+03  0.95609721903E+03  0.90325129534E+03 0.  0.
         23    2    4    4    0    0  0.49099212557E+02 -0.10167430044E+03 -0.50466009789E+03  0.52505840707E+03  0.90863196019E+02 0.  0.
         23    2    4    4    0    0  0.21611218267E+03  0.12376643012E+02  0.36342329701E+03  0.43103881196E+03  0.82826975170E+02 0.  0.
          4    1    3    3  502    0 -0.25816527992E+03  0.89238558339E+02 -0.24221710104E+03  0.36507801370E+03  0.00000000000E+00 0. -1.
         -3    1    3    3    0  502 -0.70461153063E+01  0.59099087093E-01 -0.38439096547E+02  0.39079603081E+02  0.00000000000E+00 0.  1.
         11    1    5    5    0    0  0.15712474849E+02  0.42226130934E+01 -0.12469545965E+02  0.20498826888E+02  0.00000000000E+00 0. -1.
        -11    1    5    5    0    0  0.33386737708E+02 -0.10589691353E+03 -0.49219055193E+03  0.50455958018E+03  0.00000000000E+00 0.  1.
          1    1    6    6  503    0  0.60025634845E+02 -0.18981726621E+01  0.18008079933E+03  0.18983090946E+03  0.00000000000E+00 0. -1.
         -1    1    6    6    0  503  0.15608654782E+03  0.14274815674E+02  0.18334249768E+03  0.24120790250E+03  0.00000000000E+00 0.  1.
<mgrwt>
<rscale>  0 0.12931742E+04</rscale>
<asrwt>0</asrwt>
<pdfrwt beam="1">  1        2 0.13708829E+00 0.12931742E+04</pdfrwt>
<pdfrwt beam="2">  1       -1 0.72181681E-01 0.12931742E+04</pdfrwt>
<totfact> 0.64458611E+01</totfact>
</mgrwt>
</event>
<event>
12    6  0.8914180E-008  0.1891672E+04  0.7818608E-02  0.8659013E-01
          2   -1    0    0  501    0  0.00000000000E+00  0.00000000000E+00  0.12415889144E+04  0.12415889144E+04  0.00000000000E+00 0. -1.
         -1   -1    0    0    0  501 -0.00000000000E+00 -0.00000000000E+00 -0.72053277079E+03  0.72053277079E+03  0.00000000000E+00 0.  1.
         24    2    1    2    0    0  0.31446511090E+02  0.55024846326E+03  0.70635361091E+03  0.89960890986E+03  0.81231229661E+02 0.  0.
        254    2    1    2    0    0 -0.31446511090E+02 -0.55024846326E+03 -0.18529746727E+03  0.10625127754E+04  0.88928959964E+03 0.  0.
         23    2    4    4    0    0 -0.29638028198E+03  0.74733747004E+02  0.83899337194E+02  0.32682183494E+03  0.79668114849E+02 0.  0.
         23    2    4    4    0    0  0.26493377089E+03 -0.62498221026E+03 -0.26919680447E+03  0.73569094041E+03  0.89339656168E+02 0.  0.
          4    1    3    3  502    0  0.14800720322E+02  0.28675592858E+03  0.43315719644E+03  0.51968565569E+03  0.00000000000E+00 0. -1.
         -3    1    3    3    0  502  0.16645790768E+02  0.26349253468E+03  0.27319641447E+03  0.37992325417E+03  0.00000000000E+00 0.  1.
         11    1    5    5    0    0 -0.59536507904E+02 -0.16918748318E+02  0.15115024996E+02  0.63712665920E+02  0.00000000000E+00 0.  1.
        -11    1    5    5    0    0 -0.23684377408E+03  0.91652495322E+02  0.68784312197E+02  0.26310916902E+03  0.00000000000E+00 0. -1.
          4    1    6    6  503    0  0.14928553204E+03 -0.31975110784E+03 -0.93767064841E+02  0.36512902308E+03  0.00000000000E+00 0. -1.
         -4    1    6    6    0  503  0.11564823885E+03 -0.30523110242E+03 -0.17542973963E+03  0.37056191733E+03  0.00000000000E+00 0.  1.
<mgrwt>
<rscale>  0 0.18916717E+04</rscale>
<asrwt>0</asrwt>
<pdfrwt beam="1">  1        2 0.19101368E+00 0.18916717E+04</pdfrwt>
<pdfrwt beam="2">  1       -1 0.11085120E+00 0.18916717E+04</pdfrwt>
<totfact> 0.14326624E+01</totfact>
</mgrwt>
</event>
<event>
12    6  0.8914180E-008  0.1680820E+04  0.7818608E-02  0.8772380E-01
         -1   -1    0    0    0  501 -0.00000000000E+00  0.00000000000E+00  0.18437350401E+04  0.18437350401E+04  0.00000000000E+00 0.  1.
          2   -1    0    0  501    0  0.00000000000E+00 -0.00000000000E+00 -0.38307496271E+03  0.38307496271E+03  0.00000000000E+00 0. -1.
         24    2    1    2    0    0  0.18533190531E+03  0.50288268408E+03  0.86374213916E+03  0.10196468959E+04  0.79939979931E+02 0.  0.
        254    2    1    2    0    0 -0.18533190531E+03 -0.50288268408E+03  0.59691793820E+03  0.12071631068E+04  0.90204924060E+03 0.  0.
         23    2    4    4    0    0 -0.16347244178E+02  0.11259319134E+03 -0.15786457532E+03  0.21479602928E+03  0.90948616962E+02 0.  0.
         23    2    4    4    0    0 -0.16898466113E+03 -0.61547587542E+03  0.75478251351E+03  0.99236707754E+03  0.87917034522E+02 0.  0.
          4    1    3    3  502    0  0.14690422985E+03  0.36235919640E+03  0.56276858036E+03  0.68526893626E+03  0.00000000000E+00 0. -1.
         -3    1    3    3    0  502  0.38427675459E+02  0.14052348768E+03  0.30097355879E+03  0.33437795969E+03  0.00000000000E+00 0.  1.
         11    1    5    5    0    0 -0.29957162734E+02  0.11541279857E+03 -0.16119582795E+03  0.20050346786E+03  0.00000000000E+00 0. -1.
        -11    1    5    5    0    0  0.13609918555E+02 -0.28196072271E+01  0.33312526384E+01  0.14292561427E+02  0.00000000000E+00 0.  1.
          2    1    6    6  503    0 -0.16332313059E+03 -0.45422634208E+03  0.55397070854E+03  0.73476496973E+03  0.00000000000E+00 0. -1.
         -2    1    6    6    0  503 -0.56615305374E+01 -0.16124953334E+03  0.20081180497E+03  0.25760210781E+03  0.00000000000E+00 0.  1.
<mgrwt>
<rscale>  0 0.16808197E+04</rscale>
<asrwt>0</asrwt>
<pdfrwt beam="1">  1        2 0.58934611E-01 0.16808197E+04</pdfrwt>
<pdfrwt beam="2">  1       -1 0.28365154E+00 0.16808197E+04</pdfrwt>
<totfact> 0.38401343E+00</totfact>
</mgrwt>
</event>
<event>
12    6  0.8914180E-008  0.1304423E+04  0.7818608E-02  0.9026065E-01
          2   -1    0    0  501    0  0.00000000000E+00  0.00000000000E+00  0.17149208119E+04  0.17149208119E+04  0.00000000000E+00 0. -1.
         -1   -1    0    0    0  501 -0.00000000000E+00 -0.00000000000E+00 -0.24804631058E+03  0.24804631058E+03  0.00000000000E+00 0.  1.
         24    2    1    2    0    0  0.13529331472E+03 -0.26293828206E+03  0.61852465233E+03  0.68895681145E+03  0.68175665230E+02 0.  0.
        254    2    1    2    0    0 -0.13529331472E+03  0.26293828206E+03  0.84834984901E+03  0.12740103110E+04  0.90330724849E+03 0.  0.
         23    2    4    4    0    0  0.21181156754E+03 -0.15195707614E+03  0.62084549406E+03  0.67954920487E+03  0.91558184784E+02 0.  0.
         23    2    4    4    0    0 -0.34710488226E+03  0.41489535820E+03  0.22750435494E+03  0.59446110618E+03  0.94898986802E+02 0.  0.
          2    1    3    3  502    0  0.11513294318E+03 -0.23353858093E+03  0.48173949516E+03  0.54760277993E+03  0.00000000000E+00 0. -1.
         -1    1    3    3    0  502  0.20160371543E+02 -0.29399701133E+02  0.13678515717E+03  0.14135403152E+03  0.00000000000E+00 0.  1.
         11    1    5    5    0    0  0.11509908038E+03 -0.50644113891E+02  0.20237298452E+03  0.23825920641E+03  0.00000000000E+00 0.  1.
        -11    1    5    5    0    0  0.96712487165E+02 -0.10131296225E+03  0.41847250955E+03  0.44128999846E+03  0.00000000000E+00 0. -1.
          1    1    6    6  503    0 -0.10229829741E+03  0.16930891059E+03  0.46092693390E+02  0.20311323256E+03  0.00000000000E+00 0. -1.
         -1    1    6    6    0  503 -0.24480658485E+03  0.24558644761E+03  0.18141166155E+03  0.39134787362E+03  0.00000000000E+00 0.  1.
<mgrwt>
<rscale>  0 0.13044229E+04</rscale>
<asrwt>0</asrwt>
<pdfrwt beam="1">  1        2 0.26383396E+00 0.13044229E+04</pdfrwt>
<pdfrwt beam="2">  1       -1 0.38160972E-01 0.13044229E+04</pdfrwt>
<totfact> 0.71284952E+01</totfact>
</mgrwt>
</event>
<event>
12    6  0.8914180E-008  0.2187804E+04  0.7818608E-02  0.8523522E-01
          2   -1    0    0  501    0  0.00000000000E+00  0.00000000000E+00  0.14600713118E+04  0.14600713118E+04  0.00000000000E+00 0. -1.
         -1   -1    0    0    0  501 -0.00000000000E+00 -0.00000000000E+00 -0.81956383190E+03  0.81956383190E+03  0.00000000000E+00 0.  1.
         24    2    1    2    0    0 -0.25445901827E+03  0.85569823216E+03  0.42067981963E+03  0.99015080429E+03  0.80363225946E+02 0.  0.
        254    2    1    2    0    0  0.25445901827E+03 -0.85569823216E+03  0.21982766028E+03  0.12894843394E+04  0.90414423898E+03 0.  0.
         23    2    4    4    0    0  0.15425644435E+01 -0.88449220984E+03  0.38789436101E+03  0.96976675693E+03  0.87502450090E+02 0.  0.
         23    2    4    4    0    0  0.25291645382E+03  0.28793977682E+02 -0.16806670073E+03  0.31971758249E+03  0.95797134053E+02 0.  0.
          4    1    3    3  502    0 -0.18332013436E+03  0.67209576898E+03  0.35964980397E+03  0.78400699987E+03  0.00000000000E+00 0. -1.
         -3    1    3    3    0  502 -0.71138883908E+02  0.18360246318E+03  0.61030015660E+02  0.20614380442E+03  0.00000000000E+00 0.  1.
         11    1    5    5    0    0  0.25940377295E+02 -0.80984552299E+03  0.35535397395E+03  0.88475935773E+03  0.00000000000E+00 0. -1.
        -11    1    5    5    0    0 -0.24397812851E+02 -0.74646686855E+02  0.32540387058E+02  0.85007399209E+02  0.00000000000E+00 0.  1.
          1    1    6    6  503    0  0.89903342128E+02 -0.78112693811E+01 -0.11124944639E+03  0.14324826763E+03  0.00000000000E+00 0. -1.
         -1    1    6    6    0  503  0.16301311170E+03  0.36605247063E+02 -0.56817254332E+02  0.17646931486E+03  0.00000000000E+00 0.  1.
<mgrwt>
<rscale>  0 0.21878040E+04</rscale>
<asrwt>0</asrwt>
<pdfrwt beam="1">  1        2 0.22462636E+00 0.21878040E+04</pdfrwt>
<pdfrwt beam="2">  1       -1 0.12608674E+00 0.21878040E+04</pdfrwt>
<totfact> 0.76348648E+00</totfact>
</mgrwt>
</event>
<event>
12    6  0.8914180E-008  0.1226502E+04  0.7818608E-02  0.9089970E-01
          2   -1    0    0  501    0  0.00000000000E+00  0.00000000000E+00  0.19456833776E+03  0.19456833776E+03  0.00000000000E+00 0. -1.
         -1   -1    0    0    0  501 -0.00000000000E+00 -0.00000000000E+00 -0.19328782954E+04  0.19328782954E+04  0.00000000000E+00 0.  1.
         24    2    1    2    0    0  0.14704955278E+03 -0.76424729745E+02 -0.18948418803E+02  0.18499371952E+03  0.79995771119E+02 0.  0.
        254    2    1    2    0    0 -0.14704955278E+03  0.76424729745E+02 -0.17193615388E+04  0.19424529137E+04  0.88851275186E+03 0.  0.
         23    2    4    4    0    0  0.16555486397E+03  0.16869663764E+02  0.45873724310E+01  0.18705799159E+03  0.85303280684E+02 0.  0.
         23    2    4    4    0    0 -0.31260441675E+03  0.59555065981E+02 -0.17239489113E+04  0.17553949221E+04  0.90239439534E+02 0.  0.
          2    1    3    3  502    0  0.93050330071E+02 -0.84811686555E+02  0.34138993856E+01  0.12594856415E+03  0.00000000000E+00 0. -1.
         -1    1    3    3    0  502  0.53999222708E+02  0.83869568100E+01 -0.22362318189E+02  0.59045155368E+02  0.00000000000E+00 0.  1.
         11    1    5    5    0    0  0.15350803639E+03  0.11557618232E+02  0.31468326213E+02  0.15712590917E+03  0.00000000000E+00 0. -1.
        -11    1    5    5    0    0  0.12046827571E+02  0.53120455319E+01 -0.26880953782E+02  0.29932082428E+02  0.00000000000E+00 0.  1.
          4    1    6    6  503    0 -0.15640939018E+03  0.75360246515E+02 -0.93286356672E+03  0.94888223621E+03  0.00000000000E+00 0. -1.
         -4    1    6    6    0  503 -0.15619502656E+03 -0.15805180534E+02 -0.79108534456E+03  0.80651268584E+03  0.00000000000E+00 0.  1.
<mgrwt>
<rscale>  0 0.12265022E+04</rscale>
<asrwt>0</asrwt>
<pdfrwt beam="1">  1        2 0.29933589E-01 0.12265022E+04</pdfrwt>
<pdfrwt beam="2">  1       -1 0.29736590E+00 0.12265022E+04</pdfrwt>
<totfact> 0.69711202E+00</totfact>
</mgrwt>
</event>
<event>
12    6  0.1036281E-007  0.1937314E+04  0.7818608E-02  0.8636502E-01
          2   -1    0    0  501    0  0.00000000000E+00  0.00000000000E+00  0.16806796105E+04  0.16806796105E+04  0.00000000000E+00 0. -1.
         -1   -1    0    0    0  501 -0.00000000000E+00 -0.00000000000E+00 -0.55828397296E+03  0.55828397296E+03  0.00000000000E+00 0.  1.
         24    2    1    2    0    0  0.58920879828E+03 -0.84877117655E+02 -0.87025247871E+02  0.60719408496E+03  0.82098294600E+02 0.  0.
        254    2    1    2    0    0 -0.58920879828E+03  0.84877117655E+02  0.12094208854E+04  0.16317694985E+04  0.91956603087E+03 0.  0.
         23    2    4    4    0    0 -0.12730190393E+03 -0.12696885387E+03  0.10812006212E+04  0.10997533864E+04  0.90199019415E+02 0.  0.
         23    2    4    4    0    0 -0.46190689435E+03  0.21184597152E+03  0.12822026422E+03  0.53201611208E+03  0.91454976106E+02 0.  0.
          4    1    3    3  502    0  0.21310848445E+03 -0.10575753096E+02 -0.65596186657E+02  0.22322619112E+03  0.00000000000E+00 0. -1.
         -3    1    3    3    0  502  0.37610031383E+03 -0.74301364559E+02 -0.21429061214E+02  0.38396789384E+03  0.00000000000E+00 0.  1.
         11    1    5    5    0    0 -0.77377977222E+02 -0.12495330583E+03  0.89396184430E+03  0.90596272499E+03  0.00000000000E+00 0. -1.
        -11    1    5    5    0    0 -0.49923926707E+02 -0.20155480347E+01  0.18723877691E+03  0.19379066146E+03  0.00000000000E+00 0.  1.
          4    1    6    6  503    0 -0.32382158266E+03  0.16514006682E+03  0.51011717303E+02  0.36706110440E+03  0.00000000000E+00 0. -1.
         -4    1    6    6    0  503 -0.13808531169E+03  0.46705904706E+02  0.77208546919E+02  0.16495500767E+03  0.00000000000E+00 0.  1.
<mgrwt>
<rscale>  0 0.19373141E+04</rscale>
<asrwt>0</asrwt>
<pdfrwt beam="1">  1        2 0.25856609E+00 0.19373141E+04</pdfrwt>
<pdfrwt beam="2">  1       -1 0.85889843E-01 0.19373141E+04</pdfrwt>
<totfact> 0.14310238E+01</totfact>
</mgrwt>
</event>
<event>
12    6  0.8914180E-008  0.2062769E+04  0.7818608E-02  0.8577823E-01
         -1   -1    0    0    0  501 -0.00000000000E+00  0.00000000000E+00  0.71254414073E+03  0.71254414073E+03  0.00000000000E+00 0.  1.
          2   -1    0    0  501    0  0.00000000000E+00 -0.00000000000E+00 -0.14928961937E+04  0.14928961937E+04  0.00000000000E+00 0. -1.
         24    2    1    2    0    0  0.56834184740E+03  0.53249427885E+03 -0.60463087152E+03  0.98925213079E+03  0.80490216496E+02 0.  0.
        254    2    1    2    0    0 -0.56834184740E+03 -0.53249427885E+03 -0.17572118149E+03  0.12161882037E+04  0.91742749068E+03 0.  0.
         23    2    4    4    0    0 -0.44360922472E+03 -0.37169349333E+03 -0.53522046151E+03  0.79295244496E+03  0.85833794677E+02 0.  0.
         23    2    4    4    0    0 -0.12473262269E+03 -0.16080078552E+03  0.35949928002E+03  0.42323575874E+03  0.92052459801E+02 0.  0.
          2    1    3    3  502    0  0.29838466489E+03  0.33411012024E+03 -0.34453683904E+03  0.56512707787E+03  0.00000000000E+00 0. -1.
         -1    1    3    3    0  502  0.26995718251E+03  0.19838415861E+03 -0.26009403249E+03  0.42412505292E+03  0.00000000000E+00 0.  1.
         11    1    5    5    0    0 -0.41804349691E+03 -0.31725034147E+03 -0.47492313288E+03  0.70778536762E+03  0.00000000000E+00 0.  1.
        -11    1    5    5    0    0 -0.25565727807E+02 -0.54443151855E+02 -0.60297328628E+02  0.85167077335E+02  0.00000000000E+00 0. -1.
          4    1    6    6  503    0 -0.21379450779E+02 -0.17572218570E+02  0.63693454285E+01  0.28397752415E+02  0.00000000000E+00 0. -1.
         -4    1    6    6    0  503 -0.10335317191E+03 -0.14322856695E+03  0.35312993459E+03  0.39483800632E+03  0.00000000000E+00 0.  1.
<mgrwt>
<rscale>  0 0.20627694E+04</rscale>
<asrwt>0</asrwt>
<pdfrwt beam="1">  1        2 0.22967633E+00 0.20627694E+04</pdfrwt>
<pdfrwt beam="2">  1       -1 0.10962218E+00 0.20627694E+04</pdfrwt>
<totfact> 0.10381834E+01</totfact>
</mgrwt>
</event>
<event>
12    6  0.8914180E-008  0.1931619E+04  0.7818608E-02  0.8639276E-01
          2   -1    0    0  501    0  0.00000000000E+00  0.00000000000E+00  0.16638887640E+04  0.16638887640E+04  0.00000000000E+00 0. -1.
         -1   -1    0    0    0  501 -0.00000000000E+00 -0.00000000000E+00 -0.56060721943E+03  0.56060721943E+03  0.00000000000E+00 0.  1.
         24    2    1    2    0    0 -0.80698189951E+02 -0.38306824540E+03  0.11674753903E+04  0.12337326032E+04  0.76445213518E+02 0.  0.
        254    2    1    2    0    0  0.80698189951E+02  0.38306824540E+03 -0.64193845776E+02  0.99076338022E+03  0.90787540294E+03 0.  0.
         23    2    4    4    0    0  0.44009622245E+03  0.40685614244E+03 -0.11028815129E+03  0.61603400381E+03  0.90098900539E+02 0.  0.
         23    2    4    4    0    0 -0.35939803249E+03 -0.23787897044E+02  0.46094305512E+02  0.37472937641E+03  0.92545182157E+02 0.  0.
          4    1    3    3  502    0 -0.55446372568E+02 -0.33405068006E+03  0.92405483651E+03  0.98414505940E+03  0.00000000000E+00 0. -1.
         -3    1    3    3    0  502 -0.25251817384E+02 -0.49017565340E+02  0.24342055379E+03  0.24958754376E+03  0.00000000000E+00 0.  1.
         11    1    5    5    0    0  0.36823822624E+03  0.36458170011E+03 -0.12057326058E+03  0.53203112549E+03  0.00000000000E+00 0.  1.
        -11    1    5    5    0    0  0.71857996202E+02  0.42274442329E+02  0.10285109289E+02  0.84002878317E+02  0.00000000000E+00 0. -1.
          4    1    6    6  503    0 -0.18071808539E+03  0.32214438798E+02  0.86428294626E+01  0.18377022325E+03  0.00000000000E+00 0. -1.
         -4    1    6    6    0  503 -0.17867994711E+03 -0.56002335842E+02  0.37451476050E+02  0.19095915316E+03  0.00000000000E+00 0.  1.
<mgrwt>
<rscale>  0 0.19316191E+04</rscale>
<asrwt>0</asrwt>
<pdfrwt beam="1">  1        2 0.25598288E+00 0.19316191E+04</pdfrwt>
<pdfrwt beam="2">  1       -1 0.86247265E-01 0.19316191E+04</pdfrwt>
<totfact> 0.14497318E+01</totfact>
</mgrwt>
</event>
<event>
12    6  0.8914180E-008  0.1892558E+04  0.7818608E-02  0.8658570E-01
          2   -1    0    0  501    0  0.00000000000E+00  0.00000000000E+00  0.83800347185E+03  0.83800347185E+03  0.00000000000E+00 0. -1.
         -1   -1    0    0    0  501 -0.00000000000E+00 -0.00000000000E+00 -0.10685441766E+04  0.10685441766E+04  0.00000000000E+00 0.  1.
         24    2    1    2    0    0 -0.10442550738E+03 -0.69693767463E+03 -0.28084061370E+03  0.76287464667E+03  0.80495138490E+02 0.  0.
        254    2    1    2    0    0  0.10442550738E+03  0.69693767463E+03  0.50299908986E+02  0.11436730017E+04  0.89935034618E+03 0.  0.
         23    2    4    4    0    0  0.41333138136E+03  0.29125109091E+03  0.27048641576E+03  0.58097803924E+03  0.93287470737E+02 0.  0.
         23    2    4    4    0    0 -0.30890587398E+03  0.40568658372E+03 -0.22018650677E+03  0.56269496251E+03  0.90216849222E+02 0.  0.
          2    1    3    3  502    0 -0.39668710698E+02 -0.12547032708E+03 -0.78315666649E+02  0.15313312257E+03  0.00000000000E+00 0. -1.
         -1    1    3    3    0  502 -0.64756796683E+02 -0.57146734755E+03 -0.20252494705E+03  0.60974152410E+03  0.00000000000E+00 0.  1.
         11    1    5    5    0    0  0.32915661176E+03  0.27009826795E+03  0.24129673674E+03  0.48940909736E+03  0.00000000000E+00 0.  1.
        -11    1    5    5    0    0  0.84174769597E+02  0.21152822958E+02  0.29189679018E+02  0.91568941880E+02  0.00000000000E+00 0. -1.
          1    1    6    6  503    0 -0.10594450541E+03  0.81826996764E+02 -0.37145062418E+02  0.13892318485E+03  0.00000000000E+00 0. -1.
         -1    1    6    6    0  503 -0.20296136857E+03  0.32385958696E+03 -0.18304144435E+03  0.42377177767E+03  0.00000000000E+00 0.  1.
<mgrwt>
<rscale>  0 0.18925578E+04</rscale>
<asrwt>0</asrwt>
<pdfrwt beam="1">  1        2 0.12892361E+00 0.18925578E+04</pdfrwt>
<pdfrwt beam="2">  1       -1 0.16439141E+00 0.18925578E+04</pdfrwt>
<totfact> 0.93724965E+00</totfact>
</mgrwt>
</event>
<event>
12    6  0.8914180E-008  0.2848148E+04  0.7818608E-02  0.8288474E-01
          2   -1    0    0  501    0  0.00000000000E+00  0.00000000000E+00  0.10714821310E+04  0.10714821310E+04  0.00000000000E+00 0. -1.
         -1   -1    0    0    0  501 -0.00000000000E+00 -0.00000000000E+00 -0.18926928550E+04  0.18926928550E+04  0.00000000000E+00 0.  1.
         24    2    1    2    0    0 -0.42885514080E+03 -0.11142175675E+04 -0.86056368464E+03  0.14735903772E+04  0.74170243128E+02 0.  0.
        254    2    1    2    0    0  0.42885514080E+03  0.11142175675E+04  0.39352960605E+02  0.14905846087E+04  0.89156957141E+03 0.  0.
         23    2    4    4    0    0  0.27782210837E+03  0.98141583053E+03  0.37366105146E+03  0.10900312335E+04  0.90461882674E+02 0.  0.
         23    2    4    4    0    0  0.15103303243E+03  0.13280173702E+03 -0.33430809086E+03  0.40055337528E+03  0.90740446298E+02 0.  0.
          2    1    3    3  502    0 -0.14464983510E+03 -0.43370660585E+03 -0.36587157200E+03  0.58556554027E+03  0.00000000000E+00 0. -1.
         -1    1    3    3    0  502 -0.28420530570E+03 -0.68051096170E+03 -0.49469211264E+03  0.88802483698E+03  0.00000000000E+00 0.  1.
         11    1    5    5    0    0  0.22653709108E+02  0.17468658334E+03  0.88629555043E+02  0.19718973341E+03  0.00000000000E+00 0. -1.
        -11    1    5    5    0    0  0.25516839927E+03  0.80672924719E+03  0.28503149642E+03  0.89284150005E+03  0.00000000000E+00 0.  1.
          3    1    6    6  503    0  0.55660778618E+02  0.63629553448E+02 -0.65120824460E+02  0.10671253032E+03  0.00000000000E+00 0. -1.
         -3    1    6    6    0  503  0.95372253808E+02  0.69172183571E+02 -0.26918726640E+03  0.29384084496E+03  0.00000000000E+00 0.  1.
<mgrwt>
<rscale>  0 0.28481479E+04</rscale>
<asrwt>0</asrwt>
<pdfrwt beam="1">  1        2 0.16484341E+00 0.28481479E+04</pdfrwt>
<pdfrwt beam="2">  1       -1 0.29118351E+00 0.28481479E+04</pdfrwt>
<totfact> 0.84431349E-01</totfact>
</mgrwt>
</event>
<event>
12    6  0.8914180E-008  0.1550191E+04  0.7818608E-02  0.8851746E-01
         -1   -1    0    0    0  501 -0.00000000000E+00  0.00000000000E+00  0.25997150616E+03  0.25997150616E+03  0.00000000000E+00 0.  1.
          2   -1    0    0  501    0  0.00000000000E+00 -0.00000000000E+00 -0.23109196365E+04  0.23109196365E+04  0.00000000000E+00 0. -1.
         24    2    1    2    0    0 -0.21500536275E+03 -0.33330214326E+03 -0.14726547033E+03  0.43017112344E+03  0.77733210245E+02 0.  0.
        254    2    1    2    0    0  0.21500536275E+03  0.33330214326E+03 -0.19036826600E+04  0.21407200192E+04  0.89518540312E+03 0.  0.
         23    2    4    4    0    0  0.32544753859E+02 -0.10276769878E+03  0.32316850127E+02  0.14590230774E+03  0.92858729712E+02 0.  0.
         23    2    4    4    0    0  0.18246060889E+03  0.43606984205E+03 -0.19359995102E+04  0.19948177115E+04  0.88061443658E+02 0.  0.
          2    1    3    3  502    0  0.39243008926E+01 -0.26431766405E+02 -0.45896107308E+01  0.27112781847E+02  0.00000000000E+00 0. -1.
         -1    1    3    3    0  502 -0.21892966365E+03 -0.30687037686E+03 -0.14267585960E+03  0.40305834160E+03  0.00000000000E+00 0.  1.
         11    1    5    5    0    0  0.22992267715E+02 -0.10233736702E+03 -0.73054265100E+01  0.10514252385E+03  0.00000000000E+00 0. -1.
        -11    1    5    5    0    0  0.95524861441E+01 -0.43033175947E+00  0.39622276637E+02  0.40759783891E+02  0.00000000000E+00 0.  1.
          2    1    6    6  503    0  0.11902880063E+03  0.33952035189E+03 -0.13241045611E+04  0.13721132655E+04  0.00000000000E+00 0. -1.
         -2    1    6    6    0  503  0.63431808260E+02  0.96549490154E+02 -0.61189494905E+03  0.62270444596E+03  0.00000000000E+00 0.  1.
<mgrwt>
<rscale>  0 0.15501913E+04</rscale>
<asrwt>0</asrwt>
<pdfrwt beam="1">  1        2 0.35552609E+00 0.15501913E+04</pdfrwt>
<pdfrwt beam="2">  1       -1 0.39995618E-01 0.15501913E+04</pdfrwt>
<totfact> 0.29890149E+01</totfact>
</mgrwt>
</event>
<event>
12    6  0.8914180E-008  0.1036210E+04  0.7818608E-02  0.9269699E-01
         -1   -1    0    0    0  501 -0.00000000000E+00  0.00000000000E+00  0.27599971117E+03  0.27599971117E+03  0.00000000000E+00 0.  1.
          2   -1    0    0  501    0  0.00000000000E+00 -0.00000000000E+00 -0.97258303424E+03  0.97258303424E+03  0.00000000000E+00 0. -1.
         24    2    1    2    0    0  0.21317704241E+00 -0.74170421346E+02 -0.47132504667E+01  0.10891063455E+03  0.79611649530E+02 0.  0.
        254    2    1    2    0    0 -0.21317704241E+00  0.74170421346E+02 -0.69187007260E+03  0.11396721109E+04  0.90258906822E+03 0.  0.
         23    2    4    4    0    0  0.38631510220E+03 -0.91249200580E+02 -0.55437269251E+03  0.68798672355E+03  0.91819795215E+02 0.  0.
         23    2    4    4    0    0 -0.38652827924E+03  0.16541962193E+03 -0.13749738009E+03  0.45168538731E+03  0.91358620839E+02 0.  0.
          2    1    3    3  502    0 -0.16979732687E+02  0.95291876619E+01 -0.12454594568E+02  0.23113495311E+02  0.00000000000E+00 0. -1.
         -1    1    3    3    0  502  0.17192909730E+02 -0.83699609008E+02  0.77413441015E+01  0.85797139238E+02  0.00000000000E+00 0.  1.
         11    1    5    5    0    0  0.34555071282E+03 -0.10882776006E+03 -0.50611768229E+03  0.62241777354E+03  0.00000000000E+00 0. -1.
        -11    1    5    5    0    0  0.40764389382E+02  0.17578559480E+02 -0.48255010218E+02  0.65568950016E+02  0.00000000000E+00 0.  1.
          3    1    6    6  503    0 -0.36125885556E+03  0.12900048074E+03 -0.13707665493E+03  0.40735622504E+03  0.00000000000E+00 0. -1.
         -3    1    6    6    0  503 -0.25269423688E+02  0.36419141182E+02 -0.42072516242E+00  0.44329162270E+02  0.00000000000E+00 0.  1.
<mgrwt>
<rscale>  0 0.10362097E+04</rscale>
<asrwt>0</asrwt>
<pdfrwt beam="1">  1        2 0.14962816E+00 0.10362097E+04</pdfrwt>
<pdfrwt beam="2">  1       -1 0.42461495E-01 0.10362097E+04</pdfrwt>
<totfact> 0.16257518E+02</totfact>
</mgrwt>
</event>
<event>
12    6  0.8914180E-008  0.2239944E+04  0.7818608E-02  0.8501984E-01
          2   -1    0    0  501    0  0.00000000000E+00  0.00000000000E+00  0.99475610261E+03  0.99475610261E+03  0.00000000000E+00 0. -1.
         -1   -1    0    0    0  501 -0.00000000000E+00 -0.00000000000E+00 -0.12609490297E+04  0.12609490297E+04  0.00000000000E+00 0.  1.
         24    2    1    2    0    0 -0.52722567208E+02  0.68290168620E+03  0.53249027550E+03  0.87123635436E+03  0.79827999819E+02 0.  0.
        254    2    1    2    0    0  0.52722567208E+02 -0.68290168620E+03 -0.79868320256E+03  0.13844687779E+04  0.89984696303E+03 0.  0.
         23    2    4    4    0    0  0.85197460003E+02  0.11705052598E+03 -0.49433587638E+03  0.52318533404E+03  0.91626973418E+02 0.  0.
         23    2    4    4    0    0 -0.32474892795E+02 -0.79995221218E+03 -0.30434732617E+03  0.86128344387E+03  0.90574363421E+02 0.  0.
          2    1    3    3  502    0 -0.61298627386E+02  0.29153531203E+03  0.24052336759E+03  0.38288621056E+03  0.00000000000E+00 0. -1.
         -1    1    3    3    0  502  0.85760601778E+01  0.39136637417E+03  0.29196690791E+03  0.48835014380E+03  0.00000000000E+00 0.  1.
         11    1    5    5    0    0  0.83270690120E+02  0.59187410389E+02 -0.39698637967E+03  0.40992114245E+03  0.00000000000E+00 0.  1.
        -11    1    5    5    0    0  0.19267698823E+01  0.57863115591E+02 -0.97349496710E+02  0.11326419160E+03  0.00000000000E+00 0. -1.
          1    1    6    6  503    0  0.29445141866E+02 -0.19746043557E+03 -0.87381405927E+02  0.21792923186E+03  0.00000000000E+00 0. -1.
         -1    1    6    6    0  503 -0.61920034660E+02 -0.60249177661E+03 -0.21696592025E+03  0.64335421202E+03  0.00000000000E+00 0.  1.
<mgrwt>
<rscale>  0 0.22399435E+04</rscale>
<asrwt>0</asrwt>
<pdfrwt beam="1">  1        2 0.15303940E+00 0.22399435E+04</pdfrwt>
<pdfrwt beam="2">  1       -1 0.19399216E+00 0.22399435E+04</pdfrwt>
<totfact> 0.43696763E+00</totfact>
</mgrwt>
</event>
<event>
12    6  0.8914180E-008  0.1443087E+04  0.7818608E-02  0.8923207E-01
          2   -1    0    0  501    0  0.00000000000E+00  0.00000000000E+00  0.14729632960E+04  0.14729632960E+04  0.00000000000E+00 0. -1.
         -1   -1    0    0    0  501 -0.00000000000E+00 -0.00000000000E+00 -0.35345400032E+03  0.35345400032E+03  0.00000000000E+00 0.  1.
         24    2    1    2    0    0  0.10268182603E+03 -0.36422963235E+03  0.61674441812E+03  0.72807099636E+03  0.80665457104E+02 0.  0.
        254    2    1    2    0    0 -0.10268182603E+03  0.36422963235E+03  0.50276487752E+03  0.10983462999E+04  0.90021402456E+03 0.  0.
         23    2    4    4    0    0  0.86873364096E+02 -0.22137560353E+03 -0.57566640819E+02  0.26114080747E+03  0.91249460050E+02 0.  0.
         23    2    4    4    0    0 -0.18955519013E+03  0.58560523589E+03  0.56033151834E+03  0.83720549246E+03  0.89871929760E+02 0.  0.
          4    1    3    3  502    0  0.32289668876E+02 -0.89986126984E+02  0.22725223454E+03  0.24654351313E+03  0.00000000000E+00 0. -1.
         -3    1    3    3    0  502  0.70392157155E+02 -0.27424350537E+03  0.38949218359E+03  0.48152748323E+03  0.00000000000E+00 0.  1.
         11    1    5    5    0    0  0.32313283203E+02 -0.29768516685E+02  0.18791299497E+02  0.47785204758E+02  0.00000000000E+00 0. -1.
        -11    1    5    5    0    0  0.54560080894E+02 -0.19160708685E+03 -0.76357940316E+02  0.21335560271E+03  0.00000000000E+00 0.  1.
          4    1    6    6  503    0 -0.12130137708E+02  0.27319140718E+02  0.55666722265E+01  0.30404991861E+02  0.00000000000E+00 0. -1.
         -4    1    6    6    0  503 -0.17742505242E+03  0.55828609517E+03  0.55476484611E+03  0.80680050060E+03  0.00000000000E+00 0.  1.
<mgrwt>
<rscale>  0 0.14430866E+04</rscale>
<asrwt>0</asrwt>
<pdfrwt beam="1">  1        2 0.22660973E+00 0.14430866E+04</pdfrwt>
<pdfrwt beam="2">  1       -1 0.54377539E-01 0.14430866E+04</pdfrwt>
<totfact> 0.49655503E+01</totfact>
</mgrwt>
</event>
<event>
12    6  0.8914180E-008  0.3375111E+04  0.7818608E-02  0.8144042E-01
          2   -1    0    0  501    0  0.00000000000E+00  0.00000000000E+00  0.10559231172E+04  0.10559231172E+04  0.00000000000E+00 0. -1.
         -1   -1    0    0    0  501 -0.00000000000E+00 -0.00000000000E+00 -0.26970178899E+04  0.26970178899E+04  0.00000000000E+00 0.  1.
         24    2    1    2    0    0  0.15437733697E+04 -0.21495526995E+03 -0.59900536169E+03  0.16716725755E+04  0.78992349728E+02 0.  0.
        254    2    1    2    0    0 -0.15437733697E+04  0.21495526995E+03 -0.10420894110E+04  0.20812684316E+04  0.90348545025E+03 0.  0.
         23    2    4    4    0    0 -0.24270616612E+03 -0.30254166243E+03 -0.24684290536E+03  0.46860502908E+03  0.90672558020E+02 0.  0.
         23    2    4    4    0    0 -0.13010672035E+04  0.51749693238E+03 -0.79524650564E+03  0.16126634025E+04  0.87677259672E+02 0.  0.
          4    1    3    3  502    0  0.14649254290E+04 -0.18607390556E+03 -0.56649225074E+03  0.15816268463E+04  0.00000000000E+00 0. -1.
         -3    1    3    3    0  502  0.78847940695E+02 -0.28881364392E+02 -0.32513110950E+02  0.90045729186E+02  0.00000000000E+00 0.  1.
         11    1    5    5    0    0 -0.18651639459E+03 -0.27734040738E+03 -0.18820846677E+03  0.38357332282E+03  0.00000000000E+00 0. -1.
        -11    1    5    5    0    0 -0.56189771532E+02 -0.25201255044E+02 -0.58634438590E+02  0.85031706259E+02  0.00000000000E+00 0.  1.
          1    1    6    6  503    0 -0.12725791945E+04  0.50386849539E+03 -0.76082056430E+03  0.15659467418E+04  0.00000000000E+00 0. -1.
         -1    1    6    6    0  503 -0.28488009011E+02  0.13628436987E+02 -0.34425941341E+02  0.46716660726E+02  0.00000000000E+00 0.  1.
<mgrwt>
<rscale>  0 0.33751110E+04</rscale>
<asrwt>0</asrwt>
<pdfrwt beam="1">  1        2 0.16244971E+00 0.33751110E+04</pdfrwt>
<pdfrwt beam="2">  1       -1 0.41492583E+00 0.33751110E+04</pdfrwt>
<totfact> 0.12393006E-01</totfact>
</mgrwt>
</event>
<event>
12    6  0.8914180E-008  0.2035996E+04  0.7818608E-02  0.8589974E-01
          2   -1    0    0  501    0  0.00000000000E+00  0.00000000000E+00  0.14401879497E+04  0.14401879497E+04  0.00000000000E+00 0. -1.
         -1   -1    0    0    0  501 -0.00000000000E+00 -0.00000000000E+00 -0.71957294661E+03  0.71957294661E+03  0.00000000000E+00 0.  1.
         24    2    1    2    0    0 -0.69701006672E+03  0.40296227234E+03  0.13550255329E+03  0.82025031103E+03  0.79044321540E+02 0.  0.
        254    2    1    2    0    0  0.69701006672E+03 -0.40296227234E+03  0.58511244985E+03  0.13395105853E+04  0.89651012443E+03 0.  0.
         23    2    4    4    0    0  0.23089875918E+01  0.91640650111E+02 -0.15885914988E+03  0.20417012659E+03  0.89698778787E+02 0.  0.
         23    2    4    4    0    0  0.69470107912E+03 -0.49460292245E+03  0.74397159973E+03  0.11353404587E+04  0.90898711800E+02 0.  0.
          2    1    3    3  502    0 -0.33224229319E+03  0.23593594161E+03  0.57157285980E+02  0.41148227819E+03  0.00000000000E+00 0. -1.
         -1    1    3    3    0  502 -0.36476777352E+03  0.16702633073E+03  0.78345267314E+02  0.40876803284E+03  0.00000000000E+00 0.  1.
         11    1    5    5    0    0 -0.17546922477E+02  0.10162916889E+03 -0.11167021910E+03  0.15200861914E+03  0.00000000000E+00 0.  1.
        -11    1    5    5    0    0  0.19855910068E+02 -0.99885187798E+01 -0.47188930777E+02  0.52161507454E+02  0.00000000000E+00 0. -1.
          1    1    6    6  503    0  0.39781054301E+03 -0.25936661995E+03  0.46744701747E+03  0.66635650055E+03  0.00000000000E+00 0. -1.
         -1    1    6    6    0  503  0.29689053611E+03 -0.23523630250E+03  0.27652458225E+03  0.46898395819E+03  0.00000000000E+00 0.  1.
<mgrwt>
<rscale>  0 0.20359964E+04</rscale>
<asrwt>0</asrwt>
<pdfrwt beam="1">  1        2 0.22156738E+00 0.20359964E+04</pdfrwt>
<pdfrwt beam="2">  1       -1 0.11070353E+00 0.20359964E+04</pdfrwt>
<totfact> 0.10891790E+01</totfact>
</mgrwt>
</event>
<event>
12    6  0.8914180E-008  0.1947366E+04  0.7818608E-02  0.8631632E-01
         -1   -1    0    0    0  501 -0.00000000000E+00  0.00000000000E+00  0.93122438761E+03  0.93122438761E+03  0.00000000000E+00 0.  1.
          2   -1    0    0  501    0  0.00000000000E+00 -0.00000000000E+00 -0.10180779955E+04  0.10180779955E+04  0.00000000000E+00 0. -1.
         24    2    1    2    0    0 -0.58827852060E+03 -0.42348643082E+03 -0.27593586707E+03  0.77978326475E+03  0.80678140520E+02 0.  0.
        254    2    1    2    0    0  0.58827852060E+03  0.42348643082E+03  0.18908225921E+03  0.11695191183E+04  0.89811496619E+03 0.  0.
         23    2    4    4    0    0 -0.11922525318E+03 -0.16622129463E+03  0.80441516688E+02  0.23797047857E+03  0.91186245006E+02 0.  0.
         23    2    4    4    0    0  0.70750377378E+03  0.58970772545E+03  0.10864074252E+03  0.93154863976E+03  0.87540081824E+02 0.  0.
          4    1    3    3  502    0 -0.57613594908E+03 -0.41737348846E+03 -0.28149437047E+03  0.76509629544E+03  0.00000000000E+00 0. -1.
         -3    1    3    3    0  502 -0.12142571524E+02 -0.61129423623E+01  0.55585033983E+01  0.14686969312E+02  0.00000000000E+00 0.  1.
         11    1    5    5    0    0 -0.98933449767E+02 -0.17300243176E+03  0.59386588648E+02  0.20795296533E+03  0.00000000000E+00 0.  1.
        -11    1    5    5    0    0 -0.20291803415E+02  0.67811371255E+01  0.21054928040E+02  0.30017513243E+02  0.00000000000E+00 0. -1.
          2    1    6    6  503    0  0.27533827380E+03  0.21203841190E+03  0.54059529135E+00  0.34752229480E+03  0.00000000000E+00 0. -1.
         -2    1    6    6    0  503  0.43216549998E+03  0.37766931355E+03  0.10810014723E+03  0.58402634495E+03  0.00000000000E+00 0.  1.
<mgrwt>
<rscale>  0 0.19473665E+04</rscale>
<asrwt>0</asrwt>
<pdfrwt beam="1">  1        2 0.15662738E+00 0.19473665E+04</pdfrwt>
<pdfrwt beam="2">  1       -1 0.14326529E+00 0.19473665E+04</pdfrwt>
<totfact> 0.10297353E+01</totfact>
</mgrwt>
</event>
<event>
12    6  0.8914180E-008  0.1786143E+04  0.7818608E-02  0.8713703E-01
          2   -1    0    0  501    0  0.00000000000E+00  0.00000000000E+00  0.27244106978E+04  0.27244106978E+04  0.00000000000E+00 0. -1.
         -1   -1    0    0    0  501 -0.00000000000E+00 -0.00000000000E+00 -0.29275192018E+03  0.29275192018E+03  0.00000000000E+00 0.  1.
         24    2    1    2    0    0 -0.17278829217E+03  0.57111915941E+02 -0.16287208312E+03  0.25907798127E+03  0.86466872649E+02 0.  0.
        254    2    1    2    0    0  0.17278829217E+03 -0.57111915941E+02  0.25945308608E+04  0.27580846367E+04  0.91778151597E+03 0.  0.
         23    2    4    4    0    0  0.12789544365E+03  0.18119280162E+02  0.26230303572E+04  0.26277952841E+04  0.91292099472E+02 0.  0.
         23    2    4    4    0    0  0.44892848515E+02 -0.75231196103E+02 -0.28499496476E+02  0.13028935261E+03  0.92130306573E+02 0.  0.
          4    1    3    3  502    0 -0.77109758396E+02 -0.15064131921E+02 -0.42978468800E+02  0.89554406317E+02  0.00000000000E+00 0. -1.
         -3    1    3    3    0  502 -0.95678533771E+02  0.72176047862E+02 -0.11989361432E+03  0.16952357495E+03  0.00000000000E+00 0.  1.
         11    1    5    5    0    0  0.55219172831E+01 -0.25394146246E+02  0.29399496187E+03  0.29514130826E+03  0.00000000000E+00 0. -1.
        -11    1    5    5    0    0  0.12237352637E+03  0.43513426408E+02  0.23290353954E+04  0.23326539759E+04  0.00000000000E+00 0.  1.
          1    1    6    6  503    0  0.43725756444E+02 -0.75635759371E+02 -0.55341771714E+02  0.10341867128E+03  0.00000000000E+00 0.  1.
         -1    1    6    6    0  503  0.11670920707E+01  0.40456326768E+00  0.26842275238E+02  0.26870681333E+02  0.00000000000E+00 0. -1.
<mgrwt>
<rscale>  0 0.17861427E+04</rscale>
<asrwt>0</asrwt>
<pdfrwt beam="1">  1        2 0.41914009E+00 0.17861427E+04</pdfrwt>
<pdfrwt beam="2">  1       -1 0.45038759E-01 0.17861427E+04</pdfrwt>
<totfact> 0.13541364E+01</totfact>
</mgrwt>
</event>
<event>
12    6  0.8914180E-008  0.1523910E+04  0.7818608E-02  0.8868707E-01
         -1   -1    0    0    0  501 -0.00000000000E+00  0.00000000000E+00  0.17058853529E+03  0.17058853529E+03  0.00000000000E+00 0.  1.
          2   -1    0    0  501    0  0.00000000000E+00 -0.00000000000E+00 -0.34033661618E+04  0.34033661618E+04  0.00000000000E+00 0. -1.
         24    2    1    2    0    0  0.32406646881E+03  0.33807592288E+03 -0.69727606352E+03  0.84388124919E+03  0.81407911988E+02 0.  0.
        254    2    1    2    0    0 -0.32406646881E+03 -0.33807592288E+03 -0.25355015630E+04  0.27300734480E+04  0.89733965097E+03 0.  0.
         23    2    4    4    0    0 -0.22778437360E+03 -0.63822437658E+03 -0.17095331467E+04  0.18412955798E+04  0.93004068743E+02 0.  0.
         23    2    4    4    0    0 -0.96282095211E+02  0.30014845370E+03 -0.82596841630E+03  0.88877786811E+03  0.91339684774E+02 0.  0.
          4    1    3    3  502    0  0.25951804576E+03  0.29375136369E+03 -0.53010225217E+03  0.65927830049E+03  0.00000000000E+00 0. -1.
         -3    1    3    3    0  502  0.64548423055E+02  0.44324559190E+02 -0.16717381135E+03  0.18460294870E+03  0.00000000000E+00 0.  1.
         11    1    5    5    0    0 -0.79488660661E+02 -0.29547788275E+03 -0.66527124407E+03  0.73226460692E+03  0.00000000000E+00 0.  1.
        -11    1    5    5    0    0 -0.14829571294E+03 -0.34274649384E+03 -0.10442619027E+04  0.11090309729E+04  0.00000000000E+00 0. -1.
          4    1    6    6  503    0 -0.93927100863E+02  0.22074648026E+03 -0.52007706124E+03  0.57274030629E+03  0.00000000000E+00 0. -1.
         -4    1    6    6    0  503 -0.23549943478E+01  0.79401973441E+02 -0.30589135506E+03  0.31603756182E+03  0.00000000000E+00 0.  1.
<mgrwt>
<rscale>  0 0.15239098E+04</rscale>
<asrwt>0</asrwt>
<pdfrwt beam="1">  1        2 0.52359473E+00 0.15239098E+04</pdfrwt>
<pdfrwt beam="2">  1       -1 0.26244393E-01 0.15239098E+04</pdfrwt>
<totfact> 0.13580931E+01</totfact>
</mgrwt>
</event>
<event>
12    6  0.8914180E-008  0.1678928E+04  0.7818608E-02  0.8773475E-01
          2   -1    0    0  501    0  0.00000000000E+00  0.00000000000E+00  0.92256641856E+03  0.92256641856E+03  0.00000000000E+00 0. -1.
         -1   -1    0    0    0  501 -0.00000000000E+00 -0.00000000000E+00 -0.76384730089E+03  0.76384730089E+03  0.00000000000E+00 0.  1.
         24    2    1    2    0    0 -0.11284308275E+03 -0.20239196473E+03  0.60653137188E+03  0.65407620362E+03  0.78989280003E+02 0.  0.
        254    2    1    2    0    0  0.11284308275E+03  0.20239196473E+03 -0.44781225421E+03  0.10323375158E+04  0.90082676627E+03 0.  0.
         23    2    4    4    0    0 -0.22359665019E+03  0.84333791186E+02  0.17435208224E+03  0.30967724013E+03  0.91617106263E+02 0.  0.
         23    2    4    4    0    0  0.33643973294E+03  0.11805817355E+03 -0.62216433646E+03  0.72266027569E+03  0.89554375955E+02 0.  0.
          4    1    3    3  502    0  0.47188168377E+01 -0.59556500835E+02  0.14098406566E+03  0.15312005353E+03  0.00000000000E+00 0. -1.
         -3    1    3    3    0  502 -0.11756189959E+03 -0.14283546390E+03  0.46554730623E+03  0.50095615009E+03  0.00000000000E+00 0.  1.
         11    1    5    5    0    0 -0.18254602057E+03  0.99593814101E+02  0.16358212857E+03  0.26457719142E+03  0.00000000000E+00 0. -1.
        -11    1    5    5    0    0 -0.41050629615E+02 -0.15260022914E+02  0.10769953676E+02  0.45100048707E+02  0.00000000000E+00 0.  1.
          2    1    6    6  503    0  0.18086205589E+03  0.49930649623E+02 -0.24146134921E+03  0.30579034680E+03  0.00000000000E+00 0.  1.
         -2    1    6    6    0  503  0.15557767705E+03  0.68127523923E+02 -0.38070298725E+03  0.41686992889E+03  0.00000000000E+00 0. -1.
<mgrwt>
<rscale>  0 0.16789281E+04</rscale>
<asrwt>0</asrwt>
<pdfrwt beam="1">  1        2 0.14193329E+00 0.16789281E+04</pdfrwt>
<pdfrwt beam="2">  1       -1 0.11751497E+00 0.16789281E+04</pdfrwt>
<totfact> 0.20067535E+01</totfact>
</mgrwt>
</event>
<event>
12    6  0.8914180E-008  0.1768308E+04  0.7818608E-02  0.8723337E-01
         -1   -1    0    0    0  501 -0.00000000000E+00  0.00000000000E+00  0.64236389647E+03  0.64236389647E+03  0.00000000000E+00 0.  1.
          2   -1    0    0  501    0  0.00000000000E+00 -0.00000000000E+00 -0.12169559057E+04  0.12169559057E+04  0.00000000000E+00 0. -1.
         24    2    1    2    0    0 -0.59658730538E+03 -0.25067761813E+03 -0.12236770499E+03  0.66283454169E+03  0.74967281256E+02 0.  0.
        254    2    1    2    0    0  0.59658730538E+03  0.25067761813E+03 -0.45222430424E+03  0.11964852605E+04  0.89906311016E+03 0.  0.
         23    2    4    4    0    0  0.75332425887E+03  0.37882103832E+03 -0.22340758123E+03  0.87742787653E+03  0.94688505594E+02 0.  0.
         23    2    4    4    0    0 -0.15673695349E+03 -0.12814342019E+03 -0.22881672301E+03  0.31905738396E+03  0.91941899069E+02 0.  0.
          4    1    3    3  502    0 -0.51145296413E+03 -0.18533917376E+03 -0.97365702278E+02  0.55264348709E+03  0.00000000000E+00 0. -1.
         -3    1    3    3    0  502 -0.85134341251E+02 -0.65338444375E+02 -0.25002002713E+02  0.11019105460E+03  0.00000000000E+00 0.  1.
         11    1    5    5    0    0  0.34919427791E+03  0.19790664802E+03 -0.61937812884E+02  0.40612803119E+03  0.00000000000E+00 0. -1.
        -11    1    5    5    0    0  0.40412998096E+03  0.18091439030E+03 -0.16146976835E+03  0.47129984534E+03  0.00000000000E+00 0.  1.
          1    1    6    6  503    0 -0.14362816656E+03 -0.11360249169E+03 -0.23554539169E+03  0.29835584106E+03  0.00000000000E+00 0. -1.
         -1    1    6    6    0  503 -0.13108786924E+02 -0.14540928501E+02  0.67286686797E+01  0.20701542901E+02  0.00000000000E+00 0.  1.
<mgrwt>
<rscale>  0 0.17683083E+04</rscale>
<asrwt>0</asrwt>
<pdfrwt beam="1">  1        2 0.18722399E+00 0.17683083E+04</pdfrwt>
<pdfrwt beam="2">  1       -1 0.98825215E-01 0.17683083E+04</pdfrwt>
<totfact> 0.19555887E+01</totfact>
</mgrwt>
</event>
<event>
12    6  0.8914180E-008  0.2004982E+04  0.7818608E-02  0.8604295E-01
          2   -1    0    0  501    0  0.00000000000E+00  0.00000000000E+00  0.42835667546E+04  0.42835667546E+04  0.00000000000E+00 0. -1.
         -1   -1    0    0    0  501 -0.00000000000E+00 -0.00000000000E+00 -0.23461474468E+03  0.23461474468E+03  0.00000000000E+00 0.  1.
         24    2    1    2    0    0 -0.20580018961E+03  0.10062808490E+03 -0.10251947527E+03  0.26417659236E+03  0.82457865771E+02 0.  0.
        254    2    1    2    0    0  0.20580018961E+03 -0.10062808490E+03  0.41514714852E+04  0.42540049069E+04  0.89964577822E+03 0.  0.
         23    2    4    4    0    0 -0.28425802768E+03 -0.18053616921E+03  0.25793907083E+04  0.26028925512E+04  0.91636630675E+02 0.  0.
         23    2    4    4    0    0  0.49005821729E+03  0.79908084310E+02  0.15720807769E+04  0.16511123558E+04  0.90507922519E+02 0.  0.
          4    1    3    3  502    0 -0.49611674399E+02 -0.50547954632E-02  0.44036575484E+01  0.49806731092E+02  0.00000000000E+00 0. -1.
         -3    1    3    3    0  502 -0.15618851521E+03  0.10063313970E+03 -0.10692313282E+03  0.21436986127E+03  0.00000000000E+00 0.  1.
         11    1    5    5    0    0 -0.24153877464E+03 -0.17826272280E+03  0.20621963207E+04  0.20839319190E+04  0.00000000000E+00 0. -1.
        -11    1    5    5    0    0 -0.42719253039E+02 -0.22734464088E+01  0.51719438760E+03  0.51896063213E+03  0.00000000000E+00 0.  1.
          4    1    6    6  503    0  0.16891712948E+03  0.71438466938E+02  0.58327495468E+03  0.61142957399E+03  0.00000000000E+00 0.  1.
         -4    1    6    6    0  503  0.32114108781E+03  0.84696173725E+01  0.98880582222E+03  0.10396827818E+04  0.00000000000E+00 0. -1.
<mgrwt>
<rscale>  0 0.20049817E+04</rscale>
<asrwt>0</asrwt>
<pdfrwt beam="1">  1        2 0.65901021E+00 0.20049817E+04</pdfrwt>
<pdfrwt beam="2">  1       -1 0.36094579E-01 0.20049817E+04</pdfrwt>
<totfact> 0.15438822E+00</totfact>
</mgrwt>
</event>
<event>
12    6  0.8914180E-008  0.2841569E+04  0.7818608E-02  0.8290478E-01
          2   -1    0    0  501    0  0.00000000000E+00  0.00000000000E+00  0.10704413824E+04  0.10704413824E+04  0.00000000000E+00 0. -1.
         -1   -1    0    0    0  501 -0.00000000000E+00 -0.00000000000E+00 -0.18857913280E+04  0.18857913280E+04  0.00000000000E+00 0.  1.
         24    2    1    2    0    0 -0.44852542666E+03  0.11333234070E+04 -0.77330795426E+03  0.14459537336E+04  0.84734905038E+02 0.  0.
        254    2    1    2    0    0  0.44852542666E+03 -0.11333234070E+04 -0.42041991250E+02  0.15102789769E+04  0.89082998129E+03 0.  0.
         23    2    4    4    0    0 -0.13996500709E+03 -0.23866355708E+03 -0.28591890286E+03  0.40808008451E+03  0.90715156785E+02 0.  0.
         23    2    4    4    0    0  0.58849043375E+03 -0.89465984997E+03  0.24387691161E+03  0.11021988923E+04  0.92893554718E+02 0.  0.
          4    1    3    3  502    0 -0.42912346649E+03  0.10782083701E+04 -0.75606487492E+03  0.13850322502E+04  0.00000000000E+00 0. -1.
         -3    1    3    3    0  502 -0.19401960167E+02  0.55115036934E+02 -0.17243079343E+02  0.60921483401E+02  0.00000000000E+00 0.  1.
         11    1    5    5    0    0 -0.10800768937E+03 -0.12264996043E+03 -0.11835289975E+03  0.20178226542E+03  0.00000000000E+00 0.  1.
        -11    1    5    5    0    0 -0.31957317716E+02 -0.11601359665E+03 -0.16756600311E+03  0.20629781909E+03  0.00000000000E+00 0. -1.
          1    1    6    6  503    0  0.40555215135E+03 -0.68400265622E+03  0.19769216324E+03  0.81939878727E+03  0.00000000000E+00 0. -1.
         -1    1    6    6    0  503  0.18293828240E+03 -0.21065719375E+03  0.46184748370E+02  0.28280010507E+03  0.00000000000E+00 0.  1.
<mgrwt>
<rscale>  0 0.28415693E+04</rscale>
<asrwt>0</asrwt>
<pdfrwt beam="1">  1        2 0.16468329E+00 0.28415693E+04</pdfrwt>
<pdfrwt beam="2">  1       -1 0.29012174E+00 0.28415693E+04</pdfrwt>
<totfact> 0.85955001E-01</totfact>
</mgrwt>
</event>
<event>
12    6  0.8914180E-008  0.1893328E+04  0.7818608E-02  0.8658185E-01
          2   -1    0    0  501    0  0.00000000000E+00  0.00000000000E+00  0.11170283954E+04  0.11170283954E+04  0.00000000000E+00 0. -1.
         -1   -1    0    0    0  501 -0.00000000000E+00 -0.00000000000E+00 -0.80228278987E+03  0.80228278987E+03  0.00000000000E+00 0.  1.
         24    2    1    2    0    0 -0.57117711301E+03  0.12004979781E+03  0.55780658004E+03  0.81096377276E+03  0.76542874266E+02 0.  0.
        254    2    1    2    0    0  0.57117711301E+03 -0.12004979781E+03 -0.24306097450E+03  0.11083474125E+04  0.91032966618E+03 0.  0.
         23    2    4    4    0    0  0.41765297475E+03 -0.16621655397E+03  0.28966114997E+03  0.54318632880E+03  0.95319755915E+02 0.  0.
         23    2    4    4    0    0  0.15352413827E+03  0.46166756159E+02 -0.53272212447E+03  0.56516108371E+03  0.99564844372E+02 0.  0.
          4    1    3    3  502    0 -0.48164210324E+03  0.10277640093E+03  0.42891188339E+03  0.65307542284E+03  0.00000000000E+00 0. -1.
         -3    1    3    3    0  502 -0.89535009769E+02  0.17273396886E+02  0.12889469665E+03  0.15788834992E+03  0.00000000000E+00 0.  1.
         11    1    5    5    0    0  0.96971547864E+01 -0.25174766584E+02  0.25494653222E+02  0.37118472846E+02  0.00000000000E+00 0.  1.
        -11    1    5    5    0    0  0.40795581996E+03 -0.14104178739E+03  0.26416649675E+03  0.50606785596E+03  0.00000000000E+00 0. -1.
          3    1    6    6  503    0  0.24408258253E+01  0.10945667368E+02 -0.17362315406E+03  0.17398495593E+03  0.00000000000E+00 0. -1.
         -3    1    6    6    0  503  0.15108331244E+03  0.35221088791E+02 -0.35909897042E+03  0.39117612779E+03  0.00000000000E+00 0.  1.
<mgrwt>
<rscale>  0 0.18933279E+04</rscale>
<asrwt>0</asrwt>
<pdfrwt beam="1">  1        2 0.17185052E+00 0.18933279E+04</pdfrwt>
<pdfrwt beam="2">  1       -1 0.12342812E+00 0.18933279E+04</pdfrwt>
<totfact> 0.13126495E+01</totfact>
</mgrwt>
</event>
<event>
12    6  0.8914180E-008  0.1945994E+04  0.7818608E-02  0.8632295E-01
         -1   -1    0    0    0  501 -0.00000000000E+00  0.00000000000E+00  0.76595478489E+03  0.76595478489E+03  0.00000000000E+00 0.  1.
          2   -1    0    0  501    0  0.00000000000E+00 -0.00000000000E+00 -0.12360034446E+04  0.12360034446E+04  0.00000000000E+00 0. -1.
         24    2    1    2    0    0 -0.42506851632E+03  0.76243787527E+02  0.46007344545E+03  0.63602307961E+03  0.79758534861E+02 0.  0.
        254    2    1    2    0    0  0.42506851632E+03 -0.76243787527E+02 -0.93012210512E+03  0.13659351498E+04  0.90230557154E+03 0.  0.
         23    2    4    4    0    0 -0.16049269408E+03 -0.17494080238E+03 -0.65968790720E+03  0.70702129705E+03  0.91262206758E+02 0.  0.
         23    2    4    4    0    0  0.58556121040E+03  0.98697014849E+02 -0.27043419792E+03  0.65891385280E+03  0.91704842489E+02 0.  0.
          2    1    3    3  502    0 -0.74831735722E+02  0.58372003643E+01  0.41650500482E+02  0.85840699960E+02  0.00000000000E+00 0. -1.
         -1    1    3    3    0  502 -0.35023678060E+03  0.70406587163E+02  0.41842294497E+03  0.55018237965E+03  0.00000000000E+00 0.  1.
         11    1    5    5    0    0 -0.72504093257E+02 -0.18580927162E+02 -0.20236985846E+03  0.21576759257E+03  0.00000000000E+00 0.  1.
        -11    1    5    5    0    0 -0.87988600821E+02 -0.15635987521E+03 -0.45731804875E+03  0.49125370448E+03  0.00000000000E+00 0. -1.
          1    1    6    6  503    0  0.94862202041E+02 -0.15573200217E+02 -0.30369166814E+02  0.10081492069E+03  0.00000000000E+00 0. -1.
         -1    1    6    6    0  503  0.49069900836E+03  0.11427021507E+03 -0.24006503111E+03  0.55809893210E+03  0.00000000000E+00 0.  1.
<mgrwt>
<rscale>  0 0.19459936E+04</rscale>
<asrwt>0</asrwt>
<pdfrwt beam="1">  1        2 0.19015438E+00 0.19459936E+04</pdfrwt>
<pdfrwt beam="2">  1       -1 0.11783920E+00 0.19459936E+04</pdfrwt>
<totfact> 0.12413341E+01</totfact>
</mgrwt>
</event>
<event>
12    6  0.8914180E-008  0.3643326E+04  0.7818608E-02  0.8080639E-01
         -1   -1    0    0    0  501 -0.00000000000E+00  0.00000000000E+00  0.16509600911E+04  0.16509600911E+04  0.00000000000E+00 0.  1.
          2   -1    0    0  501    0  0.00000000000E+00 -0.00000000000E+00 -0.20100161208E+04  0.20100161208E+04  0.00000000000E+00 0. -1.
         24    2    1    2    0    0 -0.37337860283E+03  0.16687930768E+04 -0.13675072250E+03  0.17172661834E+04  0.77591688795E+02 0.  0.
        254    2    1    2    0    0  0.37337860283E+03 -0.16687930768E+04 -0.22230530724E+03  0.19437100286E+04  0.89683170741E+03 0.  0.
         23    2    4    4    0    0  0.39149506167E+02 -0.67999440972E+03 -0.51134870186E+03  0.85671033703E+03  0.92466348425E+02 0.  0.
         23    2    4    4    0    0  0.33422909666E+03 -0.98879866708E+03  0.28904339462E+03  0.10869996916E+04  0.92684154180E+02 0.  0.
          4    1    3    3  502    0 -0.11480491431E+03  0.41990990928E+03 -0.77711098632E+01  0.43539050335E+03  0.00000000000E+00 0. -1.
         -3    1    3    3    0  502 -0.25857368851E+03  0.12488831675E+04 -0.12897961264E+03  0.12818756800E+04  0.00000000000E+00 0.  1.
         11    1    5    5    0    0 -0.16225839122E+02 -0.35071985833E+02 -0.42579674864E+02  0.57500876141E+02  0.00000000000E+00 0. -1.
        -11    1    5    5    0    0  0.55375345289E+02 -0.64492242389E+03 -0.46876902699E+03  0.79920946088E+03  0.00000000000E+00 0.  1.
          4    1    6    6  503    0  0.83376437656E+02 -0.35332295083E+03  0.71467911084E+02  0.36999513544E+03  0.00000000000E+00 0. -1.
         -4    1    6    6    0  503  0.25085265900E+03 -0.63547571626E+03  0.21757548353E+03  0.71700455613E+03  0.00000000000E+00 0.  1.
<mgrwt>
<rscale>  0 0.36433262E+04</rscale>
<asrwt>0</asrwt>
<pdfrwt beam="1">  1        2 0.30923325E+00 0.36433262E+04</pdfrwt>
<pdfrwt beam="2">  1       -1 0.25399386E+00 0.36433262E+04</pdfrwt>
<totfact> 0.40008325E-01</totfact>
</mgrwt>
</event>
<event>
12    6  0.8914180E-008  0.1184946E+04  0.7818608E-02  0.9126136E-01
         -1   -1    0    0    0  501 -0.00000000000E+00  0.00000000000E+00  0.56256365350E+03  0.56256365350E+03  0.00000000000E+00 0.  1.
          2   -1    0    0  501    0  0.00000000000E+00 -0.00000000000E+00 -0.62397280592E+03  0.62397280592E+03  0.00000000000E+00 0. -1.
         24    2    1    2    0    0 -0.13200430990E+03 -0.18961756155E+03 -0.74460661678E+02  0.25567032790E+03  0.80268106707E+02 0.  0.
        254    2    1    2    0    0  0.13200430990E+03  0.18961756155E+03  0.13051509253E+02  0.93086613152E+03  0.90164375195E+03 0.  0.
         23    2    4    4    0    0  0.16420013145E+03 -0.34053287450E+03 -0.27508490458E+02  0.38995138233E+03  0.91548029718E+02 0.  0.
         23    2    4    4    0    0 -0.32195821558E+02  0.53015043605E+03  0.40559999711E+02  0.54091474919E+03  0.94061663543E+02 0.  0.
          2    1    3    3  502    0 -0.12737825631E+03 -0.13038563021E+03 -0.72670455246E+02  0.19623105721E+03  0.00000000000E+00 0. -1.
         -1    1    3    3    0  502 -0.46260535822E+01 -0.59231931341E+02 -0.17902064314E+01  0.59439270699E+02  0.00000000000E+00 0.  1.
         11    1    5    5    0    0  0.94557736116E+02 -0.28305222843E+03 -0.15190757129E+02  0.29881514115E+03  0.00000000000E+00 0.  1.
        -11    1    5    5    0    0  0.69642395339E+02 -0.57480646070E+02 -0.12317733329E+02  0.91136241175E+02  0.00000000000E+00 0. -1.
          3    1    6    6  503    0 -0.64632502921E+02  0.39905565636E+03  0.26165916228E+02  0.40510175570E+03  0.00000000000E+00 0. -1.
         -3    1    6    6    0  503  0.32436681363E+02  0.13109477969E+03  0.14394083483E+02  0.13581299349E+03  0.00000000000E+00 0.  1.
<mgrwt>
<rscale>  0 0.11849463E+04</rscale>
<asrwt>0</asrwt>
<pdfrwt beam="1">  1        2 0.95995816E-01 0.11849463E+04</pdfrwt>
<pdfrwt beam="2">  1       -1 0.86548254E-01 0.11849463E+04</pdfrwt>
<totfact> 0.70285037E+01</totfact>
</mgrwt>
</event>
<event>
12    6  0.8914180E-008  0.2427087E+04  0.7818608E-02  0.8429432E-01
          2   -1    0    0  501    0  0.00000000000E+00  0.00000000000E+00  0.77558739597E+03  0.77558739597E+03  0.00000000000E+00 0. -1.
         -1   -1    0    0    0  501 -0.00000000000E+00 -0.00000000000E+00 -0.18988025137E+04  0.18988025137E+04  0.00000000000E+00 0.  1.
         24    2    1    2    0    0 -0.88688050936E+03 -0.52396562842E+03 -0.35175698355E+03  0.10913641042E+04  0.79029202648E+02 0.  0.
        254    2    1    2    0    0  0.88688050936E+03  0.52396562842E+03 -0.77145813415E+03  0.15830258054E+04  0.92180585276E+03 0.  0.
         23    2    4    4    0    0  0.70541081360E+03  0.51319571394E+03 -0.10138418981E+03  0.88288924612E+03  0.90776705292E+02 0.  0.
         23    2    4    4    0    0  0.18146969576E+03  0.10769914486E+02 -0.67007394433E+03  0.70013655928E+03  0.90248929251E+02 0.  0.
          2    1    3    3  502    0 -0.10503009901E+03 -0.68753550522E+02 -0.70317975060E+02  0.14388533637E+03  0.00000000000E+00 0. -1.
         -3    1    3    3    0  502 -0.78185041036E+03 -0.45521207790E+03 -0.28143900849E+03  0.94747876786E+03  0.00000000000E+00 0.  1.
         11    1    5    5    0    0  0.12244167298E+02  0.18757853290E+02 -0.15262100006E+02  0.27105504782E+02  0.00000000000E+00 0.  1.
        -11    1    5    5    0    0  0.69316664630E+03  0.49443786065E+03 -0.86122089808E+02  0.85578374134E+03  0.00000000000E+00 0. -1.
          1    1    6    6  503    0  0.13221439590E+03  0.29295878275E+02 -0.58192485809E+03  0.59747421319E+03  0.00000000000E+00 0. -1.
         -1    1    6    6    0  503  0.49255299865E+02 -0.18525963790E+02 -0.88149086241E+02  0.10266234609E+03  0.00000000000E+00 0.  1.
<mgrwt>
<rscale>  0 0.24270866E+04</rscale>
<asrwt>0</asrwt>
<pdfrwt beam="1">  1        2 0.11932114E+00 0.24270866E+04</pdfrwt>
<pdfrwt beam="2">  1       -1 0.29212346E+00 0.24270866E+04</pdfrwt>
<totfact> 0.13645880E+00</totfact>
</mgrwt>
</event>
<event>
12    6  0.8914180E-008  0.1819549E+04  0.7818608E-02  0.8695972E-01
         -1   -1    0    0    0  501 -0.00000000000E+00  0.00000000000E+00  0.11269032643E+04  0.11269032643E+04  0.00000000000E+00 0.  1.
          2   -1    0    0  501    0  0.00000000000E+00 -0.00000000000E+00 -0.73448191517E+03  0.73448191517E+03  0.00000000000E+00 0. -1.
         24    2    1    2    0    0  0.40826871946E+03 -0.21732048768E+03 -0.37297639545E+03  0.59940682017E+03  0.79155561067E+02 0.  0.
        254    2    1    2    0    0 -0.40826871946E+03  0.21732048768E+03  0.76539774461E+03  0.12619783593E+04  0.89041795260E+03 0.  0.
         23    2    4    4    0    0 -0.19345462340E+02 -0.92762062760E+02 -0.15891721390E+03  0.20837361079E+03  0.95842754539E+02 0.  0.
         23    2    4    4    0    0 -0.38892325712E+03  0.31008255044E+03  0.92431495851E+03  0.10536047485E+04  0.91172011125E+02 0.  0.
          4    1    3    3  502    0  0.38165480493E+03 -0.20961195054E+03 -0.32259434975E+03  0.54190836350E+03  0.00000000000E+00 0. -1.
         -3    1    3    3    0  502  0.26613914531E+02 -0.77085371481E+01 -0.50382045694E+02  0.57498456675E+02  0.00000000000E+00 0.  1.
         11    1    5    5    0    0  0.30985849850E+02 -0.19909882491E+02 -0.15796551474E+02  0.40075645350E+02  0.00000000000E+00 0.  1.
        -11    1    5    5    0    0 -0.50331312190E+02 -0.72852180269E+02 -0.14312066243E+03  0.16829796544E+03  0.00000000000E+00 0. -1.
          2    1    6    6  503    0 -0.27766480254E+03  0.25163362974E+03  0.75354014326E+03  0.84156994581E+03  0.00000000000E+00 0. -1.
         -2    1    6    6    0  503 -0.11125845458E+03  0.58448920709E+02  0.17077481525E+03  0.21203480274E+03  0.00000000000E+00 0.  1.
<mgrwt>
<rscale>  0 0.18195495E+04</rscale>
<asrwt>0</asrwt>
<pdfrwt beam="1">  1        2 0.11299722E+00 0.18195495E+04</pdfrwt>
<pdfrwt beam="2">  1       -1 0.17336973E+00 0.18195495E+04</pdfrwt>
<totfact> 0.96382895E+00</totfact>
</mgrwt>
</event>
<event>
12    6  0.8914180E-008  0.2706562E+04  0.7818608E-02  0.8332879E-01
          2   -1    0    0  501    0  0.00000000000E+00  0.00000000000E+00  0.24842164353E+04  0.24842164353E+04  0.00000000000E+00 0. -1.
         -1   -1    0    0    0  501 -0.00000000000E+00 -0.00000000000E+00 -0.73720197820E+03  0.73720197820E+03  0.00000000000E+00 0.  1.
         24    2    1    2    0    0 -0.10300267779E+04 -0.26507278290E+03  0.11923683951E+03  0.10732533054E+04  0.80227739295E+02 0.  0.
        254    2    1    2    0    0  0.10300267779E+04  0.26507278290E+03  0.16277776176E+04  0.21481651081E+04  0.91309069417E+03 0.  0.
         23    2    4    4    0    0  0.17672661858E+03  0.22869842933E+02  0.10886767005E+04  0.11064913010E+04  0.85736302428E+02 0.  0.
         23    2    4    4    0    0  0.85330015936E+03  0.24220293997E+03  0.53910091713E+03  0.10416738071E+04  0.87584790361E+02 0.  0.
          2    1    3    3  502    0 -0.15408828423E+03 -0.23088526271E+02  0.41178012758E+02  0.16115802220E+03  0.00000000000E+00 0. -1.
         -1    1    3    3    0  502 -0.87593849371E+03 -0.24198425663E+03  0.78058826754E+02  0.91209528321E+03  0.00000000000E+00 0.  1.
         11    1    5    5    0    0  0.11150085960E+03 -0.26542539225E+02  0.57137098914E+03  0.58275359743E+03  0.00000000000E+00 0. -1.
        -11    1    5    5    0    0  0.65225758982E+02  0.49412382158E+02  0.51730571132E+03  0.52373770354E+03  0.00000000000E+00 0.  1.
          3    1    6    6  503    0  0.20786060478E+03  0.86933883916E+02  0.10569153099E+03  0.24886588942E+03  0.00000000000E+00 0. -1.
         -3    1    6    6    0  503  0.64543955459E+03  0.15526905605E+03  0.43340938614E+03  0.79280791771E+03  0.00000000000E+00 0.  1.
<mgrwt>
<rscale>  0 0.27065619E+04</rscale>
<asrwt>0</asrwt>
<pdfrwt beam="1">  1        2 0.38218714E+00 0.27065619E+04</pdfrwt>
<pdfrwt beam="2">  1       -1 0.11341569E+00 0.27065619E+04</pdfrwt>
<totfact> 0.25145450E+00</totfact>
</mgrwt>
</event>
<event>
12    6  0.8914180E-008  0.2740033E+04  0.7818608E-02  0.8322131E-01
          2   -1    0    0  501    0  0.00000000000E+00  0.00000000000E+00  0.33796282061E+04  0.33796282061E+04  0.00000000000E+00 0. -1.
         -1   -1    0    0    0  501 -0.00000000000E+00 -0.00000000000E+00 -0.55537016196E+03  0.55537016196E+03  0.00000000000E+00 0.  1.
         24    2    1    2    0    0 -0.75574634067E+03 -0.32400125867E+03  0.25621795431E+04  0.26920937422E+04  0.80469611706E+02 0.  0.
        254    2    1    2    0    0  0.75574634067E+03  0.32400125867E+03  0.26207850104E+03  0.12429046259E+04  0.89442574946E+03 0.  0.
         23    2    4    4    0    0 -0.13472414470E+03  0.24027782702E+03  0.18006128772E+03  0.34030275081E+03  0.86601764162E+02 0.  0.
         23    2    4    4    0    0  0.89047048537E+03  0.83723431657E+02  0.82017213316E+02  0.90260187508E+03  0.89532247194E+02 0.  0.
          4    1    3    3  502    0 -0.54111368846E+03 -0.20173161770E+03  0.18713049036E+04  0.19583875285E+04  0.00000000000E+00 0. -1.
         -3    1    3    3    0  502 -0.21463265221E+03 -0.12226964097E+03  0.69087463948E+03  0.73370621367E+03  0.00000000000E+00 0.  1.
         11    1    5    5    0    0 -0.21085396715E+02  0.10699887352E+02  0.44714375236E+02  0.50581191135E+02  0.00000000000E+00 0.  1.
        -11    1    5    5    0    0 -0.11363874798E+03  0.22957793966E+03  0.13534691249E+03  0.28972155968E+03  0.00000000000E+00 0. -1.
          1    1    6    6  503    0  0.32674356410E+03 -0.11920167409E+02  0.22630314367E+02  0.32774315889E+03  0.00000000000E+00 0. -1.
         -1    1    6    6    0  503  0.56372692127E+03  0.95643599066E+02  0.59386898949E+02  0.57485871619E+03  0.00000000000E+00 0.  1.
<mgrwt>
<rscale>  0 0.27400326E+04</rscale>
<asrwt>0</asrwt>
<pdfrwt beam="1">  1        2 0.51994279E+00 0.27400326E+04</pdfrwt>
<pdfrwt beam="2">  1       -1 0.85441566E-01 0.27400326E+04</pdfrwt>
<totfact> 0.13243946E+00</totfact>
</mgrwt>
</event>
<event>
12    6  0.8914180E-008  0.2938551E+04  0.7818608E-02  0.8261499E-01
         -1   -1    0    0    0  501 -0.00000000000E+00  0.00000000000E+00  0.85058117908E+03  0.85058117908E+03  0.00000000000E+00 0.  1.
          2   -1    0    0  501    0  0.00000000000E+00 -0.00000000000E+00 -0.25379945106E+04  0.25379945106E+04  0.00000000000E+00 0. -1.
         24    2    1    2    0    0  0.11844025024E+04 -0.31627902973E+03 -0.13600868227E+04  0.18327797291E+04  0.80022858618E+02 0.  0.
        254    2    1    2    0    0 -0.11844025024E+04  0.31627902973E+03 -0.32732650882E+03  0.15557959605E+04  0.90028701809E+03 0.  0.
         23    2    4    4    0    0 -0.77514287817E+03 -0.65227054618E+02  0.17021226343E+03  0.80166869494E+03  0.92733120213E+02 0.  0.
         23    2    4    4    0    0 -0.40925962427E+03  0.38150608434E+03 -0.49753877225E+03  0.75412726558E+03  0.90126413185E+02 0.  0.
          4    1    3    3  502    0  0.48121284598E+03 -0.16628546917E+03 -0.54170262306E+03  0.74340997587E+03  0.00000000000E+00 0. -1.
         -3    1    3    3    0  502  0.70318965647E+03 -0.14999356056E+03 -0.81838419960E+03  0.10893697533E+04  0.00000000000E+00 0.  1.
         11    1    5    5    0    0 -0.22770713840E+03 -0.57744969045E+02  0.69650655873E+02  0.24502292993E+03  0.00000000000E+00 0.  1.
        -11    1    5    5    0    0 -0.54743573978E+03 -0.74820855731E+01  0.10056160755E+03  0.55664576501E+03  0.00000000000E+00 0. -1.
          1    1    6    6  503    0 -0.36419938880E+03  0.37146273439E+03 -0.46378792720E+03  0.69693973861E+03  0.00000000000E+00 0. -1.
         -1    1    6    6    0  503 -0.45060235474E+02  0.10043349950E+02 -0.33750845053E+02  0.57187526970E+02  0.00000000000E+00 0.  1.
<mgrwt>
<rscale>  0 0.29385509E+04</rscale>
<asrwt>0</asrwt>
<pdfrwt beam="1">  1        2 0.39046069E+00 0.29385509E+04</pdfrwt>
<pdfrwt beam="2">  1       -1 0.13085865E+00 0.29385509E+04</pdfrwt>
<totfact> 0.16132282E+00</totfact>
</mgrwt>
</event>
<event>
12    6  0.8914180E-008  0.1096540E+04  0.7818608E-02  0.9208571E-01
          2   -1    0    0  501    0  0.00000000000E+00  0.00000000000E+00  0.71592351653E+03  0.71592351653E+03  0.00000000000E+00 0. -1.
         -1   -1    0    0    0  501 -0.00000000000E+00 -0.00000000000E+00 -0.41987726026E+03  0.41987726026E+03  0.00000000000E+00 0.  1.
         24    2    1    2    0    0 -0.39058605834E+02  0.91090691623E+02 -0.12340464471E+03  0.17725517031E+03  0.79797244783E+02 0.  0.
        254    2    1    2    0    0  0.39058605834E+02 -0.91090691623E+02  0.41945090098E+03  0.95854560649E+03  0.85618195064E+03 0.  0.
         23    2    4    4    0    0 -0.66537793542E+02  0.36671236925E+03  0.19445537270E+03  0.42980180488E+03  0.89506758260E+02 0.  0.
         23    2    4    4    0    0  0.10559639938E+03 -0.45780306087E+03  0.22499552828E+03  0.52874380162E+03  0.90624378056E+02 0.  0.
          4    1    3    3  502    0 -0.25951747683E+02  0.89149071562E+01  0.11453250382E+01  0.27464168417E+02  0.00000000000E+00 0. -1.
         -3    1    3    3    0  502 -0.13106858151E+02  0.82175784467E+02 -0.12454996975E+03  0.14979100189E+03  0.00000000000E+00 0.  1.
         11    1    5    5    0    0  0.14288161413E+02  0.38001214786E+02  0.42442525473E+02  0.58733396379E+02  0.00000000000E+00 0.  1.
        -11    1    5    5    0    0 -0.80825954955E+02  0.32871115446E+03  0.15201284723E+03  0.37106840850E+03  0.00000000000E+00 0. -1.
          1    1    6    6  503    0  0.96780451205E+02 -0.24162124911E+03  0.99722862557E+02  0.27873272695E+03  0.00000000000E+00 0. -1.
         -1    1    6    6    0  503  0.88159481717E+01 -0.21618181176E+03  0.12527266572E+03  0.25001107466E+03  0.00000000000E+00 0.  1.
<mgrwt>
<rscale>  0 0.10965400E+04</rscale>
<asrwt>0</asrwt>
<pdfrwt beam="1">  1        2 0.11014208E+00 0.10965400E+04</pdfrwt>
<pdfrwt beam="2">  1       -1 0.64596502E-01 0.10965400E+04</pdfrwt>
<totfact> 0.10975365E+02</totfact>
</mgrwt>
</event>
<event>
12    6  0.8914180E-008  0.1458452E+04  0.7818608E-02  0.8912562E-01
         -1   -1    0    0    0  501 -0.00000000000E+00  0.00000000000E+00  0.32932523303E+03  0.32932523303E+03  0.00000000000E+00 0.  1.
          2   -1    0    0  501    0  0.00000000000E+00 -0.00000000000E+00 -0.16147267259E+04  0.16147267259E+04  0.00000000000E+00 0. -1.
         24    2    1    2    0    0 -0.80982010754E+02  0.42255622856E+03 -0.57030930594E+03  0.71892623058E+03  0.80562821530E+02 0.  0.
        254    2    1    2    0    0  0.80982010754E+02 -0.42255622856E+03 -0.71509218693E+03  0.12251257283E+04  0.89691937323E+03 0.  0.
         23    2    4    4    0    0  0.22954667034E+03  0.26549831932E+02  0.10753449925E+03  0.27186411386E+03  0.94603702034E+02 0.  0.
         23    2    4    4    0    0 -0.14856465959E+03 -0.44910606049E+03 -0.82262668617E+03  0.95326161448E+03  0.90693600580E+02 0.  0.
          2    1    3    3  502    0 -0.37061708594E+02  0.28014695346E+03 -0.42793469392E+03  0.51281964474E+03  0.00000000000E+00 0. -1.
         -1    1    3    3    0  502 -0.43920302160E+02  0.14240927510E+03 -0.14237461202E+03  0.20610658584E+03  0.00000000000E+00 0.  1.
         11    1    5    5    0    0  0.16861060559E+02  0.11281288712E+02  0.45457338388E+02  0.49778835377E+02  0.00000000000E+00 0.  1.
        -11    1    5    5    0    0  0.21268560978E+03  0.15268543220E+02  0.62077160859E+02  0.22208527849E+03  0.00000000000E+00 0. -1.
          2    1    6    6  503    0 -0.12990860869E+03 -0.41483620512E+03 -0.79277385513E+03  0.90413257273E+03  0.00000000000E+00 0. -1.
         -2    1    6    6    0  503 -0.18656050892E+02 -0.34269855369E+02 -0.29852831044E+02  0.49129041749E+02  0.00000000000E+00 0.  1.
<mgrwt>
<rscale>  0 0.14584516E+04</rscale>
<asrwt>0</asrwt>
<pdfrwt beam="1">  1        2 0.24841949E+00 0.14584516E+04</pdfrwt>
<pdfrwt beam="2">  1       -1 0.50665422E-01 0.14584516E+04</pdfrwt>
<totfact> 0.47285735E+01</totfact>
</mgrwt>
</event>
<event>
12    6  0.8914180E-008  0.1270705E+04  0.7818608E-02  0.9053124E-01
          2   -1    0    0  501    0  0.00000000000E+00  0.00000000000E+00  0.11142805608E+04  0.11142805608E+04  0.00000000000E+00 0. -1.
         -1   -1    0    0    0  501 -0.00000000000E+00 -0.00000000000E+00 -0.36227218982E+03  0.36227218982E+03  0.00000000000E+00 0.  1.
         24    2    1    2    0    0 -0.23246474591E+03  0.90781563067E+02  0.41358812518E+03  0.48964569723E+03  0.80103815451E+02 0.  0.
        254    2    1    2    0    0  0.23246474591E+03 -0.90781563067E+02  0.33842024577E+03  0.98690705335E+03  0.89284719797E+03 0.  0.
         23    2    4    4    0    0  0.46220113015E+03  0.18964517934E+03  0.34540062017E+03  0.61420311601E+03  0.91371223852E+02 0.  0.
         23    2    4    4    0    0 -0.22973638424E+03 -0.28042674241E+03 -0.69803744002E+01  0.37270393734E+03  0.86264333157E+02 0.  0.
          2    1    3    3  502    0 -0.21156621649E+03  0.98826244591E+02  0.40079057157E+03  0.46385339585E+03  0.00000000000E+00 0. -1.
         -1    1    3    3    0  502 -0.20898529412E+02 -0.80446815239E+01  0.12797553609E+02  0.25792301386E+02  0.00000000000E+00 0.  1.
         11    1    5    5    0    0  0.29550237704E+03  0.15403206621E+03  0.26485549874E+03  0.42567119643E+03  0.00000000000E+00 0. -1.
        -11    1    5    5    0    0  0.16669875311E+03  0.35613113130E+02  0.80545121423E+02  0.18853191958E+03  0.00000000000E+00 0.  1.
          4    1    6    6  503    0 -0.12176724511E+03 -0.21089046291E+03 -0.15384617552E+02  0.24400560605E+03  0.00000000000E+00 0. -1.
         -4    1    6    6    0  503 -0.10796913913E+03 -0.69536279499E+02  0.84042431516E+01  0.12869833128E+03  0.00000000000E+00 0.  1.
<mgrwt>
<rscale>  0 0.12707051E+04</rscale>
<asrwt>0</asrwt>
<pdfrwt beam="1">  1        2 0.17142778E+00 0.12707051E+04</pdfrwt>
<pdfrwt beam="2">  1       -1 0.55734184E-01 0.12707051E+04</pdfrwt>
<totfact> 0.77842607E+01</totfact>
</mgrwt>
</event>
<event>
12    6  0.8914180E-008  0.1455500E+04  0.7818608E-02  0.8914596E-01
          2   -1    0    0  501    0  0.00000000000E+00  0.00000000000E+00  0.75567321932E+03  0.75567321932E+03  0.00000000000E+00 0. -1.
         -1   -1    0    0    0  501 -0.00000000000E+00 -0.00000000000E+00 -0.70085848172E+03  0.70085848172E+03  0.00000000000E+00 0.  1.
         24    2    1    2    0    0 -0.26166544925E+03  0.12341751429E+03 -0.32045227982E+03  0.43876413452E+03  0.78253510734E+02 0.  0.
        254    2    1    2    0    0  0.26166544925E+03 -0.12341751429E+03  0.37526701742E+03  0.10177675665E+04  0.90073569649E+03 0.  0.
         23    2    4    4    0    0  0.52745123182E+03  0.14793584557E+03  0.19912028426E+03  0.58972996484E+03  0.89681254818E+02 0.  0.
         23    2    4    4    0    0 -0.26578578258E+03 -0.27135335986E+03  0.17614673316E+03  0.42803760168E+03  0.88959477976E+02 0.  0.
          2    1    3    3  502    0 -0.15833465255E+01 -0.80987076627E+01 -0.82018245550E+01  0.11634688567E+02  0.00000000000E+00 0. -1.
         -1    1    3    3    0  502 -0.26008210272E+03  0.13151622195E+03 -0.31225045526E+03  0.42712944596E+03  0.00000000000E+00 0.  1.
         11    1    5    5    0    0  0.48612311154E+03  0.15673231689E+03  0.19694722673E+03  0.54742023058E+03  0.00000000000E+00 0.  1.
        -11    1    5    5    0    0  0.41328120287E+02 -0.87964713203E+01  0.21730575303E+01  0.42309734260E+02  0.00000000000E+00 0. -1.
          1    1    6    6  503    0 -0.75781093952E+02 -0.68549138953E+02  0.92457000989E+02  0.13780441097E+03  0.00000000000E+00 0. -1.
         -1    1    6    6    0  503 -0.19000468863E+03 -0.20280422091E+03  0.83689732172E+02  0.29023319071E+03  0.00000000000E+00 0.  1.
<mgrwt>
<rscale>  0 0.14554999E+04</rscale>
<asrwt>0</asrwt>
<pdfrwt beam="1">  1        2 0.11625742E+00 0.14554999E+04</pdfrwt>
<pdfrwt beam="2">  1       -1 0.10782438E+00 0.14554999E+04</pdfrwt>
<totfact> 0.32898521E+01</totfact>
</mgrwt>
</event>
<event>
12    6  0.8914180E-008  0.1504375E+04  0.7818608E-02  0.8881548E-01
         -1   -1    0    0    0  501 -0.00000000000E+00  0.00000000000E+00  0.75701202199E+03  0.75701202199E+03  0.00000000000E+00 0.  1.
          2   -1    0    0  501    0  0.00000000000E+00 -0.00000000000E+00 -0.74739420058E+03  0.74739420058E+03  0.00000000000E+00 0. -1.
         24    2    1    2    0    0 -0.31203781133E+03 -0.25185381919E+03  0.24673095892E+03  0.47862107067E+03  0.86046622599E+02 0.  0.
        254    2    1    2    0    0  0.31203781133E+03  0.25185381919E+03 -0.23711313752E+03  0.10257851519E+04  0.91390075825E+03 0.  0.
         23    2    4    4    0    0  0.77166533516E+02  0.45933657271E+02  0.34053240421E+03  0.36398821312E+03  0.91981118754E+02 0.  0.
         23    2    4    4    0    0  0.23487127781E+03  0.20592016192E+03 -0.57764554173E+03  0.66179693877E+03  0.82055993460E+02 0.  0.
          2    1    3    3  502    0 -0.34269240817E+02 -0.14939211691E+00  0.30510762881E+02  0.45883655431E+02  0.00000000000E+00 0. -1.
         -1    1    3    3    0  502 -0.27776857051E+03 -0.25170442708E+03  0.21622019604E+03  0.43273741524E+03  0.00000000000E+00 0.  1.
         11    1    5    5    0    0  0.98005680973E+02  0.35810438132E+02  0.29482030622E+03  0.31274032990E+03  0.00000000000E+00 0. -1.
        -11    1    5    5    0    0 -0.20839147456E+02  0.10123219139E+02  0.45712097989E+02  0.51247883225E+02  0.00000000000E+00 0.  1.
          4    1    6    6  503    0  0.22686278925E+03  0.19865039534E+03 -0.57690045297E+03  0.65095532670E+03  0.00000000000E+00 0. -1.
         -4    1    6    6    0  503  0.80084885605E+01  0.72697665821E+01 -0.74508875868E+00  0.10841612078E+02  0.00000000000E+00 0.  1.
<mgrwt>
<rscale>  0 0.15043755E+04</rscale>
<asrwt>0</asrwt>
<pdfrwt beam="1">  1        2 0.11498372E+00 0.15043755E+04</pdfrwt>
<pdfrwt beam="2">  1       -1 0.11646339E+00 0.15043755E+04</pdfrwt>
<totfact> 0.27672729E+01</totfact>
</mgrwt>
</event>
<event>
12    6  0.8914180E-008  0.1566452E+04  0.7818608E-02  0.8841427E-01
         -1   -1    0    0    0  501 -0.00000000000E+00  0.00000000000E+00  0.11899754884E+04  0.11899754884E+04  0.00000000000E+00 0.  1.
          2   -1    0    0  501    0  0.00000000000E+00 -0.00000000000E+00 -0.51550871390E+03  0.51550871390E+03  0.00000000000E+00 0. -1.
         24    2    1    2    0    0  0.37521798235E+02  0.27391282743E+03  0.70427673249E+03  0.76084029436E+03  0.80225402632E+02 0.  0.
        254    2    1    2    0    0 -0.37521798235E+02 -0.27391282743E+03 -0.29809958022E+02  0.94464390790E+03  0.90278865565E+03 0.  0.
         23    2    4    4    0    0 -0.41773342492E+02  0.32332206804E+03  0.23722113887E+02  0.33967709311E+03  0.92388403349E+02 0.  0.
         23    2    4    4    0    0  0.42515442572E+01 -0.59723489547E+03 -0.53532071909E+02  0.60496681479E+03  0.80072269114E+02 0.  0.
          4    1    3    3  502    0  0.37348421181E+02  0.43142801183E+02  0.13449644587E+03  0.14610099182E+03  0.00000000000E+00 0. -1.
         -3    1    3    3    0  502  0.17337705433E+00  0.23077002624E+03  0.56978028662E+03  0.61473930254E+03  0.00000000000E+00 0.  1.
         11    1    5    5    0    0 -0.52252559788E+02  0.32415091292E+03  0.22898191954E+02  0.32913290863E+03  0.00000000000E+00 0.  1.
        -11    1    5    5    0    0  0.10479217296E+02 -0.82884487940E+00  0.82392193336E+00  0.10544184479E+02  0.00000000000E+00 0. -1.
          4    1    6    6  503    0 -0.11630993094E+02 -0.45954643535E+03 -0.71445650963E+02  0.46521251841E+03  0.00000000000E+00 0.  1.
         -4    1    6    6    0  503  0.15882537351E+02 -0.13768846012E+03  0.17913579054E+02  0.13975429638E+03  0.00000000000E+00 0. -1.
<mgrwt>
<rscale>  0 0.15664517E+04</rscale>
<asrwt>0</asrwt>
<pdfrwt beam="1">  1        2 0.79309033E-01 0.15664517E+04</pdfrwt>
<pdfrwt beam="2">  1       -1 0.18307315E+00 0.15664517E+04</pdfrwt>
<totfact> 0.12915887E+01</totfact>
</mgrwt>
</event>
<event>
12    6  0.8914180E-008  0.1543544E+04  0.7818608E-02  0.8856002E-01
         -1   -1    0    0    0  501 -0.00000000000E+00  0.00000000000E+00  0.15555222862E+04  0.15555222862E+04  0.00000000000E+00 0.  1.
          2   -1    0    0  501    0  0.00000000000E+00 -0.00000000000E+00 -0.38291469690E+03  0.38291469690E+03  0.00000000000E+00 0. -1.
         24    2    1    2    0    0 -0.68848456810E+02 -0.49869094550E+03  0.42402761933E+03  0.66361044679E+03  0.84537766746E+02 0.  0.
        254    2    1    2    0    0  0.68848456810E+02  0.49869094550E+03  0.74857997002E+03  0.12748265364E+04  0.90076520647E+03 0.  0.
         23    2    4    4    0    0  0.41127256193E+03  0.50335263891E+03  0.35883050627E+03  0.74800679609E+03  0.90806582764E+02 0.  0.
         23    2    4    4    0    0 -0.34242410512E+03 -0.46616934085E+01  0.38974946374E+03  0.52681974027E+03  0.91424258808E+02 0.  0.
          2    1    3    3  502    0 -0.36343963340E+02 -0.26860730561E+03  0.28264297130E+03  0.39160926639E+03  0.00000000000E+00 0. -1.
         -1    1    3    3    0  502 -0.32504493470E+02 -0.23008363989E+03  0.14138464803E+03  0.27200118040E+03  0.00000000000E+00 0.  1.
         11    1    5    5    0    0  0.18515317526E+03  0.24653509480E+03  0.12060305109E+03  0.33106849323E+03  0.00000000000E+00 0.  1.
        -11    1    5    5    0    0  0.22611938667E+03  0.25681754411E+03  0.23822745518E+03  0.41693830286E+03  0.00000000000E+00 0. -1.
          1    1    6    6  503    0 -0.25342265729E+03  0.22661856180E+02  0.23574395002E+03  0.34685993271E+03  0.00000000000E+00 0. -1.
         -1    1    6    6    0  503 -0.89001447836E+02 -0.27323549589E+02  0.15400551373E+03  0.17995980756E+03  0.00000000000E+00 0.  1.
<mgrwt>
<rscale>  0 0.15435444E+04</rscale>
<asrwt>0</asrwt>
<pdfrwt beam="1">  1        2 0.58909954E-01 0.15435444E+04</pdfrwt>
<pdfrwt beam="2">  1       -1 0.23931112E+00 0.15435444E+04</pdfrwt>
<totfact> 0.75422061E+00</totfact>
</mgrwt>
</event>
<event>
12    6  0.8914180E-008  0.2615381E+04  0.7818608E-02  0.8362995E-01
          2   -1    0    0  501    0  0.00000000000E+00  0.00000000000E+00  0.29674792459E+04  0.29674792459E+04  0.00000000000E+00 0. -1.
         -1   -1    0    0    0  501 -0.00000000000E+00 -0.00000000000E+00 -0.57626502972E+03  0.57626502972E+03  0.00000000000E+00 0.  1.
         24    2    1    2    0    0 -0.86145052171E+03  0.16778142886E+03  0.20650819816E+04  0.22451948792E+04  0.78031054421E+02 0.  0.
        254    2    1    2    0    0  0.86145052171E+03 -0.16778142886E+03  0.32613223455E+03  0.12985493964E+04  0.89978924830E+03 0.  0.
         23    2    4    4    0    0  0.78342502554E+03 -0.43285676892E+03  0.56924911349E+02  0.90202009113E+03  0.96332996545E+02 0.  0.
         23    2    4    4    0    0  0.78025496170E+02  0.26507534006E+03  0.26920732320E+03  0.39652930531E+03  0.91706014785E+02 0.  0.
          2    1    3    3  502    0 -0.81803641167E+03  0.17454128520E+03  0.19407918528E+04  0.21133672769E+04  0.00000000000E+00 0. -1.
         -1    1    3    3    0  502 -0.43414110037E+02 -0.67598563341E+01  0.12429012879E+03  0.13182760227E+03  0.00000000000E+00 0.  1.
         11    1    5    5    0    0  0.14193042704E+03 -0.39808142539E+02  0.20290038867E+02  0.14879724463E+03  0.00000000000E+00 0.  1.
        -11    1    5    5    0    0  0.64149459850E+03 -0.39304862638E+03  0.36634872482E+02  0.75322284650E+03  0.00000000000E+00 0. -1.
          3    1    6    6  503    0  0.66381411018E+01  0.17833773248E+03  0.15577455260E+03  0.23688419741E+03  0.00000000000E+00 0. -1.
         -3    1    6    6    0  503  0.71387355068E+02  0.86737607575E+02  0.11343277060E+03  0.15964510791E+03  0.00000000000E+00 0.  1.
<mgrwt>
<rscale>  0 0.26153811E+04</rscale>
<asrwt>0</asrwt>
<pdfrwt beam="1">  1        2 0.45653526E+00 0.26153811E+04</pdfrwt>
<pdfrwt beam="2">  1       -1 0.88656160E-01 0.26153811E+04</pdfrwt>
<totfact> 0.22881995E+00</totfact>
</mgrwt>
</event>
<event>
12    6  0.8914180E-008  0.1839768E+04  0.7818608E-02  0.8685432E-01
          2   -1    0    0  501    0  0.00000000000E+00  0.00000000000E+00  0.81547980578E+03  0.81547980578E+03  0.00000000000E+00 0. -1.
         -1   -1    0    0    0  501 -0.00000000000E+00 -0.00000000000E+00 -0.10376552072E+04  0.10376552072E+04  0.00000000000E+00 0.  1.
         24    2    1    2    0    0  0.48436894137E+03 -0.12289029292E+02 -0.58497862600E+03  0.76347075574E+03  0.76963045632E+02 0.  0.
        254    2    1    2    0    0 -0.48436894137E+03  0.12289029292E+02  0.36280322463E+03  0.10896642572E+04  0.90607820965E+03 0.  0.
         23    2    4    4    0    0  0.16562739004E+03  0.14562752092E+03  0.34546547119E+03  0.42000487912E+03  0.91749111825E+02 0.  0.
         23    2    4    4    0    0 -0.64999633142E+03 -0.13333849163E+03  0.17337753435E+02  0.66965937807E+03  0.88705697351E+02 0.  0.
          2    1    3    3  502    0  0.23101405892E+03 -0.38059332320E+02 -0.24757034970E+03  0.34074489907E+03  0.00000000000E+00 0. -1.
         -1    1    3    3    0  502  0.25335488245E+03  0.25770303028E+02 -0.33740827630E+03  0.42272585667E+03  0.00000000000E+00 0.  1.
         11    1    5    5    0    0  0.27172942770E+02  0.28834680442E+02  0.14277736738E+03  0.14817281887E+03  0.00000000000E+00 0. -1.
        -11    1    5    5    0    0  0.13845444727E+03  0.11679284048E+03  0.20268810381E+03  0.27183206025E+03  0.00000000000E+00 0.  1.
          1    1    6    6  503    0 -0.63412780264E+03 -0.11599591060E+03  0.24410105034E+02  0.64511159855E+03  0.00000000000E+00 0.  1.
         -1    1    6    6    0  503 -0.15868528772E+02 -0.17342581029E+02 -0.70723515993E+01  0.24547779518E+02  0.00000000000E+00 0. -1.
<mgrwt>
<rscale>  0 0.18397683E+04</rscale>
<asrwt>0</asrwt>
<pdfrwt beam="1">  1        2 0.12545843E+00 0.18397683E+04</pdfrwt>
<pdfrwt beam="2">  1       -1 0.15963926E+00 0.18397683E+04</pdfrwt>
<totfact> 0.10605853E+01</totfact>
</mgrwt>
</event>
<event>
12    6  0.8914180E-008  0.2372962E+04  0.7818608E-02  0.8449696E-01
         -1   -1    0    0    0  501 -0.00000000000E+00  0.00000000000E+00  0.95029024403E+03  0.95029024403E+03  0.00000000000E+00 0.  1.
          2   -1    0    0  501    0  0.00000000000E+00 -0.00000000000E+00 -0.14813754248E+04  0.14813754248E+04  0.00000000000E+00 0. -1.
         24    2    1    2    0    0  0.40003702525E+03 -0.68824060318E+03  0.41568268819E+03  0.90154872808E+03  0.79330085093E+02 0.  0.
        254    2    1    2    0    0 -0.40003702525E+03  0.68824060318E+03 -0.94676786898E+03  0.15301169408E+04  0.90065737397E+03 0.  0.
         23    2    4    4    0    0 -0.27510397903E+03  0.68770314444E+03 -0.10885784644E+04  0.13198389381E+04  0.91399864278E+02 0.  0.
         23    2    4    4    0    0 -0.12493304622E+03  0.53745874940E+00  0.14181059546E+03  0.21027800266E+03  0.92184806340E+02 0.  0.
          4    1    3    3  502    0  0.20891611972E+03 -0.29315485300E+03  0.21124357201E+03  0.41738418709E+03  0.00000000000E+00 0. -1.
         -3    1    3    3    0  502  0.19112090553E+03 -0.39508575019E+03  0.20443911618E+03  0.48416454099E+03  0.00000000000E+00 0.  1.
         11    1    5    5    0    0 -0.27900362930E+03  0.66704606923E+03 -0.10374137526E+04  0.12645239333E+04  0.00000000000E+00 0. -1.
        -11    1    5    5    0    0  0.38996502652E+01  0.20657075202E+02 -0.51164711812E+02  0.55315004862E+02  0.00000000000E+00 0.  1.
          4    1    6    6  503    0 -0.62663464450E+02  0.46096431742E+02  0.77883901968E+02  0.11007948484E+03  0.00000000000E+00 0. -1.
         -4    1    6    6    0  503 -0.62269581772E+02 -0.45558972992E+02  0.63926693487E+02  0.10019851782E+03  0.00000000000E+00 0.  1.
<mgrwt>
<rscale>  0 0.23729615E+04</rscale>
<asrwt>0</asrwt>
<pdfrwt beam="1">  1        2 0.22790391E+00 0.23729615E+04</pdfrwt>
<pdfrwt beam="2">  1       -1 0.14619850E+00 0.23729615E+04</pdfrwt>
<totfact> 0.49910232E+00</totfact>
</mgrwt>
</event>
<event>
12    6  0.8914180E-008  0.3781267E+04  0.7818608E-02  0.8050187E-01
         -1   -1    0    0    0  501 -0.00000000000E+00  0.00000000000E+00  0.13827582844E+04  0.13827582844E+04  0.00000000000E+00 0.  1.
          2   -1    0    0  501    0  0.00000000000E+00 -0.00000000000E+00 -0.25850469666E+04  0.25850469666E+04  0.00000000000E+00 0. -1.
         24    2    1    2    0    0 -0.14659438001E+04 -0.50993181693E+03  0.35354324809E+03  0.15938046654E+04  0.78732461231E+02 0.  0.
        254    2    1    2    0    0  0.14659438001E+04  0.50993181693E+03 -0.15558319303E+04  0.23740005856E+04  0.89791096553E+03 0.  0.
         23    2    4    4    0    0  0.15587334185E+04  0.54989033520E+03 -0.14608288507E+04  0.22078084603E+04  0.91476857906E+02 0.  0.
         23    2    4    4    0    0 -0.92789618461E+02 -0.39958518270E+02 -0.95003079600E+02  0.16619212526E+03  0.91584064606E+02 0.  0.
          2    1    3    3  502    0 -0.99680509486E+03 -0.32900852691E+03  0.27257292755E+03  0.10845104927E+04  0.00000000000E+00 0. -1.
         -1    1    3    3    0  502 -0.46913870519E+03 -0.18092329002E+03  0.80970320538E+02  0.50929417274E+03  0.00000000000E+00 0.  1.
         11    1    5    5    0    0  0.14950229869E+04  0.51201347228E+03 -0.13784336704E+04  0.20969813806E+04  0.00000000000E+00 0.  1.
        -11    1    5    5    0    0  0.63710431659E+02  0.37876862921E+02 -0.82395180364E+02  0.11082707970E+03  0.00000000000E+00 0. -1.
          1    1    6    6  503    0 -0.17231425172E+02 -0.56187465695E+02 -0.35529356056E+02  0.68675239034E+02  0.00000000000E+00 0. -1.
         -1    1    6    6    0  503 -0.75558193289E+02  0.16228947425E+02 -0.59473723544E+02  0.97516886229E+02  0.00000000000E+00 0.  1.
<mgrwt>
<rscale>  0 0.37812670E+04</rscale>
<asrwt>0</asrwt>
<pdfrwt beam="1">  1        2 0.39769953E+00 0.37812670E+04</pdfrwt>
<pdfrwt beam="2">  1       -1 0.21273204E+00 0.37812670E+04</pdfrwt>
<totfact> 0.34903779E-01</totfact>
</mgrwt>
</event>
<event>
12    6  0.8914180E-008  0.2282660E+04  0.7818608E-02  0.8484789E-01
          2   -1    0    0  501    0  0.00000000000E+00  0.00000000000E+00  0.14569451112E+04  0.14569451112E+04  0.00000000000E+00 0. -1.
         -1   -1    0    0    0  501 -0.00000000000E+00 -0.00000000000E+00 -0.89408619600E+03  0.89408619600E+03  0.00000000000E+00 0.  1.
         24    2    1    2    0    0 -0.21015649217E+03 -0.94202834129E+03  0.57382103330E+03  0.11256675245E+04  0.79206379037E+02 0.  0.
        254    2    1    2    0    0  0.21015649217E+03  0.94202834129E+03 -0.10962118067E+02  0.12253637827E+04  0.75485964588E+03 0.  0.
         23    2    4    4    0    0  0.30953687771E+03  0.93558118415E+03 -0.18415325689E+03  0.10066214535E+04  0.90824543672E+02 0.  0.
         23    2    4    4    0    0 -0.99380385542E+02  0.64471571365E+01  0.17319113883E+03  0.21874232926E+03  0.89078668477E+02 0.  0.
          2    1    3    3  502    0 -0.59146094403E+02 -0.44601629834E+03  0.26308063940E+03  0.52119115658E+03  0.00000000000E+00 0. -1.
         -1    1    3    3    0  502 -0.15101039777E+03 -0.49601204295E+03  0.31074039390E+03  0.60447636793E+03  0.00000000000E+00 0.  1.
         11    1    5    5    0    0  0.16556137010E+03  0.50475210235E+03 -0.53175981485E+02  0.53386602917E+03  0.00000000000E+00 0.  1.
        -11    1    5    5    0    0  0.14397550761E+03  0.43082908180E+03 -0.13097727541E+03  0.47275542429E+03  0.00000000000E+00 0. -1.
          2    1    6    6  503    0 -0.21458048873E+02  0.10769881734E+02  0.12441721424E+03  0.12671259375E+03  0.00000000000E+00 0. -1.
         -2    1    6    6    0  503 -0.77922336669E+02 -0.43227245972E+01  0.48773924585E+02  0.92029735517E+02  0.00000000000E+00 0.  1.
<mgrwt>
<rscale>  0 0.22826603E+04</rscale>
<asrwt>0</asrwt>
<pdfrwt beam="1">  1        2 0.22414540E+00 0.22826603E+04</pdfrwt>
<pdfrwt beam="2">  1       -1 0.13755172E+00 0.22826603E+04</pdfrwt>
<totfact> 0.60960514E+00</totfact>
</mgrwt>
</event>
<event>
12    6  0.8914180E-008  0.1723293E+04  0.7818608E-02  0.8748190E-01
         -1   -1    0    0    0  501 -0.00000000000E+00  0.00000000000E+00  0.35107226696E+03  0.35107226696E+03  0.00000000000E+00 0.  1.
          2   -1    0    0  501    0  0.00000000000E+00 -0.00000000000E+00 -0.21147628575E+04  0.21147628575E+04  0.00000000000E+00 0. -1.
         24    2    1    2    0    0 -0.28016564015E+03  0.57987693458E+02  0.15341553044E+03  0.33491981590E+03  0.82338323964E+02 0.  0.
        254    2    1    2    0    0  0.28016564015E+03 -0.57987693458E+02 -0.19171061210E+04  0.21309153086E+04  0.88523941093E+03 0.  0.
         23    2    4    4    0    0 -0.23611957495E+02  0.10228605253E+03 -0.17189610192E+04  0.17244185975E+04  0.88162082334E+02 0.  0.
         23    2    4    4    0    0  0.30377759764E+03 -0.16027374598E+03 -0.19814510179E+03  0.40649671108E+03  0.89496325487E+02 0.  0.
          4    1    3    3  502    0 -0.22214720063E+03  0.40481381370E+02  0.79624531201E+02  0.23943305318E+03  0.00000000000E+00 0. -1.
         -3    1    3    3    0  502 -0.58018439513E+02  0.17506312088E+02  0.73790999238E+02  0.95486762721E+02  0.00000000000E+00 0.  1.
         11    1    5    5    0    0  0.23907610893E+02  0.37995283044E+02 -0.31493596020E+03  0.31811927703E+03  0.00000000000E+00 0. -1.
        -11    1    5    5    0    0 -0.47519568388E+02  0.64290769483E+02 -0.14040250590E+04  0.14062993205E+04  0.00000000000E+00 0.  1.
          2    1    6    6  503    0  0.12222313296E+02 -0.35154211848E+02 -0.14735935070E+02  0.40029380901E+02  0.00000000000E+00 0. -1.
         -2    1    6    6    0  503  0.29155528435E+03 -0.12511953414E+03 -0.18340916672E+03  0.36646733018E+03  0.00000000000E+00 0.  1.
<mgrwt>
<rscale>  0 0.17232929E+04</rscale>
<asrwt>0</asrwt>
<pdfrwt beam="1">  1        2 0.32534813E+00 0.17232929E+04</pdfrwt>
<pdfrwt beam="2">  1       -1 0.54011119E-01 0.17232929E+04</pdfrwt>
<totfact> 0.21587970E+01</totfact>
</mgrwt>
</event>
<event>
12    6  0.8914180E-008  0.3345158E+04  0.7818608E-02  0.8151499E-01
          2   -1    0    0  501    0  0.00000000000E+00  0.00000000000E+00  0.16139926686E+04  0.16139926686E+04  0.00000000000E+00 0. -1.
         -1   -1    0    0    0  501 -0.00000000000E+00 -0.00000000000E+00 -0.17332924629E+04  0.17332924629E+04  0.00000000000E+00 0.  1.
         24    2    1    2    0    0 -0.54046595329E+03  0.25378657450E+03  0.13789705426E+04  0.15049834208E+04  0.83091921967E+02 0.  0.
        254    2    1    2    0    0  0.54046595329E+03 -0.25378657450E+03 -0.14982703369E+04  0.18423017107E+04  0.89036538507E+03 0.  0.
         23    2    4    4    0    0  0.40492950780E+03  0.17724832295E+03 -0.12273657338E+04  0.13076980207E+04  0.90898815041E+02 0.  0.
         23    2    4    4    0    0  0.13553644548E+03 -0.43103489745E+03 -0.27090460311E+03  0.53460369005E+03  0.90832761470E+02 0.  0.
          4    1    3    3  502    0 -0.52280419403E+03  0.22732432302E+03  0.12852920947E+04  0.14060499073E+04  0.00000000000E+00 0. -1.
         -3    1    3    3    0  502 -0.17661759253E+02  0.26462251482E+02  0.93678447908E+02  0.98933513512E+02  0.00000000000E+00 0.  1.
         11    1    5    5    0    0  0.32769697549E+03  0.15760019231E+03 -0.10879994564E+04  0.11471555890E+04  0.00000000000E+00 0.  1.
        -11    1    5    5    0    0  0.77232532317E+02  0.19648130637E+02 -0.13936627737E+03  0.16054243163E+03  0.00000000000E+00 0. -1.
          1    1    6    6  503    0  0.45873106772E+01 -0.14022273384E+03 -0.62313457157E+02  0.15351360020E+03  0.00000000000E+00 0. -1.
         -1    1    6    6    0  503  0.13094913480E+03 -0.29081216361E+03 -0.20859114595E+03  0.38109008985E+03  0.00000000000E+00 0.  1.
<mgrwt>
<rscale>  0 0.33451585E+04</rscale>
<asrwt>0</asrwt>
<pdfrwt beam="1">  1        2 0.24830656E+00 0.33451585E+04</pdfrwt>
<pdfrwt beam="2">  1       -1 0.26666038E+00 0.33451585E+04</pdfrwt>
<totfact> 0.56345638E-01</totfact>
</mgrwt>
</event>
<event>
12    6  0.8914180E-008  0.1638650E+04  0.7818608E-02  0.8797149E-01
          2   -1    0    0  501    0  0.00000000000E+00  0.00000000000E+00  0.43277282966E+04  0.43277282966E+04  0.00000000000E+00 0. -1.
         -1   -1    0    0    0  501 -0.00000000000E+00 -0.00000000000E+00 -0.15511458040E+03  0.15511458040E+03  0.00000000000E+00 0.  1.
         24    2    1    2    0    0 -0.44891610597E+03 -0.24659699490E+03  0.75280216725E+03  0.91487574543E+03  0.89167137798E+02 0.  0.
        254    2    1    2    0    0  0.44891610597E+03  0.24659699490E+03  0.34198115490E+04  0.35679671316E+04  0.87917158367E+03 0.  0.
         23    2    4    4    0    0  0.34938146508E+03  0.88920202100E+02  0.42081837885E+03  0.56190503352E+03  0.93139402179E+02 0.  0.
         23    2    4    4    0    0  0.99534640894E+02  0.15767679280E+03  0.29989931701E+04  0.30060620981E+04  0.87636677639E+02 0.  0.
          2    1    3    3  502    0 -0.49944825027E+02  0.16708231499E+01  0.70824511224E+02  0.86679804955E+02  0.00000000000E+00 0. -1.
         -1    1    3    3    0  502 -0.39897128095E+03 -0.24826781805E+03  0.68197765602E+03  0.82819594047E+03  0.00000000000E+00 0.  1.
         11    1    5    5    0    0  0.10161063295E+03  0.61591558646E+02  0.17724018258E+03  0.21338304325E+03  0.00000000000E+00 0. -1.
        -11    1    5    5    0    0  0.24777083213E+03  0.27328643454E+02  0.24357819626E+03  0.34852199027E+03  0.00000000000E+00 0.  1.
          1    1    6    6  503    0  0.75511927454E+02  0.10799284098E+03  0.25916046852E+04  0.25949526680E+04  0.00000000000E+00 0. -1.
         -1    1    6    6    0  503  0.24022713439E+02  0.49683951827E+02  0.40738848495E+03  0.41110943008E+03  0.00000000000E+00 0.  1.
<mgrwt>
<rscale>  0 0.16386504E+04</rscale>
<asrwt>0</asrwt>
<pdfrwt beam="1">  1        2 0.66580426E+00 0.16386504E+04</pdfrwt>
<pdfrwt beam="2">  1       -1 0.23863785E-01 0.16386504E+04</pdfrwt>
<totfact> 0.30317614E+00</totfact>
</mgrwt>
</event>
<event>
12    6  0.8914180E-008  0.1381291E+04  0.7818608E-02  0.8967474E-01
          2   -1    0    0  501    0  0.00000000000E+00  0.00000000000E+00  0.82475445994E+03  0.82475445994E+03  0.00000000000E+00 0. -1.
         -1   -1    0    0    0  501 -0.00000000000E+00 -0.00000000000E+00 -0.57834317790E+03  0.57834317790E+03  0.00000000000E+00 0.  1.
         24    2    1    2    0    0  0.23798759363E+02  0.36588691783E+03 -0.72103649827E+02  0.38227874996E+03  0.80613204676E+02 0.  0.
        254    2    1    2    0    0 -0.23798759363E+02 -0.36588691783E+03  0.31851493187E+03  0.10208188879E+04  0.89787517086E+03 0.  0.
         23    2    4    4    0    0  0.33566741272E+03 -0.36018429670E+03  0.40027159201E+03  0.64123707718E+03  0.92532708985E+02 0.  0.
         23    2    4    4    0    0 -0.35946617208E+03 -0.57026211342E+01 -0.81756660139E+02  0.37958181071E+03  0.90275970144E+02 0.  0.
          2    1    3    3  502    0 -0.74260401630E+01 -0.73697164785E+00 -0.12017977552E+01  0.75586716794E+01  0.00000000000E+00 0. -1.
         -1    1    3    3    0  502  0.31224799526E+02  0.36662388948E+03 -0.70901852071E+02  0.37472007828E+03  0.00000000000E+00 0.  1.
         11    1    5    5    0    0  0.12897343433E+03 -0.13120136042E+03  0.20826352681E+03  0.27788781971E+03  0.00000000000E+00 0.  1.
        -11    1    5    5    0    0  0.20669397838E+03 -0.22898293628E+03  0.19200806519E+03  0.36334925747E+03  0.00000000000E+00 0. -1.
          3    1    6    6  503    0 -0.50582071401E+02  0.28386532263E+02  0.92791009703E+00  0.58010362680E+02  0.00000000000E+00 0. -1.
         -3    1    6    6    0  503 -0.30888410068E+03 -0.34089153397E+02 -0.82684570236E+02  0.32157144803E+03  0.00000000000E+00 0.  1.
<mgrwt>
<rscale>  0 0.13812909E+04</rscale>
<asrwt>0</asrwt>
<pdfrwt beam="1">  1        2 0.12688530E+00 0.13812909E+04</pdfrwt>
<pdfrwt beam="2">  1       -1 0.88975874E-01 0.13812909E+04</pdfrwt>
<totfact> 0.45595401E+01</totfact>
</mgrwt>
</event>
<event>
12    6  0.8914180E-008  0.1267186E+04  0.7818608E-02  0.9056000E-01
         -1   -1    0    0    0  501 -0.00000000000E+00  0.00000000000E+00  0.39815324841E+03  0.39815324841E+03  0.00000000000E+00 0.  1.
          2   -1    0    0  501    0  0.00000000000E+00 -0.00000000000E+00 -0.10082549537E+04  0.10082549537E+04  0.00000000000E+00 0. -1.
         24    2    1    2    0    0 -0.16659923522E+03  0.19978488188E+03 -0.31113513431E+03  0.41324651171E+03  0.79361851259E+02 0.  0.
        254    2    1    2    0    0  0.16659923522E+03 -0.19978488188E+03 -0.29896657095E+03  0.99316169036E+03  0.91066998877E+03 0.  0.
         23    2    4    4    0    0  0.20290142538E+03  0.16769022247E+03 -0.49300013445E+03  0.56606752653E+03  0.89968399412E+02 0.  0.
         23    2    4    4    0    0 -0.36302190155E+02 -0.36747510435E+03  0.19403356350E+03  0.42709416383E+03  0.91676603853E+02 0.  0.
          4    1    3    3  502    0 -0.11666090287E+03  0.12113701245E+03 -0.14181957180E+03  0.21999257485E+03  0.00000000000E+00 0. -1.
         -3    1    3    3    0  502 -0.49938332347E+02  0.78647869430E+02 -0.16931556251E+03  0.19325393686E+03  0.00000000000E+00 0.  1.
         11    1    5    5    0    0  0.10809039827E+03  0.37820060918E+02 -0.24587541943E+03  0.27123534630E+03  0.00000000000E+00 0.  1.
        -11    1    5    5    0    0  0.94811027109E+02  0.12987016155E+03 -0.24712471502E+03  0.29483218022E+03  0.00000000000E+00 0. -1.
          4    1    6    6  503    0 -0.12994382790E+02 -0.30911496235E+03  0.12484743027E+03  0.33362822839E+03  0.00000000000E+00 0. -1.
         -4    1    6    6    0  503 -0.23307807365E+02 -0.58360141994E+02  0.69186133224E+02  0.93465935443E+02  0.00000000000E+00 0.  1.
<mgrwt>
<rscale>  0 0.12671858E+04</rscale>
<asrwt>0</asrwt>
<pdfrwt beam="1">  1        2 0.15511615E+00 0.12671858E+04</pdfrwt>
<pdfrwt beam="2">  1       -1 0.61254346E-01 0.12671858E+04</pdfrwt>
<totfact> 0.75375733E+01</totfact>
</mgrwt>
</event>
<event>
12    6  0.8914180E-008  0.1564606E+04  0.7818608E-02  0.8842592E-01
          2   -1    0    0  501    0  0.00000000000E+00  0.00000000000E+00  0.37751347852E+03  0.37751347852E+03  0.00000000000E+00 0. -1.
         -1   -1    0    0    0  501 -0.00000000000E+00 -0.00000000000E+00 -0.16211288708E+04  0.16211288708E+04  0.00000000000E+00 0.  1.
         24    2    1    2    0    0 -0.18034234873E+03  0.71006720737E+02 -0.97060900770E+03  0.99289364586E+03  0.78680550530E+02 0.  0.
        254    2    1    2    0    0  0.18034234873E+03 -0.71006720737E+02 -0.27300638455E+03  0.10057487034E+04  0.94838423189E+03 0.  0.
         23    2    4    4    0    0  0.39395640526E+03  0.30155101028E+03 -0.25645672567E+03  0.56597793729E+03  0.91794947079E+02 0.  0.
         23    2    4    4    0    0 -0.21361405652E+03 -0.37255773102E+03 -0.16549658873E+02  0.43977076613E+03  0.93242734034E+02 0.  0.
          2    1    3    3  502    0 -0.42512726272E+02  0.55346247516E+02 -0.36348865055E+03  0.37012773212E+03  0.00000000000E+00 0. -1.
         -1    1    3    3    0  502 -0.13782962246E+03  0.15660473221E+02 -0.60712035715E+03  0.62276591374E+03  0.00000000000E+00 0.  1.
         11    1    5    5    0    0  0.10813863734E+03  0.46286812765E+02 -0.32140430855E+02  0.12194031826E+03  0.00000000000E+00 0. -1.
        -11    1    5    5    0    0  0.28581776791E+03  0.25526419752E+03 -0.22431629482E+03  0.44403761903E+03  0.00000000000E+00 0.  1.
          1    1    6    6  503    0 -0.22282457848E+03 -0.35918519060E+03 -0.20039722508E+02  0.42316236175E+03  0.00000000000E+00 0. -1.
         -1    1    6    6    0  503  0.92105219595E+01 -0.13372540419E+02  0.34900636349E+01  0.16608404384E+02  0.00000000000E+00 0.  1.
<mgrwt>
<rscale>  0 0.15646060E+04</rscale>
<asrwt>0</asrwt>
<pdfrwt beam="1">  1        2 0.58078998E-01 0.15646060E+04</pdfrwt>
<pdfrwt beam="2">  1       -1 0.24940444E+00 0.15646060E+04</pdfrwt>
<totfact> 0.65715288E+00</totfact>
</mgrwt>
</event>
<event>
12    6  0.8914180E-008  0.3035512E+04  0.7818608E-02  0.8233662E-01
         -1   -1    0    0    0  501 -0.00000000000E+00  0.00000000000E+00  0.62259324929E+03  0.62259324929E+03  0.00000000000E+00 0.  1.
          2   -1    0    0  501    0  0.00000000000E+00 -0.00000000000E+00 -0.36999809452E+04  0.36999809452E+04  0.00000000000E+00 0. -1.
         24    2    1    2    0    0  0.11144829701E+04  0.33753457489E+03 -0.24694088467E+04  0.27313106580E+04  0.77948562520E+02 0.  0.
        254    2    1    2    0    0 -0.11144829701E+04 -0.33753457489E+03 -0.60797884914E+03  0.15912635364E+04  0.89804202660E+03 0.  0.
         23    2    4    4    0    0 -0.51579115487E+03 -0.54900647355E+03 -0.84792344290E+02  0.76344549460E+03  0.90612681948E+02 0.  0.
         23    2    4    4    0    0 -0.59869181523E+03  0.21147189866E+03 -0.52318650485E+03  0.82781804185E+03  0.91686084044E+02 0.  0.
          4    1    3    3  502    0  0.83212389439E+03  0.27243311892E+03 -0.17892881358E+04  0.19920346415E+04  0.00000000000E+00 0. -1.
         -3    1    3    3    0  502  0.28235907570E+03  0.65101455968E+02 -0.68012071096E+03  0.73927601657E+03  0.00000000000E+00 0.  1.
         11    1    5    5    0    0 -0.16159643143E+02 -0.28318169131E+02  0.13236601765E+02  0.35188924333E+02  0.00000000000E+00 0. -1.
        -11    1    5    5    0    0 -0.49963151173E+03 -0.52068830442E+03 -0.98028946055E+02  0.72825657026E+03  0.00000000000E+00 0.  1.
          1    1    6    6  503    0 -0.51369478800E+02 -0.66159774630E+00 -0.66845407087E+02  0.84306402559E+02  0.00000000000E+00 0. -1.
         -1    1    6    6    0  503 -0.54732233643E+03  0.21213349640E+03 -0.45634109777E+03  0.74351163929E+03  0.00000000000E+00 0.  1.
<mgrwt>
<rscale>  0 0.30355119E+04</rscale>
<asrwt>0</asrwt>
<pdfrwt beam="1">  1        2 0.56922782E+00 0.30355119E+04</pdfrwt>
<pdfrwt beam="2">  1       -1 0.95783579E-01 0.30355119E+04</pdfrwt>
<totfact> 0.59435366E-01</totfact>
</mgrwt>
</event>
<event>
12    6  0.8914180E-008  0.1160668E+04  0.7818608E-02  0.9147998E-01
          2   -1    0    0  501    0  0.00000000000E+00  0.00000000000E+00  0.78453825045E+03  0.78453825045E+03  0.00000000000E+00 0. -1.
         -1   -1    0    0    0  501 -0.00000000000E+00 -0.00000000000E+00 -0.42928111749E+03  0.42928111749E+03  0.00000000000E+00 0.  1.
         24    2    1    2    0    0  0.88144076025E+02 -0.18848895091E+03  0.13325278468E+03  0.26020446615E+03  0.81563452770E+02 0.  0.
        254    2    1    2    0    0 -0.88144076025E+02  0.18848895091E+03  0.22200434828E+03  0.95361490178E+03  0.90376876882E+03 0.  0.
         23    2    4    4    0    0 -0.11827006831E+03  0.76289091953E+02  0.56010843646E+03  0.58462307248E+03  0.90856159212E+02 0.  0.
         23    2    4    4    0    0  0.30125992281E+02  0.11219985896E+03 -0.33810408818E+03  0.36899182931E+03  0.91346657795E+02 0.  0.
          2    1    3    3  502    0  0.29409079510E+02 -0.77493329068E+02  0.87127431546E+01  0.83342797534E+02  0.00000000000E+00 0. -1.
         -1    1    3    3    0  502  0.58734996515E+02 -0.11099562185E+03  0.12454004152E+03  0.17686166862E+03  0.00000000000E+00 0.  1.
         11    1    5    5    0    0 -0.47409907293E+02  0.20131148037E+02  0.37599927925E+03  0.37951076457E+03  0.00000000000E+00 0. -1.
        -11    1    5    5    0    0 -0.70860161013E+02  0.56157943916E+02  0.18410915722E+03  0.20511230791E+03  0.00000000000E+00 0.  1.
          4    1    6    6  503    0  0.33570056983E+02  0.12590385669E+03 -0.27477204510E+03  0.30410262515E+03  0.00000000000E+00 0. -1.
         -4    1    6    6    0  503 -0.34440647017E+01 -0.13703997729E+02 -0.63332043082E+02  0.64889204159E+02  0.00000000000E+00 0.  1.
<mgrwt>
<rscale>  0 0.11606678E+04</rscale>
<asrwt>0</asrwt>
<pdfrwt beam="1">  1        2 0.12069819E+00 0.11606678E+04</pdfrwt>
<pdfrwt beam="2">  1       -1 0.66043249E-01 0.11606678E+04</pdfrwt>
<totfact> 0.92787919E+01</totfact>
</mgrwt>
</event>
<event>
12    6  0.8914180E-008  0.1072657E+04  0.7818608E-02  0.9232260E-01
          2   -1    0    0  501    0  0.00000000000E+00  0.00000000000E+00  0.20507716246E+04  0.20507716246E+04  0.00000000000E+00 0. -1.
         -1   -1    0    0    0  501 -0.00000000000E+00 -0.00000000000E+00 -0.14026335479E+03  0.14026335479E+03  0.00000000000E+00 0.  1.
         24    2    1    2    0    0  0.61545299121E+02 -0.22972801761E+02  0.54855888713E+03  0.55808246735E+03  0.78889886921E+02 0.  0.
        254    2    1    2    0    0 -0.61545299121E+02  0.22972801761E+02  0.13619493827E+04  0.16329525121E+04  0.89850554375E+03 0.  0.
         23    2    4    4    0    0  0.35453612240E+03 -0.20100250424E+03  0.56797974853E+03  0.70448696724E+03  0.87195317940E+02 0.  0.
         23    2    4    4    0    0 -0.41608142152E+03  0.22397530600E+03  0.79396963416E+03  0.92846554482E+03  0.91497545886E+02 0.  0.
          4    1    3    3  502    0  0.29854671561E+02 -0.24708126761E+02  0.48953584561E+03  0.49106734475E+03  0.00000000000E+00 0. -1.
         -3    1    3    3    0  502  0.31690627560E+02  0.17353250000E+01  0.59023041521E+02  0.67015122609E+02  0.00000000000E+00 0.  1.
         11    1    5    5    0    0  0.17916860488E+03 -0.52089773582E+02  0.26294684670E+03  0.32242173884E+03  0.00000000000E+00 0.  1.
        -11    1    5    5    0    0  0.17536751753E+03 -0.14891273066E+03  0.30503290183E+03  0.38206522840E+03  0.00000000000E+00 0. -1.
          3    1    6    6  503    0 -0.15797462721E+03  0.13605991282E+03  0.33250525637E+03  0.39246404705E+03  0.00000000000E+00 0. -1.
         -3    1    6    6    0  503 -0.25810679432E+03  0.87915393184E+02  0.46146437780E+03  0.53600149776E+03  0.00000000000E+00 0.  1.
<mgrwt>
<rscale>  0 0.10726567E+04</rscale>
<asrwt>0</asrwt>
<pdfrwt beam="1">  1        2 0.31550331E+00 0.10726567E+04</pdfrwt>
<pdfrwt beam="2">  1       -1 0.21578979E-01 0.10726567E+04</pdfrwt>
<totfact> 0.12802629E+02</totfact>
</mgrwt>
</event>
<event>
12    6  0.8914180E-008  0.1599937E+04  0.7818608E-02  0.8820587E-01
          2   -1    0    0  501    0  0.00000000000E+00  0.00000000000E+00  0.35763805953E+03  0.35763805953E+03  0.00000000000E+00 0. -1.
         -1   -1    0    0    0  501 -0.00000000000E+00 -0.00000000000E+00 -0.17893772980E+04  0.17893772980E+04  0.00000000000E+00 0.  1.
         24    2    1    2    0    0 -0.12976665148E+03  0.30599235394E+03  0.83743844852E+02  0.35175953844E+03  0.79063498725E+02 0.  0.
        254    2    1    2    0    0  0.12976665148E+03 -0.30599235394E+03 -0.15154830833E+04  0.17952558191E+04  0.90320749311E+03 0.  0.
         23    2    4    4    0    0 -0.15319794952E+02 -0.60711124377E+03 -0.91609184998E+03  0.11030503887E+04  0.93151080958E+02 0.  0.
         23    2    4    4    0    0  0.14508644644E+03  0.30111888983E+03 -0.59939123332E+03  0.69220543041E+03  0.90309714589E+02 0.  0.
          4    1    3    3  502    0 -0.10333795203E+03  0.23686568007E+03  0.29714106793E+02  0.26012883513E+03  0.00000000000E+00 0. -1.
         -1    1    3    3    0  502 -0.26428699451E+02  0.69126673871E+02  0.54029738059E+02  0.91630703314E+02  0.00000000000E+00 0.  1.
         11    1    5    5    0    0 -0.52101167479E+02 -0.32509130625E+03 -0.46409961674E+03  0.56902314831E+03  0.00000000000E+00 0. -1.
        -11    1    5    5    0    0  0.36781372527E+02 -0.28201993752E+03 -0.45199223324E+03  0.53402724035E+03  0.00000000000E+00 0.  1.
          1    1    6    6  503    0  0.56482421663E+02  0.37389336364E+02 -0.12875862149E+03  0.14548886225E+03  0.00000000000E+00 0. -1.
         -1    1    6    6    0  503  0.88604024774E+02  0.26372955347E+03 -0.47063261183E+03  0.54671656816E+03  0.00000000000E+00 0.  1.
<mgrwt>
<rscale>  0 0.15999368E+04</rscale>
<asrwt>0</asrwt>
<pdfrwt beam="1">  1        2 0.55021239E-01 0.15999368E+04</pdfrwt>
<pdfrwt beam="2">  1       -1 0.27528882E+00 0.15999368E+04</pdfrwt>
<totfact> 0.47305282E+00</totfact>
</mgrwt>
</event>
<event>
12    6  0.8914180E-008  0.2101138E+04  0.7818608E-02  0.8560742E-01
          2   -1    0    0  501    0  0.00000000000E+00  0.00000000000E+00  0.11890107955E+04  0.11890107955E+04  0.00000000000E+00 0. -1.
         -1   -1    0    0    0  501 -0.00000000000E+00 -0.00000000000E+00 -0.92824680451E+03  0.92824680451E+03  0.00000000000E+00 0.  1.
         24    2    1    2    0    0  0.65277448122E+03  0.28092261666E+03  0.59086956809E+03  0.92764011882E+03  0.79732701356E+02 0.  0.
        254    2    1    2    0    0 -0.65277448122E+03 -0.28092261666E+03 -0.33010557713E+03  0.11896174812E+04  0.89509106774E+03 0.  0.
         23    2    4    4    0    0 -0.62848067418E+03 -0.52063085274E+03 -0.41219901739E+03  0.91884662515E+03  0.91250468346E+02 0.  0.
         23    2    4    4    0    0 -0.24293807043E+02  0.23970823608E+03  0.82093440267E+02  0.27077085601E+03  0.92343359400E+02 0.  0.
          4    1    3    3  502    0  0.43815246710E+03  0.19636784633E+03  0.35031513250E+03  0.59435562381E+03  0.00000000000E+00 0. -1.
         -3    1    3    3    0  502  0.21462201412E+03  0.84554770335E+02  0.24055443559E+03  0.33328449501E+03  0.00000000000E+00 0.  1.
         11    1    5    5    0    0 -0.18054550561E+03 -0.19959754931E+03 -0.15632588450E+03  0.31124531073E+03  0.00000000000E+00 0. -1.
        -11    1    5    5    0    0 -0.44793516856E+03 -0.32103330343E+03 -0.25587313289E+03  0.60760131442E+03  0.00000000000E+00 0.  1.
          3    1    6    6  503    0 -0.74556041471E+01 -0.69655554919E+01 -0.14690988837E+00  0.10204243187E+02  0.00000000000E+00 0. -1.
         -3    1    6    6    0  503 -0.16838202896E+02  0.24667379157E+03  0.82240350156E+02  0.26056661282E+03  0.00000000000E+00 0.  1.
<mgrwt>
<rscale>  0 0.21011382E+04</rscale>
<asrwt>0</asrwt>
<pdfrwt beam="1">  1        2 0.18292474E+00 0.21011382E+04</pdfrwt>
<pdfrwt beam="2">  1       -1 0.14280720E+00 0.21011382E+04</pdfrwt>
<totfact> 0.80378533E+00</totfact>
</mgrwt>
</event>
<event>
12    6  0.8914180E-008  0.1407539E+04  0.7818608E-02  0.8948380E-01
          2   -1    0    0  501    0  0.00000000000E+00  0.00000000000E+00  0.23689334120E+04  0.23689334120E+04  0.00000000000E+00 0. -1.
         -1   -1    0    0    0  501 -0.00000000000E+00 -0.00000000000E+00 -0.20907777399E+03  0.20907777399E+03  0.00000000000E+00 0.  1.
         24    2    1    2    0    0  0.11028345199E+03  0.51077228024E+02  0.13880418140E+04  0.13949436694E+04  0.66606610849E+02 0.  0.
        254    2    1    2    0    0 -0.11028345199E+03 -0.51077228024E+02  0.77181382403E+03  0.11830675165E+04  0.88835851247E+03 0.  0.
         23    2    4    4    0    0  0.34047043164E+03  0.15721808433E+03  0.39127752312E+03  0.55088033196E+03  0.98657990932E+02 0.  0.
         23    2    4    4    0    0 -0.45075388363E+03 -0.20829531235E+03  0.38053630091E+03  0.63218718457E+03  0.91031638816E+02 0.  0.
          4    1    3    3  502    0  0.38991043852E+02  0.12542671233E+02  0.83412266047E+03  0.83512767456E+03  0.00000000000E+00 0. -1.
         -3    1    3    3    0  502  0.71292408136E+02  0.38534556791E+02  0.55391915348E+03  0.55981599488E+03  0.00000000000E+00 0.  1.
         11    1    5    5    0    0  0.27827739739E+03  0.10003981466E+03  0.25467221991E+03  0.39026172501E+03  0.00000000000E+00 0. -1.
        -11    1    5    5    0    0  0.62193034256E+02  0.57178269665E+02  0.13660530322E+03  0.16061860695E+03  0.00000000000E+00 0.  1.
          2    1    6    6  503    0 -0.27798275976E+03 -0.14463946058E+03  0.29019797190E+03  0.42709466301E+03  0.00000000000E+00 0. -1.
         -2    1    6    6    0  503 -0.17277112387E+03 -0.63655851776E+02  0.90338329009E+02  0.20509252156E+03  0.00000000000E+00 0.  1.
<mgrwt>
<rscale>  0 0.14075387E+04</rscale>
<asrwt>0</asrwt>
<pdfrwt beam="1">  1        2 0.36445128E+00 0.14075387E+04</pdfrwt>
<pdfrwt beam="2">  1       -1 0.32165813E-01 0.14075387E+04</pdfrwt>
<totfact> 0.41506552E+01</totfact>
</mgrwt>
</event>
<event>
12    6  0.8914180E-008  0.1619490E+04  0.7818608E-02  0.8808663E-01
          2   -1    0    0  501    0  0.00000000000E+00  0.00000000000E+00  0.13830464817E+04  0.13830464817E+04  0.00000000000E+00 0. -1.
         -1   -1    0    0    0  501 -0.00000000000E+00 -0.00000000000E+00 -0.47408881158E+03  0.47408881158E+03  0.00000000000E+00 0.  1.
         24    2    1    2    0    0 -0.50122255423E+03 -0.53472864994E+02  0.59946399693E+03  0.78735009609E+03  0.80496546713E+02 0.  0.
        254    2    1    2    0    0  0.50122255423E+03  0.53472864994E+02  0.30949367316E+03  0.10697851972E+04  0.89138691835E+03 0.  0.
         23    2    4    4    0    0  0.37523297440E+03 -0.18166701444E+03  0.55232829606E+03  0.69797780347E+03  0.91125069500E+02 0.  0.
         23    2    4    4    0    0  0.12598957982E+03  0.23513987944E+03 -0.24283462290E+03  0.37180739370E+03  0.90044138116E+02 0.  0.
          2    1    3    3  502    0 -0.42924258477E+03 -0.29010573171E+02  0.46967019000E+03  0.63693084186E+03  0.00000000000E+00 0. -1.
         -1    1    3    3    0  502 -0.71979969454E+02 -0.24462291823E+02  0.12979380693E+03  0.15041925423E+03  0.00000000000E+00 0.  1.
         11    1    5    5    0    0  0.34797888361E+02 -0.16636335521E+02  0.16271573203E+02  0.41861973059E+02  0.00000000000E+00 0.  1.
        -11    1    5    5    0    0  0.34043508604E+03 -0.16503067892E+03  0.53605672286E+03  0.65611583041E+03  0.00000000000E+00 0. -1.
          2    1    6    6  503    0  0.69272576789E+02  0.19178171669E+03 -0.21167033813E+03  0.29391027338E+03  0.00000000000E+00 0. -1.
         -2    1    6    6    0  503  0.56717003034E+02  0.43358162741E+02 -0.31164284763E+02  0.77897120321E+02  0.00000000000E+00 0.  1.
<mgrwt>
<rscale>  0 0.16194899E+04</rscale>
<asrwt>0</asrwt>
<pdfrwt beam="1">  1        2 0.21277638E+00 0.16194899E+04</pdfrwt>
<pdfrwt beam="2">  1       -1 0.72936741E-01 0.16194899E+04</pdfrwt>
<totfact> 0.30606564E+01</totfact>
</mgrwt>
</event>
<event>
12    6  0.8914180E-008  0.1351203E+04  0.7818608E-02  0.8989918E-01
          2   -1    0    0  501    0  0.00000000000E+00  0.00000000000E+00  0.12752866388E+04  0.12752866388E+04  0.00000000000E+00 0. -1.
         -1   -1    0    0    0  501 -0.00000000000E+00 -0.00000000000E+00 -0.35790986703E+03  0.35790986703E+03  0.00000000000E+00 0.  1.
         24    2    1    2    0    0  0.74492786382E+02 -0.11192922451E+03  0.67703897117E+03  0.69489016899E+03  0.80082781846E+02 0.  0.
        254    2    1    2    0    0 -0.74492786382E+02  0.11192922451E+03  0.24033780064E+03  0.93830633688E+03  0.89698338719E+03 0.  0.
         23    2    4    4    0    0 -0.16190838362E+03 -0.19150799702E+03 -0.23842083603E+03  0.35759956817E+03  0.90240337420E+02 0.  0.
         23    2    4    4    0    0  0.87415597236E+02  0.30343722153E+03  0.47875863667E+03  0.58070676871E+03  0.91076259203E+02 0.  0.
          4    1    3    3  502    0  0.11770050171E+02 -0.34684506819E+02  0.37715371787E+03  0.37892806177E+03  0.00000000000E+00 0. -1.
         -1    1    3    3    0  502  0.62722736212E+02 -0.77244717690E+02  0.29988525330E+03  0.31596210721E+03  0.00000000000E+00 0.  1.
         11    1    5    5    0    0 -0.60077959659E+02 -0.12818775779E+03 -0.94219865002E+02  0.17005541875E+03  0.00000000000E+00 0. -1.
        -11    1    5    5    0    0 -0.10183042396E+03 -0.63320239229E+02 -0.14420097103E+03  0.18754414943E+03  0.00000000000E+00 0.  1.
          2    1    6    6  503    0  0.26086793886E+02  0.20700276162E+03  0.25521874245E+03  0.32964719114E+03  0.00000000000E+00 0. -1.
         -2    1    6    6    0  503  0.61328803350E+02  0.96434459909E+02  0.22353989422E+03  0.25105957756E+03  0.00000000000E+00 0.  1.
<mgrwt>
<rscale>  0 0.13512034E+04</rscale>
<asrwt>0</asrwt>
<pdfrwt beam="1">  1        2 0.19619794E+00 0.13512034E+04</pdfrwt>
<pdfrwt beam="2">  1       -1 0.55063057E-01 0.13512034E+04</pdfrwt>
<totfact> 0.63429830E+01</totfact>
</mgrwt>
</event>
<event>
12    6  0.8914180E-008  0.1591767E+04  0.7818608E-02  0.8825622E-01
          2   -1    0    0  501    0  0.00000000000E+00  0.00000000000E+00  0.19819852669E+04  0.19819852669E+04  0.00000000000E+00 0. -1.
         -1   -1    0    0    0  501 -0.00000000000E+00 -0.00000000000E+00 -0.31959402742E+03  0.31959402742E+03  0.00000000000E+00 0.  1.
         24    2    1    2    0    0  0.12245295289E+01 -0.31229144140E+03  0.11825572957E+04  0.12255050047E+04  0.76767929906E+02 0.  0.
        254    2    1    2    0    0 -0.12245295289E+01  0.31229144140E+03  0.47983394370E+03  0.10760742896E+04  0.91113545605E+03 0.  0.
         23    2    4    4    0    0 -0.35825039197E+03  0.37558279052E+03  0.46403462822E+03  0.70197768704E+03  0.89659138022E+02 0.  0.
         23    2    4    4    0    0  0.35702586244E+03 -0.63291349121E+02  0.15799315478E+02  0.37409660252E+03  0.90693926588E+02 0.  0.
          2    1    3    3  502    0  0.28915055545E+02 -0.18193308174E+03  0.78014765625E+03  0.80160220323E+03  0.00000000000E+00 0. -1.
         -1    1    3    3    0  502 -0.27690526016E+02 -0.13035835967E+03  0.40240963948E+03  0.42390280149E+03  0.00000000000E+00 0.  1.
         11    1    5    5    0    0 -0.32956413080E+03  0.36105472025E+03  0.40528163178E+03  0.63500096723E+03  0.00000000000E+00 0. -1.
        -11    1    5    5    0    0 -0.28686261167E+02  0.14528070274E+02  0.58752996442E+02  0.66976719810E+02  0.00000000000E+00 0.  1.
          2    1    6    6  503    0  0.27106036747E+03 -0.22227505766E+02  0.42228322153E+02  0.27522902466E+03  0.00000000000E+00 0.  1.
         -2    1    6    6    0  503  0.85965494970E+02 -0.41063843355E+02 -0.26429006675E+02  0.98867577852E+02  0.00000000000E+00 0. -1.
<mgrwt>
<rscale>  0 0.15917671E+04</rscale>
<asrwt>0</asrwt>
<pdfrwt beam="1">  1        2 0.30492080E+00 0.15917671E+04</pdfrwt>
<pdfrwt beam="2">  1       -1 0.49168313E-01 0.15917671E+04</pdfrwt>
<totfact> 0.30974486E+01</totfact>
</mgrwt>
</event>
<event>
12    6  0.8914180E-008  0.1899462E+04  0.7818608E-02  0.8655124E-01
          2   -1    0    0  501    0  0.00000000000E+00  0.00000000000E+00  0.18466807487E+04  0.18466807487E+04  0.00000000000E+00 0. -1.
         -1   -1    0    0    0  501 -0.00000000000E+00 -0.00000000000E+00 -0.48843787072E+03  0.48843787072E+03  0.00000000000E+00 0.  1.
         24    2    1    2    0    0  0.18065620791E+03 -0.21499495759E+03  0.13581525221E+04  0.13892793725E+04  0.81605172931E+02 0.  0.
        254    2    1    2    0    0 -0.18065620791E+03  0.21499495759E+03  0.90355832618E-01  0.94583924690E+03  0.90319011042E+03 0.  0.
         23    2    4    4    0    0  0.15208781848E+02  0.41730071264E+03 -0.30155671714E+03  0.52327850345E+03  0.92264547434E+02 0.  0.
         23    2    4    4    0    0 -0.19586498976E+03 -0.20230575505E+03  0.30164707297E+03  0.42256074344E+03  0.90972042581E+02 0.  0.
          2    1    3    3  502    0  0.74153305411E+02 -0.15089457821E+03  0.78224834720E+03  0.80011271902E+03  0.00000000000E+00 0. -1.
         -1    1    3    3    0  502  0.10650290250E+03 -0.64100379376E+02  0.57590417491E+03  0.58916665347E+03  0.00000000000E+00 0.  1.
         11    1    5    5    0    0  0.25090363553E+02  0.47501478564E+02 -0.64360692483E+02  0.83834453215E+02  0.00000000000E+00 0. -1.
        -11    1    5    5    0    0 -0.98815817050E+01  0.36979923407E+03 -0.23719602465E+03  0.43944405024E+03  0.00000000000E+00 0.  1.
          1    1    6    6  503    0 -0.16014628733E+02 -0.14229697347E+01  0.54418378375E+02  0.56743749270E+02  0.00000000000E+00 0. -1.
         -1    1    6    6    0  503 -0.17985036102E+03 -0.20088278531E+03  0.24722869459E+03  0.36581699417E+03  0.00000000000E+00 0.  1.
<mgrwt>
<rscale>  0 0.18994618E+04</rscale>
<asrwt>0</asrwt>
<pdfrwt beam="1">  1        2 0.28410473E+00 0.18994618E+04</pdfrwt>
<pdfrwt beam="2">  1       -1 0.75144289E-01 0.18994618E+04</pdfrwt>
<totfact> 0.15439127E+01</totfact>
</mgrwt>
</event>
<event>
12    6  0.8914180E-008  0.2235846E+04  0.7818608E-02  0.8503655E-01
          2   -1    0    0  501    0  0.00000000000E+00  0.00000000000E+00  0.17409022026E+04  0.17409022026E+04  0.00000000000E+00 0. -1.
         -1   -1    0    0    0  501 -0.00000000000E+00 -0.00000000000E+00 -0.71787578471E+03  0.71787578471E+03  0.00000000000E+00 0.  1.
         24    2    1    2    0    0  0.16848761396E+03 -0.31002477911E+03 -0.52230866058E+03  0.63540766048E+03  0.80206722685E+02 0.  0.
        254    2    1    2    0    0 -0.16848761396E+03  0.31002477911E+03  0.15453350785E+04  0.18233703268E+04  0.90117445830E+03 0.  0.
         23    2    4    4    0    0 -0.10144154262E+03 -0.26986872477E+03  0.22601338630E+03  0.37769617009E+03  0.91939278510E+02 0.  0.
         23    2    4    4    0    0 -0.67046071344E+02  0.57989350388E+03  0.13193216922E+04  0.14456741567E+04  0.92695137526E+02 0.  0.
          4    1    3    3  502    0  0.41241697726E+02 -0.14599183855E+03 -0.18393490139E+03  0.23842512976E+03  0.00000000000E+00 0. -1.
         -3    1    3    3    0  502  0.12724591623E+03 -0.16403294056E+03 -0.33837375919E+03  0.39698253072E+03  0.00000000000E+00 0.  1.
         11    1    5    5    0    0 -0.57765971296E+02 -0.20736653879E+03  0.20802498765E+03  0.29935294276E+03  0.00000000000E+00 0.  1.
        -11    1    5    5    0    0 -0.43675571321E+02 -0.62502185977E+02  0.17988398649E+02  0.78343227328E+02  0.00000000000E+00 0. -1.
          2    1    6    6  503    0  0.73573661733E+01  0.23821193526E+03  0.60811229968E+03  0.65314594538E+03  0.00000000000E+00 0. -1.
         -2    1    6    6    0  503 -0.74403437517E+02  0.34168156862E+03  0.71120939248E+03  0.79252821137E+03  0.00000000000E+00 0.  1.
<mgrwt>
<rscale>  0 0.22358457E+04</rscale>
<asrwt>0</asrwt>
<pdfrwt beam="1">  1        2 0.26783111E+00 0.22358457E+04</pdfrwt>
<pdfrwt beam="2">  1       -1 0.11044243E+00 0.22358457E+04</pdfrwt>
<totfact> 0.73003265E+00</totfact>
</mgrwt>
</event>
<event>
12    6  0.8914180E-008  0.1549429E+04  0.7818608E-02  0.8852232E-01
          2   -1    0    0  501    0  0.00000000000E+00  0.00000000000E+00  0.12965843085E+04  0.12965843085E+04  0.00000000000E+00 0. -1.
         -1   -1    0    0    0  501 -0.00000000000E+00 -0.00000000000E+00 -0.46289525755E+03  0.46289525755E+03  0.00000000000E+00 0.  1.
         24    2    1    2    0    0  0.38590960633E+03 -0.10998455790E+03  0.63954597611E+03  0.75921508740E+03  0.79785124883E+02 0.  0.
        254    2    1    2    0    0 -0.38590960633E+03  0.10998455790E+03  0.19414307481E+03  0.10002644786E+04  0.89544104578E+03 0.  0.
         23    2    4    4    0    0  0.99554249576E+02  0.38722293465E+03  0.12809350420E+03  0.43002387614E+03  0.93058790607E+02 0.  0.
         23    2    4    4    0    0 -0.48546385590E+03 -0.27723837675E+03  0.66049570616E+02  0.57024060249E+03  0.90969918184E+02 0.  0.
          4    1    3    3  502    0  0.38462953544E+03 -0.11520881523E+03  0.63761067517E+03  0.75349872179E+03  0.00000000000E+00 0. -1.
         -3    1    3    3    0  502  0.12800708843E+01  0.52242573335E+01  0.19353009392E+01  0.57163656182E+01  0.00000000000E+00 0.  1.
         11    1    5    5    0    0  0.86867771797E+02  0.30907758664E+03  0.62203677317E+02  0.32702333527E+03  0.00000000000E+00 0.  1.
        -11    1    5    5    0    0  0.12686477779E+02  0.78145348010E+02  0.65889826879E+02  0.10300054087E+03  0.00000000000E+00 0. -1.
          3    1    6    6  503    0 -0.53864727497E+02 -0.18066666135E+02 -0.18508727351E+02  0.59752709409E+02  0.00000000000E+00 0. -1.
         -3    1    6    6    0  503 -0.43159912841E+03 -0.25917171061E+03  0.84558297967E+02  0.51048789308E+03  0.00000000000E+00 0.  1.
<mgrwt>
<rscale>  0 0.15494292E+04</rscale>
<asrwt>0</asrwt>
<pdfrwt beam="1">  1        2 0.19947451E+00 0.15494292E+04</pdfrwt>
<pdfrwt beam="2">  1       -1 0.71214655E-01 0.15494292E+04</pdfrwt>
<totfact> 0.36292582E+01</totfact>
</mgrwt>
</event>
<event>
12    6  0.8914180E-008  0.1567510E+04  0.7818608E-02  0.8840760E-01
         -1   -1    0    0    0  501 -0.00000000000E+00  0.00000000000E+00  0.67139513581E+03  0.67139513581E+03  0.00000000000E+00 0.  1.
          2   -1    0    0  501    0  0.00000000000E+00 -0.00000000000E+00 -0.91491869084E+03  0.91491869084E+03  0.00000000000E+00 0. -1.
         24    2    1    2    0    0  0.86999479724E+02  0.29889585283E+03  0.34396037305E+03  0.46768606433E+03  0.59277957369E+02 0.  0.
        254    2    1    2    0    0 -0.86999479724E+02 -0.29889585283E+03 -0.58748392808E+03  0.11186277623E+04  0.89960161437E+03 0.  0.
         23    2    4    4    0    0  0.99614346757E+02  0.16163104866E+03 -0.57607225227E+03  0.61318323065E+03  0.89926750944E+02 0.  0.
         23    2    4    4    0    0 -0.18661382648E+03 -0.46052690149E+03 -0.11411675800E+02  0.50544453167E+03  0.91837906214E+02 0.  0.
          4    1    3    3  502    0 -0.59652903423E+01  0.56694082915E+02  0.71930958573E+02  0.91781624129E+02  0.00000000000E+00 0. -1.
         -3    1    3    3    0  502  0.92964770066E+02  0.24220176991E+03  0.27202941448E+03  0.37590444020E+03  0.00000000000E+00 0.  1.
         11    1    5    5    0    0  0.18142987492E+02  0.27482532002E+02 -0.24022947604E+03  0.24247609927E+03  0.00000000000E+00 0.  1.
        -11    1    5    5    0    0  0.81471359265E+02  0.13414851666E+03 -0.33584277623E+03  0.37070713137E+03  0.00000000000E+00 0. -1.
          1    1    6    6  503    0 -0.16737642708E+03 -0.43807866119E+03 -0.30987626086E+02  0.46998724951E+03  0.00000000000E+00 0. -1.
         -1    1    6    6    0  503 -0.19237399405E+02 -0.22448240300E+02  0.19575950286E+02  0.35457282158E+02  0.00000000000E+00 0.  1.
<mgrwt>
<rscale>  0 0.15675101E+04</rscale>
<asrwt>0</asrwt>
<pdfrwt beam="1">  1        2 0.14075672E+00 0.15675101E+04</pdfrwt>
<pdfrwt beam="2">  1       -1 0.10329156E+00 0.15675101E+04</pdfrwt>
<totfact> 0.27807568E+01</totfact>
</mgrwt>
</event>
<event>
12    6  0.1103249E-007  0.1988661E+04  0.7818608E-02  0.8611941E-01
         -1   -1    0    0    0  501 -0.00000000000E+00  0.00000000000E+00  0.84453037443E+03  0.84453037443E+03  0.00000000000E+00 0.  1.
          2   -1    0    0  501    0  0.00000000000E+00 -0.00000000000E+00 -0.11707011336E+04  0.11707011336E+04  0.00000000000E+00 0. -1.
         24    2    1    2    0    0 -0.63107187558E+03 -0.24126642364E+03  0.28221865895E+03  0.73646814669E+03  0.79226007803E+02 0.  0.
        254    2    1    2    0    0  0.63107187558E+03  0.24126642364E+03 -0.60838941810E+03  0.12787633613E+04  0.89924237604E+03 0.  0.
         23    2    4    4    0    0  0.80947416202E+03  0.11123651823E+02 -0.38547665088E+03  0.90132555841E+03  0.91778860597E+02 0.  0.
         23    2    4    4    0    0 -0.17840228644E+03  0.23014277182E+03 -0.22291276722E+03  0.37743780291E+03  0.89309137525E+02 0.  0.
          4    1    3    3  502    0 -0.52050620705E+02 -0.14546505142E+02  0.47058609847E+02  0.71661570513E+02  0.00000000000E+00 0. -1.
         -3    1    3    3    0  502 -0.57902125487E+03 -0.22671991850E+03  0.23516004910E+03  0.66480657618E+03  0.00000000000E+00 0.  1.
         11    1    5    5    0    0  0.67524155749E+03  0.41764957292E+02 -0.33219367243E+03  0.75368966334E+03  0.00000000000E+00 0.  1.
        -11    1    5    5    0    0  0.13423260453E+03 -0.30641305469E+02 -0.53282978443E+02  0.14763589507E+03  0.00000000000E+00 0. -1.
          3    1    6    6  503    0  0.42766231159E+01  0.10667127108E+02 -0.31848421694E+02  0.33858515478E+02  0.00000000000E+00 0. -1.
         -3    1    6    6    0  503 -0.18267890956E+03  0.21947564471E+03 -0.19106434553E+03  0.34357928743E+03  0.00000000000E+00 0.  1.
<mgrwt>
<rscale>  0 0.19886605E+04</rscale>
<asrwt>0</asrwt>
<pdfrwt beam="1">  1        2 0.18010787E+00 0.19886605E+04</pdfrwt>
<pdfrwt beam="2">  1       -1 0.12992775E+00 0.19886605E+04</pdfrwt>
<totfact> 0.10622617E+01</totfact>
</mgrwt>
</event>
<event>
12    6  0.8914180E-008  0.1608086E+04  0.7818608E-02  0.8815596E-01
          2   -1    0    0  501    0  0.00000000000E+00  0.00000000000E+00  0.10554639525E+04  0.10554639525E+04  0.00000000000E+00 0. -1.
         -1   -1    0    0    0  501 -0.00000000000E+00 -0.00000000000E+00 -0.61251303831E+03  0.61251303831E+03  0.00000000000E+00 0.  1.
         24    2    1    2    0    0  0.42966614149E+03  0.98101223970E+02  0.47995764047E+03  0.65648377306E+03  0.79842121459E+02 0.  0.
        254    2    1    2    0    0 -0.42966614149E+03 -0.98101223970E+02 -0.37006726303E+02  0.10114932177E+04  0.90967696927E+03 0.  0.
         23    2    4    4    0    0  0.84936519627E+02  0.26229690776E+03  0.18088611925E+03  0.34042715667E+03  0.84598940179E+02 0.  0.
         23    2    4    4    0    0 -0.51460266112E+03 -0.36039813172E+03 -0.21789284555E+03  0.67106606105E+03  0.90275433948E+02 0.  0.
          2    1    3    3  502    0  0.34216885024E+03  0.63043332534E+02  0.33110323496E+03  0.48029505104E+03  0.00000000000E+00 0. -1.
         -1    1    3    3    0  502  0.87497291254E+02  0.35057891436E+02  0.14885440551E+03  0.17618872203E+03  0.00000000000E+00 0.  1.
         11    1    5    5    0    0  0.78846994938E+02  0.21033827516E+03  0.18041277289E+03  0.28811075515E+03  0.00000000000E+00 0.  1.
        -11    1    5    5    0    0  0.60895246896E+01  0.51958632590E+02  0.47334635551E+00  0.52316401523E+02  0.00000000000E+00 0. -1.
          2    1    6    6  503    0 -0.34200955983E+03 -0.21665971196E+03 -0.98387172697E+02  0.41664373937E+03  0.00000000000E+00 0. -1.
         -2    1    6    6    0  503 -0.17259310129E+03 -0.14373841976E+03 -0.11950567285E+03  0.25442232169E+03  0.00000000000E+00 0.  1.
<mgrwt>
<rscale>  0 0.16080864E+04</rscale>
<asrwt>0</asrwt>
<pdfrwt beam="1">  1        2 0.16237907E+00 0.16080864E+04</pdfrwt>
<pdfrwt beam="2">  1       -1 0.94232775E-01 0.16080864E+04</pdfrwt>
<totfact> 0.27690208E+01</totfact>
</mgrwt>
</event>
<event>
12    6  0.8914180E-008  0.1793908E+04  0.7818608E-02  0.8709546E-01
          2   -1    0    0  501    0  0.00000000000E+00  0.00000000000E+00  0.37841321104E+04  0.37841321104E+04  0.00000000000E+00 0. -1.
         -1   -1    0    0    0  501 -0.00000000000E+00 -0.00000000000E+00 -0.21260519433E+03  0.21260519433E+03  0.00000000000E+00 0.  1.
         24    2    1    2    0    0 -0.65479546080E+03  0.10918441644E+03  0.10921163114E+04  0.12805943467E+04  0.80780633277E+02 0.  0.
        254    2    1    2    0    0  0.65479546080E+03 -0.10918441644E+03  0.24794106046E+04  0.27161429581E+04  0.88841279257E+03 0.  0.
         23    2    4    4    0    0  0.26696298364E+03 -0.46272981464E+03  0.91455790294E+03  0.10630829890E+04  0.91329993378E+02 0.  0.
         23    2    4    4    0    0  0.38783247716E+03  0.35354539820E+03  0.15648527017E+04  0.16530599691E+04  0.91841735530E+02 0.  0.
          4    1    3    3  502    0 -0.32729796608E+03  0.77200553117E+02  0.48746524313E+03  0.59220456538E+03  0.00000000000E+00 0. -1.
         -3    1    3    3    0  502 -0.32749749472E+03  0.31983863328E+02  0.60465106830E+03  0.68838978127E+03  0.00000000000E+00 0.  1.
         11    1    5    5    0    0  0.91343880085E+01  0.22254643009E+01  0.25598325248E+02  0.27270203357E+02  0.00000000000E+00 0. -1.
        -11    1    5    5    0    0  0.25782859563E+03 -0.46495527895E+03  0.88895957770E+03  0.10358127857E+04  0.00000000000E+00 0.  1.
          2    1    6    6  503    0  0.25131591675E+02  0.13488024881E+01  0.48385087381E+02  0.54539278040E+02  0.00000000000E+00 0. -1.
         -2    1    6    6    0  503  0.36270088549E+03  0.35219659571E+03  0.15164676143E+04  0.15985206910E+04  0.00000000000E+00 0.  1.
<mgrwt>
<rscale>  0 0.17939076E+04</rscale>
<asrwt>0</asrwt>
<pdfrwt beam="1">  1        2 0.58217412E+00 0.17939076E+04</pdfrwt>
<pdfrwt beam="2">  1       -1 0.32708494E-01 0.17939076E+04</pdfrwt>
<totfact> 0.48112552E+00</totfact>
</mgrwt>
</event>
<event>
12    6  0.8914180E-008  0.2220284E+04  0.7818608E-02  0.8510033E-01
         -1   -1    0    0    0  501 -0.00000000000E+00  0.00000000000E+00  0.10285705239E+04  0.10285705239E+04  0.00000000000E+00 0.  1.
          2   -1    0    0  501    0  0.00000000000E+00 -0.00000000000E+00 -0.11981824733E+04  0.11981824733E+04  0.00000000000E+00 0. -1.
         24    2    1    2    0    0  0.57966059886E+03 -0.65838542019E+03 -0.37319074317E+03  0.95649849996E+03  0.78359927566E+02 0.  0.
        254    2    1    2    0    0 -0.57966059886E+03  0.65838542019E+03  0.20357879374E+03  0.12702544973E+04  0.89589306903E+03 0.  0.
         23    2    4    4    0    0 -0.70209087336E+03  0.33026534058E+03 -0.11280223995E+03  0.78933182471E+03  0.91178914916E+02 0.  0.
         23    2    4    4    0    0  0.12243027449E+03  0.32812007961E+03  0.31638103369E+03  0.48092267254E+03  0.92399673856E+02 0.  0.
          2    1    3    3  502    0  0.56630998774E+03 -0.65680976409E+03 -0.36698964028E+03  0.94169393356E+03  0.00000000000E+00 0. -1.
         -3    1    3    3    0  502  0.13350611118E+02 -0.15756560980E+01 -0.62011028918E+01  0.14804566405E+02  0.00000000000E+00 0.  1.
         11    1    5    5    0    0 -0.17745019758E+03  0.50321705809E+02 -0.51630393470E+02  0.19153731810E+03  0.00000000000E+00 0.  1.
        -11    1    5    5    0    0 -0.52464067578E+03  0.27994363477E+03 -0.61171846480E+02  0.59779450661E+03  0.00000000000E+00 0. -1.
          2    1    6    6  503    0  0.10861739965E+03  0.22992461443E+03  0.27177714002E+03  0.37219065231E+03  0.00000000000E+00 0. -1.
         -2    1    6    6    0  503  0.13812874840E+02  0.98195465179E+02  0.44603893671E+02  0.10873202023E+03  0.00000000000E+00 0.  1.
<mgrwt>
<rscale>  0 0.22202839E+04</rscale>
<asrwt>0</asrwt>
<pdfrwt beam="1">  1        2 0.18433576E+00 0.22202839E+04</pdfrwt>
<pdfrwt beam="2">  1       -1 0.15824162E+00 0.22202839E+04</pdfrwt>
<totfact> 0.59533116E+00</totfact>
</mgrwt>
</event>
<event>
12    6  0.8914180E-008  0.1626635E+04  0.7818608E-02  0.8804350E-01
         -1   -1    0    0    0  501 -0.00000000000E+00  0.00000000000E+00  0.31304712091E+03  0.31304712091E+03  0.00000000000E+00 0.  1.
          2   -1    0    0  501    0  0.00000000000E+00 -0.00000000000E+00 -0.21130538888E+04  0.21130538888E+04  0.00000000000E+00 0. -1.
         24    2    1    2    0    0 -0.28554469804E+03 -0.13152097576E+03 -0.13801415204E+04  0.14177582389E+04  0.80089112982E+02 0.  0.
        254    2    1    2    0    0  0.28554469804E+03  0.13152097576E+03 -0.41986524751E+03  0.10083427708E+04  0.86118219662E+03 0.  0.
         23    2    4    4    0    0  0.41858752237E+03  0.54384244592E+02  0.11141707988E+03  0.44784609362E+03  0.99895935556E+02 0.  0.
         23    2    4    4    0    0 -0.13304282433E+03  0.77136731169E+02 -0.53128232739E+03  0.56049667721E+03  0.90802782800E+02 0.  0.
          4    1    3    3  502    0 -0.26355225592E+03 -0.13412122921E+03 -0.11840029954E+04  0.12203734628E+04  0.00000000000E+00 0. -1.
         -3    1    3    3    0  502 -0.21992442113E+02  0.26002534485E+01 -0.19613852498E+03  0.19738477604E+03  0.00000000000E+00 0.  1.
         11    1    5    5    0    0  0.38284758844E+03  0.76848809330E+02  0.10968489177E+03  0.40559683301E+03  0.00000000000E+00 0. -1.
        -11    1    5    5    0    0  0.35739933927E+02 -0.22464564738E+02  0.17321881096E+01  0.42249260605E+02  0.00000000000E+00 0.  1.
          2    1    6    6  503    0 -0.90363554296E+02  0.94331042591E+02 -0.42651223075E+03  0.44606793263E+03  0.00000000000E+00 0. -1.
         -2    1    6    6    0  503 -0.42679270034E+02 -0.17194311423E+02 -0.10477009663E+03  0.11442874457E+03  0.00000000000E+00 0.  1.
<mgrwt>
<rscale>  0 0.16266351E+04</rscale>
<asrwt>0</asrwt>
<pdfrwt beam="1">  1        2 0.32508521E+00 0.16266351E+04</pdfrwt>
<pdfrwt beam="2">  1       -1 0.48161095E-01 0.16266351E+04</pdfrwt>
<totfact> 0.27155219E+01</totfact>
</mgrwt>
</event>
<event>
12    6  0.8914180E-008  0.2234586E+04  0.7818608E-02  0.8504169E-01
          2   -1    0    0  501    0  0.00000000000E+00  0.00000000000E+00  0.36360466261E+04  0.36360466261E+04  0.00000000000E+00 0. -1.
         -1   -1    0    0    0  501 -0.00000000000E+00 -0.00000000000E+00 -0.34332457985E+03  0.34332457985E+03  0.00000000000E+00 0.  1.
         24    2    1    2    0    0 -0.53101990253E+02  0.60644774090E+03  0.12140552907E+03  0.62582066041E+03  0.79457615721E+02 0.  0.
        254    2    1    2    0    0  0.53101990253E+02 -0.60644774090E+03  0.31713165172E+04  0.33535505455E+04  0.90468454475E+03 0.  0.
         23    2    4    4    0    0  0.37221196393E+03 -0.45605518254E+03  0.26470833426E+04  0.27135450037E+04  0.98732916357E+02 0.  0.
         23    2    4    4    0    0 -0.31910997368E+03 -0.15039255836E+03  0.52423317454E+03  0.64000554180E+03  0.10167386755E+03 0.  0.
          4    1    3    3  502    0 -0.16942701908E+01  0.26578416216E+02 -0.10991383033E+02  0.28811339105E+02  0.00000000000E+00 0. -1.
         -3    1    3    3    0  502 -0.51407720062E+02  0.57986932468E+03  0.13239691210E+03  0.59700932130E+03  0.00000000000E+00 0.  1.
         11    1    5    5    0    0  0.79836861512E+02 -0.96618855847E+02  0.76933275876E+03  0.77947547842E+03  0.00000000000E+00 0.  1.
        -11    1    5    5    0    0  0.29237510242E+03 -0.35943632669E+03  0.18777505839E+04  0.19340695253E+04  0.00000000000E+00 0. -1.
          2    1    6    6  503    0 -0.17484970876E+03 -0.26263187594E+02  0.25027712535E+03  0.30643239898E+03  0.00000000000E+00 0. -1.
         -2    1    6    6    0  503 -0.14426026492E+03 -0.12412937077E+03  0.27395604919E+03  0.33357314282E+03  0.00000000000E+00 0.  1.
<mgrwt>
<rscale>  0 0.22345865E+04</rscale>
<asrwt>0</asrwt>
<pdfrwt beam="1">  1        2 0.55939176E+00 0.22345865E+04</pdfrwt>
<pdfrwt beam="2">  1       -1 0.52819169E-01 0.22345865E+04</pdfrwt>
<totfact> 0.24461355E+00</totfact>
</mgrwt>
</event>
<event>
12    6  0.8914180E-008  0.1226979E+04  0.7818608E-02  0.9089564E-01
         -1   -1    0    0    0  501 -0.00000000000E+00  0.00000000000E+00  0.48435204273E+03  0.48435204273E+03  0.00000000000E+00 0.  1.
          2   -1    0    0  501    0  0.00000000000E+00 -0.00000000000E+00 -0.77705771502E+03  0.77705771502E+03  0.00000000000E+00 0. -1.
         24    2    1    2    0    0  0.21319495132E+03 -0.13814079938E+03 -0.16164678713E+03  0.31112584688E+03  0.78323949633E+02 0.  0.
        254    2    1    2    0    0 -0.21319495132E+03  0.13814079938E+03 -0.13105888515E+03  0.95028391087E+03  0.90627154439E+03 0.  0.
         23    2    4    4    0    0  0.15899818211E+03 -0.96978898755E+02  0.27514353028E+03  0.34428042825E+03  0.90220409599E+02 0.  0.
         23    2    4    4    0    0 -0.37219313343E+03  0.23511969813E+03 -0.40620241543E+03  0.60600348262E+03  0.91819483929E+02 0.  0.
          4    1    3    3  502    0  0.11438932409E+03 -0.11067310863E+03 -0.71112237129E+02  0.17432843919E+03  0.00000000000E+00 0. -1.
         -3    1    3    3    0  502  0.98805627234E+02 -0.27467690744E+02 -0.90534550001E+02  0.13679740769E+03  0.00000000000E+00 0.  1.
         11    1    5    5    0    0  0.97008612537E+02 -0.38038317292E+02  0.21738557522E+03  0.24106860601E+03  0.00000000000E+00 0. -1.
        -11    1    5    5    0    0  0.61989569569E+02 -0.58940581463E+02  0.57757955052E+02  0.10321182224E+03  0.00000000000E+00 0.  1.
          4    1    6    6  503    0 -0.24774509941E+03  0.12706864173E+03 -0.30322614200E+03  0.41166754449E+03  0.00000000000E+00 0. -1.
         -4    1    6    6    0  503 -0.12444803402E+03  0.10805105641E+03 -0.10297627343E+03  0.19433593813E+03  0.00000000000E+00 0.  1.
<mgrwt>
<rscale>  0 0.12269792E+04</rscale>
<asrwt>0</asrwt>
<pdfrwt beam="1">  1        2 0.11954734E+00 0.12269792E+04</pdfrwt>
<pdfrwt beam="2">  1       -1 0.74515699E-01 0.12269792E+04</pdfrwt>
<totfact> 0.72997498E+01</totfact>
</mgrwt>
</event>
<event>
12    6  0.8914180E-008  0.2003864E+04  0.7818608E-02  0.8604816E-01
         -1   -1    0    0    0  501 -0.00000000000E+00  0.00000000000E+00  0.33593848833E+03  0.33593848833E+03  0.00000000000E+00 0.  1.
          2   -1    0    0  501    0  0.00000000000E+00 -0.00000000000E+00 -0.29882472837E+04  0.29882472837E+04  0.00000000000E+00 0. -1.
         24    2    1    2    0    0  0.54244492778E+03 -0.10259856279E+02 -0.20439986801E+04  0.21163912395E+04  0.82640848931E+02 0.  0.
        254    2    1    2    0    0 -0.54244492778E+03  0.10259856279E+02 -0.60831011527E+03  0.12077945326E+04  0.89127698961E+03 0.  0.
         23    2    4    4    0    0 -0.57935218169E+03  0.24034017925E+03 -0.69727213844E+03  0.94223997145E+03  0.90638714436E+02 0.  0.
         23    2    4    4    0    0  0.36907253904E+02 -0.23008032297E+03  0.88962023177E+02  0.26555456111E+03  0.91136616965E+02 0.  0.
          2    1    3    3  502    0  0.41675190773E+03  0.16989065443E+02 -0.16515831372E+04  0.17034370080E+04  0.00000000000E+00 0. -1.
         -1    1    3    3    0  502  0.12569302005E+03 -0.27248921723E+02 -0.39241554290E+03  0.41295423152E+03  0.00000000000E+00 0.  1.
         11    1    5    5    0    0 -0.38807758411E+03  0.18419844416E+03 -0.42027179128E+03  0.60096726755E+03  0.00000000000E+00 0.  1.
        -11    1    5    5    0    0 -0.19127459758E+03  0.56141735087E+02 -0.27700034716E+03  0.34127270390E+03  0.00000000000E+00 0. -1.
          2    1    6    6  503    0  0.23518823583E+02 -0.65862490028E+02  0.71258042777E+02  0.99843434014E+02  0.00000000000E+00 0. -1.
         -2    1    6    6    0  503  0.13388430321E+02 -0.16421783294E+03  0.17703980400E+02  0.16571112710E+03  0.00000000000E+00 0.  1.
<mgrwt>
<rscale>  0 0.20038635E+04</rscale>
<asrwt>0</asrwt>
<pdfrwt beam="1">  1        2 0.45973034E+00 0.20038635E+04</pdfrwt>
<pdfrwt beam="2">  1       -1 0.51682846E-01 0.20038635E+04</pdfrwt>
<totfact> 0.70696959E+00</totfact>
</mgrwt>
</event>
<event>
12    6  0.8914180E-008  0.2351952E+04  0.7818608E-02  0.8457714E-01
          2   -1    0    0  501    0  0.00000000000E+00  0.00000000000E+00  0.23125027204E+04  0.23125027204E+04  0.00000000000E+00 0. -1.
         -1   -1    0    0    0  501 -0.00000000000E+00 -0.00000000000E+00 -0.59801843669E+03  0.59801843669E+03  0.00000000000E+00 0.  1.
         24    2    1    2    0    0 -0.17516446096E+03  0.73039061968E+03  0.15565481359E+04  0.17304905551E+04  0.87191835348E+02 0.  0.
        254    2    1    2    0    0  0.17516446096E+03 -0.73039061968E+03  0.15793614775E+03  0.11800306020E+04  0.89631208241E+03 0.  0.
         23    2    4    4    0    0  0.48196768150E+03 -0.19732670527E+03  0.17657927544E+03  0.55759454637E+03  0.92199582470E+02 0.  0.
         23    2    4    4    0    0 -0.30680322054E+03 -0.53306391442E+03 -0.18643127687E+02  0.62243605558E+03  0.93774858498E+02 0.  0.
          4    1    3    3  502    0 -0.93031148128E+02  0.54827814663E+03  0.11646700281E+04  0.12906277523E+04  0.00000000000E+00 0. -1.
         -3    1    3    3    0  502 -0.82133312834E+02  0.18211247305E+03  0.39187810779E+03  0.43986280280E+03  0.00000000000E+00 0.  1.
         11    1    5    5    0    0  0.24168498534E+03 -0.51836729364E+02  0.98138415097E+02  0.26595079840E+03  0.00000000000E+00 0. -1.
        -11    1    5    5    0    0  0.24028269616E+03 -0.14548997590E+03  0.78440860340E+02  0.29164374798E+03  0.00000000000E+00 0.  1.
          2    1    6    6  503    0  0.34839298041E+01 -0.34209063957E+02 -0.53854285560E+01  0.34805181574E+02  0.00000000000E+00 0.  1.
         -2    1    6    6    0  503 -0.31028715034E+03 -0.49885485046E+03 -0.13257699131E+02  0.58763087400E+03  0.00000000000E+00 0. -1.
<mgrwt>
<rscale>  0 0.23519518E+04</rscale>
<asrwt>0</asrwt>
<pdfrwt beam="1">  1        2 0.35576964E+00 0.23519518E+04</pdfrwt>
<pdfrwt beam="2">  1       -1 0.92002838E-01 0.23519518E+04</pdfrwt>
<totfact> 0.52693208E+00</totfact>
</mgrwt>
</event>
<event>
12    6  0.8914180E-008  0.1820472E+04  0.7818608E-02  0.8695488E-01
          2   -1    0    0  501    0  0.00000000000E+00  0.00000000000E+00  0.66608187854E+03  0.66608187854E+03  0.00000000000E+00 0. -1.
         -1   -1    0    0    0  501 -0.00000000000E+00 -0.00000000000E+00 -0.12438850717E+04  0.12438850717E+04  0.00000000000E+00 0.  1.
         24    2    1    2    0    0  0.73450109803E+02  0.52381501799E+03  0.26980322123E+03  0.59898213102E+03  0.78795452872E+02 0.  0.
        254    2    1    2    0    0 -0.73450109803E+02 -0.52381501799E+03 -0.84760641441E+03  0.13109848192E+04  0.84880355254E+03 0.  0.
         23    2    4    4    0    0  0.36933146383E+03 -0.29411983942E+03 -0.51518122849E+03  0.70498149754E+03  0.93139699203E+02 0.  0.
         23    2    4    4    0    0 -0.44278157364E+03 -0.22969517857E+03 -0.33242518591E+03  0.60600332169E+03  0.88983844909E+02 0.  0.
          2    1    3    3  502    0  0.89287571968E+02  0.47886215043E+03  0.24583198148E+03  0.54563228711E+03  0.00000000000E+00 0. -1.
         -1    1    3    3    0  502 -0.15837462165E+02  0.44952867564E+02  0.23971239753E+02  0.53349843911E+02  0.00000000000E+00 0.  1.
         11    1    5    5    0    0  0.37536997705E+02 -0.53556618604E+02 -0.36756892234E+02  0.75022708027E+02  0.00000000000E+00 0.  1.
        -11    1    5    5    0    0  0.33179446613E+03 -0.24056322082E+03 -0.47842433626E+03  0.62995878952E+03  0.00000000000E+00 0. -1.
          4    1    6    6  503    0 -0.35306507272E+03 -0.20599947247E+03 -0.23519892761E+03  0.47160286660E+03  0.00000000000E+00 0. -1.
         -4    1    6    6    0  503 -0.89716500913E+02 -0.23695706098E+02 -0.97226258307E+02  0.13440045509E+03  0.00000000000E+00 0.  1.
<mgrwt>
<rscale>  0 0.18204717E+04</rscale>
<asrwt>0</asrwt>
<pdfrwt beam="1">  1        2 0.10247414E+00 0.18204717E+04</pdfrwt>
<pdfrwt beam="2">  1       -1 0.19136693E+00 0.18204717E+04</pdfrwt>
<totfact> 0.81127481E+00</totfact>
</mgrwt>
</event>
<event>
12    6  0.8914180E-008  0.1346719E+04  0.7818608E-02  0.8993316E-01
         -1   -1    0    0    0  501 -0.00000000000E+00  0.00000000000E+00  0.12234524596E+03  0.12234524596E+03  0.00000000000E+00 0.  1.
          2   -1    0    0  501    0  0.00000000000E+00 -0.00000000000E+00 -0.37060107916E+04  0.37060107916E+04  0.00000000000E+00 0. -1.
         24    2    1    2    0    0 -0.31792183553E+03  0.57465075795E+02 -0.14695613337E+04  0.15067993474E+04  0.80356899851E+02 0.  0.
        254    2    1    2    0    0  0.31792183553E+03 -0.57465075795E+02 -0.21141042120E+04  0.23215566902E+04  0.90322329369E+03 0.  0.
         23    2    4    4    0    0  0.60879221869E+03  0.86467560942E+02 -0.14078391826E+04  0.15392227412E+04  0.95346097231E+02 0.  0.
         23    2    4    4    0    0 -0.29087038316E+03 -0.14393263674E+03 -0.70626502938E+03  0.78233394902E+03  0.88960285232E+02 0.  0.
          2    1    3    3  502    0 -0.29010906843E+03  0.75295972517E+02 -0.13369988088E+04  0.13701819477E+04  0.00000000000E+00 0. -1.
         -1    1    3    3    0  502 -0.27812767101E+02 -0.17830896722E+02 -0.13256252489E+03  0.13661739969E+03  0.00000000000E+00 0.  1.
         11    1    5    5    0    0  0.92792866507E+02  0.17186934126E+02 -0.14199712243E+03  0.17049659691E+03  0.00000000000E+00 0. -1.
        -11    1    5    5    0    0  0.51599935219E+03  0.69280626816E+02 -0.12658420602E+04  0.13687261443E+04  0.00000000000E+00 0.  1.
          1    1    6    6  503    0 -0.13968983238E+03 -0.82672620833E+02 -0.45180245729E+03  0.48007652715E+03  0.00000000000E+00 0. -1.
         -1    1    6    6    0  503 -0.15118055078E+03 -0.61260015905E+02 -0.25446257209E+03  0.30225742187E+03  0.00000000000E+00 0.  1.
<mgrwt>
<rscale>  0 0.13467187E+04</rscale>
<asrwt>0</asrwt>
<pdfrwt beam="1">  1        2 0.57015555E+00 0.13467187E+04</pdfrwt>
<pdfrwt beam="2">  1       -1 0.18822344E-01 0.13467187E+04</pdfrwt>
<totfact> 0.14900102E+01</totfact>
</mgrwt>
</event>
<event>
12    6  0.8914180E-008  0.4154019E+04  0.7818608E-02  0.7974177E-01
         -1   -1    0    0    0  501 -0.00000000000E+00  0.00000000000E+00  0.19183750286E+04  0.19183750286E+04  0.00000000000E+00 0.  1.
          2   -1    0    0  501    0  0.00000000000E+00 -0.00000000000E+00 -0.22487614254E+04  0.22487614254E+04  0.00000000000E+00 0. -1.
         24    2    1    2    0    0 -0.97577094225E+03  0.16882169698E+04  0.19916207328E+03  0.19617102460E+04  0.80225240558E+02 0.  0.
        254    2    1    2    0    0  0.97577094225E+03 -0.16882169698E+04 -0.52954847005E+03  0.22054262080E+04  0.88389915031E+03 0.  0.
         23    2    4    4    0    0 -0.14047281885E+02 -0.47310144093E+03  0.13471089786E+03  0.50074197668E+03  0.92591585278E+02 0.  0.
         23    2    4    4    0    0  0.98981822413E+03 -0.12151155288E+04 -0.66425936791E+03  0.17046842313E+04  0.91988886929E+02 0.  0.
          2    1    3    3  502    0 -0.94208751779E+03  0.16101741937E+04  0.20353107521E+03  0.18765965799E+04  0.00000000000E+00 0. -1.
         -1    1    3    3    0  502 -0.33683424452E+02  0.78042776112E+02 -0.43690019236E+01  0.85113666140E+02  0.00000000000E+00 0.  1.
         11    1    5    5    0    0 -0.26547404299E+02 -0.33807524733E+03  0.13537079377E+03  0.36513680907E+03  0.00000000000E+00 0.  1.
        -11    1    5    5    0    0  0.12500122414E+02 -0.13502619360E+03 -0.65989591169E+00  0.13560516761E+03  0.00000000000E+00 0. -1.
          4    1    6    6  503    0  0.34360099806E+03 -0.40115129840E+03 -0.17912611325E+03  0.55773665338E+03  0.00000000000E+00 0. -1.
         -4    1    6    6    0  503  0.64621722607E+03 -0.81396423043E+03 -0.48513325466E+03  0.11469475779E+04  0.00000000000E+00 0.  1.
<mgrwt>
<rscale>  0 0.41540187E+04</rscale>
<asrwt>0</asrwt>
<pdfrwt beam="1">  1        2 0.34596329E+00 0.41540187E+04</pdfrwt>
<pdfrwt beam="2">  1       -1 0.29513462E+00 0.41540187E+04</pdfrwt>
<totfact> 0.15252981E-01</totfact>
</mgrwt>
</event>
<event>
12    6  0.8914180E-008  0.1655072E+04  0.7818608E-02  0.8787412E-01
          2   -1    0    0  501    0  0.00000000000E+00  0.00000000000E+00  0.32139652222E+04  0.32139652222E+04  0.00000000000E+00 0. -1.
         -1   -1    0    0    0  501 -0.00000000000E+00 -0.00000000000E+00 -0.21307503287E+03  0.21307503287E+03  0.00000000000E+00 0.  1.
         24    2    1    2    0    0  0.40224909587E+03  0.40156202580E+03  0.85308878976E+03  0.10279698525E+04  0.76844901081E+02 0.  0.
        254    2    1    2    0    0 -0.40224909587E+03 -0.40156202580E+03  0.21478013996E+04  0.23990704025E+04  0.90522458464E+03 0.  0.
         23    2    4    4    0    0 -0.48360259703E+03 -0.49007564528E+03  0.87515748024E+03  0.11174217293E+04  0.93193862205E+02 0.  0.
         23    2    4    4    0    0  0.81353501158E+02  0.88513619477E+02  0.12726439193E+04  0.12816486732E+04  0.92453897727E+02 0.  0.
          2    1    3    3  502    0  0.69635122848E+02  0.72564037399E+02  0.20861257448E+03  0.23158971499E+03  0.00000000000E+00 0. -1.
         -1    1    3    3    0  502  0.33261397302E+03  0.32899798840E+03  0.64447621528E+03  0.79638013755E+03  0.00000000000E+00 0.  1.
         11    1    5    5    0    0 -0.36622788239E+03 -0.36892865686E+03  0.59212491025E+03  0.78793599044E+03  0.00000000000E+00 0. -1.
        -11    1    5    5    0    0 -0.11737471464E+03 -0.12114698842E+03  0.28303256999E+03  0.32948573886E+03  0.00000000000E+00 0.  1.
          3    1    6    6  503    0  0.10097688418E+03  0.65773027294E+02  0.10753571727E+04  0.10820884765E+04  0.00000000000E+00 0. -1.
         -3    1    6    6    0  503 -0.19623383021E+02  0.22740592183E+02  0.19728674666E+03  0.19956019669E+03  0.00000000000E+00 0.  1.
<mgrwt>
<rscale>  0 0.16550719E+04</rscale>
<asrwt>0</asrwt>
<pdfrwt beam="1">  1        2 0.49445615E+00 0.16550719E+04</pdfrwt>
<pdfrwt beam="2">  1       -1 0.32780777E-01 0.16550719E+04</pdfrwt>
<totfact> 0.12132668E+01</totfact>
</mgrwt>
</event>
<event>
12    6  0.8914180E-008  0.1219478E+04  0.7818608E-02  0.9095976E-01
         -1   -1    0    0    0  501 -0.00000000000E+00  0.00000000000E+00  0.16835961579E+03  0.16835961579E+03  0.00000000000E+00 0.  1.
          2   -1    0    0  501    0  0.00000000000E+00 -0.00000000000E+00 -0.22082607788E+04  0.22082607788E+04  0.00000000000E+00 0. -1.
         24    2    1    2    0    0  0.12001548906E+03 -0.69236635569E+02 -0.97347605738E+03  0.98654811558E+03  0.80150612827E+02 0.  0.
        254    2    1    2    0    0 -0.12001548906E+03  0.69236635569E+02 -0.10664251056E+04  0.13900722790E+04  0.88081837266E+03 0.  0.
         23    2    4    4    0    0 -0.70857865828E+02 -0.10882400046E+03 -0.11548340673E+04  0.11655334575E+04  0.89235739415E+02 0.  0.
         23    2    4    4    0    0 -0.49157623228E+02  0.17806063603E+03  0.88408961755E+02  0.22453882149E+03  0.92084069270E+02 0.  0.
          2    1    3    3  502    0  0.88069638476E+02 -0.65809207334E+02 -0.49816581495E+03  0.51015320461E+03  0.00000000000E+00 0. -1.
         -1    1    3    3    0  502  0.31945850580E+02 -0.34274282355E+01 -0.47531024243E+03  0.47639491097E+03  0.00000000000E+00 0.  1.
         11    1    5    5    0    0 -0.16508498859E+02  0.12443386323E+02 -0.85013438360E+02  0.87490874378E+02  0.00000000000E+00 0. -1.
        -11    1    5    5    0    0 -0.54349366969E+02 -0.12126738678E+03 -0.10698206290E+04  0.10780425831E+04  0.00000000000E+00 0.  1.
          4    1    6    6  503    0  0.24010387858E+02  0.42835075828E+02  0.40034461086E+02  0.63356929540E+02  0.00000000000E+00 0. -1.
         -4    1    6    6    0  503 -0.73168011086E+02  0.13522556020E+03  0.48374500669E+02  0.16118189195E+03  0.00000000000E+00 0.  1.
<mgrwt>
<rscale>  0 0.12194785E+04</rscale>
<asrwt>0</asrwt>
<pdfrwt beam="1">  1        2 0.33973243E+00 0.12194785E+04</pdfrwt>
<pdfrwt beam="2">  1       -1 0.25901479E-01 0.12194785E+04</pdfrwt>
<totfact> 0.75792730E+01</totfact>
</mgrwt>
</event>
<event>
12    6  0.8914180E-008  0.1497218E+04  0.7818608E-02  0.8886305E-01
          2   -1    0    0  501    0  0.00000000000E+00  0.00000000000E+00  0.11846298062E+04  0.11846298062E+04  0.00000000000E+00 0. -1.
         -1   -1    0    0    0  501 -0.00000000000E+00 -0.00000000000E+00 -0.47307224697E+03  0.47307224697E+03  0.00000000000E+00 0.  1.
         24    2    1    2    0    0 -0.66323482376E+02 -0.32495616417E+03  0.59612701303E+03  0.68670410321E+03  0.78738788125E+02 0.  0.
        254    2    1    2    0    0  0.66323482376E+02  0.32495616417E+03  0.11543054622E+03  0.97099794998E+03  0.90527205575E+03 0.  0.
         23    2    4    4    0    0  0.46145307887E+03  0.24125859729E+03  0.16790566623E+03  0.55476104847E+03  0.91776104641E+02 0.  0.
         23    2    4    4    0    0 -0.39512959649E+03  0.83697566881E+02 -0.52475120012E+02  0.41623690151E+03  0.85830293218E+02 0.  0.
          4    1    3    3  502    0 -0.55239538167E+02 -0.32483825367E+03  0.58129129267E+03  0.66818475332E+03  0.00000000000E+00 0. -1.
         -3    1    3    3    0  502 -0.11083944209E+02 -0.11791050259E+00  0.14835720359E+02  0.18519349899E+02  0.00000000000E+00 0.  1.
         11    1    5    5    0    0  0.15851166635E+02  0.27062301197E+02 -0.33264855288E+01  0.31538756090E+02  0.00000000000E+00 0.  1.
        -11    1    5    5    0    0  0.44560191223E+03  0.21419629610E+03  0.17123215176E+03  0.52322229238E+03  0.00000000000E+00 0. -1.
          4    1    6    6  503    0 -0.38175071848E+03  0.65847489206E+02 -0.61374695987E+02  0.39221978049E+03  0.00000000000E+00 0. -1.
         -4    1    6    6    0  503 -0.13378878008E+02  0.17850077675E+02  0.88995759749E+01  0.24017121024E+02  0.00000000000E+00 0.  1.
<mgrwt>
<rscale>  0 0.14972181E+04</rscale>
<asrwt>0</asrwt>
<pdfrwt beam="1">  1        2 0.18225074E+00 0.14972181E+04</pdfrwt>
<pdfrwt beam="2">  1       -1 0.72780346E-01 0.14972181E+04</pdfrwt>
<totfact> 0.40588438E+01</totfact>
</mgrwt>
</event>
<event>
12    6  0.8914180E-008  0.1793016E+04  0.7818608E-02  0.8710023E-01
         -1   -1    0    0    0  501 -0.00000000000E+00  0.00000000000E+00  0.34360044605E+03  0.34360044605E+03  0.00000000000E+00 0.  1.
          2   -1    0    0  501    0  0.00000000000E+00 -0.00000000000E+00 -0.23391302738E+04  0.23391302738E+04  0.00000000000E+00 0. -1.
         24    2    1    2    0    0  0.30871735019E+03 -0.12643520307E+03  0.12377029245E+03  0.36476638523E+03  0.80269344194E+02 0.  0.
        254    2    1    2    0    0 -0.30871735019E+03  0.12643520307E+03 -0.21193001202E+04  0.23179643346E+04  0.87762941737E+03 0.  0.
         23    2    4    4    0    0 -0.30646823527E+03  0.47755521655E+03 -0.12978234370E+04  0.14193775246E+04  0.91132429049E+02 0.  0.
         23    2    4    4    0    0 -0.22491149226E+01 -0.35112001348E+03 -0.82147668318E+03  0.89858681001E+03  0.96664325026E+02 0.  0.
          2    1    3    3  502    0  0.32669351744E+02 -0.22876259269E+02 -0.98287395068E+01  0.41075709390E+02  0.00000000000E+00 0. -1.
         -1    1    3    3    0  502  0.27604799845E+03 -0.10355894380E+03  0.13359903195E+03  0.32369067584E+03  0.00000000000E+00 0.  1.
         11    1    5    5    0    0 -0.82822889340E+02  0.77246995685E+02 -0.31798135209E+03  0.33754832190E+03  0.00000000000E+00 0.  1.
        -11    1    5    5    0    0 -0.22364534593E+03  0.40030822087E+03 -0.97984208490E+03  0.10818292027E+04  0.00000000000E+00 0. -1.
          3    1    6    6  503    0 -0.40589946555E+02 -0.28277631768E+03 -0.65510469246E+03  0.71468324990E+03  0.00000000000E+00 0. -1.
         -3    1    6    6    0  503  0.38340831633E+02 -0.68343695797E+02 -0.16637199072E+03  0.18390356011E+03  0.00000000000E+00 0.  1.
<mgrwt>
<rscale>  0 0.17930156E+04</rscale>
<asrwt>0</asrwt>
<pdfrwt beam="1">  1        2 0.35986622E+00 0.17930156E+04</pdfrwt>
<pdfrwt beam="2">  1       -1 0.52861604E-01 0.17930156E+04</pdfrwt>
<totfact> 0.16723950E+01</totfact>
</mgrwt>
</event>
<event>
12    6  0.8914180E-008  0.1267042E+04  0.7818608E-02  0.9056117E-01
          2   -1    0    0  501    0  0.00000000000E+00  0.00000000000E+00  0.10032018044E+04  0.10032018044E+04  0.00000000000E+00 0. -1.
         -1   -1    0    0    0  501 -0.00000000000E+00 -0.00000000000E+00 -0.40006783079E+03  0.40006783079E+03  0.00000000000E+00 0.  1.
         24    2    1    2    0    0 -0.53089262202E+02 -0.19922251492E+03 -0.10786612187E+03  0.24377701969E+03  0.72691504787E+02 0.  0.
        254    2    1    2    0    0  0.53089262202E+02  0.19922251492E+03  0.71100009550E+03  0.11594926155E+04  0.89240904827E+03 0.  0.
         23    2    4    4    0    0  0.20765354391E+03  0.27702149781E+03 -0.61083863100E+02  0.36288551492E+03  0.89965293616E+02 0.  0.
         23    2    4    4    0    0 -0.15456428171E+03 -0.77798982895E+02  0.77208395860E+03  0.79660710060E+03  0.92338695483E+02 0.  0.
          4    1    3    3  502    0  0.16423029202E+02 -0.45503967368E+02 -0.12428178629E+02  0.49947838376E+02  0.00000000000E+00 0. -1.
         -3    1    3    3    0  502 -0.69512291405E+02 -0.15371854755E+03 -0.95437943239E+02  0.19382918131E+03  0.00000000000E+00 0.  1.
         11    1    5    5    0    0  0.17218224475E+03  0.24855847854E+03 -0.22434317445E+02  0.30320181605E+03  0.00000000000E+00 0.  1.
        -11    1    5    5    0    0  0.35471299165E+02  0.28463019279E+02 -0.38649545656E+02  0.59683698866E+02  0.00000000000E+00 0. -1.
          2    1    6    6  503    0 -0.81874061713E+02  0.43102413477E+01  0.24896360218E+03  0.26211603418E+03  0.00000000000E+00 0. -1.
         -2    1    6    6    0  503 -0.72690219998E+02 -0.82109224243E+02  0.52312035642E+03  0.53449106643E+03  0.00000000000E+00 0.  1.
<mgrwt>
<rscale>  0 0.12670419E+04</rscale>
<asrwt>0</asrwt>
<pdfrwt beam="1">  1        2 0.15433874E+00 0.12670419E+04</pdfrwt>
<pdfrwt beam="2">  1       -1 0.61548897E-01 0.12670419E+04</pdfrwt>
<totfact> 0.75220881E+01</totfact>
</mgrwt>
</event>
<event>
12    6  0.8914180E-008  0.1308183E+04  0.7818608E-02  0.9023101E-01
         -1   -1    0    0    0  501 -0.00000000000E+00  0.00000000000E+00  0.16484620027E+03  0.16484620027E+03  0.00000000000E+00 0.  1.
          2   -1    0    0  501    0  0.00000000000E+00 -0.00000000000E+00 -0.25953612783E+04  0.25953612783E+04  0.00000000000E+00 0. -1.
         24    2    1    2    0    0 -0.21111563350E+03 -0.20196248020E+03 -0.29104299838E+03  0.41968782089E+03  0.77930648516E+02 0.  0.
        254    2    1    2    0    0  0.21111563350E+03  0.20196248020E+03 -0.21394720796E+04  0.23405196577E+04  0.90295782529E+03 0.  0.
         23    2    4    4    0    0  0.34191924123E+03  0.11276445030E+03 -0.26331139739E+03  0.45587075605E+03  0.94131107731E+02 0.  0.
         23    2    4    4    0    0 -0.13080360774E+03  0.89198029896E+02 -0.18761606822E+04  0.18846489016E+04  0.82805219937E+02 0.  0.
          4    1    3    3  502    0 -0.11455955421E+02 -0.48255935630E+02 -0.36994923717E+02  0.61874862578E+02  0.00000000000E+00 0. -1.
         -3    1    3    3    0  502 -0.19965967808E+03 -0.15370654457E+03 -0.25404807467E+03  0.35781295831E+03  0.00000000000E+00 0.  1.
         11    1    5    5    0    0  0.63167924489E+02  0.44643857747E+02 -0.20629129694E+02  0.80055116705E+02  0.00000000000E+00 0. -1.
        -11    1    5    5    0    0  0.27875131674E+03  0.68120592557E+02 -0.24268226770E+03  0.37581563934E+03  0.00000000000E+00 0.  1.
          4    1    6    6  503    0 -0.30265069627E+02  0.35900760629E+02 -0.10038400627E+04  0.10049376650E+04  0.00000000000E+00 0. -1.
         -4    1    6    6    0  503 -0.10053853811E+03  0.53297269267E+02 -0.87232061956E+03  0.87971123663E+03  0.00000000000E+00 0.  1.
<mgrwt>
<rscale>  0 0.13081826E+04</rscale>
<asrwt>0</asrwt>
<pdfrwt beam="1">  1        2 0.39928633E+00 0.13081826E+04</pdfrwt>
<pdfrwt beam="2">  1       -1 0.25360955E-01 0.13081826E+04</pdfrwt>
<totfact> 0.46962443E+01</totfact>
</mgrwt>
</event>
<event>
12    6  0.8914180E-008  0.2036145E+04  0.7818608E-02  0.8589906E-01
         -1   -1    0    0    0  501 -0.00000000000E+00  0.00000000000E+00  0.66621798452E+03  0.66621798452E+03  0.00000000000E+00 0.  1.
          2   -1    0    0  501    0  0.00000000000E+00 -0.00000000000E+00 -0.15557539610E+04  0.15557539610E+04  0.00000000000E+00 0. -1.
         24    2    1    2    0    0  0.49080997721E+03 -0.62630925887E+03 -0.16268092469E+03  0.81679322131E+03  0.86766131934E+02 0.  0.
        254    2    1    2    0    0 -0.49080997721E+03  0.62630925887E+03 -0.72685505184E+03  0.14051787243E+04  0.90169355063E+03 0.  0.
         23    2    4    4    0    0 -0.39765245912E+03  0.81444639107E+03 -0.74032129255E+03  0.11738076520E+04  0.91095475086E+02 0.  0.
         23    2    4    4    0    0 -0.93157518090E+02 -0.18813713220E+03  0.13466240715E+02  0.23137107223E+03  0.96318896041E+02 0.  0.
          4    1    3    3  502    0  0.22172992871E+03 -0.33337813892E+03 -0.11246170367E+03  0.41587591850E+03  0.00000000000E+00 0. -1.
         -3    1    3    3    0  502  0.26908004850E+03 -0.29293111995E+03 -0.50219221021E+02  0.40091730281E+03  0.00000000000E+00 0.  1.
         11    1    5    5    0    0 -0.29697825843E+03  0.67006385917E+03 -0.56551006751E+03  0.92573392387E+03  0.00000000000E+00 0.  1.
        -11    1    5    5    0    0 -0.10067420068E+03  0.14438253190E+03 -0.17481122504E+03  0.24807372816E+03  0.00000000000E+00 0. -1.
          4    1    6    6  503    0 -0.91427943034E+00 -0.82111651433E+02  0.34872552408E+02  0.89214651933E+02  0.00000000000E+00 0. -1.
         -4    1    6    6    0  503 -0.92243238659E+02 -0.10602548077E+03 -0.21406311693E+02  0.14215642029E+03  0.00000000000E+00 0.  1.
<mgrwt>
<rscale>  0 0.20361447E+04</rscale>
<asrwt>0</asrwt>
<pdfrwt beam="1">  1        2 0.23934676E+00 0.20361447E+04</pdfrwt>
<pdfrwt beam="2">  1       -1 0.10249507E+00 0.20361447E+04</pdfrwt>
<totfact> 0.11221047E+01</totfact>
</mgrwt>
</event>
<event>
12    6  0.8914180E-008  0.1651313E+04  0.7818608E-02  0.8789630E-01
          2   -1    0    0  501    0  0.00000000000E+00  0.00000000000E+00  0.45256756734E+04  0.45256756734E+04  0.00000000000E+00 0. -1.
         -1   -1    0    0    0  501 -0.00000000000E+00 -0.00000000000E+00 -0.15063134959E+03  0.15063134959E+03  0.00000000000E+00 0.  1.
         24    2    1    2    0    0  0.52444580061E+03  0.16274987017E+03  0.10316596634E+04  0.11713901267E+04  0.79386710681E+02 0.  0.
        254    2    1    2    0    0 -0.52444580061E+03 -0.16274987017E+03  0.33433846605E+04  0.35049168963E+04  0.89704545284E+03 0.  0.
         23    2    4    4    0    0 -0.52252702991E+03 -0.24792844114E+03  0.33307576643E+04  0.33819135454E+04  0.94284683964E+02 0.  0.
         23    2    4    4    0    0 -0.19187706941E+01  0.85178570974E+02  0.12626996198E+02  0.12300335094E+03  0.87814080166E+02 0.  0.
          2    1    3    3  502    0  0.43908814361E+00  0.65337783277E+01  0.51533482231E+01  0.83330699950E+01  0.00000000000E+00 0. -1.
         -1    1    3    3    0  502  0.52400671246E+03  0.15621609184E+03  0.10265063151E+04  0.11630570567E+04  0.00000000000E+00 0.  1.
         11    1    5    5    0    0 -0.13054129120E+03 -0.93164002233E+02  0.11094634309E+04  0.11209949440E+04  0.00000000000E+00 0. -1.
        -11    1    5    5    0    0 -0.39198573871E+03 -0.15476443891E+03  0.22212942334E+04  0.22609186014E+04  0.00000000000E+00 0.  1.
          3    1    6    6  503    0 -0.39800489872E+02  0.58078845890E+02  0.25162627056E+02  0.74768904862E+02  0.00000000000E+00 0. -1.
         -3    1    6    6    0  503  0.37881719177E+02  0.27099725084E+02 -0.12535630858E+02  0.48234446078E+02  0.00000000000E+00 0.  1.
<mgrwt>
<rscale>  0 0.16513130E+04</rscale>
<asrwt>0</asrwt>
<pdfrwt beam="1">  1        2 0.69625769E+00 0.16513130E+04</pdfrwt>
<pdfrwt beam="2">  1       -1 0.23174057E-01 0.16513130E+04</pdfrwt>
<totfact> 0.20731273E+00</totfact>
</mgrwt>
</event>
<event>
12    6  0.8914180E-008  0.1904200E+04  0.7818608E-02  0.8652769E-01
         -1   -1    0    0    0  501 -0.00000000000E+00  0.00000000000E+00  0.82484349517E+03  0.82484349517E+03  0.00000000000E+00 0.  1.
          2   -1    0    0  501    0  0.00000000000E+00 -0.00000000000E+00 -0.10989895190E+04  0.10989895190E+04  0.00000000000E+00 0. -1.
         24    2    1    2    0    0  0.55544537522E+03  0.69924112077E+02  0.37375988721E+03  0.67801620539E+03  0.81243923971E+02 0.  0.
        254    2    1    2    0    0 -0.55544537522E+03 -0.69924112077E+02 -0.64790591106E+03  0.12458168088E+04  0.90491353464E+03 0.  0.
         23    2    4    4    0    0 -0.66767310721E+03 -0.33487852560E+03 -0.38235048391E+03  0.84402111691E+03  0.90822619641E+02 0.  0.
         23    2    4    4    0    0  0.11222773199E+03  0.26495441352E+03 -0.26555542714E+03  0.40179569188E+03  0.90134277935E+02 0.  0.
          4    1    3    3  502    0  0.34182812750E+03  0.60157547052E+02  0.27323072231E+03  0.44172437880E+03  0.00000000000E+00 0. -1.
         -3    1    3    3    0  502  0.21361724772E+03  0.97665650248E+01  0.10052916491E+03  0.23629182659E+03  0.00000000000E+00 0.  1.
         11    1    5    5    0    0 -0.21260338086E+03 -0.14145511248E+03 -0.97294798624E+02  0.27326914249E+03  0.00000000000E+00 0.  1.
        -11    1    5    5    0    0 -0.45506972635E+03 -0.19342341312E+03 -0.28505568529E+03  0.57075197441E+03  0.00000000000E+00 0. -1.
          1    1    6    6  503    0  0.10319503326E+03  0.22564934343E+03 -0.26271393984E+03  0.36136609590E+03  0.00000000000E+00 0. -1.
         -1    1    6    6    0  503  0.90326987308E+01  0.39305070090E+02 -0.28414873013E+01  0.40429595982E+02  0.00000000000E+00 0.  1.
<mgrwt>
<rscale>  0 0.19041999E+04</rscale>
<asrwt>0</asrwt>
<pdfrwt beam="1">  1        2 0.16907531E+00 0.19041999E+04</pdfrwt>
<pdfrwt beam="2">  1       -1 0.12689900E+00 0.19041999E+04</pdfrwt>
<totfact> 0.12556583E+01</totfact>
</mgrwt>
</event>
<event>
12    6  0.8914180E-008  0.1589600E+04  0.7818608E-02  0.8826963E-01
          2   -1    0    0  501    0  0.00000000000E+00  0.00000000000E+00  0.28052722587E+04  0.28052722587E+04  0.00000000000E+00 0. -1.
         -1   -1    0    0    0  501 -0.00000000000E+00 -0.00000000000E+00 -0.22518560735E+03  0.22518560735E+03  0.00000000000E+00 0.  1.
         24    2    1    2    0    0 -0.26977610100E+03 -0.26141517831E+03  0.14412357389E+03  0.40988635966E+03  0.78218815933E+02 0.  0.
        254    2    1    2    0    0  0.26977610100E+03  0.26141517831E+03  0.24359630775E+04  0.26205715064E+04  0.89014710310E+03 0.  0.
         23    2    4    4    0    0  0.90605445172E+02  0.37955410362E+03  0.38244908758E+03  0.55367290665E+03  0.89530546188E+02 0.  0.
         23    2    4    4    0    0  0.17917065583E+03 -0.11813892531E+03  0.20535139899E+04  0.20668985997E+04  0.95347707542E+02 0.  0.
          4    1    3    3  502    0 -0.16490000484E+03 -0.16444056117E+03  0.48165890522E+02  0.23780803763E+03  0.00000000000E+00 0. -1.
         -3    1    3    3    0  502 -0.10487609616E+03 -0.96974617144E+02  0.95957683365E+02  0.17207832203E+03  0.00000000000E+00 0.  1.
         11    1    5    5    0    0  0.37348339766E+02  0.24988066753E+03  0.29518165405E+03  0.38854530673E+03  0.00000000000E+00 0. -1.
        -11    1    5    5    0    0  0.53257105406E+02  0.12967343609E+03  0.87267433527E+02  0.16512759992E+03  0.00000000000E+00 0.  1.
          1    1    6    6  503    0  0.15769430009E+03 -0.12994828149E+03  0.16437279223E+04  0.16563802494E+04  0.00000000000E+00 0. -1.
         -1    1    6    6    0  503  0.21476355734E+02  0.11809356184E+02  0.40978606759E+03  0.41051835030E+03  0.00000000000E+00 0.  1.
<mgrwt>
<rscale>  0 0.15895999E+04</rscale>
<asrwt>0</asrwt>
<pdfrwt beam="1">  1        2 0.43158032E+00 0.15895999E+04</pdfrwt>
<pdfrwt beam="2">  1       -1 0.34643942E-01 0.15895999E+04</pdfrwt>
<totfact> 0.19912553E+01</totfact>
</mgrwt>
</event>
<event>
12    6  0.8914180E-008  0.1933509E+04  0.7818608E-02  0.8638354E-01
         -1   -1    0    0    0  501 -0.00000000000E+00  0.00000000000E+00  0.68935253741E+03  0.68935253741E+03  0.00000000000E+00 0.  1.
          2   -1    0    0  501    0  0.00000000000E+00 -0.00000000000E+00 -0.13557856311E+04  0.13557856311E+04  0.00000000000E+00 0. -1.
         24    2    1    2    0    0 -0.41744052432E+02 -0.47610195601E+03 -0.88038726965E+03  0.10048087099E+04  0.78378315968E+02 0.  0.
        254    2    1    2    0    0  0.41744052432E+02  0.47610195601E+03  0.21395417592E+03  0.10403294587E+04  0.89894012860E+03 0.  0.
         23    2    4    4    0    0  0.42886047000E+03  0.42154538323E+03  0.19387000455E+03  0.63843007796E+03  0.91572773950E+02 0.  0.
         23    2    4    4    0    0 -0.38711641757E+03  0.54556572782E+02  0.20084171378E+02  0.40189938074E+03  0.91017569262E+02 0.  0.
          2    1    3    3  502    0 -0.47636732230E+02 -0.41060697167E+03 -0.70165395350E+03  0.81436209016E+03  0.00000000000E+00 0. -1.
         -1    1    3    3    0  502  0.58926797982E+01 -0.65494984342E+02 -0.17873331616E+03  0.19044661970E+03  0.00000000000E+00 0.  1.
         11    1    5    5    0    0  0.15539449031E+03  0.16587907728E+03  0.28173321472E+02  0.22903504522E+03  0.00000000000E+00 0.  1.
        -11    1    5    5    0    0  0.27346597969E+03  0.25566630594E+03  0.16569668307E+03  0.40939503273E+03  0.00000000000E+00 0. -1.
          3    1    6    6  503    0 -0.37731413810E+03  0.61948653933E+02  0.49318698112E+01  0.38239759135E+03  0.00000000000E+00 0. -1.
         -3    1    6    6    0  503 -0.98022794721E+01 -0.73920811507E+01  0.15152301567E+02  0.19501789389E+02  0.00000000000E+00 0.  1.
<mgrwt>
<rscale>  0 0.19335090E+04</rscale>
<asrwt>0</asrwt>
<pdfrwt beam="1">  1        2 0.20858240E+00 0.19335090E+04</pdfrwt>
<pdfrwt beam="2">  1       -1 0.10605424E+00 0.19335090E+04</pdfrwt>
<totfact> 0.13586541E+01</totfact>
</mgrwt>
</event>
<event>
12    6  0.8914180E-008  0.2738870E+04  0.7818608E-02  0.8322502E-01
         -1   -1    0    0    0  501 -0.00000000000E+00  0.00000000000E+00  0.41455071244E+03  0.41455071244E+03  0.00000000000E+00 0.  1.
          2   -1    0    0  501    0  0.00000000000E+00 -0.00000000000E+00 -0.45238200651E+04  0.45238200651E+04  0.00000000000E+00 0. -1.
         24    2    1    2    0    0 -0.53810715352E+03 -0.25469199687E+03  0.79097427190E+02  0.60564572099E+03  0.78249692791E+02 0.  0.
        254    2    1    2    0    0  0.53810715352E+03  0.25469199687E+03 -0.41883667799E+04  0.43327250566E+04  0.93576856709E+03 0.  0.
         23    2    4    4    0    0 -0.14004833846E+03  0.80116088092E+02 -0.24399505757E+04  0.24469886143E+04  0.91445843305E+02 0.  0.
         23    2    4    4    0    0  0.67815549198E+03  0.17457590878E+03 -0.17484162042E+04  0.18857364422E+04  0.93118672948E+02 0.  0.
          4    1    3    3  502    0 -0.38890700357E+03 -0.15617921643E+03  0.80979779202E+02  0.42684696286E+03  0.00000000000E+00 0. -1.
         -3    1    3    3    0  502 -0.14920014995E+03 -0.98512780446E+02 -0.18823520118E+01  0.17879875812E+03  0.00000000000E+00 0.  1.
         11    1    5    5    0    0 -0.59221674731E+02 -0.10790651947E+02 -0.10505603642E+04  0.10522835757E+04  0.00000000000E+00 0.  1.
        -11    1    5    5    0    0 -0.80826663733E+02  0.90906740038E+02 -0.13893902115E+04  0.13947050386E+04  0.00000000000E+00 0. -1.
          1    1    6    6  503    0  0.33022431485E+02  0.16722525876E+02 -0.51066299335E+02  0.63070522280E+02  0.00000000000E+00 0. -1.
         -1    1    6    6    0  503  0.64513306050E+03  0.15785338290E+03 -0.16973499049E+04  0.18226659199E+04  0.00000000000E+00 0.  1.
<mgrwt>
<rscale>  0 0.27388704E+04</rscale>
<asrwt>0</asrwt>
<pdfrwt beam="1">  1        2 0.69597235E+00 0.27388704E+04</pdfrwt>
<pdfrwt beam="2">  1       -1 0.63777030E-01 0.27388704E+04</pdfrwt>
<totfact> 0.28970877E-01</totfact>
</mgrwt>
</event>
<event>
12    6  0.8914180E-008  0.1725686E+04  0.7818608E-02  0.8746849E-01
         -1   -1    0    0    0  501 -0.00000000000E+00  0.00000000000E+00  0.28043222864E+03  0.28043222864E+03  0.00000000000E+00 0.  1.
          2   -1    0    0  501    0  0.00000000000E+00 -0.00000000000E+00 -0.26548232203E+04  0.26548232203E+04  0.00000000000E+00 0. -1.
         24    2    1    2    0    0  0.24386665608E+03 -0.11323022020E+03  0.93226658777E+02  0.29582886398E+03  0.80817560859E+02 0.  0.
        254    2    1    2    0    0 -0.24386665608E+03  0.11323022020E+03 -0.24676176504E+04  0.26394265850E+04  0.89729805522E+03 0.  0.
         23    2    4    4    0    0 -0.34784492109E+03  0.39656360813E+03 -0.20340049848E+04  0.21032869305E+04  0.91546977384E+02 0.  0.
         23    2    4    4    0    0  0.10397826501E+03 -0.28333338793E+03 -0.43361266560E+03  0.53613965449E+03  0.91304419631E+02 0.  0.
          2    1    3    3  502    0  0.28250437781E+02 -0.11914480384E+02 -0.15037233686E+02  0.34149091856E+02  0.00000000000E+00 0. -1.
         -1    1    3    3    0  502  0.21561621830E+03 -0.10131573981E+03  0.10826389246E+03  0.26167977212E+03  0.00000000000E+00 0.  1.
         11    1    5    5    0    0 -0.17304191061E+03  0.18355378704E+03 -0.79728483014E+03  0.83624075237E+03  0.00000000000E+00 0.  1.
        -11    1    5    5    0    0 -0.17480301048E+03  0.21300982109E+03 -0.12367201547E+04  0.12670461781E+04  0.00000000000E+00 0. -1.
          4    1    6    6  503    0  0.32404642785E+02 -0.20524483929E+03 -0.26092972731E+03  0.33355633335E+03  0.00000000000E+00 0. -1.
         -4    1    6    6    0  503  0.71573622224E+02 -0.78088548643E+02 -0.17268293829E+03  0.20258332114E+03  0.00000000000E+00 0.  1.
<mgrwt>
<rscale>  0 0.17256859E+04</rscale>
<asrwt>0</asrwt>
<pdfrwt beam="1">  1        2 0.40843433E+00 0.17256859E+04</pdfrwt>
<pdfrwt beam="2">  1       -1 0.43143420E-01 0.17256859E+04</pdfrwt>
<totfact> 0.16217830E+01</totfact>
</mgrwt>
</event>
<event>
12    6  0.8914180E-008  0.1583346E+04  0.7818608E-02  0.8830845E-01
          2   -1    0    0  501    0  0.00000000000E+00  0.00000000000E+00  0.12153278124E+04  0.12153278124E+04  0.00000000000E+00 0. -1.
         -1   -1    0    0    0  501 -0.00000000000E+00 -0.00000000000E+00 -0.51570111814E+03  0.51570111814E+03  0.00000000000E+00 0.  1.
         24    2    1    2    0    0 -0.17400197677E+02 -0.45444767691E+03  0.62972526219E+03  0.78249702113E+03  0.94457526466E+02 0.  0.
        254    2    1    2    0    0  0.17400197677E+02  0.45444767691E+03  0.69901432109E+02  0.94853190945E+03  0.82945832632E+03 0.  0.
         23    2    4    4    0    0 -0.19105450837E+03  0.60141387039E+03 -0.71572922398E+02  0.64273489506E+03  0.98919125776E+02 0.  0.
         23    2    4    4    0    0  0.20845470605E+03 -0.14696619348E+03  0.14147435451E+03  0.30579701439E+03  0.91893386749E+02 0.  0.
          4    1    3    3  502    0 -0.31656190497E+02 -0.44713841895E+03  0.61202223111E+03  0.75862117785E+03  0.00000000000E+00 0. -1.
         -3    1    3    3    0  502  0.14255992819E+02 -0.73092579613E+01  0.17703031071E+02  0.23875843280E+02  0.00000000000E+00 0.  1.
         11    1    5    5    0    0 -0.88693963398E+02  0.38628950965E+03 -0.80068906900E+02  0.40434791240E+03  0.00000000000E+00 0. -1.
        -11    1    5    5    0    0 -0.10236054497E+03  0.21512436074E+03  0.84959845021E+01  0.23838698266E+03  0.00000000000E+00 0.  1.
          2    1    6    6  503    0  0.98362302439E+02 -0.10024971582E+03  0.11905960822E+03  0.18412044529E+03  0.00000000000E+00 0. -1.
         -2    1    6    6    0  503  0.11009240361E+03 -0.46716477654E+02  0.22414746283E+02  0.12167656910E+03  0.00000000000E+00 0.  1.
<mgrwt>
<rscale>  0 0.15833457E+04</rscale>
<asrwt>0</asrwt>
<pdfrwt beam="1">  1        2 0.18697351E+00 0.15833457E+04</pdfrwt>
<pdfrwt beam="2">  1       -1 0.79338634E-01 0.15833457E+04</pdfrwt>
<totfact> 0.32240072E+01</totfact>
</mgrwt>
</event>
<event>
12    6  0.8914180E-008  0.2189093E+04  0.7818608E-02  0.8522982E-01
          2   -1    0    0  501    0  0.00000000000E+00  0.00000000000E+00  0.12641271887E+04  0.12641271887E+04  0.00000000000E+00 0. -1.
         -1   -1    0    0    0  501 -0.00000000000E+00 -0.00000000000E+00 -0.94771481884E+03  0.94771481884E+03  0.00000000000E+00 0.  1.
         24    2    1    2    0    0  0.35541339920E+03  0.11520229416E+03  0.96855840567E+03  0.10411352397E+04  0.79164065758E+02 0.  0.
        254    2    1    2    0    0 -0.35541339920E+03 -0.11520229416E+03 -0.65214603582E+03  0.11707067678E+04  0.89759101557E+03 0.  0.
         23    2    4    4    0    0 -0.19497401768E+03  0.11274901331E+03 -0.80422203592E+03  0.84023382730E+03  0.92155270602E+02 0.  0.
         23    2    4    4    0    0 -0.16043938152E+03 -0.22795130747E+03  0.15207600011E+03  0.33047294050E+03  0.91556872362E+02 0.  0.
          4    1    3    3  502    0  0.24268913749E+03  0.70488067833E+02  0.54844852347E+03  0.60387280785E+03  0.00000000000E+00 0. -1.
         -3    1    3    3    0  502  0.11272426170E+03  0.44714226324E+02  0.42010988220E+03  0.43726243188E+03  0.00000000000E+00 0.  1.
         11    1    5    5    0    0 -0.13846274833E+03  0.32392678434E+02 -0.53761903764E+03  0.55610740682E+03  0.00000000000E+00 0. -1.
        -11    1    5    5    0    0 -0.56511269343E+02  0.80356334875E+02 -0.26660299829E+03  0.28412642048E+03  0.00000000000E+00 0.  1.
          1    1    6    6  503    0 -0.16600418542E+03 -0.18072904351E+03  0.12043677407E+03  0.27335945803E+03  0.00000000000E+00 0. -1.
         -1    1    6    6    0  503  0.55648039046E+01 -0.47222263954E+02  0.31639226040E+02  0.57113482470E+02  0.00000000000E+00 0.  1.
<mgrwt>
<rscale>  0 0.21890930E+04</rscale>
<asrwt>0</asrwt>
<pdfrwt beam="1">  1        2 0.19448111E+00 0.21890930E+04</pdfrwt>
<pdfrwt beam="2">  1       -1 0.14580228E+00 0.21890930E+04</pdfrwt>
<totfact> 0.68129966E+00</totfact>
</mgrwt>
</event>
<event>
12    6  0.8914180E-008  0.1214784E+04  0.7818608E-02  0.9100014E-01
          2   -1    0    0  501    0  0.00000000000E+00  0.00000000000E+00  0.10069096444E+04  0.10069096444E+04  0.00000000000E+00 0. -1.
         -1   -1    0    0    0  501 -0.00000000000E+00 -0.00000000000E+00 -0.36639311958E+03  0.36639311958E+03  0.00000000000E+00 0.  1.
         24    2    1    2    0    0 -0.24656730323E+03 -0.43908364138E+02  0.25827540131E+03  0.36819844349E+03  0.78361542845E+02 0.  0.
        254    2    1    2    0    0  0.24656730323E+03  0.43908364138E+02  0.38224112353E+03  0.10051043205E+04  0.89521117015E+03 0.  0.
         23    2    4    4    0    0  0.25767551193E+03  0.21753664835E+03  0.61061046783E+03  0.70438636933E+03  0.97959946163E+02 0.  0.
         23    2    4    4    0    0 -0.11108208698E+02 -0.17362828421E+03 -0.22836934430E+03  0.30071795120E+03  0.89490532336E+02 0.  0.
          4    1    3    3  502    0 -0.23153035144E+03 -0.60726455951E+02  0.22923981697E+03  0.33142857417E+03  0.00000000000E+00 0. -1.
         -3    1    3    3    0  502 -0.15036951791E+02  0.16818091813E+02  0.29035584346E+02  0.36769869318E+02  0.00000000000E+00 0.  1.
         11    1    5    5    0    0  0.43055353556E+02  0.69638437535E+02  0.22055058320E+03  0.23525695569E+03  0.00000000000E+00 0. -1.
        -11    1    5    5    0    0  0.21462015838E+03  0.14789821081E+03  0.39005988463E+03  0.46912941364E+03  0.00000000000E+00 0.  1.
          1    1    6    6  503    0  0.32132769229E+02 -0.26058996243E+02 -0.57581889116E+02  0.70903174102E+02  0.00000000000E+00 0. -1.
         -1    1    6    6    0  503 -0.43240977927E+02 -0.14756928797E+03 -0.17078745518E+03  0.22981477709E+03  0.00000000000E+00 0.  1.
<mgrwt>
<rscale>  0 0.12147835E+04</rscale>
<asrwt>0</asrwt>
<pdfrwt beam="1">  1        2 0.15490917E+00 0.12147835E+04</pdfrwt>
<pdfrwt beam="2">  1       -1 0.56368173E-01 0.12147835E+04</pdfrwt>
<totfact> 0.89282731E+01</totfact>
</mgrwt>
</event>
<event>
12    6  0.8914180E-008  0.1956151E+04  0.7818608E-02  0.8627400E-01
          2   -1    0    0  501    0  0.00000000000E+00  0.00000000000E+00  0.11489751376E+04  0.11489751376E+04  0.00000000000E+00 0. -1.
         -1   -1    0    0    0  501 -0.00000000000E+00 -0.00000000000E+00 -0.83259567886E+03  0.83259567886E+03  0.00000000000E+00 0.  1.
         24    2    1    2    0    0 -0.50263018472E+03 -0.16716283591E+03  0.68796861611E+03  0.87190095866E+03  0.79560974422E+02 0.  0.
        254    2    1    2    0    0  0.50263018472E+03  0.16716283591E+03 -0.37158915739E+03  0.11096698578E+04  0.90150328622E+03 0.  0.
         23    2    4    4    0    0  0.31989912057E+03  0.46358309416E+03  0.29814655380E+02  0.57112539365E+03  0.89724963463E+02 0.  0.
         23    2    4    4    0    0  0.18273106415E+03 -0.29642025824E+03 -0.40140381277E+03  0.53854446413E+03  0.87461463706E+02 0.  0.
          2    1    3    3  502    0 -0.47083691241E+03 -0.13482207911E+03  0.63991599936E+03  0.80582682838E+03  0.00000000000E+00 0. -1.
         -1    1    3    3    0  502 -0.31793272309E+02 -0.32340756807E+02  0.48052616752E+02  0.66074130276E+02  0.00000000000E+00 0.  1.
         11    1    5    5    0    0  0.25857144592E+03  0.30623448953E+03  0.33616337015E+02  0.40220493947E+03  0.00000000000E+00 0. -1.
        -11    1    5    5    0    0  0.61327674650E+02  0.15734860463E+03 -0.38016816355E+01  0.16892045418E+03  0.00000000000E+00 0.  1.
          3    1    6    6  503    0  0.56661962222E+02 -0.97024172433E+02 -0.19516521839E+03  0.22519709249E+03  0.00000000000E+00 0. -1.
         -3    1    6    6    0  503  0.12606910193E+03 -0.19939608581E+03 -0.20623859439E+03  0.31334737163E+03  0.00000000000E+00 0.  1.
<mgrwt>
<rscale>  0 0.19561511E+04</rscale>
<asrwt>0</asrwt>
<pdfrwt beam="1">  1        2 0.17676541E+00 0.19561511E+04</pdfrwt>
<pdfrwt beam="2">  1       -1 0.12809164E+00 0.19561511E+04</pdfrwt>
<totfact> 0.11380295E+01</totfact>
</mgrwt>
</event>
<event>
12    6  0.8914180E-008  0.2219531E+04  0.7818608E-02  0.8510343E-01
          2   -1    0    0  501    0  0.00000000000E+00  0.00000000000E+00  0.82950405577E+03  0.82950405577E+03  0.00000000000E+00 0. -1.
         -1   -1    0    0    0  501 -0.00000000000E+00 -0.00000000000E+00 -0.14847174199E+04  0.14847174199E+04  0.00000000000E+00 0.  1.
         24    2    1    2    0    0 -0.88009695993E+03  0.17335127726E+02 -0.58133046581E+03  0.10581392462E+04  0.82718730145E+02 0.  0.
        254    2    1    2    0    0  0.88009695993E+03 -0.17335127726E+02 -0.73882898339E+02  0.12560822295E+04  0.89297968570E+03 0.  0.
         23    2    4    4    0    0  0.65133281212E+03  0.13708811531E+03  0.33906947337E+03  0.75141734557E+03  0.81439154856E+02 0.  0.
         23    2    4    4    0    0  0.22876414780E+03 -0.15442324303E+03 -0.41295237171E+03  0.50466488393E+03  0.89316350455E+02 0.  0.
          2    1    3    3  502    0 -0.95091862414E+02 -0.23591116920E+02 -0.69472312350E+02  0.12010580868E+03  0.00000000000E+00 0. -1.
         -1    1    3    3    0  502 -0.78500509751E+03  0.40926244646E+02 -0.51185815346E+03  0.93803343751E+03  0.00000000000E+00 0.  1.
         11    1    5    5    0    0  0.11176611092E+03  0.30019263226E+02  0.94513854266E+02  0.14941783148E+03  0.00000000000E+00 0. -1.
        -11    1    5    5    0    0  0.53956670120E+03  0.10706885208E+03  0.24455561911E+03  0.60199951409E+03  0.00000000000E+00 0.  1.
          2    1    6    6  503    0  0.71688055969E+02 -0.14531456042E+02 -0.15825638424E+03  0.17434283391E+03  0.00000000000E+00 0. -1.
         -2    1    6    6    0  503  0.15707609184E+03 -0.13989178699E+03 -0.25469598747E+03  0.33032205002E+03  0.00000000000E+00 0.  1.
<mgrwt>
<rscale>  0 0.22195307E+04</rscale>
<asrwt>0</asrwt>
<pdfrwt beam="1">  1        2 0.12761601E+00 0.22195307E+04</pdfrwt>
<pdfrwt beam="2">  1       -1 0.22841806E+00 0.22195307E+04</pdfrwt>
<totfact> 0.33030898E+00</totfact>
</mgrwt>
</event>
<event>
12    6  0.8914180E-008  0.2657699E+04  0.7818608E-02  0.8348862E-01
          2   -1    0    0  501    0  0.00000000000E+00  0.00000000000E+00  0.12105822549E+04  0.12105822549E+04  0.00000000000E+00 0. -1.
         -1   -1    0    0    0  501 -0.00000000000E+00 -0.00000000000E+00 -0.14586711658E+04  0.14586711658E+04  0.00000000000E+00 0.  1.
         24    2    1    2    0    0 -0.73735273055E+03 -0.81743617916E+03 -0.52137713805E+03  0.12208361858E+04  0.81950693722E+02 0.  0.
        254    2    1    2    0    0  0.73735273055E+03  0.81743617916E+03  0.27328822718E+03  0.14484172349E+04  0.90074140301E+03 0.  0.
         23    2    4    4    0    0  0.24852344973E+03  0.94304705294E+01 -0.25251029192E+03  0.36315645307E+03  0.79172741768E+02 0.  0.
         23    2    4    4    0    0  0.48882928082E+03  0.80800570863E+03  0.52579851911E+03  0.10852607819E+04  0.97465845270E+02 0.  0.
          2    1    3    3  502    0 -0.34629838421E+03 -0.38746247313E+03 -0.29136357743E+03  0.59577048706E+03  0.00000000000E+00 0. -1.
         -1    1    3    3    0  502 -0.39105434634E+03 -0.42997370602E+03 -0.23001356063E+03  0.62506569873E+03  0.00000000000E+00 0.  1.
         11    1    5    5    0    0  0.20776849485E+03  0.21271704431E+02 -0.16597131188E+03  0.26677089277E+03  0.00000000000E+00 0. -1.
        -11    1    5    5    0    0  0.40754954879E+02 -0.11841233902E+02 -0.86538980043E+02  0.96385560301E+02  0.00000000000E+00 0.  1.
          2    1    6    6  503    0  0.24982987233E+03  0.33444084762E+03  0.26166804334E+03  0.49268226127E+03  0.00000000000E+00 0.  1.
         -2    1    6    6    0  503  0.23899940849E+03  0.47356486100E+03  0.26413047577E+03  0.59257852059E+03  0.00000000000E+00 0. -1.
<mgrwt>
<rscale>  0 0.26576993E+04</rscale>
<asrwt>0</asrwt>
<pdfrwt beam="1">  1        2 0.18624342E+00 0.26576993E+04</pdfrwt>
<pdfrwt beam="2">  1       -1 0.22441095E+00 0.26576993E+04</pdfrwt>
<totfact> 0.19255079E+00</totfact>
</mgrwt>
</event>
<event>
12    6  0.8914180E-008  0.2419629E+04  0.7818608E-02  0.8432191E-01
         -1   -1    0    0    0  501 -0.00000000000E+00  0.00000000000E+00  0.22548150180E+04  0.22548150180E+04  0.00000000000E+00 0.  1.
          2   -1    0    0  501    0  0.00000000000E+00 -0.00000000000E+00 -0.64912230729E+03  0.64912230729E+03  0.00000000000E+00 0. -1.
         24    2    1    2    0    0  0.99268925035E+03 -0.25623721875E+03  0.89375107331E+03  0.13624680613E+04  0.80241989845E+02 0.  0.
        254    2    1    2    0    0 -0.99268925035E+03  0.25623721875E+03  0.71194163738E+03  0.15414692640E+04  0.90453144597E+03 0.  0.
         23    2    4    4    0    0 -0.46404021184E+03  0.87983611568E+02  0.83796894005E+03  0.96631886107E+03  0.92226691689E+02 0.  0.
         23    2    4    4    0    0 -0.52864903851E+03  0.16825360718E+03 -0.12602730267E+03  0.57515040292E+03  0.84474982732E+02 0.  0.
          4    1    3    3  502    0  0.70809378613E+03 -0.19839443808E+03  0.68326866832E+03  0.10037994003E+04  0.00000000000E+00 0. -1.
         -3    1    3    3    0  502  0.28459546422E+03 -0.57842780663E+02  0.21048240499E+03  0.35866866094E+03  0.00000000000E+00 0.  1.
         11    1    5    5    0    0 -0.39957372178E+03  0.66318305102E+02  0.77074676972E+03  0.87069389556E+03  0.00000000000E+00 0. -1.
        -11    1    5    5    0    0 -0.64466490063E+02  0.21665306465E+02  0.67222170331E+02  0.95624965513E+02  0.00000000000E+00 0.  1.
          2    1    6    6  503    0 -0.24730104980E+03  0.11692076635E+03 -0.83536475192E+02  0.28601856151E+03  0.00000000000E+00 0. -1.
         -2    1    6    6    0  503 -0.28134798871E+03  0.51332840826E+02 -0.42490827482E+02  0.28913184141E+03  0.00000000000E+00 0.  1.
<mgrwt>
<rscale>  0 0.24196287E+04</rscale>
<asrwt>0</asrwt>
<pdfrwt beam="1">  1        2 0.99864971E-01 0.24196287E+04</pdfrwt>
<pdfrwt beam="2">  1       -1 0.34689462E+00 0.24196287E+04</pdfrwt>
<totfact> 0.75196631E-01</totfact>
</mgrwt>
</event>
<event>
12    6  0.8914180E-008  0.4448905E+04  0.7818608E-02  0.7919644E-01
          2   -1    0    0  501    0  0.00000000000E+00  0.00000000000E+00  0.29908115071E+04  0.29908115071E+04  0.00000000000E+00 0. -1.
         -1   -1    0    0    0  501 -0.00000000000E+00 -0.00000000000E+00 -0.16544634420E+04  0.16544634420E+04  0.00000000000E+00 0.  1.
         24    2    1    2    0    0  0.83429036230E+03  0.19496723614E+04  0.39744213564E+03  0.21596376416E+04  0.93871007750E+02 0.  0.
        254    2    1    2    0    0 -0.83429036230E+03 -0.19496723614E+04  0.93890592944E+03  0.24856373076E+04  0.89419559105E+03 0.  0.
         23    2    4    4    0    0 -0.39974901423E+03 -0.15503668598E+04  0.99227949075E+03  0.18858435433E+04  0.91381659232E+02 0.  0.
         23    2    4    4    0    0 -0.43454134807E+03 -0.39930550163E+03 -0.53373561302E+02  0.59979376432E+03  0.92912624832E+02 0.  0.
          4    1    3    3  502    0  0.77116478255E+03  0.18554111260E+04  0.37433019746E+03  0.20438612147E+04  0.00000000000E+00 0. -1.
         -3    1    3    3    0  502  0.63125579751E+02  0.94261235446E+02  0.23111938189E+02  0.11577642685E+03  0.00000000000E+00 0.  1.
         11    1    5    5    0    0 -0.83875850690E+02 -0.26366378940E+03  0.13586309722E+03  0.30824103126E+03  0.00000000000E+00 0. -1.
        -11    1    5    5    0    0 -0.31587316353E+03 -0.12867030704E+04  0.85641639353E+03  0.15776025120E+04  0.00000000000E+00 0.  1.
          3    1    6    6  503    0 -0.68585141786E+02 -0.23459171513E+02 -0.13192045278E+02  0.73676892311E+02  0.00000000000E+00 0. -1.
         -3    1    6    6    0  503 -0.36595620629E+03 -0.37584633012E+03 -0.40181516024E+02  0.52611687201E+03  0.00000000000E+00 0.  1.
<mgrwt>
<rscale>  0 0.44489047E+04</rscale>
<asrwt>0</asrwt>
<pdfrwt beam="1">  1        2 0.46012485E+00 0.44489047E+04</pdfrwt>
<pdfrwt beam="2">  1       -1 0.25453284E+00 0.44489047E+04</pdfrwt>
<totfact> 0.99267741E-02</totfact>
</mgrwt>
</event>
<event>
12    6  0.8914180E-008  0.2134937E+04  0.7818608E-02  0.8546008E-01
          2   -1    0    0  501    0  0.00000000000E+00  0.00000000000E+00  0.12726079970E+04  0.12726079970E+04  0.00000000000E+00 0. -1.
         -1   -1    0    0    0  501 -0.00000000000E+00 -0.00000000000E+00 -0.89539676375E+03  0.89539676375E+03  0.00000000000E+00 0.  1.
         24    2    1    2    0    0 -0.34388281140E+03 -0.64973807289E+03 -0.34602313106E+03  0.81630526000E+03  0.78786540339E+02 0.  0.
        254    2    1    2    0    0  0.34388281140E+03  0.64973807289E+03  0.72323436431E+03  0.13516995007E+04  0.87384703653E+03 0.  0.
         23    2    4    4    0    0  0.13350043173E+03  0.75745320000E+03  0.77105635654E+03  0.10928463753E+04  0.90706006043E+02 0.  0.
         23    2    4    4    0    0  0.21038237966E+03 -0.10771512712E+03 -0.47821992230E+02  0.25885312546E+03  0.94099433241E+02 0.  0.
          4    1    3    3  502    0 -0.10794120713E+03 -0.24256176468E+03 -0.16194200927E+03  0.31098670108E+03  0.00000000000E+00 0. -1.
         -3    1    3    3    0  502 -0.23594160426E+03 -0.40717630821E+03 -0.18408112179E+03  0.50531855892E+03  0.00000000000E+00 0.  1.
         11    1    5    5    0    0  0.11708885265E+03  0.43581477859E+03  0.42064355985E+03  0.61691597896E+03  0.00000000000E+00 0. -1.
        -11    1    5    5    0    0  0.16411579086E+02  0.32163842141E+03  0.35041279669E+03  0.47593039632E+03  0.00000000000E+00 0.  1.
          1    1    6    6  503    0  0.12528224757E+02 -0.29074369686E+02 -0.32533527088E+02  0.45394997224E+02  0.00000000000E+00 0. -1.
         -1    1    6    6    0  503  0.19785415491E+03 -0.78640757432E+02 -0.15288465142E+02  0.21345812824E+03  0.00000000000E+00 0.  1.
<mgrwt>
<rscale>  0 0.21349371E+04</rscale>
<asrwt>0</asrwt>
<pdfrwt beam="1">  1        2 0.19578585E+00 0.21349371E+04</pdfrwt>
<pdfrwt beam="2">  1       -1 0.13775335E+00 0.21349371E+04</pdfrwt>
<totfact> 0.78565787E+00</totfact>
</mgrwt>
</event>
<event>
12    6  0.8914180E-008  0.2151262E+04  0.7818608E-02  0.8538992E-01
         -1   -1    0    0    0  501 -0.00000000000E+00  0.00000000000E+00  0.10373680715E+04  0.10373680715E+04  0.00000000000E+00 0.  1.
          2   -1    0    0  501    0  0.00000000000E+00 -0.00000000000E+00 -0.11153048422E+04  0.11153048422E+04  0.00000000000E+00 0. -1.
         24    2    1    2    0    0 -0.50022285491E+03  0.37645012227E+03  0.61714587106E+03  0.88272468448E+03  0.79976517205E+02 0.  0.
        254    2    1    2    0    0  0.50022285491E+03 -0.37645012227E+03 -0.69508264169E+03  0.12699482292E+04  0.85888941491E+03 0.  0.
         23    2    4    4    0    0  0.46119801249E+03 -0.51460256955E+03 -0.80761864968E+03  0.10667363226E+04  0.90327666647E+02 0.  0.
         23    2    4    4    0    0  0.39024842411E+02  0.13815244728E+03  0.11253600799E+03  0.20321190663E+03  0.89563881599E+02 0.  0.
          4    1    3    3  502    0 -0.98054766360E+02  0.89699040536E+02  0.91003720293E+02  0.16106623540E+03  0.00000000000E+00 0. -1.
         -1    1    3    3    0  502 -0.40216808855E+03  0.28675108173E+03  0.52614215077E+03  0.72165844908E+03  0.00000000000E+00 0.  1.
         11    1    5    5    0    0  0.62564242746E+02 -0.29972843269E+02 -0.82724328190E+02  0.10796281896E+03  0.00000000000E+00 0. -1.
        -11    1    5    5    0    0  0.39863376975E+03 -0.48462972628E+03 -0.72489432149E+03  0.95877350365E+03  0.00000000000E+00 0.  1.
          1    1    6    6  503    0  0.12326965663E+02 -0.61930183598E+01 -0.54970015743E+01  0.14850070208E+02  0.00000000000E+00 0. -1.
         -1    1    6    6    0  503  0.26697876748E+02  0.14434546564E+03  0.11803300956E+03  0.18836183642E+03  0.00000000000E+00 0.  1.
<mgrwt>
<rscale>  0 0.21512616E+04</rscale>
<asrwt>0</asrwt>
<pdfrwt beam="1">  1        2 0.17158536E+00 0.21512616E+04</pdfrwt>
<pdfrwt beam="2">  1       -1 0.15959509E+00 0.21512616E+04</pdfrwt>
<totfact> 0.65656878E+00</totfact>
</mgrwt>
</event>
<event>
12    6  0.8914180E-008  0.1441103E+04  0.7818608E-02  0.8924592E-01
         -1   -1    0    0    0  501 -0.00000000000E+00  0.00000000000E+00  0.46287714733E+03  0.46287714733E+03  0.00000000000E+00 0.  1.
          2   -1    0    0  501    0  0.00000000000E+00 -0.00000000000E+00 -0.11216685540E+04  0.11216685540E+04  0.00000000000E+00 0. -1.
         24    2    1    2    0    0 -0.19672904658E+03  0.42236339677E+02  0.21966351139E+03  0.30828777150E+03  0.79391848837E+02 0.  0.
        254    2    1    2    0    0  0.19672904658E+03 -0.42236339677E+02 -0.87845491807E+03  0.12762579298E+04  0.90369521093E+03 0.  0.
         23    2    4    4    0    0  0.13735119850E+03 -0.11776619618E+03  0.14123617344E+03  0.24828628944E+03  0.94679438865E+02 0.  0.
         23    2    4    4    0    0  0.59377848075E+02  0.75529856498E+02 -0.10196910915E+04  0.10279716404E+04  0.87893590954E+02 0.  0.
          4    1    3    3  502    0 -0.14195589326E+03  0.38827974583E+02  0.10382617395E+03  0.18010819425E+03  0.00000000000E+00 0. -1.
         -3    1    3    3    0  502 -0.54773153322E+02  0.34083650944E+01  0.11583733744E+03  0.12817957724E+03  0.00000000000E+00 0.  1.
         11    1    5    5    0    0  0.46397003186E+02 -0.92755565715E+02  0.10399294105E+03  0.14687004005E+03  0.00000000000E+00 0. -1.
        -11    1    5    5    0    0  0.90954195316E+02 -0.25010630461E+02  0.37243232392E+02  0.10141624939E+03  0.00000000000E+00 0.  1.
          4    1    6    6  503    0  0.57901959636E+02  0.94691854102E+02 -0.87193646620E+03  0.87897234613E+03  0.00000000000E+00 0. -1.
         -4    1    6    6    0  503  0.14758884383E+01 -0.19161997604E+02 -0.14775462530E+03  0.14899929429E+03  0.00000000000E+00 0.  1.
<mgrwt>
<rscale>  0 0.14411034E+04</rscale>
<asrwt>0</asrwt>
<pdfrwt beam="1">  1        2 0.17256439E+00 0.14411034E+04</pdfrwt>
<pdfrwt beam="2">  1       -1 0.71211870E-01 0.14411034E+04</pdfrwt>
<totfact> 0.46570624E+01</totfact>
</mgrwt>
</event>
<event>
12    6  0.8914180E-008  0.2902255E+04  0.7818608E-02  0.8272207E-01
         -1   -1    0    0    0  501 -0.00000000000E+00  0.00000000000E+00  0.11905205528E+04  0.11905205528E+04  0.00000000000E+00 0.  1.
          2   -1    0    0  501    0  0.00000000000E+00 -0.00000000000E+00 -0.17687815122E+04  0.17687815122E+04  0.00000000000E+00 0. -1.
         24    2    1    2    0    0 -0.96832670756E+03 -0.88183691086E+03 -0.21284346308E+03  0.13292881376E+04  0.80072861638E+02 0.  0.
        254    2    1    2    0    0  0.96832670756E+03  0.88183691086E+03 -0.36541749624E+03  0.16300139274E+04  0.89895634316E+03 0.  0.
         23    2    4    4    0    0  0.32992602622E+03  0.87422939125E+03 -0.28168623275E+03  0.97999902794E+03  0.89009829530E+02 0.  0.
         23    2    4    4    0    0  0.63840068135E+03  0.76075196082E+01 -0.83731263496E+02  0.65001489942E+03  0.88854604167E+02 0.  0.
          4    1    3    3  502    0 -0.66527951251E+03 -0.62751016632E+03 -0.11490923443E+03  0.92172120013E+03  0.00000000000E+00 0. -1.
         -3    1    3    3    0  502 -0.30304719505E+03 -0.25432674453E+03 -0.97934228655E+02  0.40756693752E+03  0.00000000000E+00 0.  1.
         11    1    5    5    0    0  0.16325019710E+03  0.31589309065E+03 -0.93310890979E+02  0.36762208034E+03  0.00000000000E+00 0. -1.
        -11    1    5    5    0    0  0.16667582912E+03  0.55833630060E+03 -0.18837534177E+03  0.61237694761E+03  0.00000000000E+00 0.  1.
          3    1    6    6  503    0  0.16969490391E+03 -0.25037910075E+02  0.62007410335E+01  0.17164412761E+03  0.00000000000E+00 0. -1.
         -3    1    6    6    0  503  0.46870577744E+03  0.32645429683E+02 -0.89932004529E+02  0.47837077181E+03  0.00000000000E+00 0.  1.
<mgrwt>
<rscale>  0 0.29022548E+04</rscale>
<asrwt>0</asrwt>
<pdfrwt beam="1">  1        2 0.27212023E+00 0.29022548E+04</pdfrwt>
<pdfrwt beam="2">  1       -1 0.18315701E+00 0.29022548E+04</pdfrwt>
<totfact> 0.17423123E+00</totfact>
</mgrwt>
</event>
<event>
12    6  0.8914180E-008  0.1514138E+04  0.7818608E-02  0.8875105E-01
         -1   -1    0    0    0  501 -0.00000000000E+00  0.00000000000E+00  0.94107954351E+03  0.94107954351E+03  0.00000000000E+00 0.  1.
          2   -1    0    0  501    0  0.00000000000E+00 -0.00000000000E+00 -0.60903855098E+03  0.60903855098E+03  0.00000000000E+00 0. -1.
         24    2    1    2    0    0 -0.42883498548E+03 -0.19927743653E+03 -0.70443894335E+01  0.47930692024E+03  0.77939456559E+02 0.  0.
        254    2    1    2    0    0  0.42883498548E+03  0.19927743653E+03  0.33908538197E+03  0.10708111743E+04  0.89891419677E+03 0.  0.
         23    2    4    4    0    0  0.49975920255E+03  0.24522287250E+02  0.56669629450E+03  0.76138129313E+03  0.90532757723E+02 0.  0.
         23    2    4    4    0    0 -0.70924217070E+02  0.17475514928E+03 -0.22761091253E+03  0.30942988112E+03  0.91490529882E+02 0.  0.
          4    1    3    3  502    0 -0.38922155420E+03 -0.16151092882E+03  0.11387042219E+02  0.42155529069E+03  0.00000000000E+00 0. -1.
         -3    1    3    3    0  502 -0.39613431275E+02 -0.37766507717E+02 -0.18431431653E+02  0.57751629546E+02  0.00000000000E+00 0.  1.
         11    1    5    5    0    0  0.11754298467E+03  0.73429547165E+01  0.19594077318E+03  0.22861115201E+03  0.00000000000E+00 0. -1.
        -11    1    5    5    0    0  0.38221621788E+03  0.17179332533E+02  0.37075552132E+03  0.53277014112E+03  0.00000000000E+00 0.  1.
          3    1    6    6  503    0 -0.16756377429E+02  0.78428743325E+02 -0.35292667441E+02  0.87620867030E+02  0.00000000000E+00 0. -1.
         -3    1    6    6    0  503 -0.54167839641E+02  0.96326405958E+02 -0.19231824509E+03  0.22180901409E+03  0.00000000000E+00 0.  1.
<mgrwt>
<rscale>  0 0.15141383E+04</rscale>
<asrwt>0</asrwt>
<pdfrwt beam="1">  1        2 0.93698238E-01 0.15141383E+04</pdfrwt>
<pdfrwt beam="2">  1       -1 0.14478147E+00 0.15141383E+04</pdfrwt>
<totfact> 0.20606830E+01</totfact>
</mgrwt>
</event>
<event>
12    6  0.8914180E-008  0.2773810E+04  0.7818608E-02  0.8311446E-01
         -1   -1    0    0    0  501 -0.00000000000E+00  0.00000000000E+00  0.80108342383E+03  0.80108342383E+03  0.00000000000E+00 0.  1.
          2   -1    0    0  501    0  0.00000000000E+00 -0.00000000000E+00 -0.24011296073E+04  0.24011296073E+04  0.00000000000E+00 0. -1.
         24    2    1    2    0    0  0.88661431248E+03  0.47226569530E+03 -0.15479018379E+04  0.18469145016E+04  0.77286805204E+02 0.  0.
        254    2    1    2    0    0 -0.88661431248E+03 -0.47226569530E+03 -0.52144345559E+02  0.13552985296E+04  0.90829248891E+03 0.  0.
         23    2    4    4    0    0 -0.87666310346E+03 -0.13069400210E+02 -0.85002307665E+02  0.88601799247E+03  0.95359763373E+02 0.  0.
         23    2    4    4    0    0 -0.99512090178E+01 -0.45919629509E+03  0.32857962107E+02  0.46928053710E+03  0.90467192071E+02 0.  0.
          4    1    3    3  502    0  0.21673511023E+03  0.15113762303E+03 -0.42976966800E+03  0.50449842084E+03  0.00000000000E+00 0. -1.
         -3    1    3    3    0  502  0.66987920225E+03  0.32112807226E+03 -0.11181321699E+04  0.13424160808E+04  0.00000000000E+00 0.  1.
         11    1    5    5    0    0 -0.48689150015E+03 -0.16948592722E+02 -0.56637825838E+00  0.48718672858E+03  0.00000000000E+00 0.  1.
        -11    1    5    5    0    0 -0.38977160331E+03  0.38791925124E+01 -0.84435929407E+02  0.39883126389E+03  0.00000000000E+00 0. -1.
          3    1    6    6  503    0 -0.46932665972E+02 -0.16325501965E+03  0.13935572940E+02  0.17043789711E+03  0.00000000000E+00 0. -1.
         -3    1    6    6    0  503  0.36981456954E+02 -0.29594127543E+03  0.18922389167E+02  0.29884263999E+03  0.00000000000E+00 0.  1.
<mgrwt>
<rscale>  0 0.27738097E+04</rscale>
<asrwt>0</asrwt>
<pdfrwt beam="1">  1        2 0.36940456E+00 0.27738097E+04</pdfrwt>
<pdfrwt beam="2">  1       -1 0.12324360E+00 0.27738097E+04</pdfrwt>
<totfact> 0.22809771E+00</totfact>
</mgrwt>
</event>
<event>
12    6  0.8914180E-008  0.1963874E+04  0.7818608E-02  0.8623699E-01
         -1   -1    0    0    0  501 -0.00000000000E+00  0.00000000000E+00  0.65663917988E+03  0.65663917988E+03  0.00000000000E+00 0.  1.
          2   -1    0    0  501    0  0.00000000000E+00 -0.00000000000E+00 -0.14683872751E+04  0.14683872751E+04  0.00000000000E+00 0. -1.
         24    2    1    2    0    0 -0.21376124558E+03 -0.11704148994E+03 -0.11204848681E+04  0.11494303755E+04  0.79443488454E+02 0.  0.
        254    2    1    2    0    0  0.21376124558E+03  0.11704148994E+03  0.30873677291E+03  0.97559607952E+03  0.89279154059E+03 0.  0.
         23    2    4    4    0    0 -0.20315805286E+03 -0.24947019361E+03 -0.13800840172E+01  0.33303752592E+03  0.86043692952E+02 0.  0.
         23    2    4    4    0    0  0.41691929843E+03  0.36651168355E+03  0.31011685693E+03  0.64255855361E+03  0.92501428514E+02 0.  0.
          4    1    3    3  502    0 -0.73305248808E+02 -0.43710638474E+02 -0.57842609307E+03  0.58468882712E+03  0.00000000000E+00 0. -1.
         -3    1    3    3    0  502 -0.14045599677E+03 -0.73330851464E+02 -0.54205877507E+03  0.56474154835E+03  0.00000000000E+00 0.  1.
         11    1    5    5    0    0  0.36911185198E+01 -0.32706126935E+02 -0.55957706888E+01  0.33386041164E+02  0.00000000000E+00 0. -1.
        -11    1    5    5    0    0 -0.20684917138E+03 -0.21676406668E+03  0.42156866717E+01  0.29965148475E+03  0.00000000000E+00 0.  1.
          1    1    6    6  503    0  0.17462150604E+03  0.15762678422E+03  0.79959004784E+02  0.24845988795E+03  0.00000000000E+00 0. -1.
         -1    1    6    6    0  503  0.24229779239E+03  0.20888489933E+03  0.23015785214E+03  0.39409866565E+03  0.00000000000E+00 0.  1.
<mgrwt>
<rscale>  0 0.19638744E+04</rscale>
<asrwt>0</asrwt>
<pdfrwt beam="1">  1        2 0.22590573E+00 0.19638744E+04</pdfrwt>
<pdfrwt beam="2">  1       -1 0.10102141E+00 0.19638744E+04</pdfrwt>
<totfact> 0.13077447E+01</totfact>
</mgrwt>
</event>
<event>
12    6  0.8914180E-008  0.1265477E+04  0.7818608E-02  0.9057399E-01
          2   -1    0    0  501    0  0.00000000000E+00  0.00000000000E+00  0.18740903513E+03  0.18740903513E+03  0.00000000000E+00 0. -1.
         -1   -1    0    0    0  501 -0.00000000000E+00 -0.00000000000E+00 -0.21362786313E+04  0.21362786313E+04  0.00000000000E+00 0.  1.
         24    2    1    2    0    0  0.10222612763E+03 -0.26881019970E+03 -0.66360995112E+03  0.72738729575E+03  0.77491974815E+02 0.  0.
        254    2    1    2    0    0 -0.10222612763E+03  0.26881019970E+03 -0.12852596451E+04  0.15963003707E+04  0.90198304508E+03 0.  0.
         23    2    4    4    0    0  0.89510640171E+02  0.17948481049E+03  0.63025939609E+02  0.22890175761E+03  0.90536145665E+02 0.  0.
         23    2    4    4    0    0 -0.19173676780E+03  0.89325389210E+02 -0.13482855847E+04  0.13673986131E+04  0.84634129905E+02 0.  0.
          4    1    3    3  502    0  0.70638888775E+02 -0.16217778792E+03 -0.31259300472E+03  0.35917387726E+03  0.00000000000E+00 0. -1.
         -3    1    3    3    0  502  0.31587238853E+02 -0.10663241178E+03 -0.35101694639E+03  0.36821341849E+03  0.00000000000E+00 0.  1.
         11    1    5    5    0    0  0.95912394492E+02  0.18528102611E+03  0.52222273522E+02  0.21507071373E+03  0.00000000000E+00 0. -1.
        -11    1    5    5    0    0 -0.64017543206E+01 -0.57962156162E+01  0.10803666087E+02  0.13831043879E+02  0.00000000000E+00 0.  1.
          3    1    6    6  503    0 -0.36034320800E+02  0.12517265944E+00 -0.10026643788E+03  0.10654504450E+03  0.00000000000E+00 0. -1.
         -3    1    6    6    0  503 -0.15570244700E+03  0.89200216551E+02 -0.12480191468E+04  0.12608535686E+04  0.00000000000E+00 0.  1.
<mgrwt>
<rscale>  0 0.12654769E+04</rscale>
<asrwt>0</asrwt>
<pdfrwt beam="1">  1        2 0.28832160E-01 0.12654769E+04</pdfrwt>
<pdfrwt beam="2">  1       -1 0.32865824E+00 0.12654769E+04</pdfrwt>
<totfact> 0.45463923E+00</totfact>
</mgrwt>
</event>
<event>
12    6  0.8914180E-008  0.1985012E+04  0.7818608E-02  0.8613660E-01
          2   -1    0    0  501    0  0.00000000000E+00  0.00000000000E+00  0.38559309447E+03  0.38559309447E+03  0.00000000000E+00 0. -1.
         -1   -1    0    0    0  501 -0.00000000000E+00 -0.00000000000E+00 -0.25546840790E+04  0.25546840790E+04  0.00000000000E+00 0.  1.
         24    2    1    2    0    0  0.33952123857E+03  0.67920449635E+03 -0.11892926940E+04  0.14132466399E+04  0.79091933276E+02 0.  0.
        254    2    1    2    0    0 -0.33952123857E+03 -0.67920449635E+03 -0.97979829055E+03  0.15270305336E+04  0.89175340817E+03 0.  0.
         23    2    4    4    0    0 -0.51770733551E+02  0.71943507001E+02 -0.63431587627E+03  0.64685565061E+03  0.90606427931E+02 0.  0.
         23    2    4    4    0    0 -0.28775050502E+03 -0.75114800335E+03 -0.34548241428E+03  0.88017488296E+03  0.91247191415E+02 0.  0.
          4    1    3    3  502    0  0.77640920275E+02  0.19312596668E+03 -0.38517549436E+03  0.43781949815E+03  0.00000000000E+00 0. -1.
         -3    1    3    3    0  502  0.26188031830E+03  0.48607852967E+03 -0.80411719961E+03  0.97542714173E+03  0.00000000000E+00 0.  1.
         11    1    5    5    0    0 -0.17959774707E+02 -0.65355086572E+00 -0.37556920827E+03  0.37599895058E+03  0.00000000000E+00 0.  1.
        -11    1    5    5    0    0 -0.33810958844E+02  0.72597057867E+02 -0.25874666800E+03  0.27085670003E+03  0.00000000000E+00 0. -1.
          4    1    6    6  503    0 -0.23638346530E+03 -0.59678216924E+03 -0.31355817207E+03  0.71438422958E+03  0.00000000000E+00 0. -1.
         -4    1    6    6    0  503 -0.51367039724E+02 -0.15436583411E+03 -0.31924242209E+02  0.16579065339E+03  0.00000000000E+00 0.  1.
<mgrwt>
<rscale>  0 0.19850124E+04</rscale>
<asrwt>0</asrwt>
<pdfrwt beam="1">  1        2 0.59322016E-01 0.19850124E+04</pdfrwt>
<pdfrwt beam="2">  1       -1 0.39302831E+00 0.19850124E+04</pdfrwt>
<totfact> 0.70476967E-01</totfact>
</mgrwt>
</event>
<event>
12    6  0.8914180E-008  0.1879074E+04  0.7818608E-02  0.8665343E-01
          2   -1    0    0  501    0  0.00000000000E+00  0.00000000000E+00  0.15080681484E+04  0.15080681484E+04  0.00000000000E+00 0. -1.
         -1   -1    0    0    0  501 -0.00000000000E+00 -0.00000000000E+00 -0.58533785378E+03  0.58533785378E+03  0.00000000000E+00 0.  1.
         24    2    1    2    0    0  0.18641460353E+03  0.87395680001E+02  0.11346663477E+04  0.11559419087E+04  0.79659062605E+02 0.  0.
        254    2    1    2    0    0 -0.18641460353E+03 -0.87395680001E+02 -0.21193605315E+03  0.93746409347E+03  0.88968175581E+03 0.  0.
         23    2    4    4    0    0 -0.50684242669E+03  0.47230956380E+02  0.60738960537E+01  0.51774472583E+03  0.94354121158E+02 0.  0.
         23    2    4    4    0    0  0.32042782316E+03 -0.13462663638E+03 -0.21800994921E+03  0.41971936764E+03  0.88530720879E+02 0.  0.
          2    1    3    3  502    0  0.81370806066E+02  0.65031472480E+02  0.39431870680E+03  0.40784499877E+03  0.00000000000E+00 0. -1.
         -1    1    3    3    0  502  0.10504379746E+03  0.22364207521E+02  0.74034764094E+03  0.74809690990E+03  0.00000000000E+00 0.  1.
         11    1    5    5    0    0 -0.13513725764E+02 -0.65220258003E+00  0.17310366000E+02  0.21970319144E+02  0.00000000000E+00 0.  1.
        -11    1    5    5    0    0 -0.49332870092E+03  0.47883158960E+02 -0.11236469947E+02  0.49577440668E+03  0.00000000000E+00 0. -1.
          4    1    6    6  503    0  0.25200178869E+03 -0.70844802615E+02 -0.13440171749E+03  0.29425789577E+03  0.00000000000E+00 0. -1.
         -4    1    6    6    0  503  0.68426034470E+02 -0.63781833766E+02 -0.83608231718E+02  0.12546147187E+03  0.00000000000E+00 0.  1.
<mgrwt>
<rscale>  0 0.18790736E+04</rscale>
<asrwt>0</asrwt>
<pdfrwt beam="1">  1        2 0.23201048E+00 0.18790736E+04</pdfrwt>
<pdfrwt beam="2">  1       -1 0.90051978E-01 0.18790736E+04</pdfrwt>
<totfact> 0.16198444E+01</totfact>
</mgrwt>
</event>
<event>
12    6  0.8914180E-008  0.1175403E+04  0.7818608E-02  0.9134663E-01
         -1   -1    0    0    0  501 -0.00000000000E+00  0.00000000000E+00  0.14669227450E+04  0.14669227450E+04  0.00000000000E+00 0.  1.
          2   -1    0    0  501    0  0.00000000000E+00 -0.00000000000E+00 -0.23545419684E+03  0.23545419684E+03  0.00000000000E+00 0. -1.
         24    2    1    2    0    0  0.12932881730E+03 -0.19562139275E+03  0.24050711286E+03  0.34550698412E+03  0.80856245599E+02 0.  0.
        254    2    1    2    0    0 -0.12932881730E+03  0.19562139275E+03  0.99096143533E+03  0.13568699578E+04  0.89671502923E+03 0.  0.
         23    2    4    4    0    0 -0.65897742067E+02 -0.33387213301E+03  0.57814072141E+03  0.67629574424E+03  0.85534357468E+02 0.  0.
         23    2    4    4    0    0 -0.63431075235E+02  0.52949352576E+03  0.41282071392E+03  0.68057421352E+03  0.91506410369E+02 0.  0.
          4    1    3    3  502    0  0.94343850139E+02 -0.15634453583E+03  0.22675646489E+03  0.29114063665E+03  0.00000000000E+00 0. -1.
         -3    1    3    3    0  502  0.34984967163E+02 -0.39276856917E+02  0.13750647969E+02  0.54366347461E+02  0.00000000000E+00 0.  1.
         11    1    5    5    0    0 -0.23757637117E+02 -0.10941318056E+03  0.27369939964E+03  0.29571444125E+03  0.00000000000E+00 0.  1.
        -11    1    5    5    0    0 -0.42140104950E+02 -0.22445895244E+03  0.30444132177E+03  0.38058130298E+03  0.00000000000E+00 0. -1.
          1    1    6    6  503    0 -0.50381859806E+01  0.37901927908E+03  0.30417619067E+03  0.48600838697E+03  0.00000000000E+00 0. -1.
         -1    1    6    6    0  503 -0.58392889254E+02  0.15047424668E+03  0.10864452324E+03  0.19456582655E+03  0.00000000000E+00 0.  1.
<mgrwt>
<rscale>  0 0.11754031E+04</rscale>
<asrwt>0</asrwt>
<pdfrwt beam="1">  1        2 0.36223723E-01 0.11754031E+04</pdfrwt>
<pdfrwt beam="2">  1       -1 0.22568042E+00 0.11754031E+04</pdfrwt>
<totfact> 0.16476029E+01</totfact>
</mgrwt>
</event>
<event>
12    6  0.8914180E-008  0.2590712E+04  0.7818608E-02  0.8371363E-01
          2   -1    0    0  501    0  0.00000000000E+00  0.00000000000E+00  0.33455934068E+04  0.33455934068E+04  0.00000000000E+00 0. -1.
         -1   -1    0    0    0  501 -0.00000000000E+00 -0.00000000000E+00 -0.50153961666E+03  0.50153961666E+03  0.00000000000E+00 0.  1.
         24    2    1    2    0    0  0.15570957400E+02 -0.20011909377E+03 -0.40978648355E+03  0.46385479573E+03  0.83343884110E+02 0.  0.
        254    2    1    2    0    0 -0.15570957400E+02  0.20011909377E+03  0.32538402737E+04  0.33832782277E+04  0.90487840797E+03 0.  0.
         23    2    4    4    0    0 -0.17854588687E+03 -0.25705308857E+03  0.21445300270E+04  0.21691486138E+04  0.90784073617E+02 0.  0.
         23    2    4    4    0    0  0.16297492947E+03  0.45717218234E+03  0.11093102467E+04  0.12141296139E+04  0.89298735004E+02 0.  0.
          4    1    3    3  502    0 -0.31128457546E+02 -0.66647382337E+02 -0.10914539198E+03  0.13161903749E+03  0.00000000000E+00 0. -1.
         -3    1    3    3    0  502  0.46699414946E+02 -0.13347171144E+03 -0.30064109157E+03  0.33223575824E+03  0.00000000000E+00 0.  1.
         11    1    5    5    0    0 -0.37266487430E+02 -0.65971157306E+02  0.30212514585E+03  0.31148128104E+03  0.00000000000E+00 0. -1.
        -11    1    5    5    0    0 -0.14127939944E+03 -0.19108193126E+03  0.18424048812E+04  0.18576673328E+04  0.00000000000E+00 0.  1.
          1    1    6    6  503    0 -0.47445742562E+01  0.66950629587E+00  0.30343474013E+01  0.56715507320E+01  0.00000000000E+00 0. -1.
         -1    1    6    6    0  503  0.16771950373E+03  0.45650267604E+03  0.11062758993E+04  0.12084580632E+04  0.00000000000E+00 0.  1.
<mgrwt>
<rscale>  0 0.25907124E+04</rscale>
<asrwt>0</asrwt>
<pdfrwt beam="1">  1        2 0.51470666E+00 0.25907124E+04</pdfrwt>
<pdfrwt beam="2">  1       -1 0.77159943E-01 0.25907124E+04</pdfrwt>
<totfact> 0.17605333E+00</totfact>
</mgrwt>
</event>
<event>
12    6  0.8914180E-008  0.2229508E+04  0.7818608E-02  0.8506246E-01
         -1   -1    0    0    0  501 -0.00000000000E+00  0.00000000000E+00  0.13127402890E+04  0.13127402890E+04  0.00000000000E+00 0.  1.
          2   -1    0    0  501    0  0.00000000000E+00 -0.00000000000E+00 -0.94662803529E+03  0.94662803529E+03  0.00000000000E+00 0. -1.
         24    2    1    2    0    0  0.51427139582E+03  0.57429204163E+03  0.68374476526E+03  0.10334557433E+04  0.78977539084E+02 0.  0.
        254    2    1    2    0    0 -0.51427139582E+03 -0.57429204163E+03 -0.31763251150E+03  0.12259125810E+04  0.89871287204E+03 0.  0.
         23    2    4    4    0    0  0.81761955834E+02 -0.48501465672E+03 -0.35748182111E+03  0.61499343074E+03  0.92192368318E+02 0.  0.
         23    2    4    4    0    0 -0.59603335165E+03 -0.89277384908E+02  0.39849309610E+02  0.61091915030E+03  0.91695326986E+02 0.  0.
          2    1    3    3  502    0  0.40326749531E+02  0.18162748154E+02  0.37330938077E+02  0.57876861404E+02  0.00000000000E+00 0. -1.
         -1    1    3    3    0  502  0.47394464629E+03  0.55612929348E+03  0.64641382718E+03  0.97557888188E+03  0.00000000000E+00 0.  1.
         11    1    5    5    0    0  0.79452517445E+01 -0.31428587259E+03 -0.22113352425E+03  0.38436801672E+03  0.00000000000E+00 0.  1.
        -11    1    5    5    0    0  0.73816704090E+02 -0.17072878414E+03 -0.13634829686E+03  0.23062541402E+03  0.00000000000E+00 0. -1.
          3    1    6    6  503    0 -0.40354182791E+03 -0.10349083892E+03  0.26584663086E+02  0.41744832605E+03  0.00000000000E+00 0. -1.
         -3    1    6    6    0  503 -0.19249152374E+03  0.14213454015E+02  0.13264646525E+02  0.19347082425E+03  0.00000000000E+00 0.  1.
<mgrwt>
<rscale>  0 0.22295083E+04</rscale>
<asrwt>0</asrwt>
<pdfrwt beam="1">  1        2 0.14563508E+00 0.22295083E+04</pdfrwt>
<pdfrwt beam="2">  1       -1 0.20196004E+00 0.22295083E+04</pdfrwt>
<totfact> 0.41403882E+00</totfact>
</mgrwt>
</event>
<event>
12    6  0.8914180E-008  0.1928741E+04  0.7818608E-02  0.8640681E-01
         -1   -1    0    0    0  501 -0.00000000000E+00  0.00000000000E+00  0.43281992076E+03  0.43281992076E+03  0.00000000000E+00 0.  1.
          2   -1    0    0  501    0  0.00000000000E+00 -0.00000000000E+00 -0.21487233681E+04  0.21487233681E+04  0.00000000000E+00 0. -1.
         24    2    1    2    0    0  0.12989439610E+03  0.57487209133E+03 -0.12775415460E+04  0.14096186688E+04  0.86959267479E+02 0.  0.
        254    2    1    2    0    0 -0.12989439610E+03 -0.57487209133E+03 -0.43836190138E+03  0.11719246201E+04  0.91317888883E+03 0.  0.
         23    2    4    4    0    0 -0.43488801934E+03 -0.58790203296E+03 -0.17254480843E+03  0.75693286729E+03  0.91756552596E+02 0.  0.
         23    2    4    4    0    0  0.30499362324E+03  0.13029941623E+02 -0.26581709295E+03  0.41499175278E+03  0.91479715661E+02 0.  0.
          2    1    3    3  502    0  0.60196606701E+02  0.40672315613E+03 -0.94375719517E+03  0.10294294539E+04  0.00000000000E+00 0. -1.
         -1    1    3    3    0  502  0.69697789402E+02  0.16814893521E+03 -0.33378435081E+03  0.38018921487E+03  0.00000000000E+00 0.  1.
         11    1    5    5    0    0 -0.54974263219E+02 -0.43168815611E+02  0.31067977263E+01  0.69966909678E+02  0.00000000000E+00 0.  1.
        -11    1    5    5    0    0 -0.37991375612E+03 -0.54473321735E+03 -0.17565160616E+03  0.68696595761E+03  0.00000000000E+00 0. -1.
          3    1    6    6  503    0  0.26125103271E+03 -0.22549306270E+02 -0.21526783234E+03  0.33926510717E+03  0.00000000000E+00 0. -1.
         -3    1    6    6    0  503  0.43742590529E+02  0.35579247893E+02 -0.50549260613E+02  0.75726645610E+02  0.00000000000E+00 0.  1.
<mgrwt>
<rscale>  0 0.19287408E+04</rscale>
<asrwt>0</asrwt>
<pdfrwt beam="1">  1        2 0.33057283E+00 0.19287408E+04</pdfrwt>
<pdfrwt beam="2">  1       -1 0.66587679E-01 0.19287408E+04</pdfrwt>
<totfact> 0.13416257E+01</totfact>
</mgrwt>
</event>
<event>
12    6  0.8914180E-008  0.1663662E+04  0.7818608E-02  0.8782365E-01
          2   -1    0    0  501    0  0.00000000000E+00  0.00000000000E+00  0.35734648529E+03  0.35734648529E+03  0.00000000000E+00 0. -1.
         -1   -1    0    0    0  501 -0.00000000000E+00 -0.00000000000E+00 -0.19363364235E+04  0.19363364235E+04  0.00000000000E+00 0.  1.
         24    2    1    2    0    0 -0.16363675798E+03 -0.12444599038E+03  0.19571106119E+03  0.29474517288E+03  0.79423575710E+02 0.  0.
        254    2    1    2    0    0  0.16363675798E+03  0.12444599038E+03 -0.17747009995E+04  0.19989377360E+04  0.89661844822E+03 0.  0.
         23    2    4    4    0    0 -0.20660497996E+02  0.15758372031E+03 -0.17786290204E+04  0.17879025412E+04  0.88401467724E+02 0.  0.
         23    2    4    4    0    0  0.18429725598E+03 -0.33137729927E+02  0.39280209103E+01  0.21103519481E+03  0.97246266728E+02 0.  0.
          4    1    3    3  502    0 -0.15321774404E+03 -0.79629904002E+02  0.16862960852E+03  0.24135563712E+03  0.00000000000E+00 0. -1.
         -3    1    3    3    0  502 -0.10419013942E+02 -0.44816086378E+02  0.27081452670E+02  0.53389535758E+02  0.00000000000E+00 0.  1.
         11    1    5    5    0    0 -0.43919771742E+02  0.11690419618E+03 -0.98397563722E+03  0.99186873733E+03  0.00000000000E+00 0.  1.
        -11    1    5    5    0    0  0.23259273746E+02  0.40679524123E+02 -0.79465338314E+03  0.79603380382E+03  0.00000000000E+00 0. -1.
          3    1    6    6  503    0  0.21893812569E+01  0.14589637493E+02  0.16774531778E+02  0.22339109849E+02  0.00000000000E+00 0. -1.
         -3    1    6    6    0  503  0.18210787472E+03 -0.47727367420E+02 -0.12846510868E+02  0.18869608496E+03  0.00000000000E+00 0.  1.
<mgrwt>
<rscale>  0 0.16636622E+04</rscale>
<asrwt>0</asrwt>
<pdfrwt beam="1">  1        2 0.54976383E-01 0.16636622E+04</pdfrwt>
<pdfrwt beam="2">  1       -1 0.29789791E+00 0.16636622E+04</pdfrwt>
<totfact> 0.33641591E+00</totfact>
</mgrwt>
</event>
<event>
12    6  0.8914180E-008  0.2854877E+04  0.7818608E-02  0.8286431E-01
          2   -1    0    0  501    0  0.00000000000E+00  0.00000000000E+00  0.16973614631E+04  0.16973614631E+04  0.00000000000E+00 0. -1.
         -1   -1    0    0    0  501 -0.00000000000E+00 -0.00000000000E+00 -0.12004396448E+04  0.12004396448E+04  0.00000000000E+00 0.  1.
         24    2    1    2    0    0 -0.19713587192E+03  0.96443605497E+03  0.10660371487E+04  0.14532593761E+04  0.80797002831E+02 0.  0.
        254    2    1    2    0    0  0.19713587192E+03 -0.96443605497E+03 -0.56911533044E+03  0.14445417318E+04  0.89095965079E+03 0.  0.
         23    2    4    4    0    0 -0.33753792733E+02 -0.67576121252E+03 -0.75581608652E+03  0.10186991285E+04  0.93259974869E+02 0.  0.
         23    2    4    4    0    0  0.23088966465E+03 -0.28867484245E+03  0.18670075608E+03  0.42584260325E+03  0.99204579107E+02 0.  0.
          4    1    3    3  502    0 -0.13975347720E+03  0.52436910160E+03  0.55035249764E+03  0.77290481999E+03  0.00000000000E+00 0. -1.
         -3    1    3    3    0  502 -0.57382394723E+02  0.44006695337E+03  0.51568465108E+03  0.68035455612E+03  0.00000000000E+00 0.  1.
         11    1    5    5    0    0  0.23976887164E+02 -0.41791828065E+03 -0.45228923777E+03  0.61627602178E+03  0.00000000000E+00 0. -1.
        -11    1    5    5    0    0 -0.57730679897E+02 -0.25784293187E+03 -0.30352684875E+03  0.40242310673E+03  0.00000000000E+00 0.  1.
          1    1    6    6  503    0  0.16979739724E+03 -0.20916267240E+03  0.18265543869E+03  0.32548915330E+03  0.00000000000E+00 0. -1.
         -1    1    6    6    0  503  0.61092267414E+02 -0.79512170051E+02  0.40453173903E+01  0.10035344995E+03  0.00000000000E+00 0.  1.
<mgrwt>
<rscale>  0 0.28548765E+04</rscale>
<asrwt>0</asrwt>
<pdfrwt beam="1">  1        2 0.26113253E+00 0.28548765E+04</pdfrwt>
<pdfrwt beam="2">  1       -1 0.18468302E+00 0.28548765E+04</pdfrwt>
<totfact> 0.18695162E+00</totfact>
</mgrwt>
</event>
<event>
12    6  0.8914180E-008  0.1929225E+04  0.7818608E-02  0.8640444E-01
          2   -1    0    0  501    0  0.00000000000E+00  0.00000000000E+00  0.24835630685E+04  0.24835630685E+04  0.00000000000E+00 0. -1.
         -1   -1    0    0    0  501 -0.00000000000E+00 -0.00000000000E+00 -0.37465413838E+03  0.37465413838E+03  0.00000000000E+00 0.  1.
         24    2    1    2    0    0 -0.45768700901E+02 -0.71843888212E+03  0.49382336745E+03  0.87669578333E+03  0.80528112756E+02 0.  0.
        254    2    1    2    0    0  0.45768700901E+02  0.71843888212E+03  0.16150855626E+04  0.19815214235E+04  0.89424637316E+03 0.  0.
         23    2    4    4    0    0  0.42085877236E+03  0.37755703477E+03  0.11630103996E+04  0.12962687190E+04  0.89710543659E+02 0.  0.
         23    2    4    4    0    0 -0.37509007145E+03  0.34088184735E+03  0.45207516305E+03  0.68525270448E+03  0.91139016887E+02 0.  0.
          2    1    3    3  502    0  0.13943484844E+02 -0.38227261499E+02  0.18374740759E+02  0.44647232717E+02  0.00000000000E+00 0. -1.
         -1    1    3    3    0  502 -0.59712185745E+02 -0.68021162062E+03  0.47544862669E+03  0.83204855061E+03  0.00000000000E+00 0.  1.
         11    1    5    5    0    0  0.32503457283E+03  0.32160114680E+03  0.86782612500E+03  0.98091638501E+03  0.00000000000E+00 0.  1.
        -11    1    5    5    0    0  0.95824199527E+02  0.55955887977E+02  0.29518427458E+03  0.31535233402E+03  0.00000000000E+00 0. -1.
          1    1    6    6  503    0  0.18902479806E+01 -0.39096594037E-01  0.14348862079E+02  0.14472885301E+02  0.00000000000E+00 0. -1.
         -1    1    6    6    0  503 -0.37698031943E+03  0.34092094394E+03  0.43772630097E+03  0.67077981918E+03  0.00000000000E+00 0.  1.
<mgrwt>
<rscale>  0 0.19292249E+04</rscale>
<asrwt>0</asrwt>
<pdfrwt beam="1">  1        2 0.38208662E+00 0.19292249E+04</pdfrwt>
<pdfrwt beam="2">  1       -1 0.57639100E-01 0.19292249E+04</pdfrwt>
<totfact> 0.11547856E+01</totfact>
</mgrwt>
</event>
<event>
12    6  0.8914180E-008  0.1687782E+04  0.7818608E-02  0.8768364E-01
         -1   -1    0    0    0  501 -0.00000000000E+00  0.00000000000E+00  0.31553090309E+03  0.31553090309E+03  0.00000000000E+00 0.  1.
          2   -1    0    0  501    0  0.00000000000E+00 -0.00000000000E+00 -0.22569956145E+04  0.22569956145E+04  0.00000000000E+00 0. -1.
         24    2    1    2    0    0 -0.41976816110E+03 -0.30107279051E+03 -0.23965073892E+03  0.57529649157E+03  0.81752322802E+02 0.  0.
        254    2    1    2    0    0  0.41976816110E+03  0.30107279051E+03 -0.17018139725E+04  0.19972300260E+04  0.90879417120E+03 0.  0.
         23    2    4    4    0    0  0.38691338254E+03 -0.25708242874E+03 -0.67827094493E+03  0.82738529274E+03  0.93389545171E+02 0.  0.
         23    2    4    4    0    0  0.32854778565E+02  0.55815521925E+03 -0.10235430276E+04  0.11698447333E+04  0.90992776984E+02 0.  0.
          2    1    3    3  502    0 -0.99957601847E+02 -0.32478077353E+02 -0.55587371962E+02  0.11889618832E+03  0.00000000000E+00 0. -1.
         -1    1    3    3    0  502 -0.31981055926E+03 -0.26859471316E+03 -0.18406336696E+03  0.45640030325E+03  0.00000000000E+00 0.  1.
         11    1    5    5    0    0  0.42072367762E+02 -0.69297064173E+02 -0.12274123604E+03  0.14709717283E+03  0.00000000000E+00 0. -1.
        -11    1    5    5    0    0  0.34484101478E+03 -0.18778536457E+03 -0.55552970890E+03  0.68028811991E+03  0.00000000000E+00 0.  1.
          2    1    6    6  503    0  0.45713038189E+02  0.52712619645E+03 -0.92373282189E+03  0.10645346566E+04  0.00000000000E+00 0.  1.
         -2    1    6    6    0  503 -0.12858259624E+02  0.31029022802E+02 -0.99810205666E+02  0.10531007669E+03  0.00000000000E+00 0. -1.
<mgrwt>
<rscale>  0 0.16877818E+04</rscale>
<asrwt>0</asrwt>
<pdfrwt beam="1">  1        2 0.34723009E+00 0.16877818E+04</pdfrwt>
<pdfrwt beam="2">  1       -1 0.48543216E-01 0.16877818E+04</pdfrwt>
<totfact> 0.22100702E+01</totfact>
</mgrwt>
</event>
<event>
12    6  0.8914180E-008  0.1483719E+04  0.7818608E-02  0.8895352E-01
         -1   -1    0    0    0  501 -0.00000000000E+00  0.00000000000E+00  0.49544942426E+03  0.49544942426E+03  0.00000000000E+00 0.  1.
          2   -1    0    0  501    0  0.00000000000E+00 -0.00000000000E+00 -0.11108213355E+04  0.11108213355E+04  0.00000000000E+00 0. -1.
         24    2    1    2    0    0  0.19034483273E+02  0.12432401584E+03 -0.67093720958E+03  0.68732699755E+03  0.80267614230E+02 0.  0.
        254    2    1    2    0    0 -0.19034483273E+02 -0.12432401584E+03  0.55565298342E+02  0.91894376221E+03  0.90859857102E+03 0.  0.
         23    2    4    4    0    0  0.13521370241E+03 -0.37275391360E+03 -0.25681177406E+03  0.48161496685E+03  0.93661430579E+02 0.  0.
         23    2    4    4    0    0 -0.15424818568E+03  0.24842989776E+03  0.31237707240E+03  0.43732879536E+03  0.90372136185E+02 0.  0.
          4    1    3    3  502    0  0.14232200773E+02  0.13516245129E+03 -0.58524819243E+03  0.60082184591E+03  0.00000000000E+00 0. -1.
         -3    1    3    3    0  502  0.48022825000E+01 -0.10838435455E+02 -0.85689017149E+02  0.86505151640E+02  0.00000000000E+00 0.  1.
         11    1    5    5    0    0  0.12557945367E+03 -0.35181495150E+03 -0.26404965420E+03  0.45745620464E+03  0.00000000000E+00 0.  1.
        -11    1    5    5    0    0  0.96342487434E+01 -0.20938962097E+02  0.72378801407E+01  0.24158762209E+02  0.00000000000E+00 0. -1.
          2    1    6    6  503    0 -0.92425193187E+02  0.68570869691E+02  0.10269217110E+03  0.15424027526E+03  0.00000000000E+00 0. -1.
         -2    1    6    6    0  503 -0.61822992497E+02  0.17985902807E+03  0.20968490130E+03  0.28308852010E+03  0.00000000000E+00 0.  1.
<mgrwt>
<rscale>  0 0.14837194E+04</rscale>
<asrwt>0</asrwt>
<pdfrwt beam="1">  1        2 0.17089559E+00 0.14837194E+04</pdfrwt>
<pdfrwt beam="2">  1       -1 0.76222989E-01 0.14837194E+04</pdfrwt>
<totfact> 0.40913217E+01</totfact>
</mgrwt>
</event>
<event>
12    6  0.8914180E-008  0.2209092E+04  0.7818608E-02  0.8514653E-01
          2   -1    0    0  501    0  0.00000000000E+00  0.00000000000E+00  0.14200330550E+04  0.14200330550E+04  0.00000000000E+00 0. -1.
         -1   -1    0    0    0  501 -0.00000000000E+00 -0.00000000000E+00 -0.85915006700E+03  0.85915006700E+03  0.00000000000E+00 0.  1.
         24    2    1    2    0    0  0.56804318651E+03  0.35655827396E+03 -0.41331533101E+03  0.79209272084E+03  0.82307053664E+02 0.  0.
        254    2    1    2    0    0 -0.56804318651E+03 -0.35655827396E+03  0.97419831897E+03  0.14870904011E+04  0.90142588823E+03 0.  0.
         23    2    4    4    0    0 -0.45611879107E+03  0.10958740595E+03  0.10339799781E+03  0.48873389635E+03  0.90088425380E+02 0.  0.
         23    2    4    4    0    0 -0.11192439545E+03 -0.46614567991E+03  0.87080032116E+03  0.99835650477E+03  0.92755841303E+02 0.  0.
          2    1    3    3  502    0  0.32489859932E+03  0.20636218097E+03 -0.18908220434E+03  0.42883158649E+03  0.00000000000E+00 0. -1.
         -1    1    3    3    0  502  0.24314458719E+03  0.15019609299E+03 -0.22423312667E+03  0.36326113435E+03  0.00000000000E+00 0.  1.
         11    1    5    5    0    0 -0.23231548981E+03  0.11647401301E+02  0.36583427207E+02  0.23546654944E+03  0.00000000000E+00 0. -1.
        -11    1    5    5    0    0 -0.22380330126E+03  0.97940004650E+02  0.66814570606E+02  0.25326734691E+03  0.00000000000E+00 0.  1.
          3    1    6    6  503    0  0.23766069353E+01 -0.16225352275E+02  0.72236867924E+01  0.17919039256E+02  0.00000000000E+00 0. -1.
         -3    1    6    6    0  503 -0.11430100238E+03 -0.44992032764E+03  0.86357663436E+03  0.98043746552E+03  0.00000000000E+00 0.  1.
<mgrwt>
<rscale>  0 0.22090917E+04</rscale>
<asrwt>0</asrwt>
<pdfrwt beam="1">  1        2 0.21846662E+00 0.22090917E+04</pdfrwt>
<pdfrwt beam="2">  1       -1 0.13217693E+00 0.22090917E+04</pdfrwt>
<totfact> 0.71317975E+00</totfact>
</mgrwt>
</event>
<event>
12    6  0.8914180E-008  0.1777165E+04  0.7818608E-02  0.8718538E-01
         -3   -1    0    0    0  501 -0.00000000000E+00  0.00000000000E+00  0.20970700770E+03  0.20970700770E+03  0.00000000000E+00 0.  1.
          2   -1    0    0  501    0  0.00000000000E+00 -0.00000000000E+00 -0.37651507233E+04  0.37651507233E+04  0.00000000000E+00 0. -1.
         24    2    1    2    0    0  0.55859793287E+03 -0.19825648776E+03 -0.67372805600E+03  0.90092512371E+03  0.80120531411E+02 0.  0.
        254    2    1    2    0    0 -0.55859793287E+03  0.19825648776E+03 -0.28817156596E+04  0.30739326073E+04  0.89075206754E+03 0.  0.
         23    2    4    4    0    0 -0.24451833778E+03 -0.92128200703E+02 -0.16509980281E+03  0.32231461758E+03  0.91388976037E+02 0.  0.
         23    2    4    4    0    0 -0.31407959509E+03  0.29038468847E+03 -0.27166158568E+04  0.27516179897E+04  0.91818236615E+02 0.  0.
          2    1    3    3  502    0  0.25383881466E+03 -0.60520509378E+02 -0.25296415409E+03  0.36343876945E+03  0.00000000000E+00 0. -1.
         -1    1    3    3    0  502  0.30475911821E+03 -0.13773597839E+03 -0.42076390190E+03  0.53748635426E+03  0.00000000000E+00 0.  1.
         11    1    5    5    0    0 -0.22997087027E+03 -0.54441115772E+02 -0.13798015508E+03  0.27365847229E+03  0.00000000000E+00 0.  1.
        -11    1    5    5    0    0 -0.14547467512E+02 -0.37687084931E+02 -0.27119647727E+02  0.48656145289E+02  0.00000000000E+00 0. -1.
          2    1    6    6  503    0 -0.16266556210E+02 -0.37642949381E+01 -0.62282350912E+02  0.64481485733E+02  0.00000000000E+00 0. -1.
         -2    1    6    6    0  503 -0.29781303888E+03  0.29414898340E+03 -0.26543335059E+04  0.26871365040E+04  0.00000000000E+00 0.  1.
<mgrwt>
<rscale>  0 0.17771646E+04</rscale>
<asrwt>0</asrwt>
<pdfrwt beam="1">  1        2 0.57925397E+00 0.17771646E+04</pdfrwt>
<pdfrwt beam="2">  1       -3 0.32262616E-01 0.17771646E+04</pdfrwt>
<totfact> 0.30692333E+00</totfact>
</mgrwt>
</event>
<event>
12    6  0.8914180E-008  0.1274287E+04  0.7818608E-02  0.9050208E-01
          2   -1    0    0  501    0  0.00000000000E+00  0.00000000000E+00  0.51841493439E+03  0.51841493439E+03  0.00000000000E+00 0. -1.
         -1   -1    0    0    0  501 -0.00000000000E+00 -0.00000000000E+00 -0.78306364373E+03  0.78306364373E+03  0.00000000000E+00 0.  1.
         24    2    1    2    0    0 -0.29415016173E+02  0.42235127382E+01  0.25126152984E+03  0.26503769449E+03  0.78927446984E+02 0.  0.
        254    2    1    2    0    0  0.29415016173E+02 -0.42235127382E+01 -0.51591023918E+03  0.10364408836E+04  0.89842264505E+03 0.  0.
         23    2    4    4    0    0  0.25923046844E+03  0.35458468265E+03 -0.35091797593E+03  0.56967383367E+03  0.91946277838E+02 0.  0.
         23    2    4    4    0    0 -0.22981545226E+03 -0.35880819539E+03 -0.16499226325E+03  0.46676704996E+03  0.95344474499E+02 0.  0.
          4    1    3    3  502    0 -0.16853018819E+02  0.27592394107E+02  0.22633885601E+03  0.22863648483E+03  0.00000000000E+00 0. -1.
         -3    1    3    3    0  502 -0.12561997354E+02 -0.23368881369E+02  0.24922673831E+02  0.36401209662E+02  0.00000000000E+00 0.  1.
         11    1    5    5    0    0  0.22105232587E+03  0.26573175465E+03 -0.23153683107E+03  0.41603701800E+03  0.00000000000E+00 0. -1.
        -11    1    5    5    0    0  0.38178142566E+02  0.88852927999E+02 -0.11938114486E+03  0.15363681567E+03  0.00000000000E+00 0.  1.
          3    1    6    6  503    0 -0.22796887600E+03 -0.34642436942E+03 -0.17560677411E+03  0.45035251889E+03  0.00000000000E+00 0. -1.
         -3    1    6    6    0  503 -0.18465762636E+01 -0.12383825971E+02  0.10614510861E+02  0.16414531074E+02  0.00000000000E+00 0.  1.
<mgrwt>
<rscale>  0 0.12742871E+04</rscale>
<asrwt>0</asrwt>
<pdfrwt beam="1">  1        2 0.79756144E-01 0.12742871E+04</pdfrwt>
<pdfrwt beam="2">  1       -1 0.12047133E+00 0.12742871E+04</pdfrwt>
<totfact> 0.40651496E+01</totfact>
</mgrwt>
</event>
<event>
12    6  0.8914180E-008  0.2039876E+04  0.7818608E-02  0.8588201E-01
          2   -1    0    0  501    0  0.00000000000E+00  0.00000000000E+00  0.80418507729E+03  0.80418507729E+03  0.00000000000E+00 0. -1.
         -1   -1    0    0    0  501 -0.00000000000E+00 -0.00000000000E+00 -0.12935750437E+04  0.12935750437E+04  0.00000000000E+00 0.  1.
         24    2    1    2    0    0  0.30987159513E+03 -0.58192007842E+03  0.29881022388E+03  0.72802008197E+03  0.77937838808E+02 0.  0.
        254    2    1    2    0    0 -0.30987159513E+03  0.58192007842E+03 -0.78820019031E+03  0.13697400390E+04  0.90569136653E+03 0.  0.
         23    2    4    4    0    0 -0.47401925978E+03  0.72724532157E+03 -0.54120924635E+03  0.10269521739E+04  0.90240250754E+02 0.  0.
         23    2    4    4    0    0  0.16414766465E+03 -0.14532524314E+03 -0.24699094397E+03  0.34278786510E+03  0.91842865565E+02 0.  0.
          4    1    3    3  502    0  0.22139316748E+03 -0.38560505356E+03  0.16374551595E+03  0.47383413335E+03  0.00000000000E+00 0. -1.
         -3    1    3    3    0  502  0.88478427652E+02 -0.19631502487E+03  0.13506470793E+03  0.25418594862E+03  0.00000000000E+00 0.  1.
         11    1    5    5    0    0 -0.45326823478E+03  0.67383600090E+03 -0.52635714686E+03  0.96775972990E+03  0.00000000000E+00 0.  1.
        -11    1    5    5    0    0 -0.20751024995E+02  0.53409320667E+02 -0.14852099489E+02  0.59192444042E+02  0.00000000000E+00 0. -1.
          2    1    6    6  503    0 -0.21625860402E+01 -0.14145853249E+02  0.35118747853E+01  0.14734829725E+02  0.00000000000E+00 0. -1.
         -2    1    6    6    0  503  0.16631025069E+03 -0.13117938989E+03 -0.25050281875E+03  0.32805303538E+03  0.00000000000E+00 0.  1.
<mgrwt>
<rscale>  0 0.20398762E+04</rscale>
<asrwt>0</asrwt>
<pdfrwt beam="1">  1        2 0.12372078E+00 0.20398762E+04</pdfrwt>
<pdfrwt beam="2">  1       -1 0.19901154E+00 0.20398762E+04</pdfrwt>
<totfact> 0.55265547E+00</totfact>
</mgrwt>
</event>
<event>
12    6  0.8914180E-008  0.2069115E+04  0.7818608E-02  0.8574972E-01
         -1   -1    0    0    0  501 -0.00000000000E+00  0.00000000000E+00  0.60608910783E+03  0.60608910783E+03  0.00000000000E+00 0.  1.
          2   -1    0    0  501    0  0.00000000000E+00 -0.00000000000E+00 -0.17659275698E+04  0.17659275698E+04  0.00000000000E+00 0. -1.
         24    2    1    2    0    0  0.10098216561E+03  0.43020864190E+03 -0.12753038492E+04  0.13519085839E+04  0.77330705989E+02 0.  0.
        254    2    1    2    0    0 -0.10098216561E+03 -0.43020864190E+03  0.11546538717E+03  0.10201080938E+04  0.91214658583E+03 0.  0.
         23    2    4    4    0    0  0.27878782372E+03  0.10945578843E+03 -0.85940438719E+02  0.32404108502E+03  0.88958672981E+02 0.  0.
         23    2    4    4    0    0 -0.37976998934E+03 -0.53966443033E+03  0.20140582589E+03  0.69606700876E+03  0.92097946886E+02 0.  0.
          4    1    3    3  502    0  0.85978104592E+02  0.39769482587E+03 -0.10965836398E+04  0.11696363059E+04  0.00000000000E+00 0. -1.
         -3    1    3    3    0  502  0.15004061019E+02  0.32513816027E+02 -0.17872020933E+03  0.18227227794E+03  0.00000000000E+00 0.  1.
         11    1    5    5    0    0  0.20723879057E+03  0.11591748410E+03 -0.84953370444E+02  0.25219408119E+03  0.00000000000E+00 0. -1.
        -11    1    5    5    0    0  0.71549033153E+02 -0.64616956711E+01 -0.98706827554E+00  0.71847003834E+02  0.00000000000E+00 0.  1.
          2    1    6    6  503    0 -0.10157506834E+03 -0.19431270065E+03  0.33125859654E+02  0.22174815156E+03  0.00000000000E+00 0.  1.
         -2    1    6    6    0  503 -0.27819492100E+03 -0.34535172968E+03  0.16827996624E+03  0.47431885720E+03  0.00000000000E+00 0. -1.
<mgrwt>
<rscale>  0 0.20691152E+04</rscale>
<asrwt>0</asrwt>
<pdfrwt beam="1">  1        2 0.27168116E+00 0.20691152E+04</pdfrwt>
<pdfrwt beam="2">  1       -1 0.93244480E-01 0.20691152E+04</pdfrwt>
<totfact> 0.10586626E+01</totfact>
</mgrwt>
</event>
<event>
12    6  0.8914180E-008  0.1415932E+04  0.7818608E-02  0.8942366E-01
          2   -1    0    0  501    0  0.00000000000E+00  0.00000000000E+00  0.90604551350E+03  0.90604551350E+03  0.00000000000E+00 0. -1.
         -1   -1    0    0    0  501 -0.00000000000E+00 -0.00000000000E+00 -0.55319037379E+03  0.55319037379E+03  0.00000000000E+00 0.  1.
         24    2    1    2    0    0 -0.19631742258E+03 -0.35561301457E+03  0.21951225206E+03  0.46855914624E+03  0.79755239157E+02 0.  0.
        254    2    1    2    0    0  0.19631742258E+03  0.35561301457E+03  0.13334288765E+03  0.99067674105E+03  0.89367719733E+03 0.  0.
         23    2    4    4    0    0 -0.32737307941E+03 -0.30818079501E+01  0.68126006644E+02  0.34610739053E+03  0.89255489125E+02 0.  0.
         23    2    4    4    0    0  0.52369050199E+03  0.35869482252E+03  0.65216881007E+02  0.64456935052E+03  0.91119089525E+02 0.  0.
          4    1    3    3  502    0 -0.18342074704E+03 -0.28302102140E+03  0.15752072891E+03  0.37223225147E+03  0.00000000000E+00 0. -1.
         -3    1    3    3    0  502 -0.12896675547E+02 -0.72591993172E+02  0.61991523146E+02  0.96326894763E+02  0.00000000000E+00 0.  1.
         11    1    5    5    0    0 -0.56256469707E+02 -0.19514488583E+02  0.42767369302E+02  0.73312028519E+02  0.00000000000E+00 0.  1.
        -11    1    5    5    0    0 -0.27111660970E+03  0.16432680633E+02  0.25358637342E+02  0.27279536202E+03  0.00000000000E+00 0. -1.
          4    1    6    6  503    0  0.47705107539E+03  0.29025253922E+03  0.54818355553E+02  0.56109653105E+03  0.00000000000E+00 0. -1.
         -4    1    6    6    0  503  0.46639426600E+02  0.68442283303E+02  0.10398525454E+02  0.83472819462E+02  0.00000000000E+00 0.  1.
<mgrwt>
<rscale>  0 0.14159317E+04</rscale>
<asrwt>0</asrwt>
<pdfrwt beam="1">  1        2 0.13939162E+00 0.14159317E+04</pdfrwt>
<pdfrwt beam="2">  1       -1 0.85106211E-01 0.14159317E+04</pdfrwt>
<totfact> 0.44017983E+01</totfact>
</mgrwt>
</event>
<event>
12    6  0.8914180E-008  0.1041618E+04  0.7818608E-02  0.9264040E-01
         -1   -1    0    0    0  501 -0.00000000000E+00  0.00000000000E+00  0.31134896166E+03  0.31134896166E+03  0.00000000000E+00 0.  1.
          2   -1    0    0  501    0  0.00000000000E+00 -0.00000000000E+00 -0.87118410994E+03  0.87118410994E+03  0.00000000000E+00 0. -1.
         24    2    1    2    0    0  0.62122163914E+02 -0.71612246939E+02 -0.65907574286E+02  0.14283309743E+03  0.84083340864E+02 0.  0.
        254    2    1    2    0    0 -0.62122163914E+02  0.71612246939E+02 -0.49392757400E+03  0.10396999742E+04  0.90995830167E+03 0.  0.
         23    2    4    4    0    0 -0.13611086606E+03 -0.72279214043E+02 -0.72299600242E+03  0.74485691533E+03  0.91313482950E+02 0.  0.
         23    2    4    4    0    0  0.73988702146E+02  0.14389146098E+03  0.22906842842E+03  0.29484305884E+03  0.91000021215E+02 0.  0.
          2    1    3    3  502    0  0.18230102650E+02 -0.27529486276E+02 -0.73099858112E+02  0.80210962550E+02  0.00000000000E+00 0. -1.
         -1    1    3    3    0  502  0.43892061264E+02 -0.44082760663E+02  0.71922838263E+01  0.62622134875E+02  0.00000000000E+00 0.  1.
         11    1    5    5    0    0 -0.13694367608E+03 -0.64831399915E+02 -0.72147114499E+03  0.73720912494E+03  0.00000000000E+00 0.  1.
        -11    1    5    5    0    0  0.83281001551E+00 -0.74478141275E+01 -0.15248574231E+01  0.76477903973E+01  0.00000000000E+00 0. -1.
          4    1    6    6  503    0 -0.92779166527E+00  0.90365594082E+02  0.14071536222E+03  0.16723520729E+03  0.00000000000E+00 0.  1.
         -4    1    6    6    0  503  0.74916493811E+02  0.53525866900E+02  0.88353066195E+02  0.12760785155E+03  0.00000000000E+00 0. -1.
<mgrwt>
<rscale>  0 0.10416185E+04</rscale>
<asrwt>0</asrwt>
<pdfrwt beam="1">  1        2 0.13402832E+00 0.10416185E+04</pdfrwt>
<pdfrwt beam="2">  1       -1 0.47899841E-01 0.10416185E+04</pdfrwt>
<totfact> 0.15178933E+02</totfact>
</mgrwt>
</event>
<event>
12    6  0.8914180E-008  0.2472037E+04  0.7818608E-02  0.8413016E-01
         -1   -1    0    0    0  501 -0.00000000000E+00  0.00000000000E+00  0.15330182994E+04  0.15330182994E+04  0.00000000000E+00 0.  1.
          2   -1    0    0  501    0  0.00000000000E+00 -0.00000000000E+00 -0.99655776844E+03  0.99655776844E+03  0.00000000000E+00 0. -1.
         24    2    1    2    0    0  0.22318240001E+03  0.34248978105E+03 -0.78128405090E+03  0.88539653391E+03  0.80078837848E+02 0.  0.
        254    2    1    2    0    0 -0.22318240001E+03 -0.34248978105E+03  0.13177445819E+04  0.16441795339E+04  0.89429632839E+03 0.  0.
         23    2    4    4    0    0 -0.14912051946E+03 -0.82065385594E+02  0.13432569056E+04  0.13572581996E+04  0.94016217540E+02 0.  0.
         23    2    4    4    0    0 -0.74061880552E+02 -0.26042439546E+03 -0.25512323705E+02  0.28692133434E+03  0.91471009276E+02 0.  0.
          2    1    3    3  502    0  0.66292669697E+02  0.16259211274E+03 -0.28612902223E+03  0.33570929469E+03  0.00000000000E+00 0. -1.
         -1    1    3    3    0  502  0.15688973031E+03  0.17989766831E+03 -0.49515502868E+03  0.54968723922E+03  0.00000000000E+00 0.  1.
         11    1    5    5    0    0  0.58507370315E+01  0.84663128745E+01  0.17428690029E+03  0.17459047280E+03  0.00000000000E+00 0.  1.
        -11    1    5    5    0    0 -0.15497125649E+03 -0.90531698469E+02  0.11689700053E+04  0.11826677268E+04  0.00000000000E+00 0. -1.
          3    1    6    6  503    0 -0.37410878855E+02 -0.20649818504E+03 -0.52544266092E+02  0.21633763931E+03  0.00000000000E+00 0. -1.
         -3    1    6    6    0  503 -0.36651001697E+02 -0.53926210419E+02  0.27031942387E+02  0.70583695034E+02  0.00000000000E+00 0.  1.
<mgrwt>
<rscale>  0 0.24720366E+04</rscale>
<asrwt>0</asrwt>
<pdfrwt beam="1">  1        2 0.15331658E+00 0.24720366E+04</pdfrwt>
<pdfrwt beam="2">  1       -1 0.23584897E+00 0.24720366E+04</pdfrwt>
<totfact> 0.22278657E+00</totfact>
</mgrwt>
</event>
<event>
12    6  0.8914180E-008  0.1247072E+04  0.7818608E-02  0.9072624E-01
          2   -1    0    0  501    0  0.00000000000E+00  0.00000000000E+00  0.13163370259E+04  0.13163370259E+04  0.00000000000E+00 0. -1.
         -1   -1    0    0    0  501 -0.00000000000E+00 -0.00000000000E+00 -0.29536293627E+03  0.29536293627E+03  0.00000000000E+00 0.  1.
         24    2    1    2    0    0 -0.94287675111E+02  0.23397737821E+03  0.63412868918E+02  0.27240482105E+03  0.80917336812E+02 0.  0.
        254    2    1    2    0    0  0.94287675111E+02 -0.23397737821E+03  0.95756122069E+03  0.13392951411E+04  0.90174963508E+03 0.  0.
         23    2    4    4    0    0  0.54427745656E+02  0.23639299326E+03  0.78734023736E+03  0.82922102930E+03  0.94121407318E+02 0.  0.
         23    2    4    4    0    0  0.39859929456E+02 -0.47037037147E+03  0.17022098333E+03  0.51007411178E+03  0.91451167363E+02 0.  0.
          4    1    3    3  502    0 -0.71607865012E+02  0.22946336248E+03  0.65626200108E+02  0.24917447540E+03  0.00000000000E+00 0. -1.
         -3    1    3    3    0  502 -0.22679810099E+02  0.45140157334E+01 -0.22133311898E+01  0.23230345652E+02  0.00000000000E+00 0.  1.
         11    1    5    5    0    0  0.59133873859E+02  0.20123157012E+03  0.53917708560E+03  0.57853512381E+03  0.00000000000E+00 0. -1.
        -11    1    5    5    0    0 -0.47061282035E+01  0.35161423137E+02  0.24816315176E+03  0.25068590549E+03  0.00000000000E+00 0.  1.
          4    1    6    6  503    0 -0.30178389274E+01  0.15148915829E+01  0.89272336285E+01  0.95445140556E+01  0.00000000000E+00 0.  1.
         -4    1    6    6    0  503  0.42877768383E+02 -0.47188526305E+03  0.16129374970E+03  0.50052959772E+03  0.00000000000E+00 0. -1.
<mgrwt>
<rscale>  0 0.12470720E+04</rscale>
<asrwt>0</asrwt>
<pdfrwt beam="1">  1        2 0.20251338E+00 0.12470720E+04</pdfrwt>
<pdfrwt beam="2">  1       -1 0.45440453E-01 0.12470720E+04</pdfrwt>
<totfact> 0.87165341E+01</totfact>
</mgrwt>
</event>
<event>
12    6  0.8914180E-008  0.2449925E+04  0.7818608E-02  0.8421045E-01
          2   -1    0    0  501    0  0.00000000000E+00  0.00000000000E+00  0.18999408047E+04  0.18999408047E+04  0.00000000000E+00 0. -1.
         -1   -1    0    0    0  501 -0.00000000000E+00 -0.00000000000E+00 -0.78977869614E+03  0.78977869614E+03  0.00000000000E+00 0.  1.
         24    2    1    2    0    0  0.66603594951E+03 -0.52617020906E+03 -0.20836068756E+03  0.87789792740E+03  0.82653613770E+02 0.  0.
        254    2    1    2    0    0 -0.66603594951E+03  0.52617020906E+03  0.13185227961E+04  0.18118215734E+04  0.90759907177E+03 0.  0.
         23    2    4    4    0    0 -0.88060632067E+03  0.35319832268E+03  0.10135013198E+04  0.13913029574E+04  0.91227445968E+02 0.  0.
         23    2    4    4    0    0  0.21457037116E+03  0.17297188638E+03  0.30502147625E+03  0.42051861597E+03  0.88532975464E+02 0.  0.
          2    1    3    3  502    0  0.34360912582E+03 -0.32372074186E+03 -0.11282966955E+03  0.48537911408E+03  0.00000000000E+00 0. -1.
         -1    1    3    3    0  502  0.32242682370E+03 -0.20244946720E+03 -0.95531018014E+02  0.39251881332E+03  0.00000000000E+00 0.  1.
         11    1    5    5    0    0 -0.80636635355E+03  0.29731924719E+03  0.93106554119E+03  0.12670866083E+04  0.00000000000E+00 0. -1.
        -11    1    5    5    0    0 -0.74239967121E+02  0.55879075495E+02  0.82435778653E+02  0.12421634916E+03  0.00000000000E+00 0.  1.
          2    1    6    6  503    0  0.14476600242E+03  0.13190435867E+03  0.15396546371E+03  0.24912109366E+03  0.00000000000E+00 0. -1.
         -2    1    6    6    0  503  0.69804368737E+02  0.41067527710E+02  0.15105601254E+03  0.17139752231E+03  0.00000000000E+00 0.  1.
<mgrwt>
<rscale>  0 0.24499247E+04</rscale>
<asrwt>0</asrwt>
<pdfrwt beam="1">  1        2 0.29229858E+00 0.24499247E+04</pdfrwt>
<pdfrwt beam="2">  1       -1 0.12150442E+00 0.24499247E+04</pdfrwt>
<totfact> 0.46470603E+00</totfact>
</mgrwt>
</event>
<event>
12    6  0.8914180E-008  0.2372531E+04  0.7818608E-02  0.8449860E-01
          2   -1    0    0  501    0  0.00000000000E+00  0.00000000000E+00  0.12807611398E+04  0.12807611398E+04  0.00000000000E+00 0. -1.
         -1   -1    0    0    0  501 -0.00000000000E+00 -0.00000000000E+00 -0.10987416364E+04  0.10987416364E+04  0.00000000000E+00 0.  1.
         24    2    1    2    0    0  0.79251278824E+03 -0.26955372687E+03 -0.49115612977E+03  0.97391973462E+03  0.80929441379E+02 0.  0.
        254    2    1    2    0    0 -0.79251278824E+03  0.26955372687E+03  0.67317563323E+03  0.14055830416E+04  0.90651118160E+03 0.  0.
         23    2    4    4    0    0 -0.49296404432E+03  0.59532450865E+03  0.37581668870E+03  0.86458032649E+03  0.94000733307E+02 0.  0.
         23    2    4    4    0    0 -0.29954874392E+03 -0.32577078179E+03  0.29735894453E+03  0.54100271507E+03  0.91681751565E+02 0.  0.
          4    1    3    3  502    0  0.12746964374E+03 -0.60068584974E+02 -0.53724459263E+02  0.15080803194E+03  0.00000000000E+00 0. -1.
         -3    1    3    3    0  502  0.66504314450E+03 -0.20948514189E+03 -0.43743167051E+03  0.82311170268E+03  0.00000000000E+00 0.  1.
         11    1    5    5    0    0 -0.38518771195E+03  0.43930316217E+03  0.24149542022E+03  0.63220003141E+03  0.00000000000E+00 0. -1.
        -11    1    5    5    0    0 -0.10777633237E+03  0.15602134648E+03  0.13432126847E+03  0.23238029508E+03  0.00000000000E+00 0.  1.
          2    1    6    6  503    0 -0.16274288331E+03 -0.17466755791E+03  0.21459923029E+03  0.32100908320E+03  0.00000000000E+00 0. -1.
         -2    1    6    6    0  503 -0.13680586061E+03 -0.15110322387E+03  0.82759714241E+02  0.21999363187E+03  0.00000000000E+00 0.  1.
<mgrwt>
<rscale>  0 0.23725308E+04</rscale>
<asrwt>0</asrwt>
<pdfrwt beam="1">  1        2 0.19704018E+00 0.23725308E+04</pdfrwt>
<pdfrwt beam="2">  1       -1 0.16903717E+00 0.23725308E+04</pdfrwt>
<totfact> 0.43585440E+00</totfact>
</mgrwt>
</event>
<event>
12    6  0.8914180E-008  0.1770236E+04  0.7818608E-02  0.8722290E-01
          2   -1    0    0  501    0  0.00000000000E+00  0.00000000000E+00  0.63659571175E+03  0.63659571175E+03  0.00000000000E+00 0. -1.
         -1   -1    0    0    0  501 -0.00000000000E+00 -0.00000000000E+00 -0.12306613967E+04  0.12306613967E+04  0.00000000000E+00 0.  1.
         24    2    1    2    0    0  0.43642032194E+03 -0.12071693024E+03  0.26948103387E+03  0.53290741698E+03  0.79592793711E+02 0.  0.
        254    2    1    2    0    0 -0.43642032194E+03  0.12071693024E+03 -0.86354671884E+03  0.13343496915E+04  0.91090114113E+03 0.  0.
         23    2    4    4    0    0  0.39101684171E+02 -0.11037197046E+03  0.13411671289E+03  0.20156797438E+03  0.94506306936E+02 0.  0.
         23    2    4    4    0    0 -0.47552200611E+03  0.23108890070E+03 -0.99766343173E+03  0.11327817171E+04  0.91317234319E+02 0.  0.
          2    1    3    3  502    0  0.14586635949E+03 -0.44245889147E+01  0.10100647359E+03  0.17747923689E+03  0.00000000000E+00 0. -1.
         -1    1    3    3    0  502  0.29055396245E+03 -0.11629234133E+03  0.16847456028E+03  0.35542818009E+03  0.00000000000E+00 0.  1.
         11    1    5    5    0    0  0.60147087176E+02 -0.32276753742E+02  0.74818290676E+02  0.10127802105E+03  0.00000000000E+00 0. -1.
        -11    1    5    5    0    0 -0.21045403005E+02 -0.78095216720E+02  0.59298422212E+02  0.10028995333E+03  0.00000000000E+00 0.  1.
          3    1    6    6  503    0 -0.13040700601E+03  0.21850012213E+02 -0.22169497542E+03  0.25813188950E+03  0.00000000000E+00 0. -1.
         -3    1    6    6    0  503 -0.34511500010E+03  0.20923888849E+03 -0.77596845631E+03  0.87464982761E+03  0.00000000000E+00 0.  1.
<mgrwt>
<rscale>  0 0.17702359E+04</rscale>
<asrwt>0</asrwt>
<pdfrwt beam="1">  1        2 0.97937803E-01 0.17702359E+04</pdfrwt>
<pdfrwt beam="2">  1       -1 0.18933252E+00 0.17702359E+04</pdfrwt>
<totfact> 0.89053031E+00</totfact>
</mgrwt>
</event>
<event>
12    6  0.8914180E-008  0.1724859E+04  0.7818608E-02  0.8747312E-01
          2   -1    0    0  501    0  0.00000000000E+00  0.00000000000E+00  0.27152368613E+04  0.27152368613E+04  0.00000000000E+00 0. -1.
         -1   -1    0    0    0  501 -0.00000000000E+00 -0.00000000000E+00 -0.27392977484E+03  0.27392977484E+03  0.00000000000E+00 0.  1.
         24    2    1    2    0    0  0.18739357089E+03 -0.51366743213E+03  0.14139594454E+04  0.15181134410E+04  0.80103217059E+02 0.  0.
        254    2    1    2    0    0 -0.18739357089E+03  0.51366743213E+03  0.10273476411E+04  0.14710531952E+04  0.89976871809E+03 0.  0.
         23    2    4    4    0    0 -0.13909078129E+02  0.65288835488E+03  0.33763307567E+03  0.74058962978E+03  0.89555790186E+02 0.  0.
         23    2    4    4    0    0 -0.17348449276E+03 -0.13922092275E+03  0.68971456544E+03  0.73046356538E+03  0.91605152736E+02 0.  0.
          4    1    3    3  502    0  0.15049559251E+03 -0.31811383016E+03  0.84487473808E+03  0.91523693945E+03  0.00000000000E+00 0. -1.
         -3    1    3    3    0  502  0.36897978380E+02 -0.19555360196E+03  0.56908470728E+03  0.60287650154E+03  0.00000000000E+00 0.  1.
         11    1    5    5    0    0  0.24532667502E+02  0.68486337456E+02  0.48585318505E+02  0.87480074114E+02  0.00000000000E+00 0. -1.
        -11    1    5    5    0    0 -0.38441745631E+02  0.58440201742E+03  0.28904775717E+03  0.65310955566E+03  0.00000000000E+00 0.  1.
          2    1    6    6  503    0 -0.11339305542E+02 -0.51915036625E+02  0.20991556090E+03  0.21653704899E+03  0.00000000000E+00 0. -1.
         -2    1    6    6    0  503 -0.16214518721E+03 -0.87305886129E+02  0.47979900454E+03  0.51392651639E+03  0.00000000000E+00 0.  1.
<mgrwt>
<rscale>  0 0.17248585E+04</rscale>
<asrwt>0</asrwt>
<pdfrwt beam="1">  1        2 0.41772873E+00 0.17248585E+04</pdfrwt>
<pdfrwt beam="2">  1       -1 0.42143044E-01 0.17248585E+04</pdfrwt>
<totfact> 0.15599427E+01</totfact>
</mgrwt>
</event>
<event>
12    6  0.8914180E-008  0.1605169E+04  0.7818608E-02  0.8817379E-01
          2   -1    0    0  501    0  0.00000000000E+00  0.00000000000E+00  0.38385782275E+04  0.38385782275E+04  0.00000000000E+00 0. -1.
         -1   -1    0    0    0  501 -0.00000000000E+00 -0.00000000000E+00 -0.16780744116E+03  0.16780744116E+03  0.00000000000E+00 0.  1.
         24    2    1    2    0    0  0.35730048749E+02  0.53632921464E+03  0.14151682819E+04  0.15158767541E+04  0.79091116702E+02 0.  0.
        254    2    1    2    0    0 -0.35730048749E+02 -0.53632921464E+03  0.22556025044E+04  0.24905089145E+04  0.90882689908E+03 0.  0.
         23    2    4    4    0    0  0.11131886467E+03 -0.64690260698E+03  0.21682903152E+04  0.22673859932E+04  0.93174450666E+02 0.  0.
         23    2    4    4    0    0 -0.14704891342E+03  0.11057339234E+03  0.87312189145E+02  0.22312292133E+03  0.91162281767E+02 0.  0.
          2    1    3    3  502    0  0.38570276391E+02  0.52322340618E+03  0.14025498032E+04  0.14974633049E+04  0.00000000000E+00 0. -1.
         -1    1    3    3    0  502 -0.28402276424E+01  0.13105808457E+02  0.12618478687E+02  0.18413449235E+02  0.00000000000E+00 0.  1.
         11    1    5    5    0    0  0.96657859261E+02 -0.49916867629E+03  0.15386507158E+04  0.16204808343E+04  0.00000000000E+00 0. -1.
        -11    1    5    5    0    0  0.14661005411E+02 -0.14773393069E+03  0.62963959943E+03  0.64690515883E+03  0.00000000000E+00 0.  1.
          1    1    6    6  503    0 -0.15749461240E+03  0.10853454443E+03  0.71782704875E+02  0.20429649284E+03  0.00000000000E+00 0. -1.
         -1    1    6    6    0  503  0.10445698976E+02  0.20388479131E+01  0.15529484270E+02  0.18826428487E+02  0.00000000000E+00 0.  1.
<mgrwt>
<rscale>  0 0.16051691E+04</rscale>
<asrwt>0</asrwt>
<pdfrwt beam="1">  1        2 0.59055043E+00 0.16051691E+04</pdfrwt>
<pdfrwt beam="2">  1       -1 0.25816532E-01 0.16051691E+04</pdfrwt>
<totfact> 0.67516766E+00</totfact>
</mgrwt>
</event>
<event>
12    6  0.8914180E-008  0.2105113E+04  0.7818608E-02  0.8558994E-01
         -1   -1    0    0    0  501 -0.00000000000E+00  0.00000000000E+00  0.21263132251E+04  0.21263132251E+04  0.00000000000E+00 0.  1.
          2   -1    0    0  501    0  0.00000000000E+00 -0.00000000000E+00 -0.52103106213E+03  0.52103106213E+03  0.00000000000E+00 0. -1.
         24    2    1    2    0    0  0.81505634499E+03 -0.24019903547E+03  0.48639739569E+03  0.98236419352E+03  0.80278017043E+02 0.  0.
        254    2    1    2    0    0 -0.81505634499E+03  0.24019903547E+03  0.11188847672E+04  0.16649800937E+04  0.89344455218E+03 0.  0.
         23    2    4    4    0    0 -0.29869486655E+03  0.49061182400E+03  0.83578058078E+03  0.10187308023E+04  0.96771293384E+02 0.  0.
         23    2    4    4    0    0 -0.51636147844E+03 -0.25041278854E+03  0.28310418646E+03  0.64624929136E+03  0.90301855519E+02 0.  0.
          2    1    3    3  502    0  0.27266996652E+03 -0.50192132674E+02  0.18624745034E+03  0.33400040956E+03  0.00000000000E+00 0. -1.
         -1    1    3    3    0  502  0.54238637847E+03 -0.19000690279E+03  0.30014994535E+03  0.64836378396E+03  0.00000000000E+00 0.  1.
         11    1    5    5    0    0 -0.23025553108E+03  0.36064160622E+03  0.54444128347E+03  0.69245670542E+03  0.00000000000E+00 0. -1.
        -11    1    5    5    0    0 -0.68439335467E+02  0.12997021778E+03  0.29133929731E+03  0.32627409690E+03  0.00000000000E+00 0.  1.
          3    1    6    6  503    0 -0.33878074902E+03 -0.18846731019E+03  0.23021914415E+03  0.45088044674E+03  0.00000000000E+00 0. -1.
         -3    1    6    6    0  503 -0.17758072942E+03 -0.61945478345E+02  0.52885042318E+02  0.19536884462E+03  0.00000000000E+00 0.  1.
<mgrwt>
<rscale>  0 0.21051130E+04</rscale>
<asrwt>0</asrwt>
<pdfrwt beam="1">  1        2 0.80158626E-01 0.21051130E+04</pdfrwt>
<pdfrwt beam="2">  1       -1 0.32712511E+00 0.21051130E+04</pdfrwt>
<totfact> 0.13584982E+00</totfact>
</mgrwt>
</event>
<event>
12    6  0.8914180E-008  0.1159156E+04  0.7818608E-02  0.9149378E-01
         -1   -1    0    0    0  501 -0.00000000000E+00  0.00000000000E+00  0.10920611084E+03  0.10920611084E+03  0.00000000000E+00 0.  1.
          2   -1    0    0  501    0  0.00000000000E+00 -0.00000000000E+00 -0.30759313012E+04  0.30759313012E+04  0.00000000000E+00 0. -1.
         24    2    1    2    0    0  0.37765803762E+02  0.14427048027E+03 -0.16001848573E+03  0.23301221359E+03  0.80302854866E+02 0.  0.
        254    2    1    2    0    0 -0.37765803762E+02 -0.14427048027E+03 -0.28067067047E+04  0.29521251985E+04  0.90288450759E+03 0.  0.
         23    2    4    4    0    0 -0.44757418131E+03 -0.18285333818E+03 -0.16051802501E+04  0.16790288045E+04  0.93680842018E+02 0.  0.
         23    2    4    4    0    0  0.40980837755E+03  0.38582857915E+02 -0.12015264546E+04  0.12730963939E+04  0.87618856142E+02 0.  0.
          2    1    3    3  502    0 -0.57010704958E+01  0.91162684088E+02 -0.12808639300E+03  0.15731897930E+03  0.00000000000E+00 0. -1.
         -1    1    3    3    0  502  0.43466874257E+02  0.53107796178E+02 -0.31932092728E+02  0.75693234299E+02  0.00000000000E+00 0.  1.
         11    1    5    5    0    0 -0.40896980966E+03 -0.17940690430E+03 -0.13778327512E+04  0.14484012679E+04  0.00000000000E+00 0.  1.
        -11    1    5    5    0    0 -0.38604371654E+02 -0.34464338806E+01 -0.22734749888E+03  0.23062753665E+03  0.00000000000E+00 0. -1.
          3    1    6    6  503    0 -0.21628128420E+01  0.36328151493E+00  0.14021202273E+00  0.21975878276E+01  0.00000000000E+00 0. -1.
         -3    1    6    6    0  503  0.41197119039E+03  0.38219576400E+02 -0.12016666666E+04  0.12708988061E+04  0.00000000000E+00 0.  1.
<mgrwt>
<rscale>  0 0.11591557E+04</rscale>
<asrwt>0</asrwt>
<pdfrwt beam="1">  1        2 0.47322010E+00 0.11591557E+04</pdfrwt>
<pdfrwt beam="2">  1       -1 0.16800944E-01 0.11591557E+04</pdfrwt>
<totfact> 0.48861929E+01</totfact>
</mgrwt>
</event>
<event>
12    6  0.8914180E-008  0.2046935E+04  0.7818608E-02  0.8584986E-01
          2   -1    0    0  501    0  0.00000000000E+00  0.00000000000E+00  0.94991968233E+03  0.94991968233E+03  0.00000000000E+00 0. -1.
         -1   -1    0    0    0  501 -0.00000000000E+00 -0.00000000000E+00 -0.11027099786E+04  0.11027099786E+04  0.00000000000E+00 0.  1.
         24    2    1    2    0    0 -0.55763872504E+03  0.87641663987E+02 -0.66414378938E+03  0.87530699912E+03  0.80208233970E+02 0.  0.
        254    2    1    2    0    0  0.55763872504E+03 -0.87641663987E+02  0.51135349315E+03  0.11773226618E+04  0.89775511476E+03 0.  0.
         23    2    4    4    0    0  0.33960858137E+03 -0.17267853311E+03  0.74030048905E+03  0.83750911521E+03  0.90690901650E+02 0.  0.
         23    2    4    4    0    0  0.21803014367E+03  0.85036869120E+02 -0.22894699590E+03  0.33981354657E+03  0.91039040211E+02 0.  0.
          2    1    3    3  502    0 -0.10320273122E+03  0.32041119176E+01 -0.16823368702E+03  0.19739210601E+03  0.00000000000E+00 0. -1.
         -1    1    3    3    0  502 -0.45443599382E+03  0.84437552070E+02 -0.49591010236E+03  0.67791489311E+03  0.00000000000E+00 0.  1.
         11    1    5    5    0    0  0.19018374817E+03 -0.74156584247E+02  0.30669964868E+03  0.36842059057E+03  0.00000000000E+00 0. -1.
        -11    1    5    5    0    0  0.14942483320E+03 -0.98521948860E+02  0.43360084037E+03  0.46908852464E+03  0.00000000000E+00 0.  1.
          1    1    6    6  503    0  0.73397683360E+02  0.56922905563E+02 -0.13903427553E+03  0.16720636014E+03  0.00000000000E+00 0. -1.
         -1    1    6    6    0  503  0.14463246031E+03  0.28113963556E+02 -0.89912720377E+02  0.17260718643E+03  0.00000000000E+00 0.  1.
<mgrwt>
<rscale>  0 0.20469352E+04</rscale>
<asrwt>0</asrwt>
<pdfrwt beam="1">  1        2 0.14614149E+00 0.20469352E+04</pdfrwt>
<pdfrwt beam="2">  1       -1 0.16964769E+00 0.20469352E+04</pdfrwt>
<totfact> 0.70967685E+00</totfact>
</mgrwt>
</event>
<event>
12    6  0.8914180E-008  0.2830235E+04  0.7818608E-02  0.8293943E-01
          2   -1    0    0  501    0  0.00000000000E+00  0.00000000000E+00  0.12529003255E+04  0.12529003255E+04  0.00000000000E+00 0. -1.
         -1   -1    0    0    0  501 -0.00000000000E+00 -0.00000000000E+00 -0.15983374718E+04  0.15983374718E+04  0.00000000000E+00 0.  1.
         24    2    1    2    0    0 -0.48857963910E+03  0.74743599801E+03  0.75600615768E+03  0.11726549168E+04  0.78762990570E+02 0.  0.
        254    2    1    2    0    0  0.48857963910E+03 -0.74743599801E+03 -0.11014433040E+04  0.16785828805E+04  0.89838327015E+03 0.  0.
         23    2    4    4    0    0  0.55484051025E+02  0.68260465466E+02 -0.61973520452E+03  0.63282568144E+03  0.93051858134E+02 0.  0.
         23    2    4    4    0    0  0.43309558807E+03 -0.81569646347E+03 -0.48170809944E+03  0.10457571991E+04  0.92913494369E+02 0.  0.
          4    1    3    3  502    0 -0.45352213503E+03  0.70645927490E+03  0.68510344383E+03  0.10835745303E+04  0.00000000000E+00 0. -1.
         -3    1    3    3    0  502 -0.35057504074E+02  0.40976723112E+02  0.70902713849E+02  0.89080386506E+02  0.00000000000E+00 0.  1.
         11    1    5    5    0    0  0.75949030970E+02  0.47726029820E+02 -0.34149178377E+03  0.35307600826E+03  0.00000000000E+00 0.  1.
        -11    1    5    5    0    0 -0.20464979945E+02  0.20534435646E+02 -0.27824342076E+03  0.27974967318E+03  0.00000000000E+00 0. -1.
          2    1    6    6  503    0  0.41342239177E+03 -0.72227113028E+03 -0.42139027722E+03  0.93282550640E+03  0.00000000000E+00 0. -1.
         -2    1    6    6    0  503  0.19673196304E+02 -0.93425333196E+02 -0.60317822222E+02  0.11293169269E+03  0.00000000000E+00 0.  1.
<mgrwt>
<rscale>  0 0.28302350E+04</rscale>
<asrwt>0</asrwt>
<pdfrwt beam="1">  1        2 0.19275390E+00 0.28302350E+04</pdfrwt>
<pdfrwt beam="2">  1       -1 0.24589807E+00 0.28302350E+04</pdfrwt>
<totfact> 0.12920882E+00</totfact>
</mgrwt>
</event>
<event>
12    6  0.8914180E-008  0.1366930E+04  0.7818608E-02  0.8978110E-01
          2   -1    0    0  501    0  0.00000000000E+00  0.00000000000E+00  0.35348788741E+03  0.35348788741E+03  0.00000000000E+00 0. -1.
         -1   -1    0    0    0  501 -0.00000000000E+00 -0.00000000000E+00 -0.13214723891E+04  0.13214723891E+04  0.00000000000E+00 0.  1.
         24    2    1    2    0    0 -0.20696288003E+03  0.13151828790E+03  0.84309959943E+02  0.27089769617E+03  0.78400884452E+02 0.  0.
        254    2    1    2    0    0  0.20696288003E+03 -0.13151828790E+03 -0.10522944617E+04  0.14040625804E+04  0.89662556386E+03 0.  0.
         23    2    4    4    0    0  0.49752044213E+03  0.11348783194E+03 -0.45078473521E+03  0.68665344638E+03  0.88769361755E+02 0.  0.
         23    2    4    4    0    0 -0.29055756210E+03 -0.24500611984E+03 -0.60150972645E+03  0.71740913398E+03  0.91707245396E+02 0.  0.
          4    1    3    3  502    0 -0.21082896541E+03  0.13634096807E+03  0.83829156881E+02  0.26469801619E+03  0.00000000000E+00 0. -1.
         -3    1    3    3    0  502  0.38660853798E+01 -0.48226801785E+01  0.48080306171E+00  0.61996799799E+01  0.00000000000E+00 0.  1.
         11    1    5    5    0    0  0.45444983719E+03  0.75946130516E+02 -0.40468444813E+03  0.61323891903E+03  0.00000000000E+00 0.  1.
        -11    1    5    5    0    0  0.43070604945E+02  0.37541701426E+02 -0.46100287080E+02  0.73414527344E+02  0.00000000000E+00 0. -1.
          2    1    6    6  503    0 -0.13554964944E+03 -0.17006569001E+03 -0.30616614275E+03  0.37554460900E+03  0.00000000000E+00 0. -1.
         -2    1    6    6    0  503 -0.15500791267E+03 -0.74940429828E+02 -0.29534358370E+03  0.34186452499E+03  0.00000000000E+00 0.  1.
<mgrwt>
<rscale>  0 0.13669301E+04</rscale>
<asrwt>0</asrwt>
<pdfrwt beam="1">  1        2 0.54382752E-01 0.13669301E+04</pdfrwt>
<pdfrwt beam="2">  1       -1 0.20330345E+00 0.13669301E+04</pdfrwt>
<totfact> 0.14577845E+01</totfact>
</mgrwt>
</event>
<event>
12    6  0.8914180E-008  0.1298523E+04  0.7818608E-02  0.9030737E-01
         -1   -1    0    0    0  501 -0.00000000000E+00  0.00000000000E+00  0.30422332585E+03  0.30422332585E+03  0.00000000000E+00 0.  1.
          2   -1    0    0  501    0  0.00000000000E+00 -0.00000000000E+00 -0.13856285354E+04  0.13856285354E+04  0.00000000000E+00 0. -1.
         24    2    1    2    0    0 -0.11905397390E+03  0.23803444673E+03 -0.56301826642E+03  0.62807095402E+03  0.81543291735E+02 0.  0.
        254    2    1    2    0    0  0.11905397390E+03 -0.23803444673E+03 -0.51838694315E+03  0.10617809073E+04  0.88759192519E+03 0.  0.
         23    2    4    4    0    0 -0.14906664660E+03 -0.25514666417E+03  0.14332360987E+03  0.34152322845E+03  0.93679096152E+02 0.  0.
         23    2    4    4    0    0  0.26812062050E+03  0.17112217446E+02 -0.66171055302E+03  0.72025767882E+03  0.93427901526E+02 0.  0.
          4    1    3    3  502    0 -0.48637704615E+02  0.18105930869E+03 -0.39308739700E+03  0.43550637338E+03  0.00000000000E+00 0. -1.
         -3    1    3    3    0  502 -0.70416269285E+02  0.56975138036E+02 -0.16993086942E+03  0.19256458064E+03  0.00000000000E+00 0.  1.
         11    1    5    5    0    0  0.13320150186E+02 -0.23944665894E+02  0.10740670459E+02  0.29430178859E+02  0.00000000000E+00 0.  1.
        -11    1    5    5    0    0 -0.16238679679E+03 -0.23120199828E+03  0.13258293941E+03  0.31209304959E+03  0.00000000000E+00 0. -1.
          1    1    6    6  503    0  0.20945735959E+03  0.52358913692E+02 -0.49385680853E+03  0.53898830104E+03  0.00000000000E+00 0. -1.
         -1    1    6    6    0  503  0.58663260912E+02 -0.35246696246E+02 -0.16785374449E+03  0.18126937777E+03  0.00000000000E+00 0.  1.
<mgrwt>
<rscale>  0 0.12985230E+04</rscale>
<asrwt>0</asrwt>
<pdfrwt beam="1">  1        2 0.21317362E+00 0.12985230E+04</pdfrwt>
<pdfrwt beam="2">  1       -1 0.46803589E-01 0.12985230E+04</pdfrwt>
<totfact> 0.74931849E+01</totfact>
</mgrwt>
</event>
<event>
12    6  0.8914180E-008  0.2235916E+04  0.7818608E-02  0.8503626E-01
         -1   -1    0    0    0  501 -0.00000000000E+00  0.00000000000E+00  0.18220502128E+04  0.18220502128E+04  0.00000000000E+00 0.  1.
          2   -1    0    0  501    0  0.00000000000E+00 -0.00000000000E+00 -0.68594738453E+03  0.68594738453E+03  0.00000000000E+00 0. -1.
         24    2    1    2    0    0 -0.20115485335E+03  0.48778437548E+03 -0.38936347234E+03  0.66072337841E+03  0.80960466848E+02 0.  0.
        254    2    1    2    0    0  0.20115485335E+03 -0.48778437548E+03  0.15254663006E+04  0.18472742189E+04  0.89831939400E+03 0.  0.
         23    2    4    4    0    0  0.38277480483E+03  0.97456863718E+02  0.77344108073E+03  0.87298619130E+03  0.88765946968E+02 0.  0.
         23    2    4    4    0    0 -0.18161995148E+03 -0.58524123920E+03  0.75202521988E+03  0.97428802763E+03  0.90565526622E+02 0.  0.
          2    1    3    3  502    0 -0.15232261272E+03  0.37175987109E+03 -0.33701048392E+03  0.52438883128E+03  0.00000000000E+00 0. -1.
         -1    1    3    3    0  502 -0.48832240629E+02  0.11602450439E+03 -0.52352988419E+02  0.13633454713E+03  0.00000000000E+00 0.  1.
         11    1    5    5    0    0  0.31544136060E+02  0.17450780044E+01  0.23552383630E+02  0.39405489359E+02  0.00000000000E+00 0. -1.
        -11    1    5    5    0    0  0.35123066877E+03  0.95711785713E+02  0.74988869710E+03  0.83358070194E+03  0.00000000000E+00 0.  1.
          3    1    6    6  503    0  0.41616387569E+01 -0.87396601288E+01  0.31735893896E+02  0.33179328771E+02  0.00000000000E+00 0. -1.
         -3    1    6    6    0  503 -0.18578159024E+03 -0.57650157907E+03  0.72028932599E+03  0.94110869886E+03  0.00000000000E+00 0.  1.
<mgrwt>
<rscale>  0 0.22359164E+04</rscale>
<asrwt>0</asrwt>
<pdfrwt beam="1">  1        2 0.10553037E+00 0.22359164E+04</pdfrwt>
<pdfrwt beam="2">  1       -1 0.28031542E+00 0.22359164E+04</pdfrwt>
<totfact> 0.19370566E+00</totfact>
</mgrwt>
</event>
<event>
12    6  0.8914180E-008  0.1503437E+04  0.7818608E-02  0.8882171E-01
         -1   -1    0    0    0  501 -0.00000000000E+00  0.00000000000E+00  0.34161576846E+03  0.34161576846E+03  0.00000000000E+00 0.  1.
          2   -1    0    0  501    0  0.00000000000E+00 -0.00000000000E+00 -0.16541403098E+04  0.16541403098E+04  0.00000000000E+00 0. -1.
         24    2    1    2    0    0 -0.29753359770E+03  0.13845783025E+03 -0.89647656173E+03  0.95786458416E+03  0.78342347010E+02 0.  0.
        254    2    1    2    0    0  0.29753359770E+03 -0.13845783025E+03 -0.41604797963E+03  0.10378914941E+04  0.89242703887E+03 0.  0.
         23    2    4    4    0    0  0.69732903218E+02  0.36652583407E+03 -0.21892658178E+03  0.44265132107E+03  0.93848169980E+02 0.  0.
         23    2    4    4    0    0  0.22780069448E+03 -0.50498366432E+03 -0.19712139786E+03  0.59524017306E+03  0.92478973227E+02 0.  0.
          4    1    3    3  502    0 -0.23893594766E+03  0.12587832567E+03 -0.64327073670E+03  0.69766251200E+03  0.00000000000E+00 0. -1.
         -3    1    3    3    0  502 -0.58597650038E+02  0.12579504585E+02 -0.25320582503E+03  0.26020207216E+03  0.00000000000E+00 0.  1.
         11    1    5    5    0    0  0.60745654797E+02  0.14600100776E+03 -0.12996780202E+03  0.20468990793E+03  0.00000000000E+00 0. -1.
        -11    1    5    5    0    0  0.89872484209E+01  0.22052482631E+03 -0.88958779754E+02  0.23796141315E+03  0.00000000000E+00 0.  1.
          2    1    6    6  503    0  0.85900921091E+01 -0.98946895101E+02 -0.22227949613E+02  0.10177602604E+03  0.00000000000E+00 0. -1.
         -2    1    6    6    0  503  0.21921060237E+03 -0.40603676922E+03 -0.17489344825E+03  0.49346414702E+03  0.00000000000E+00 0.  1.
<mgrwt>
<rscale>  0 0.15034366E+04</rscale>
<asrwt>0</asrwt>
<pdfrwt beam="1">  1        2 0.25448312E+00 0.15034366E+04</pdfrwt>
<pdfrwt beam="2">  1       -1 0.52556273E-01 0.15034366E+04</pdfrwt>
<totfact> 0.41756203E+01</totfact>
</mgrwt>
</event>
<event>
12    6  0.8914180E-008  0.1640151E+04  0.7818608E-02  0.8796255E-01
          2   -1    0    0  501    0  0.00000000000E+00  0.00000000000E+00  0.19919196140E+04  0.19919196140E+04  0.00000000000E+00 0. -1.
         -1   -1    0    0    0  501 -0.00000000000E+00 -0.00000000000E+00 -0.33762582331E+03  0.33762582331E+03  0.00000000000E+00 0.  1.
         24    2    1    2    0    0 -0.37161407325E+03 -0.37667130580E+03  0.89295416789E+03  0.10410175008E+04  0.79824802303E+02 0.  0.
        254    2    1    2    0    0  0.37161407325E+03  0.37667130580E+03  0.76133962284E+03  0.12885279365E+04  0.89481167282E+03 0.  0.
         23    2    4    4    0    0  0.24675067743E+03 -0.16264504447E+03 -0.38071279817E+02  0.31138499591E+03  0.90398484658E+02 0.  0.
         23    2    4    4    0    0  0.12486339582E+03  0.53931635027E+03  0.79941090266E+03  0.97714294061E+03  0.96423761607E+02 0.  0.
          2    1    3    3  502    0 -0.92785552559E+02 -0.10996342402E+03  0.18089229012E+03  0.23113445007E+03  0.00000000000E+00 0. -1.
         -1    1    3    3    0  502 -0.27882852069E+03 -0.26670788179E+03  0.71206187777E+03  0.80988305077E+03  0.00000000000E+00 0.  1.
         11    1    5    5    0    0  0.19845105135E+03 -0.16716778046E+03 -0.22562289810E+02  0.26045526205E+03  0.00000000000E+00 0.  1.
        -11    1    5    5    0    0  0.48299626074E+02  0.45227359943E+01 -0.15508990008E+02  0.50929733858E+02  0.00000000000E+00 0. -1.
          4    1    6    6  503    0  0.12618583565E+03  0.34304036618E+03  0.52983193196E+03  0.64367805157E+03  0.00000000000E+00 0.  1.
         -4    1    6    6    0  503 -0.13224398269E+01  0.19627598409E+03  0.26957897070E+03  0.33346488903E+03  0.00000000000E+00 0. -1.
<mgrwt>
<rscale>  0 0.16401506E+04</rscale>
<asrwt>0</asrwt>
<pdfrwt beam="1">  1        2 0.30644917E+00 0.16401506E+04</pdfrwt>
<pdfrwt beam="2">  1       -1 0.51942435E-01 0.16401506E+04</pdfrwt>
<totfact> 0.27433770E+01</totfact>
</mgrwt>
</event>
<event>
12    6  0.8914180E-008  0.2358381E+04  0.7818608E-02  0.8455252E-01
          2   -1    0    0  501    0  0.00000000000E+00  0.00000000000E+00  0.92349270126E+03  0.92349270126E+03  0.00000000000E+00 0. -1.
         -1   -1    0    0    0  501 -0.00000000000E+00 -0.00000000000E+00 -0.15056860124E+04  0.15056860124E+04  0.00000000000E+00 0.  1.
         24    2    1    2    0    0  0.50143934391E+03 -0.86195649389E+03 -0.15996430751E+03  0.10131373384E+04  0.80301144457E+02 0.  0.
        254    2    1    2    0    0 -0.50143934391E+03  0.86195649389E+03 -0.42222900364E+03  0.14160413753E+04  0.91240639629E+03 0.  0.
         23    2    4    4    0    0 -0.58906644116E+03  0.83560361493E+03 -0.60491698540E+03  0.11913450919E+04  0.90254613514E+02 0.  0.
         23    2    4    4    0    0  0.87627097250E+02  0.26352878952E+02  0.18268798176E+03  0.22469628342E+03  0.93490848220E+02 0.  0.
          4    1    3    3  502    0  0.48055297563E+03 -0.78451339968E+03 -0.15292114059E+03  0.93261852432E+03  0.00000000000E+00 0. -1.
         -3    1    3    3    0  502  0.20886368280E+02 -0.77443094202E+02 -0.70431669253E+01  0.80518814073E+02  0.00000000000E+00 0.  1.
         11    1    5    5    0    0 -0.81239788492E+01 -0.19418596507E+00 -0.22091092000E+01  0.84212174886E+01  0.00000000000E+00 0. -1.
        -11    1    5    5    0    0 -0.58094246231E+03  0.83579780090E+03 -0.60270787620E+03  0.11829238744E+04  0.00000000000E+00 0.  1.
          2    1    6    6  503    0 -0.18718693234E+01  0.76307477560E+00 -0.10265634176E+02  0.10462763636E+02  0.00000000000E+00 0. -1.
         -2    1    6    6    0  503  0.89498966573E+02  0.25589804177E+02  0.19295361594E+03  0.21423351978E+03  0.00000000000E+00 0.  1.
<mgrwt>
<rscale>  0 0.23583808E+04</rscale>
<asrwt>0</asrwt>
<pdfrwt beam="1">  1        2 0.14207580E+00 0.23583808E+04</pdfrwt>
<pdfrwt beam="2">  1       -1 0.23164400E+00 0.23583808E+04</pdfrwt>
<totfact> 0.26779615E+00</totfact>
</mgrwt>
</event>
<event>
12    6  0.8914180E-008  0.2461055E+04  0.7818608E-02  0.8416993E-01
         -1   -1    0    0    0  501 -0.00000000000E+00  0.00000000000E+00  0.99262241373E+03  0.99262241373E+03  0.00000000000E+00 0.  1.
          2   -1    0    0  501    0  0.00000000000E+00 -0.00000000000E+00 -0.15254524154E+04  0.15254524154E+04  0.00000000000E+00 0. -1.
         24    2    1    2    0    0  0.18561298374E+03 -0.64324540947E+03  0.60469330209E+03  0.90576061922E+03  0.80817530255E+02 0.  0.
        254    2    1    2    0    0 -0.18561298374E+03  0.64324540947E+03 -0.11375233038E+04  0.16123142100E+04  0.92594870723E+03 0.  0.
         23    2    4    4    0    0 -0.36627318306E+03  0.65758905912E+03 -0.11822906147E+04  0.14040962488E+04  0.84236352455E+02 0.  0.
         23    2    4    4    0    0  0.18066019932E+03 -0.14343649659E+02  0.44767310899E+02  0.20821796112E+03  0.92232094767E+02 0.  0.
          4    1    3    3  502    0  0.67746911924E+02 -0.11831999627E+03  0.12447248317E+03  0.18461490909E+03  0.00000000000E+00 0. -1.
         -3    1    3    3    0  502  0.11786607181E+03 -0.52492541320E+03  0.48022081892E+03  0.72114571012E+03  0.00000000000E+00 0.  1.
         11    1    5    5    0    0 -0.35564439178E+03  0.64793927423E+03 -0.11746228634E+04  0.13878209927E+04  0.00000000000E+00 0. -1.
        -11    1    5    5    0    0 -0.10628791275E+02  0.96497848927E+01 -0.76677512616E+01  0.16275256123E+02  0.00000000000E+00 0.  1.
          4    1    6    6  503    0  0.16411080927E+03 -0.15462031128E+02  0.47576590412E+01  0.16490623835E+03  0.00000000000E+00 0. -1.
         -4    1    6    6    0  503  0.16549390051E+02  0.11183814692E+01  0.40009651858E+02  0.43311722778E+02  0.00000000000E+00 0.  1.
<mgrwt>
<rscale>  0 0.24610553E+04</rscale>
<asrwt>0</asrwt>
<pdfrwt beam="1">  1        2 0.23468499E+00 0.24610553E+04</pdfrwt>
<pdfrwt beam="2">  1       -1 0.15271114E+00 0.24610553E+04</pdfrwt>
<totfact> 0.41596912E+00</totfact>
</mgrwt>
</event>
<event>
12    6  0.8914180E-008  0.1688008E+04  0.7818608E-02  0.8768234E-01
          2   -1    0    0  501    0  0.00000000000E+00  0.00000000000E+00  0.52635101547E+03  0.52635101547E+03  0.00000000000E+00 0. -1.
         -1   -1    0    0    0  501 -0.00000000000E+00 -0.00000000000E+00 -0.13533605972E+04  0.13533605972E+04  0.00000000000E+00 0.  1.
         24    2    1    2    0    0  0.52806422585E+03 -0.27265931757E+03 -0.19632167722E+03  0.63091269372E+03  0.79458769653E+02 0.  0.
        254    2    1    2    0    0 -0.52806422585E+03  0.27265931757E+03 -0.63068790448E+03  0.12487989189E+04  0.89918661966E+03 0.  0.
         23    2    4    4    0    0  0.14471657350E+03 -0.11000585388E+03 -0.37827652686E+03  0.42952370054E+03  0.91396411391E+02 0.  0.
         23    2    4    4    0    0 -0.67278079934E+03  0.38266517145E+03 -0.25241137762E+03  0.81927521839E+03  0.91835409906E+02 0.  0.
          4    1    3    3  502    0  0.41655658995E+03 -0.24153558143E+03 -0.13591873524E+03  0.50033262168E+03  0.00000000000E+00 0. -1.
         -3    1    3    3    0  502  0.11150763590E+03 -0.31123736143E+02 -0.60402941982E+02  0.13058007204E+03  0.00000000000E+00 0.  1.
         11    1    5    5    0    0 -0.27081729514E+01 -0.26779624364E+02 -0.20904949831E+02  0.34080777709E+02  0.00000000000E+00 0.  1.
        -11    1    5    5    0    0  0.14742474645E+03 -0.83226229519E+02 -0.35737157703E+03  0.39544292283E+03  0.00000000000E+00 0. -1.
          1    1    6    6  503    0 -0.47774560045E+03  0.27023891855E+03 -0.13438187067E+03  0.56509151384E+03  0.00000000000E+00 0. -1.
         -1    1    6    6    0  503 -0.19503519889E+03  0.11242625291E+03 -0.11802950696E+03  0.25418370455E+03  0.00000000000E+00 0.  1.
<mgrwt>
<rscale>  0 0.16880080E+04</rscale>
<asrwt>0</asrwt>
<pdfrwt beam="1">  1        2 0.80977081E-01 0.16880080E+04</pdfrwt>
<pdfrwt beam="2">  1       -1 0.20820932E+00 0.16880080E+04</pdfrwt>
<totfact> 0.83434570E+00</totfact>
</mgrwt>
</event>
<event>
12    6  0.8914180E-008  0.1597400E+04  0.7818608E-02  0.8822147E-01
         -1   -1    0    0    0  501 -0.00000000000E+00  0.00000000000E+00  0.16596657133E+03  0.16596657133E+03  0.00000000000E+00 0.  1.
          2   -1    0    0  501    0  0.00000000000E+00 -0.00000000000E+00 -0.38436743239E+04  0.38436743239E+04  0.00000000000E+00 0. -1.
         24    2    1    2    0    0  0.92938890758E+02 -0.38127258153E+03 -0.31323521731E+03  0.50841840033E+03  0.79790660998E+02 0.  0.
        254    2    1    2    0    0 -0.92938890758E+02  0.38127258153E+03 -0.33644725353E+04  0.35012224950E+04  0.88593289786E+03 0.  0.
         23    2    4    4    0    0  0.85978762168E+02  0.62658811893E+03 -0.25095066863E+04  0.25896339732E+04  0.92602852383E+02 0.  0.
         23    2    4    4    0    0 -0.17891765293E+03 -0.24531553739E+03 -0.85496584898E+03  0.91158852173E+03  0.88520001144E+02 0.  0.
          4    1    3    3  502    0  0.50165255151E+01  0.32045254496E+01 -0.61980409177E+01  0.85936152356E+01  0.00000000000E+00 0. -1.
         -3    1    3    3    0  502  0.87922365243E+02 -0.38447710698E+03 -0.30703717639E+03  0.49982478509E+03  0.00000000000E+00 0.  1.
         11    1    5    5    0    0  0.70614634783E+02  0.28822693886E+03 -0.13124690100E+04  0.13455987876E+04  0.00000000000E+00 0. -1.
        -11    1    5    5    0    0  0.15364127385E+02  0.33836118007E+03 -0.11970376763E+04  0.12440351856E+04  0.00000000000E+00 0.  1.
          4    1    6    6  503    0 -0.15302359249E+03 -0.16059390611E+03 -0.52506615824E+03  0.57000095883E+03  0.00000000000E+00 0. -1.
         -4    1    6    6    0  503 -0.25894060432E+02 -0.84721631280E+02 -0.32989969074E+03  0.34158756290E+03  0.00000000000E+00 0.  1.
<mgrwt>
<rscale>  0 0.15973997E+04</rscale>
<asrwt>0</asrwt>
<pdfrwt beam="1">  1        2 0.59133445E+00 0.15973997E+04</pdfrwt>
<pdfrwt beam="2">  1       -1 0.25533321E-01 0.15973997E+04</pdfrwt>
<totfact> 0.68255044E+00</totfact>
</mgrwt>
</event>
<event>
12    6  0.8914180E-008  0.1468046E+04  0.7818608E-02  0.8905984E-01
          2   -1    0    0  501    0  0.00000000000E+00  0.00000000000E+00  0.40860313122E+03  0.40860313122E+03  0.00000000000E+00 0. -1.
         -1   -1    0    0    0  501 -0.00000000000E+00 -0.00000000000E+00 -0.13186139726E+04  0.13186139726E+04  0.00000000000E+00 0.  1.
         24    2    1    2    0    0  0.33920606888E+02 -0.10316112367E+03  0.23081862821E+03  0.26733761153E+03  0.79995839901E+02 0.  0.
        254    2    1    2    0    0 -0.33920606888E+02  0.10316112367E+03 -0.11408294696E+04  0.14598794923E+04  0.90441330614E+03 0.  0.
         23    2    4    4    0    0  0.11755460116E+03 -0.72777424042E+02 -0.11935483034E+04  0.12050795910E+04  0.92431761277E+02 0.  0.
         23    2    4    4    0    0 -0.15147520805E+03  0.17593854772E+03  0.52718833756E+02  0.25479990130E+03  0.90799796493E+02 0.  0.
          4    1    3    3  502    0  0.48952743512E+02 -0.94748775805E+02  0.22527118176E+03  0.24924046009E+03  0.00000000000E+00 0. -1.
         -3    1    3    3    0  502 -0.15032136624E+02 -0.84123478691E+01  0.55474464459E+01  0.18097151439E+02  0.00000000000E+00 0.  1.
         11    1    5    5    0    0  0.11153141901E+03 -0.52789824616E+02 -0.67985258984E+03  0.69095988807E+03  0.00000000000E+00 0.  1.
        -11    1    5    5    0    0  0.60231821497E+01 -0.19987599426E+02 -0.51369571354E+03  0.51411970295E+03  0.00000000000E+00 0. -1.
          4    1    6    6  503    0 -0.84575769524E+02  0.12125103758E+03  0.74707580794E+02  0.16563845427E+03  0.00000000000E+00 0.  1.
         -4    1    6    6    0  503 -0.66899438528E+02  0.54687510135E+02 -0.21988747038E+02  0.89161447030E+02  0.00000000000E+00 0. -1.
<mgrwt>
<rscale>  0 0.14680460E+04</rscale>
<asrwt>0</asrwt>
<pdfrwt beam="1">  1        2 0.62862021E-01 0.14680460E+04</pdfrwt>
<pdfrwt beam="2">  1       -1 0.20286369E+00 0.14680460E+04</pdfrwt>
<totfact> 0.12368826E+01</totfact>
</mgrwt>
</event>
<event>
12    6  0.8914180E-008  0.1757969E+04  0.7818608E-02  0.8728976E-01
         -1   -1    0    0    0  501 -0.00000000000E+00  0.00000000000E+00  0.70866803466E+03  0.70866803466E+03  0.00000000000E+00 0.  1.
          2   -1    0    0  501    0  0.00000000000E+00 -0.00000000000E+00 -0.10902340779E+04  0.10902340779E+04  0.00000000000E+00 0. -1.
         24    2    1    2    0    0 -0.34958404060E+03 -0.51352924710E+03 -0.32894719924E+03  0.70741030924E+03  0.79383856428E+02 0.  0.
        254    2    1    2    0    0  0.34958404060E+03  0.51352924710E+03 -0.52618844026E+02  0.10914918033E+04  0.89591535590E+03 0.  0.
         23    2    4    4    0    0  0.92613910530E+02  0.73125993312E+03 -0.27613405270E+02  0.74363867009E+03  0.94432755370E+02 0.  0.
         23    2    4    4    0    0  0.25697013007E+03 -0.21773068602E+03 -0.25005438756E+02  0.34785313325E+03  0.83284037873E+02 0.  0.
          4    1    3    3  502    0 -0.31463942554E+03 -0.49455674183E+03 -0.30207990530E+03  0.65942141926E+03  0.00000000000E+00 0. -1.
         -3    1    3    3    0  502 -0.34944615059E+02 -0.18972505273E+02 -0.26867293936E+02  0.47988889979E+02  0.00000000000E+00 0.  1.
         11    1    5    5    0    0  0.70783263099E+02  0.39270504838E+03  0.27296316937E+02  0.39996576638E+03  0.00000000000E+00 0.  1.
        -11    1    5    5    0    0  0.21830647431E+02  0.33855488474E+03 -0.54909722208E+02  0.34367290370E+03  0.00000000000E+00 0. -1.
          1    1    6    6  503    0  0.15540575003E+02 -0.10510469042E+02  0.18951044799E+02  0.26666862017E+02  0.00000000000E+00 0. -1.
         -1    1    6    6    0  503  0.24142955506E+03 -0.20722021698E+03 -0.43956483555E+02  0.32118627123E+03  0.00000000000E+00 0.  1.
<mgrwt>
<rscale>  0 0.17579693E+04</rscale>
<asrwt>0</asrwt>
<pdfrwt beam="1">  1        2 0.16772832E+00 0.17579693E+04</pdfrwt>
<pdfrwt beam="2">  1       -1 0.10902585E+00 0.17579693E+04</pdfrwt>
<totfact> 0.18605346E+01</totfact>
</mgrwt>
</event>
<event>
12    6  0.8914180E-008  0.1418597E+04  0.7818608E-02  0.8940466E-01
         -3   -1    0    0    0  501 -0.00000000000E+00  0.00000000000E+00  0.38621761227E+03  0.38621761227E+03  0.00000000000E+00 0.  1.
          4   -1    0    0  501    0  0.00000000000E+00 -0.00000000000E+00 -0.13026453577E+04  0.13026453577E+04  0.00000000000E+00 0. -1.
         24    2    1    2    0    0 -0.25264015795E+02 -0.16804292815E+03 -0.73100521515E+03  0.75446143280E+03  0.77244629674E+02 0.  0.
        254    2    1    2    0    0  0.25264015795E+02  0.16804292815E+03 -0.18542253025E+03  0.93440153714E+03  0.89991556365E+03 0.  0.
         23    2    4    4    0    0  0.18560361662E+02  0.47412010591E+03 -0.32941972097E+03  0.58417790591E+03  0.87247414512E+02 0.  0.
         23    2    4    4    0    0  0.67036541335E+01 -0.30607717776E+03  0.14399719072E+03  0.35022363123E+03  0.90516425134E+02 0.  0.
          2    1    3    3  502    0 -0.28990943012E+02 -0.16182471427E+03 -0.72845561155E+03  0.74677660041E+03  0.00000000000E+00 0. -1.
         -1    1    3    3    0  502  0.37269272171E+01 -0.62182138781E+01 -0.25496035991E+01  0.76848323878E+01  0.00000000000E+00 0.  1.
         11    1    5    5    0    0 -0.28057372040E+02  0.32147245612E+03 -0.21384386306E+03  0.38711878531E+03  0.00000000000E+00 0. -1.
        -11    1    5    5    0    0  0.46617733701E+02  0.15264764978E+03 -0.11557585790E+03  0.19705912060E+03  0.00000000000E+00 0.  1.
          2    1    6    6  503    0 -0.38870113260E+02 -0.20081666363E+03  0.93155176883E+02  0.22475788101E+03  0.00000000000E+00 0.  1.
         -2    1    6    6    0  503  0.45573767394E+02 -0.10526051412E+03  0.50842013832E+02  0.12546575022E+03  0.00000000000E+00 0. -1.
<mgrwt>
<rscale>  0 0.14185973E+04</rscale>
<asrwt>0</asrwt>
<pdfrwt beam="1">  1        4 0.20040698E+00 0.14185973E+04</pdfrwt>
<pdfrwt beam="2">  1       -3 0.59418093E-01 0.14185973E+04</pdfrwt>
<totfact> 0.80551428E-01</totfact>
</mgrwt>
</event>
<event>
12    6  0.8914180E-008  0.1756549E+04  0.7818608E-02  0.8729753E-01
         -1   -1    0    0    0  501 -0.00000000000E+00  0.00000000000E+00  0.38662977846E+03  0.38662977846E+03  0.00000000000E+00 0.  1.
          2   -1    0    0  501    0  0.00000000000E+00 -0.00000000000E+00 -0.19951036738E+04  0.19951036738E+04  0.00000000000E+00 0. -1.
         24    2    1    2    0    0  0.43205375635E+03 -0.34389311859E+03 -0.13893742319E+03  0.57508656528E+03  0.80548275007E+02 0.  0.
        254    2    1    2    0    0 -0.43205375635E+03  0.34389311859E+03 -0.14695364721E+04  0.18066468869E+04  0.89414909599E+03 0.  0.
         23    2    4    4    0    0  0.16481457055E+03 -0.33528350996E+02 -0.82268035757E+03  0.84475824227E+03  0.92333765069E+02 0.  0.
         23    2    4    4    0    0 -0.59686832690E+03  0.37742146959E+03 -0.64685611454E+03  0.96188864467E+03  0.90045357857E+02 0.  0.
          4    1    3    3  502    0  0.41583607762E+02 -0.68187059528E+01 -0.79881434688E+01  0.42889411531E+02  0.00000000000E+00 0. -1.
         -3    1    3    3    0  502  0.39047014859E+03 -0.33707441264E+03 -0.13094927972E+03  0.53219715375E+03  0.00000000000E+00 0.  1.
         11    1    5    5    0    0  0.62957525552E+02 -0.25942279530E+02 -0.15482046740E+03  0.16913316948E+03  0.00000000000E+00 0.  1.
        -11    1    5    5    0    0  0.10185704499E+03 -0.75860714657E+01 -0.66785989016E+03  0.67562507279E+03  0.00000000000E+00 0. -1.
          4    1    6    6  503    0 -0.35552217432E+03  0.18157202532E+03 -0.32876844768E+03  0.51715868842E+03  0.00000000000E+00 0. -1.
         -4    1    6    6    0  503 -0.24134615257E+03  0.19584944427E+03 -0.31808766686E+03  0.44472995626E+03  0.00000000000E+00 0.  1.
<mgrwt>
<rscale>  0 0.17565494E+04</rscale>
<asrwt>0</asrwt>
<pdfrwt beam="1">  1        2 0.30693903E+00 0.17565494E+04</pdfrwt>
<pdfrwt beam="2">  1       -1 0.59481503E-01 0.17565494E+04</pdfrwt>
<totfact> 0.20785771E+01</totfact>
</mgrwt>
</event>
<event>
12    6  0.8914180E-008  0.2218077E+04  0.7818608E-02  0.8510941E-01
          2   -1    0    0  501    0  0.00000000000E+00  0.00000000000E+00  0.30774967461E+04  0.30774967461E+04  0.00000000000E+00 0. -1.
         -1   -1    0    0    0  501 -0.00000000000E+00 -0.00000000000E+00 -0.39966469564E+03  0.39966469564E+03  0.00000000000E+00 0.  1.
         24    2    1    2    0    0 -0.16175780852E+03  0.85044503545E+03  0.65554162941E+03  0.10888287299E+04  0.79942655231E+02 0.  0.
        254    2    1    2    0    0  0.16175780852E+03 -0.85044503545E+03  0.20222904211E+04  0.23883327119E+04  0.93008185050E+03 0.  0.
         23    2    4    4    0    0  0.38790817332E+03 -0.63086196928E+03  0.69009782369E+03  0.10162846794E+04  0.90221772265E+02 0.  0.
         23    2    4    4    0    0 -0.22615036480E+03 -0.21958306617E+03  0.13321925974E+04  0.13720480325E+04  0.91749530865E+02 0.  0.
          4    1    3    3  502    0 -0.80599363742E+02  0.48903810734E+03  0.32767931975E+03  0.59416181673E+03  0.00000000000E+00 0. -1.
         -3    1    3    3    0  502 -0.81158444782E+02  0.36140692811E+03  0.32786230966E+03  0.49466691312E+03  0.00000000000E+00 0.  1.
         11    1    5    5    0    0  0.29960590344E+03 -0.52545446767E+03  0.59943237805E+03  0.85157810612E+03  0.00000000000E+00 0.  1.
        -11    1    5    5    0    0  0.88302269878E+02 -0.10540750161E+03  0.90665445644E+02  0.16470657332E+03  0.00000000000E+00 0. -1.
          4    1    6    6  503    0 -0.60614146390E+01 -0.48727235869E+02  0.17231172797E+03  0.17917147055E+03  0.00000000000E+00 0. -1.
         -4    1    6    6    0  503 -0.22008895016E+03 -0.17085583030E+03  0.11598808694E+04  0.11928765619E+04  0.00000000000E+00 0.  1.
<mgrwt>
<rscale>  0 0.22180774E+04</rscale>
<asrwt>0</asrwt>
<pdfrwt beam="1">  1        2 0.47346102E+00 0.22180774E+04</pdfrwt>
<pdfrwt beam="2">  1       -1 0.61486878E-01 0.22180774E+04</pdfrwt>
<totfact> 0.43395012E+00</totfact>
</mgrwt>
</event>
<event>
12    6  0.8914180E-008  0.2226724E+04  0.7818608E-02  0.8507386E-01
         -1   -1    0    0    0  501 -0.00000000000E+00  0.00000000000E+00  0.38922779097E+03  0.38922779097E+03  0.00000000000E+00 0.  1.
          2   -1    0    0  501    0  0.00000000000E+00 -0.00000000000E+00 -0.31847044414E+04  0.31847044414E+04  0.00000000000E+00 0. -1.
         24    2    1    2    0    0 -0.24392127664E+03  0.89575318141E+03 -0.12548555426E+04  0.15629417845E+04  0.79077415569E+02 0.  0.
        254    2    1    2    0    0  0.24392127664E+03 -0.89575318141E+03 -0.15406211078E+04  0.20109904479E+04  0.89927628260E+03 0.  0.
         23    2    4    4    0    0 -0.62672547049E+02  0.82027325543E+02 -0.60573583651E+03  0.62101753350E+03  0.89947445731E+02 0.  0.
         23    2    4    4    0    0  0.30659382369E+03 -0.97778050695E+03 -0.93488527127E+03  0.13899729144E+04  0.89217373379E+02 0.  0.
          4    1    3    3  502    0 -0.24503515494E+03  0.85317845157E+03 -0.11770984657E+04  0.14742850794E+04  0.00000000000E+00 0. -1.
         -3    1    3    3    0  502  0.11138782942E+01  0.42574729843E+02 -0.77757076991E+02  0.88656705151E+02  0.00000000000E+00 0.  1.
         11    1    5    5    0    0 -0.30460489097E+02  0.89276950832E+02 -0.53099169928E+03  0.53930547934E+03  0.00000000000E+00 0. -1.
        -11    1    5    5    0    0 -0.32212057951E+02 -0.72496252898E+01 -0.74744137232E+02  0.81712054159E+02  0.00000000000E+00 0.  1.
          3    1    6    6  503    0  0.26443425754E+03 -0.75643926944E+03 -0.69327209987E+03  0.10595999478E+04  0.00000000000E+00 0. -1.
         -3    1    6    6    0  503  0.42159566152E+02 -0.22134123752E+03 -0.24161317140E+03  0.33037296657E+03  0.00000000000E+00 0.  1.
<mgrwt>
<rscale>  0 0.22267245E+04</rscale>
<asrwt>0</asrwt>
<pdfrwt beam="1">  1        2 0.48995452E+00 0.22267245E+04</pdfrwt>
<pdfrwt beam="2">  1       -1 0.59881200E-01 0.22267245E+04</pdfrwt>
<totfact> 0.39003098E+00</totfact>
</mgrwt>
</event>
<event>
12    6  0.8914180E-008  0.1706062E+04  0.7818608E-02  0.8757915E-01
          2   -1    0    0  501    0  0.00000000000E+00  0.00000000000E+00  0.18146133972E+04  0.18146133972E+04  0.00000000000E+00 0. -1.
         -1   -1    0    0    0  501 -0.00000000000E+00 -0.00000000000E+00 -0.40100097860E+03  0.40100097860E+03  0.00000000000E+00 0.  1.
         24    2    1    2    0    0 -0.43761754873E+03  0.33332947430E+03  0.85392283978E+03  0.10189124248E+04  0.79879006635E+02 0.  0.
        254    2    1    2    0    0  0.43761754873E+03 -0.33332947430E+03  0.55968957886E+03  0.11967019511E+04  0.90345197858E+03 0.  0.
         23    2    4    4    0    0  0.65108440190E+03 -0.22714974532E+03  0.14620355063E+03  0.71078421756E+03  0.91273328620E+02 0.  0.
         23    2    4    4    0    0 -0.21346685317E+03 -0.10617972897E+03  0.41348602823E+03  0.48591773350E+03  0.91121435135E+02 0.  0.
          4    1    3    3  502    0 -0.32234796258E+03  0.20979564936E+03  0.54915724003E+03  0.67044470149E+03  0.00000000000E+00 0. -1.
         -3    1    3    3    0  502 -0.11526958614E+03  0.12353382494E+03  0.30476559975E+03  0.34846772330E+03  0.00000000000E+00 0.  1.
         11    1    5    5    0    0  0.29361374720E+03 -0.56128006334E+02  0.51247199900E+02  0.30329137993E+03  0.00000000000E+00 0.  1.
        -11    1    5    5    0    0  0.35747065470E+03 -0.17102173899E+03  0.94956350730E+02  0.40749283763E+03  0.00000000000E+00 0. -1.
          4    1    6    6  503    0 -0.14516270632E+03 -0.38438353803E+02  0.31099759777E+03  0.34535376669E+03  0.00000000000E+00 0. -1.
         -4    1    6    6    0  503 -0.68304146859E+02 -0.67741375171E+02  0.10248843047E+03  0.14056396682E+03  0.00000000000E+00 0.  1.
<mgrwt>
<rscale>  0 0.17060618E+04</rscale>
<asrwt>0</asrwt>
<pdfrwt beam="1">  1        2 0.27917129E+00 0.17060618E+04</pdfrwt>
<pdfrwt beam="2">  1       -1 0.61692459E-01 0.17060618E+04</pdfrwt>
<totfact> 0.24450159E+01</totfact>
</mgrwt>
</event>
<event>
12    6  0.8914180E-008  0.5190409E+04  0.7818608E-02  0.7799788E-01
          2   -1    0    0  501    0  0.00000000000E+00  0.00000000000E+00  0.36112709410E+04  0.36112709410E+04  0.00000000000E+00 0. -1.
         -1   -1    0    0    0  501 -0.00000000000E+00 -0.00000000000E+00 -0.18650179944E+04  0.18650179944E+04  0.00000000000E+00 0.  1.
         24    2    1    2    0    0  0.23254770850E+04 -0.88404061322E+02 -0.17062854011E+03  0.23346776479E+04  0.77114653473E+02 0.  0.
        254    2    1    2    0    0 -0.23254770850E+04  0.88404061322E+02  0.19168814866E+04  0.31416112875E+04  0.88296539971E+03 0.  0.
         23    2    4    4    0    0 -0.15654127958E+04  0.23025888033E+03  0.78701819660E+03  0.17694609773E+04  0.89767116490E+02 0.  0.
         23    2    4    4    0    0 -0.76006428923E+03 -0.14185481900E+03  0.11298632900E+04  0.13721503102E+04  0.91569133730E+02 0.  0.
          2    1    3    3  502    0  0.21190822998E+04 -0.60149000740E+02 -0.16360429537E+03  0.21262394176E+04  0.00000000000E+00 0. -1.
         -1    1    3    3    0  502  0.20639478524E+03 -0.28255060582E+02 -0.70242447447E+01  0.20843823027E+03  0.00000000000E+00 0.  1.
         11    1    5    5    0    0 -0.43374728945E+03  0.95497514032E+02  0.24921578706E+03  0.50927889688E+03  0.00000000000E+00 0. -1.
        -11    1    5    5    0    0 -0.11316655064E+04  0.13476136629E+03  0.53780240955E+03  0.12601820804E+04  0.00000000000E+00 0.  1.
          3    1    6    6  503    0 -0.35870553667E+02  0.10578969860E+01  0.26386498494E+02  0.44542822869E+02  0.00000000000E+00 0. -1.
         -3    1    6    6    0  503 -0.72419373556E+03 -0.14291271599E+03  0.11034767915E+04  0.13276074873E+04  0.00000000000E+00 0.  1.
<mgrwt>
<rscale>  0 0.51904086E+04</rscale>
<asrwt>0</asrwt>
<pdfrwt beam="1">  1        2 0.55558014E+00 0.51904086E+04</pdfrwt>
<pdfrwt beam="2">  1       -1 0.28692585E+00 0.51904086E+04</pdfrwt>
<totfact> 0.22098078E-02</totfact>
</mgrwt>
</event>
<event>
12    6  0.8914180E-008  0.1393774E+04  0.7818608E-02  0.8958337E-01
         -1   -1    0    0    0  501 -0.00000000000E+00  0.00000000000E+00  0.33232654969E+03  0.33232654969E+03  0.00000000000E+00 0.  1.
          2   -1    0    0  501    0  0.00000000000E+00 -0.00000000000E+00 -0.14613691308E+04  0.14613691308E+04  0.00000000000E+00 0. -1.
         24    2    1    2    0    0 -0.15384978049E+03 -0.47105146791E+02  0.14161034128E+03  0.22857590697E+03  0.79402812782E+02 0.  0.
        254    2    1    2    0    0  0.15384978049E+03  0.47105146791E+02 -0.12706529224E+04  0.15651197735E+04  0.89952899146E+03 0.  0.
         23    2    4    4    0    0  0.32878044754E+03  0.15043321733E+03 -0.11814585271E+03  0.39124406995E+03  0.91579169026E+02 0.  0.
         23    2    4    4    0    0 -0.17493066705E+03 -0.10332807054E+03 -0.11525070697E+04  0.11738757036E+04  0.91837864466E+02 0.  0.
          2    1    3    3  502    0  0.85279595873E+01 -0.47665102757E+00  0.15713208529E+02  0.17884580320E+02  0.00000000000E+00 0. -1.
         -1    1    3    3    0  502 -0.16237774008E+03 -0.46628495764E+02  0.12589713275E+03  0.21069132665E+03  0.00000000000E+00 0.  1.
         11    1    5    5    0    0  0.48862540207E+02  0.74463046388E+01  0.12289286248E+02  0.50931540766E+02  0.00000000000E+00 0.  1.
        -11    1    5    5    0    0  0.27991790733E+03  0.14298691269E+03 -0.13043513896E+03  0.34031252919E+03  0.00000000000E+00 0. -1.
          3    1    6    6  503    0 -0.63087735702E+02 -0.32003343364E+02 -0.66129478264E+03  0.66506771530E+03  0.00000000000E+00 0.  1.
         -3    1    6    6    0  503 -0.11184293134E+03 -0.71324727171E+02 -0.49121228701E+03  0.50880798825E+03  0.00000000000E+00 0. -1.
<mgrwt>
<rscale>  0 0.13937744E+04</rscale>
<asrwt>0</asrwt>
<pdfrwt beam="1">  1        2 0.22482601E+00 0.13937744E+04</pdfrwt>
<pdfrwt beam="2">  1       -1 0.51127163E-01 0.13937744E+04</pdfrwt>
<totfact> 0.56972209E+01</totfact>
</mgrwt>
</event>
<event>
12    6  0.8914180E-008  0.1440178E+04  0.7818608E-02  0.8925239E-01
          2   -1    0    0  501    0  0.00000000000E+00  0.00000000000E+00  0.18557702012E+04  0.18557702012E+04  0.00000000000E+00 0. -1.
         -1   -1    0    0    0  501 -0.00000000000E+00 -0.00000000000E+00 -0.27941385248E+03  0.27941385248E+03  0.00000000000E+00 0.  1.
         24    2    1    2    0    0 -0.26651233848E+03 -0.23358166612E+02  0.97778096686E+03  0.10167479143E+04  0.78398160533E+02 0.  0.
        254    2    1    2    0    0  0.26651233848E+03  0.23358166612E+02  0.59857538186E+03  0.11184361394E+04  0.90610842595E+03 0.  0.
         23    2    4    4    0    0 -0.37464650379E+00  0.79156276451E+02 -0.21996885186E+03  0.25051158741E+03  0.90021681721E+02 0.  0.
         23    2    4    4    0    0  0.26688698498E+03 -0.55798109839E+02  0.81854423372E+03  0.86792455196E+03  0.94531865119E+02 0.  0.
          4    1    3    3  502    0 -0.22461710260E+03 -0.32417568127E+02  0.89741214779E+03  0.92566317011E+03  0.00000000000E+00 0. -1.
         -3    1    3    3    0  502 -0.41895235880E+02  0.90594015149E+01  0.80368819073E+02  0.91084744192E+02  0.00000000000E+00 0.  1.
         11    1    5    5    0    0  0.20172490295E+02  0.89181463848E+02 -0.20094486331E+03  0.22076933879E+03  0.00000000000E+00 0. -1.
        -11    1    5    5    0    0 -0.20547136799E+02 -0.10025187397E+02 -0.19023988544E+02  0.29742248622E+02  0.00000000000E+00 0.  1.
          4    1    6    6  503    0  0.24010090164E+03 -0.55689245068E+02  0.61383789171E+03  0.66147312288E+03  0.00000000000E+00 0. -1.
         -4    1    6    6    0  503  0.26786083338E+02 -0.10886477062E+00  0.20470634200E+03  0.20645142908E+03  0.00000000000E+00 0.  1.
<mgrwt>
<rscale>  0 0.14401776E+04</rscale>
<asrwt>0</asrwt>
<pdfrwt beam="1">  1        2 0.28550310E+00 0.14401776E+04</pdfrwt>
<pdfrwt beam="2">  1       -1 0.42986748E-01 0.14401776E+04</pdfrwt>
<totfact> 0.47383989E+01</totfact>
</mgrwt>
</event>
<event>
12    6  0.8914180E-008  0.2429144E+04  0.7818608E-02  0.8428672E-01
          2   -1    0    0  501    0  0.00000000000E+00  0.00000000000E+00  0.10692721961E+04  0.10692721961E+04  0.00000000000E+00 0. -1.
         -1   -1    0    0    0  501 -0.00000000000E+00 -0.00000000000E+00 -0.13796165318E+04  0.13796165318E+04  0.00000000000E+00 0.  1.
         24    2    1    2    0    0 -0.49878896289E+03 -0.43091576316E+03 -0.94806233120E+03  0.11574788274E+04  0.80350654194E+02 0.  0.
        254    2    1    2    0    0  0.49878896289E+03  0.43091576316E+03  0.63771799548E+03  0.12914099005E+04  0.90916250738E+03 0.  0.
         23    2    4    4    0    0  0.39611941752E+03  0.67932552447E+03  0.29180791030E+03  0.84378608991E+03  0.91811480059E+02 0.  0.
         23    2    4    4    0    0  0.10266954536E+03 -0.24840976131E+03  0.34591008518E+03  0.44762381056E+03  0.92004585190E+02 0.  0.
          4    1    3    3  502    0 -0.10353109196E+03 -0.51653673635E+02 -0.18360004798E+03  0.21701559074E+03  0.00000000000E+00 0. -1.
         -3    1    3    3    0  502 -0.39525787093E+03 -0.37926208953E+03 -0.76446228322E+03  0.94046323668E+03  0.00000000000E+00 0.  1.
         11    1    5    5    0    0  0.15480512662E+02  0.48307014043E+01  0.12497190811E+02  0.20473439537E+02  0.00000000000E+00 0.  1.
        -11    1    5    5    0    0  0.38063890486E+03  0.67449482306E+03  0.27931071949E+03  0.82331265037E+03  0.00000000000E+00 0. -1.
          4    1    6    6  503    0  0.45437358457E+02 -0.16984716703E+03  0.15946736921E+03  0.23736565786E+03  0.00000000000E+00 0. -1.
         -4    1    6    6    0  503  0.57232186908E+02 -0.78562594280E+02  0.18644271597E+03  0.21025815270E+03  0.00000000000E+00 0.  1.
<mgrwt>
<rscale>  0 0.24291444E+04</rscale>
<asrwt>0</asrwt>
<pdfrwt beam="1">  1        2 0.16450342E+00 0.24291444E+04</pdfrwt>
<pdfrwt beam="2">  1       -1 0.21224870E+00 0.24291444E+04</pdfrwt>
<totfact> 0.28897618E+00</totfact>
</mgrwt>
</event>
<event>
12    6  0.8914180E-008  0.1203268E+04  0.7818608E-02  0.9110001E-01
          2   -1    0    0  501    0  0.00000000000E+00  0.00000000000E+00  0.29605805759E+04  0.29605805759E+04  0.00000000000E+00 0. -1.
         -1   -1    0    0    0  501 -0.00000000000E+00 -0.00000000000E+00 -0.12226103443E+03  0.12226103443E+03  0.00000000000E+00 0.  1.
         24    2    1    2    0    0 -0.19705008601E+03  0.69337880008E+02  0.23610018584E+03  0.32495513313E+03  0.78842011624E+02 0.  0.
        254    2    1    2    0    0  0.19705008601E+03 -0.69337880008E+02  0.26022193557E+04  0.27578864772E+04  0.88924449296E+03 0.  0.
         23    2    4    4    0    0  0.30536990796E+03 -0.33338631335E+03  0.22483666908E+04  0.22951389632E+04  0.90071467632E+02 0.  0.
         23    2    4    4    0    0 -0.10831982195E+03  0.26404843335E+03  0.35385266483E+03  0.46274751404E+03  0.86422186725E+02 0.  0.
          2    1    3    3  502    0 -0.26750367774E+02  0.73589925908E+01  0.54157305588E+00  0.27749418901E+02  0.00000000000E+00 0. -1.
         -1    1    3    3    0  502 -0.17029971824E+03  0.61978887418E+02  0.23555861278E+03  0.29720571423E+03  0.00000000000E+00 0.  1.
         11    1    5    5    0    0  0.15694181604E+03 -0.15838211223E+03  0.88869854009E+03  0.91624272017E+03  0.00000000000E+00 0. -1.
        -11    1    5    5    0    0  0.14842809192E+03 -0.17500420113E+03  0.13596681507E+04  0.13788962430E+04  0.00000000000E+00 0.  1.
          3    1    6    6  503    0 -0.11081412291E+03  0.17430079306E+03  0.26959786927E+03  0.33962265445E+03  0.00000000000E+00 0. -1.
         -3    1    6    6    0  503  0.24943009575E+01  0.89747640287E+02  0.84254795562E+02  0.12312485959E+03  0.00000000000E+00 0.  1.
<mgrwt>
<rscale>  0 0.12032683E+04</rscale>
<asrwt>0</asrwt>
<pdfrwt beam="1">  1        2 0.45547388E+00 0.12032683E+04</pdfrwt>
<pdfrwt beam="2">  1       -1 0.18809392E-01 0.12032683E+04</pdfrwt>
<totfact> 0.47575389E+01</totfact>
</mgrwt>
</event>
<event>
12    6  0.8914180E-008  0.1595764E+04  0.7818608E-02  0.8823155E-01
          2   -1    0    0  501    0  0.00000000000E+00  0.00000000000E+00  0.37656184053E+03  0.37656184053E+03  0.00000000000E+00 0. -1.
         -1   -1    0    0    0  501 -0.00000000000E+00 -0.00000000000E+00 -0.16906003929E+04  0.16906003929E+04  0.00000000000E+00 0.  1.
         24    2    1    2    0    0  0.61452315400E+02  0.39116700357E+02 -0.11439308181E+04  0.11490356073E+04  0.79991293084E+02 0.  0.
        254    2    1    2    0    0 -0.61452315400E+02 -0.39116700357E+02 -0.17010773424E+03  0.91812662608E+03  0.89928491422E+03 0.  0.
         23    2    4    4    0    0  0.32180098600E+03  0.20028673174E+03  0.71952468955E+02  0.39670147188E+03  0.92326867754E+02 0.  0.
         23    2    4    4    0    0 -0.38325330140E+03 -0.23940343209E+03 -0.24206020320E+03  0.52142515419E+03  0.95362220632E+02 0.  0.
          4    1    3    3  502    0  0.25625706345E+02 -0.17534225995E+02 -0.17082786214E+03  0.17362685389E+03  0.00000000000E+00 0. -1.
         -3    1    3    3    0  502  0.35826609055E+02  0.56650926352E+02 -0.97310295597E+03  0.97540875344E+03  0.00000000000E+00 0.  1.
         11    1    5    5    0    0  0.18358255419E+03  0.60184836598E+02  0.30749771270E+02  0.19562800718E+03  0.00000000000E+00 0. -1.
        -11    1    5    5    0    0  0.13821843180E+03  0.14010189514E+03  0.41202697685E+02  0.20107346470E+03  0.00000000000E+00 0.  1.
          2    1    6    6  503    0 -0.32962437218E+03 -0.21260051355E+03 -0.16948654687E+03  0.42729017619E+03  0.00000000000E+00 0. -1.
         -2    1    6    6    0  503 -0.53628929218E+02 -0.26802918543E+02 -0.72573656328E+02  0.94134978007E+02  0.00000000000E+00 0.  1.
<mgrwt>
<rscale>  0 0.15957639E+04</rscale>
<asrwt>0</asrwt>
<pdfrwt beam="1">  1        2 0.57932592E-01 0.15957639E+04</pdfrwt>
<pdfrwt beam="2">  1       -1 0.26009236E+00 0.15957639E+04</pdfrwt>
<totfact> 0.56008410E+00</totfact>
</mgrwt>
</event>
<event>
12    6  0.8914180E-008  0.2483455E+04  0.7818608E-02  0.8408904E-01
          2   -1    0    0  501    0  0.00000000000E+00  0.00000000000E+00  0.20993699732E+04  0.20993699732E+04  0.00000000000E+00 0. -1.
         -1   -1    0    0    0  501 -0.00000000000E+00 -0.00000000000E+00 -0.73445226011E+03  0.73445226011E+03  0.00000000000E+00 0.  1.
         24    2    1    2    0    0 -0.54968680533E+03  0.87353851395E+02 -0.45799699827E+03  0.72516516243E+03  0.79479450590E+02 0.  0.
        254    2    1    2    0    0  0.54968680533E+03 -0.87353851395E+02  0.18229147114E+04  0.21086570709E+04  0.90201458881E+03 0.  0.
         23    2    4    4    0    0  0.15191295701E+03 -0.32463414741E+03  0.14771428190E+04  0.15228180388E+04  0.92514838880E+02 0.  0.
         23    2    4    4    0    0  0.39777384831E+03  0.23728029601E+03  0.34577189239E+03  0.58583903211E+03  0.95515426528E+02 0.  0.
          4    1    3    3  502    0 -0.10351839514E+03  0.48240313090E+02 -0.99737693152E+02  0.15162715250E+03  0.00000000000E+00 0. -1.
         -3    1    3    3    0  502 -0.44616841018E+03  0.39113538305E+02 -0.35825930512E+03  0.57353800992E+03  0.00000000000E+00 0.  1.
         11    1    5    5    0    0  0.71296684833E+02 -0.23279114349E+03  0.86576897743E+03  0.89935024103E+03  0.00000000000E+00 0. -1.
        -11    1    5    5    0    0  0.80616272180E+02 -0.91843003915E+02  0.61137384156E+03  0.62346779776E+03  0.00000000000E+00 0.  1.
          2    1    6    6  503    0  0.14326439595E+03  0.52386953386E+02  0.15731738230E+03  0.21912973053E+03  0.00000000000E+00 0. -1.
         -2    1    6    6    0  503  0.25450945237E+03  0.18489334263E+03  0.18845451009E+03  0.36670930158E+03  0.00000000000E+00 0.  1.
<mgrwt>
<rscale>  0 0.24834549E+04</rscale>
<asrwt>0</asrwt>
<pdfrwt beam="1">  1        2 0.32297999E+00 0.24834549E+04</pdfrwt>
<pdfrwt beam="2">  1       -1 0.11299266E+00 0.24834549E+04</pdfrwt>
<totfact> 0.42778615E+00</totfact>
</mgrwt>
</event>
<event>
12    6  0.8914180E-008  0.1131994E+04  0.7818608E-02  0.9174557E-01
         -1   -1    0    0    0  501 -0.00000000000E+00  0.00000000000E+00  0.16520919242E+03  0.16520919242E+03  0.00000000000E+00 0.  1.
          2   -1    0    0  501    0  0.00000000000E+00 -0.00000000000E+00 -0.19390740565E+04  0.19390740565E+04  0.00000000000E+00 0. -1.
         24    2    1    2    0    0  0.14484767253E+03 -0.13510283638E+03 -0.41183706677E+03  0.46359728919E+03  0.77968277833E+02 0.  0.
        254    2    1    2    0    0 -0.14484767253E+03  0.13510283638E+03 -0.13620277973E+04  0.16406859597E+04  0.89302691624E+03 0.  0.
         23    2    4    4    0    0 -0.12525994999E+03 -0.36245786118E+03 -0.45498428129E+03  0.60206108482E+03  0.91657500644E+02 0.  0.
         23    2    4    4    0    0 -0.19587722534E+02  0.49756069757E+03 -0.90704351600E+03  0.10386248749E+04  0.89796236912E+02 0.  0.
          4    1    3    3  502    0  0.13864202442E+03 -0.11000950368E+03 -0.39475310178E+03  0.43261265955E+03  0.00000000000E+00 0. -1.
         -3    1    3    3    0  502  0.62056481059E+01 -0.25093332701E+02 -0.17083964982E+02  0.30984629641E+02  0.00000000000E+00 0.  1.
         11    1    5    5    0    0  0.13712086980E+01 -0.10603940260E+03 -0.15292491338E+03  0.18609745901E+03  0.00000000000E+00 0.  1.
        -11    1    5    5    0    0 -0.12663115869E+03 -0.25641845859E+03 -0.30205936791E+03  0.41596362581E+03  0.00000000000E+00 0. -1.
          4    1    6    6  503    0 -0.33770805664E+02  0.41127054306E+03 -0.80208030848E+03  0.90200706658E+03  0.00000000000E+00 0. -1.
         -4    1    6    6    0  503  0.14183083130E+02  0.86290154513E+02 -0.10496320751E+03  0.13661780830E+03  0.00000000000E+00 0.  1.
<mgrwt>
<rscale>  0 0.11319945E+04</rscale>
<asrwt>0</asrwt>
<pdfrwt beam="1">  1        2 0.29831906E+00 0.11319945E+04</pdfrwt>
<pdfrwt beam="2">  1       -1 0.25416801E-01 0.11319945E+04</pdfrwt>
<totfact> 0.11116912E+02</totfact>
</mgrwt>
</event>
<event>
12    6  0.8914180E-008  0.1342628E+04  0.7818608E-02  0.8996428E-01
          2   -1    0    0  501    0  0.00000000000E+00  0.00000000000E+00  0.11165687788E+04  0.11165687788E+04  0.00000000000E+00 0. -1.
         -1   -1    0    0    0  501 -0.00000000000E+00 -0.00000000000E+00 -0.40361350100E+03  0.40361350100E+03  0.00000000000E+00 0.  1.
         24    2    1    2    0    0  0.22751881404E+03  0.28888694579E+03  0.16251965304E+03  0.40999824811E+03  0.80408007296E+02 0.  0.
        254    2    1    2    0    0 -0.22751881404E+03 -0.28888694579E+03  0.55043562471E+03  0.11101840316E+04  0.89123999516E+03 0.  0.
         23    2    4    4    0    0  0.88481357637E+02 -0.18099691803E+03  0.69858303939E+03  0.73311879849E+03  0.94106720222E+02 0.  0.
         23    2    4    4    0    0 -0.31600017168E+03 -0.10789002775E+03 -0.14814741468E+03  0.37706523315E+03  0.93456765332E+02 0.  0.
          2    1    3    3  502    0  0.15812992939E+03  0.22967974035E+03  0.15357664363E+03  0.31834516356E+03  0.00000000000E+00 0. -1.
         -1    1    3    3    0  502  0.69388884656E+02  0.59207205436E+02  0.89430094135E+01  0.91653084545E+02  0.00000000000E+00 0.  1.
         11    1    5    5    0    0  0.60414302948E+02 -0.77816535649E+02  0.47721850994E+03  0.48728103539E+03  0.00000000000E+00 0. -1.
        -11    1    5    5    0    0  0.28067054690E+02 -0.10318038238E+03  0.22136452944E+03  0.24583776309E+03  0.00000000000E+00 0.  1.
          4    1    6    6  503    0 -0.28066841735E+03 -0.94326057287E+02 -0.93335957199E+02  0.31045735051E+03  0.00000000000E+00 0. -1.
         -4    1    6    6    0  503 -0.35331754329E+02 -0.13563970468E+02 -0.54811457478E+02  0.66607882639E+02  0.00000000000E+00 0.  1.
<mgrwt>
<rscale>  0 0.13426276E+04</rscale>
<asrwt>0</asrwt>
<pdfrwt beam="1">  1        2 0.17177981E+00 0.13426276E+04</pdfrwt>
<pdfrwt beam="2">  1       -1 0.62094385E-01 0.13426276E+04</pdfrwt>
<totfact> 0.62391236E+01</totfact>
</mgrwt>
</event>
<event>
12    6  0.8914180E-008  0.1602131E+04  0.7818608E-02  0.8819240E-01
          2   -1    0    0  501    0  0.00000000000E+00  0.00000000000E+00  0.17669605345E+04  0.17669605345E+04  0.00000000000E+00 0. -1.
         -1   -1    0    0    0  501 -0.00000000000E+00 -0.00000000000E+00 -0.36316926643E+03  0.36316926643E+03  0.00000000000E+00 0.  1.
         24    2    1    2    0    0 -0.33190395005E+03  0.34807638791E+03  0.83620983839E+03  0.96798718122E+03  0.80217736894E+02 0.  0.
        254    2    1    2    0    0  0.33190395005E+03 -0.34807638791E+03  0.56758142969E+03  0.11621426197E+04  0.89280982598E+03 0.  0.
         23    2    4    4    0    0  0.51395730521E+03 -0.85307857761E+02  0.63167528876E+03  0.82372840517E+03  0.89918145495E+02 0.  0.
         23    2    4    4    0    0 -0.18205335516E+03 -0.26276853015E+03 -0.64093859069E+02  0.33841421455E+03  0.90694174437E+02 0.  0.
          2    1    3    3  502    0 -0.18466169978E+03  0.20025145073E+03  0.39361440405E+03  0.47867826978E+03  0.00000000000E+00 0. -1.
         -1    1    3    3    0  502 -0.14724225027E+03  0.14782493717E+03  0.44259543434E+03  0.48930891144E+03  0.00000000000E+00 0.  1.
         11    1    5    5    0    0  0.37755745547E+02 -0.32014642844E+02  0.60990562892E+02  0.78551145378E+02  0.00000000000E+00 0.  1.
        -11    1    5    5    0    0  0.47620155966E+03 -0.53293214917E+02  0.57068472587E+03  0.74517725979E+03  0.00000000000E+00 0. -1.
          2    1    6    6  503    0 -0.11884145566E+02  0.64469886721E+01  0.10341284003E+00  0.13520623987E+02  0.00000000000E+00 0.  1.
         -2    1    6    6    0  503 -0.17016920959E+03 -0.26921551882E+03 -0.64197271909E+02  0.32489359056E+03  0.00000000000E+00 0. -1.
<mgrwt>
<rscale>  0 0.16021308E+04</rscale>
<asrwt>0</asrwt>
<pdfrwt beam="1">  1        2 0.27184008E+00 0.16021308E+04</pdfrwt>
<pdfrwt beam="2">  1       -1 0.55872196E-01 0.16021308E+04</pdfrwt>
<totfact> 0.31854862E+01</totfact>
</mgrwt>
</event>
<event>
12    6  0.8914180E-008  0.1810315E+04  0.7818608E-02  0.8700833E-01
         -1   -1    0    0    0  501 -0.00000000000E+00  0.00000000000E+00  0.43428746053E+03  0.43428746053E+03  0.00000000000E+00 0.  1.
          2   -1    0    0  501    0  0.00000000000E+00 -0.00000000000E+00 -0.18865610511E+04  0.18865610511E+04  0.00000000000E+00 0. -1.
         24    2    1    2    0    0 -0.33421271289E+03 -0.52365398531E+03 -0.16914161396E+03  0.64875548850E+03  0.79769445923E+02 0.  0.
        254    2    1    2    0    0  0.33421271289E+03  0.52365398531E+03 -0.12831319766E+04  0.16720930231E+04  0.87381678560E+03 0.  0.
         23    2    4    4    0    0  0.61026533995E+03  0.44803986278E+03 -0.81797939000E+03  0.11182619842E+04  0.90862969049E+02 0.  0.
         23    2    4    4    0    0 -0.27605262706E+03  0.75614122527E+02 -0.46515258657E+03  0.55383103885E+03  0.91865893432E+02 0.  0.
          4    1    3    3  502    0 -0.13491452153E+03 -0.15094820257E+03 -0.73838028502E+02  0.21549789426E+03  0.00000000000E+00 0. -1.
         -3    1    3    3    0  502 -0.19929819136E+03 -0.37270578274E+03 -0.95303585459E+02  0.43325759424E+03  0.00000000000E+00 0.  1.
         11    1    5    5    0    0  0.31871492210E+03  0.20152873445E+03 -0.35200985794E+03  0.51585266546E+03  0.00000000000E+00 0. -1.
        -11    1    5    5    0    0  0.29155041785E+03  0.24651112833E+03 -0.46596953206E+03  0.60240931878E+03  0.00000000000E+00 0.  1.
          1    1    6    6  503    0 -0.23286209985E+03  0.51603215120E+02 -0.43456027852E+03  0.49571189720E+03  0.00000000000E+00 0. -1.
         -1    1    6    6    0  503 -0.43190527208E+02  0.24010907407E+02 -0.30592308049E+02  0.58119141656E+02  0.00000000000E+00 0.  1.
<mgrwt>
<rscale>  0 0.18103147E+04</rscale>
<asrwt>0</asrwt>
<pdfrwt beam="1">  1        2 0.29024016E+00 0.18103147E+04</pdfrwt>
<pdfrwt beam="2">  1       -1 0.66813455E-01 0.18103147E+04</pdfrwt>
<totfact> 0.18834115E+01</totfact>
</mgrwt>
</event>
<event>
12    6  0.8914180E-008  0.1158668E+04  0.7818608E-02  0.9149824E-01
          2   -1    0    0  501    0  0.00000000000E+00  0.00000000000E+00  0.36271458695E+03  0.36271458695E+03  0.00000000000E+00 0. -1.
         -1   -1    0    0    0  501 -0.00000000000E+00 -0.00000000000E+00 -0.92532157126E+03  0.92532157126E+03  0.00000000000E+00 0.  1.
         24    2    1    2    0    0 -0.84232852522E+02 -0.19642559821E+03 -0.17820035810E+03  0.28940695745E+03  0.79516226774E+02 0.  0.
        254    2    1    2    0    0  0.84232852522E+02  0.19642559821E+03 -0.38440662622E+03  0.99862920076E+03  0.89655654437E+03 0.  0.
         23    2    4    4    0    0 -0.12812328484E+03  0.50873862318E+03 -0.23771994631E+03  0.58295460646E+03  0.89970759070E+02 0.  0.
         23    2    4    4    0    0  0.21235613736E+03 -0.31231302497E+03 -0.14668667991E+03  0.41567459430E+03  0.92918413909E+02 0.  0.
          4    1    3    3  502    0 -0.48270032156E+02 -0.62581320648E+02 -0.10861660895E+03  0.13432790268E+03  0.00000000000E+00 0. -1.
         -3    1    3    3    0  502 -0.35962820366E+02 -0.13384427756E+03 -0.69583749150E+02  0.15507905478E+03  0.00000000000E+00 0.  1.
         11    1    5    5    0    0 -0.13573240160E+03  0.40737322027E+03 -0.17619386240E+03  0.46413414288E+03  0.00000000000E+00 0. -1.
        -11    1    5    5    0    0  0.76091167628E+01  0.10136540290E+03 -0.61526083902E+02  0.11882046357E+03  0.00000000000E+00 0.  1.
          2    1    6    6  503    0  0.11658194394E+03 -0.10807992350E+03 -0.91584562001E+02  0.18346757619E+03  0.00000000000E+00 0. -1.
         -2    1    6    6    0  503  0.95774193425E+02 -0.20423310147E+03 -0.55102117914E+02  0.23220701812E+03  0.00000000000E+00 0.  1.
<mgrwt>
<rscale>  0 0.11586676E+04</rscale>
<asrwt>0</asrwt>
<pdfrwt beam="1">  1        2 0.55802246E-01 0.11586676E+04</pdfrwt>
<pdfrwt beam="2">  1       -1 0.14235716E+00 0.11586676E+04</pdfrwt>
<totfact> 0.40352248E+01</totfact>
</mgrwt>
</event>
<event>
12    6  0.8914180E-008  0.3241207E+04  0.7818608E-02  0.8178018E-01
          2   -1    0    0  501    0  0.00000000000E+00  0.00000000000E+00  0.30347848441E+04  0.30347848441E+04  0.00000000000E+00 0. -1.
         -1   -1    0    0    0  501 -0.00000000000E+00 -0.00000000000E+00 -0.86541746683E+03  0.86541746683E+03  0.00000000000E+00 0.  1.
         24    2    1    2    0    0  0.10865626348E+04  0.90750480733E+02 -0.22774745216E+03  0.11172633592E+04  0.86916641684E+02 0.  0.
        254    2    1    2    0    0 -0.10865626348E+04 -0.90750480733E+02  0.23971148294E+04  0.27829389518E+04  0.89985315173E+03 0.  0.
         23    2    4    4    0    0 -0.35809677581E+03  0.33155380386E+02  0.17737366562E+04  0.18121057250E+04  0.90845215044E+02 0.  0.
         23    2    4    4    0    0 -0.72846585901E+03 -0.12390586112E+03  0.62337817325E+03  0.97083322674E+03  0.88891153129E+02 0.  0.
          4    1    3    3  502    0  0.15198918760E+03  0.23808916517E+02 -0.61404049837E+02  0.16564430262E+03  0.00000000000E+00 0. -1.
         -1    1    3    3    0  502  0.93457344721E+03  0.66941564216E+02 -0.16634340232E+03  0.95161905653E+03  0.00000000000E+00 0.  1.
         11    1    5    5    0    0 -0.27683251137E+03  0.54727283878E+02  0.14755888513E+04  0.15023294489E+04  0.00000000000E+00 0.  1.
        -11    1    5    5    0    0 -0.81264264440E+02 -0.21571903492E+02  0.29814780492E+03  0.30977627616E+03  0.00000000000E+00 0. -1.
          1    1    6    6  503    0 -0.95840544830E+02  0.78667617667E+01  0.10520807801E+03  0.14253433149E+03  0.00000000000E+00 0. -1.
         -1    1    6    6    0  503 -0.63262531418E+03 -0.13177262289E+03  0.51817009524E+03  0.82829889525E+03  0.00000000000E+00 0.  1.
<mgrwt>
<rscale>  0 0.32412071E+04</rscale>
<asrwt>0</asrwt>
<pdfrwt beam="1">  1        2 0.46688997E+00 0.32412071E+04</pdfrwt>
<pdfrwt beam="2">  1       -1 0.13314115E+00 0.32412071E+04</pdfrwt>
<totfact> 0.75259015E-01</totfact>
</mgrwt>
</event>
<event>
12    6  0.8914180E-008  0.1695911E+04  0.7818608E-02  0.8763700E-01
          2   -1    0    0  501    0  0.00000000000E+00  0.00000000000E+00  0.10606514768E+04  0.10606514768E+04  0.00000000000E+00 0. -1.
         -1   -1    0    0    0  501 -0.00000000000E+00 -0.00000000000E+00 -0.67791216096E+03  0.67791216096E+03  0.00000000000E+00 0.  1.
         24    2    1    2    0    0 -0.56198805393E+02 -0.48601997546E+03 -0.23167017966E+03  0.54761166273E+03  0.82666430528E+02 0.  0.
        254    2    1    2    0    0  0.56198805393E+02  0.48601997546E+03  0.61440949550E+03  0.11909519750E+04  0.89526189263E+03 0.  0.
         23    2    4    4    0    0  0.51113439818E+02  0.64522614449E+03  0.72746171142E+03  0.97790937194E+03  0.90425864023E+02 0.  0.
         23    2    4    4    0    0  0.50853655750E+01 -0.15920616903E+03 -0.11305221592E+03  0.21304260309E+03  0.85052231070E+02 0.  0.
          2    1    3    3  502    0 -0.26011345527E+02 -0.20597370455E+03 -0.53745906660E+02  0.21445367692E+03  0.00000000000E+00 0. -1.
         -1    1    3    3    0  502 -0.30187459865E+02 -0.28004627092E+03 -0.17792427300E+03  0.33315798581E+03  0.00000000000E+00 0.  1.
         11    1    5    5    0    0  0.26107123299E+02  0.53945452427E+02  0.47485404769E+02  0.76462784350E+02  0.00000000000E+00 0.  1.
        -11    1    5    5    0    0  0.25006316518E+02  0.59128069207E+03  0.67997630665E+03  0.90144658759E+03  0.00000000000E+00 0. -1.
          2    1    6    6  503    0 -0.26808661218E+02 -0.81745069575E+02 -0.93430970234E+02  0.12700514523E+03  0.00000000000E+00 0.  1.
         -2    1    6    6    0  503  0.31894026793E+02 -0.77461099453E+02 -0.19621245682E+02  0.86037457864E+02  0.00000000000E+00 0. -1.
<mgrwt>
<rscale>  0 0.16959110E+04</rscale>
<asrwt>0</asrwt>
<pdfrwt beam="1">  1        2 0.16317715E+00 0.16959110E+04</pdfrwt>
<pdfrwt beam="2">  1       -1 0.10429418E+00 0.16959110E+04</pdfrwt>
<totfact> 0.21648917E+01</totfact>
</mgrwt>
</event>
<event>
12    6  0.8914180E-008  0.1783234E+04  0.7818608E-02  0.8715266E-01
          2   -1    0    0  501    0  0.00000000000E+00  0.00000000000E+00  0.17383601521E+04  0.17383601521E+04  0.00000000000E+00 0. -1.
         -1   -1    0    0    0  501 -0.00000000000E+00 -0.00000000000E+00 -0.45731671661E+03  0.45731671661E+03  0.00000000000E+00 0.  1.
         24    2    1    2    0    0 -0.22573060152E+03  0.27864099246E+03  0.11582809475E+04  0.12151481823E+04  0.79845126660E+02 0.  0.
        254    2    1    2    0    0  0.22573060152E+03 -0.27864099246E+03  0.12276248799E+03  0.98052868649E+03  0.90430678945E+03 0.  0.
         23    2    4    4    0    0  0.34459947126E+03  0.26946171500E+02  0.40318148983E+03  0.53764233438E+03  0.83839574352E+02 0.  0.
         23    2    4    4    0    0 -0.11886886974E+03 -0.30558716396E+03 -0.28041900184E+03  0.44288635211E+03  0.10000090661E+03 0.  0.
          2    1    3    3  502    0 -0.22348102276E+03  0.24507822302E+03  0.10086355515E+04  0.10617687030E+04  0.00000000000E+00 0. -1.
         -1    1    3    3    0  502 -0.22495787560E+01  0.33562769435E+02  0.14964539606E+03  0.15337947927E+03  0.00000000000E+00 0.  1.
         11    1    5    5    0    0  0.32793612966E+03  0.45000637374E+02  0.37839615318E+03  0.50274328563E+03  0.00000000000E+00 0.  1.
        -11    1    5    5    0    0  0.16663341599E+02 -0.18054465873E+02  0.24785336649E+02  0.34899048756E+02  0.00000000000E+00 0. -1.
          4    1    6    6  503    0 -0.56873601496E+02 -0.21122480549E+03 -0.12881214967E+03  0.25385644547E+03  0.00000000000E+00 0.  1.
         -4    1    6    6    0  503 -0.61995268247E+02 -0.94362358462E+02 -0.15160685217E+03  0.18902990664E+03  0.00000000000E+00 0. -1.
<mgrwt>
<rscale>  0 0.17832343E+04</rscale>
<asrwt>0</asrwt>
<pdfrwt beam="1">  1        2 0.26744002E+00 0.17832343E+04</pdfrwt>
<pdfrwt beam="2">  1       -1 0.70356419E-01 0.17832343E+04</pdfrwt>
<totfact> 0.20526207E+01</totfact>
</mgrwt>
</event>
<event>
12    6  0.8914180E-008  0.2120309E+04  0.7818608E-02  0.8552350E-01
         -1   -1    0    0    0  501 -0.00000000000E+00  0.00000000000E+00  0.92475782288E+03  0.92475782288E+03  0.00000000000E+00 0.  1.
          2   -1    0    0  501    0  0.00000000000E+00 -0.00000000000E+00 -0.12153744848E+04  0.12153744848E+04  0.00000000000E+00 0. -1.
         24    2    1    2    0    0 -0.32156744167E+03  0.70852539094E+03  0.26449343969E+03  0.82563390570E+03  0.79377058706E+02 0.  0.
        254    2    1    2    0    0  0.32156744167E+03 -0.70852539094E+03 -0.55511010158E+03  0.13144984020E+04  0.90241064639E+03 0.  0.
         23    2    4    4    0    0 -0.21600526542E+03 -0.51864981152E+03 -0.45436580307E+03  0.72837073974E+03  0.91759194785E+02 0.  0.
         23    2    4    4    0    0  0.53757270709E+03 -0.18987557942E+03 -0.10074429851E+03  0.58612766221E+03  0.91427958853E+02 0.  0.
          2    1    3    3  502    0 -0.63245124939E+01  0.67724255004E+00 -0.12056043192E+01  0.64739167072E+01  0.00000000000E+00 0. -1.
         -1    1    3    3    0  502 -0.31524292918E+03  0.70784814839E+03  0.26569904401E+03  0.81915998899E+03  0.00000000000E+00 0.  1.
         11    1    5    5    0    0 -0.72661133880E+02 -0.17309586454E+03 -0.20923920375E+03  0.28111005510E+03  0.00000000000E+00 0.  1.
        -11    1    5    5    0    0 -0.14334413154E+03 -0.34555394698E+03 -0.24512659932E+03  0.44726068463E+03  0.00000000000E+00 0. -1.
          3    1    6    6  503    0  0.53764951615E+03 -0.18389727025E+03 -0.10615900588E+03  0.57806136591E+03  0.00000000000E+00 0. -1.
         -3    1    6    6    0  503 -0.76809060066E-01 -0.59783091743E+01  0.54147073722E+01  0.80662963089E+01  0.00000000000E+00 0.  1.
<mgrwt>
<rscale>  0 0.21203085E+04</rscale>
<asrwt>0</asrwt>
<pdfrwt beam="1">  1        2 0.18698069E+00 0.21203085E+04</pdfrwt>
<pdfrwt beam="2">  1       -1 0.14227043E+00 0.21203085E+04</pdfrwt>
<totfact> 0.78158133E+00</totfact>
</mgrwt>
</event>
<event>
12    6  0.8914180E-008  0.2089599E+04  0.7818608E-02  0.8565839E-01
          2   -1    0    0  501    0  0.00000000000E+00  0.00000000000E+00  0.41271137834E+04  0.41271137834E+04  0.00000000000E+00 0. -1.
         -1   -1    0    0    0  501 -0.00000000000E+00 -0.00000000000E+00 -0.26449613850E+03  0.26449613850E+03  0.00000000000E+00 0.  1.
         24    2    1    2    0    0 -0.10688423035E+03 -0.81758257169E+03  0.11421556651E+04  0.14109362528E+04  0.79724812738E+02 0.  0.
        254    2    1    2    0    0  0.10688423035E+03  0.81758257169E+03  0.27204619798E+04  0.29806736691E+04  0.89645782846E+03 0.  0.
         23    2    4    4    0    0 -0.26461979615E+03  0.60977430581E+03  0.22159905910E+04  0.23153487946E+04  0.91528141226E+02 0.  0.
         23    2    4    4    0    0  0.37150402651E+03  0.20780826588E+03  0.50447138880E+03  0.66532487457E+03  0.83464300886E+02 0.  0.
          2    1    3    3  502    0 -0.60326658557E+02 -0.60392616498E+03  0.78680217464E+03  0.99369199479E+03  0.00000000000E+00 0. -1.
         -1    1    3    3    0  502 -0.46557571796E+02 -0.21365640671E+03  0.35535349048E+03  0.41724425798E+03  0.00000000000E+00 0.  1.
         11    1    5    5    0    0 -0.20040074690E+03  0.36788109388E+03  0.13038963981E+04  0.13695410821E+04  0.00000000000E+00 0.  1.
        -11    1    5    5    0    0 -0.64219049255E+02  0.24189321193E+03  0.91209419285E+03  0.94580771243E+03  0.00000000000E+00 0. -1.
          2    1    6    6  503    0  0.72825172789E+02  0.71927605235E+01  0.10105514608E+03  0.12476932373E+03  0.00000000000E+00 0. -1.
         -2    1    6    6    0  503  0.29867885372E+03  0.20061550536E+03  0.40341624272E+03  0.54055555084E+03  0.00000000000E+00 0.  1.
<mgrwt>
<rscale>  0 0.20895987E+04</rscale>
<asrwt>0</asrwt>
<pdfrwt beam="1">  1        2 0.63494054E+00 0.20895987E+04</pdfrwt>
<pdfrwt beam="2">  1       -1 0.40691717E-01 0.20895987E+04</pdfrwt>
<totfact> 0.16806117E+00</totfact>
</mgrwt>
</event>
<event>
12    6  0.8914180E-008  0.1944867E+04  0.7818608E-02  0.8632840E-01
          2   -1    0    0  501    0  0.00000000000E+00  0.00000000000E+00  0.42323009007E+04  0.42323009007E+04  0.00000000000E+00 0. -1.
         -1   -1    0    0    0  501 -0.00000000000E+00 -0.00000000000E+00 -0.22343103733E+03  0.22343103733E+03  0.00000000000E+00 0.  1.
         24    2    1    2    0    0 -0.41163146166E+03 -0.62948107534E+03  0.18974228058E+04  0.20425762925E+04  0.78852533796E+02 0.  0.
        254    2    1    2    0    0  0.41163146166E+03  0.62948107534E+03  0.21114470576E+04  0.24131556456E+04  0.89410547946E+03 0.  0.
         23    2    4    4    0    0 -0.19180083114E+03  0.20792803587E+03  0.19047760848E+03  0.35399860337E+03  0.94929789438E+02 0.  0.
         23    2    4    4    0    0  0.60343229280E+03  0.42155303947E+03  0.19209694491E+04  0.20591570422E+04  0.90369259551E+02 0.  0.
          4    1    3    3  502    0 -0.13832730693E+03 -0.18626366566E+03  0.49718255562E+03  0.54865206698E+03  0.00000000000E+00 0. -1.
         -3    1    3    3    0  502 -0.27330415473E+03 -0.44321740968E+03  0.14002402502E+04  0.14939242255E+04  0.00000000000E+00 0.  1.
         11    1    5    5    0    0 -0.13270019176E+03  0.15955235390E+03  0.86132451023E+02  0.22468888189E+03  0.00000000000E+00 0.  1.
        -11    1    5    5    0    0 -0.59100639383E+02  0.48375681978E+02  0.10434515746E+03  0.12930972148E+03  0.00000000000E+00 0. -1.
          4    1    6    6  503    0  0.12083842652E+02 -0.32389033660E+00  0.13877598350E+02  0.18404127096E+02  0.00000000000E+00 0. -1.
         -4    1    6    6    0  503  0.59134845015E+03  0.42187692981E+03  0.19070918507E+04  0.20407529151E+04  0.00000000000E+00 0.  1.
<mgrwt>
<rscale>  0 0.19448675E+04</rscale>
<asrwt>0</asrwt>
<pdfrwt beam="1">  1        2 0.65112316E+00 0.19448675E+04</pdfrwt>
<pdfrwt beam="2">  1       -1 0.34374009E-01 0.19448675E+04</pdfrwt>
<totfact> 0.18822113E+00</totfact>
</mgrwt>
</event>
<event>
12    6  0.8914180E-008  0.3337265E+04  0.7818608E-02  0.8153477E-01
         -1   -1    0    0    0  501 -0.00000000000E+00  0.00000000000E+00  0.15325132010E+04  0.15325132010E+04  0.00000000000E+00 0.  1.
          2   -1    0    0  501    0  0.00000000000E+00 -0.00000000000E+00 -0.18168422450E+04  0.18168422450E+04  0.00000000000E+00 0. -1.
         24    2    1    2    0    0 -0.55779075181E+03  0.24779599676E+02 -0.15793616969E+04  0.16771262297E+04  0.81390843002E+02 0.  0.
        254    2    1    2    0    0  0.55779075181E+03 -0.24779599676E+02  0.12950326529E+04  0.16722292162E+04  0.89860805029E+03 0.  0.
         23    2    4    4    0    0  0.29081811377E+03  0.38377474837E+03  0.34299766154E+03  0.59831783848E+03  0.92079352966E+02 0.  0.
         23    2    4    4    0    0  0.26697263804E+03 -0.40855434805E+03  0.95203499138E+03  0.10739113777E+04  0.93402235653E+02 0.  0.
          4    1    3    3  502    0 -0.40471474468E+03 -0.17864257691E+02 -0.11555752241E+04  0.12245273598E+04  0.00000000000E+00 0. -1.
         -3    1    3    3    0  502 -0.15307600713E+03  0.42643857367E+02 -0.42378647281E+03  0.45259886993E+03  0.00000000000E+00 0.  1.
         11    1    5    5    0    0  0.29527197746E+03  0.38447045956E+03  0.34293838775E+03  0.59380957616E+03  0.00000000000E+00 0.  1.
        -11    1    5    5    0    0 -0.44538636903E+01 -0.69571118425E+00  0.59273790036E-01  0.45082623267E+01  0.00000000000E+00 0. -1.
          1    1    6    6  503    0  0.67103203859E+02 -0.53515145066E+02  0.21967589256E+03  0.23584785031E+03  0.00000000000E+00 0. -1.
         -1    1    6    6    0  503  0.19986943418E+03 -0.35503920298E+03  0.73235909881E+03  0.83806352742E+03  0.00000000000E+00 0.  1.
<mgrwt>
<rscale>  0 0.33372652E+04</rscale>
<asrwt>0</asrwt>
<pdfrwt beam="1">  1        2 0.27951419E+00 0.33372652E+04</pdfrwt>
<pdfrwt beam="2">  1       -1 0.23577126E+00 0.33372652E+04</pdfrwt>
<totfact> 0.69169146E-01</totfact>
</mgrwt>
</event>
<event>
12    6  0.8914180E-008  0.1982867E+04  0.7818608E-02  0.8614673E-01
          2   -1    0    0  501    0  0.00000000000E+00  0.00000000000E+00  0.22997084569E+04  0.22997084569E+04  0.00000000000E+00 0. -1.
         -1   -1    0    0    0  501 -0.00000000000E+00 -0.00000000000E+00 -0.42741939091E+03  0.42741939091E+03  0.00000000000E+00 0.  1.
         24    2    1    2    0    0  0.36103644787E+03  0.44787379470E+03  0.14779692201E+04  0.15880127223E+04  0.80331425843E+02 0.  0.
        254    2    1    2    0    0 -0.36103644787E+03 -0.44787379470E+03  0.39431984595E+03  0.11391151256E+04  0.90064247940E+03 0.  0.
         23    2    4    4    0    0  0.20337821130E+03 -0.42784040624E+03  0.27444899583E+03  0.55446108660E+03  0.87719639745E+02 0.  0.
         23    2    4    4    0    0 -0.56441465917E+03 -0.20033388467E+02  0.11987085011E+03  0.58465403897E+03  0.92119924202E+02 0.  0.
          2    1    3    3  502    0  0.36114366321E+03  0.45020115619E+03  0.14607346507E+04  0.15706213886E+04  0.00000000000E+00 0. -1.
         -1    1    3    3    0  502 -0.10721533395E+00 -0.23273614865E+01  0.17234569333E+02  0.17391333667E+02  0.00000000000E+00 0.  1.
         11    1    5    5    0    0  0.11429178416E+03 -0.33096078744E+03  0.19722184769E+03  0.40186330009E+03  0.00000000000E+00 0.  1.
        -11    1    5    5    0    0  0.89086427132E+02 -0.96879618797E+02  0.77227148143E+02  0.15259778651E+03  0.00000000000E+00 0. -1.
          3    1    6    6  503    0 -0.24121072620E+03 -0.37747342578E+02  0.87491237053E+02  0.25934955729E+03  0.00000000000E+00 0. -1.
         -3    1    6    6    0  503 -0.32320393297E+03  0.17713954111E+02  0.32379613060E+02  0.32530448167E+03  0.00000000000E+00 0.  1.
<mgrwt>
<rscale>  0 0.19828666E+04</rscale>
<asrwt>0</asrwt>
<pdfrwt beam="1">  1        2 0.35380129E+00 0.19828666E+04</pdfrwt>
<pdfrwt beam="2">  1       -1 0.65756831E-01 0.19828666E+04</pdfrwt>
<totfact> 0.11262244E+01</totfact>
</mgrwt>
</event>
<event>
12    6  0.8914180E-008  0.1791509E+04  0.7818608E-02  0.8710828E-01
         -1   -1    0    0    0  501 -0.00000000000E+00  0.00000000000E+00  0.78428703368E+03  0.78428703368E+03  0.00000000000E+00 0.  1.
          2   -1    0    0  501    0  0.00000000000E+00 -0.00000000000E+00 -0.10230640896E+04  0.10230640896E+04  0.00000000000E+00 0. -1.
         24    2    1    2    0    0  0.67093512307E+03 -0.66446682977E+02 -0.11395037206E+03  0.68914278397E+03  0.85813684005E+02 0.  0.
        254    2    1    2    0    0 -0.67093512307E+03  0.66446682977E+02 -0.12482668389E+03  0.11182083393E+04  0.88331143324E+03 0.  0.
         23    2    4    4    0    0  0.18966861052E+03  0.95213618282E+02  0.44773718197E+02  0.23543619342E+03  0.91573470002E+02 0.  0.
         23    2    4    4    0    0 -0.86060373360E+03 -0.28766935305E+02 -0.16960040208E+03  0.88277214591E+03  0.95163240578E+02 0.  0.
          4    1    3    3  502    0  0.10377384079E+03 -0.16361502356E+02  0.12811695072E+02  0.10583406032E+03  0.00000000000E+00 0. -1.
         -3    1    3    3    0  502  0.56716128228E+03 -0.50085180620E+02 -0.12676206713E+03  0.58330872366E+03  0.00000000000E+00 0.  1.
         11    1    5    5    0    0  0.19622237422E+03  0.10246564356E+03  0.42854141449E+02  0.22547484492E+03  0.00000000000E+00 0. -1.
        -11    1    5    5    0    0 -0.65537636928E+01 -0.72520252738E+01  0.19195767475E+01  0.99613485032E+01  0.00000000000E+00 0.  1.
          3    1    6    6  503    0 -0.53996193835E+03 -0.50955904251E+02 -0.73595303610E+02  0.54733140578E+03  0.00000000000E+00 0. -1.
         -3    1    6    6    0  503 -0.32064179525E+03  0.22188968946E+02 -0.96005098473E+02  0.33544074012E+03  0.00000000000E+00 0.  1.
<mgrwt>
<rscale>  0 0.17915087E+04</rscale>
<asrwt>0</asrwt>
<pdfrwt beam="1">  1        2 0.15739448E+00 0.17915087E+04</pdfrwt>
<pdfrwt beam="2">  1       -1 0.12065954E+00 0.17915087E+04</pdfrwt>
<totfact> 0.16028671E+01</totfact>
</mgrwt>
</event>
<event>
12    6  0.8914180E-008  0.1204746E+04  0.7818608E-02  0.9108713E-01
          2   -1    0    0  501    0  0.00000000000E+00  0.00000000000E+00  0.21595450382E+04  0.21595450382E+04  0.00000000000E+00 0. -1.
         -1   -1    0    0    0  501 -0.00000000000E+00 -0.00000000000E+00 -0.16802288590E+03  0.16802288590E+03  0.00000000000E+00 0.  1.
         24    2    1    2    0    0  0.77772560973E+02  0.48621641811E+02 -0.18475938290E+02  0.12359628839E+03  0.80759190904E+02 0.  0.
        254    2    1    2    0    0 -0.77772560973E+02 -0.48621641811E+02  0.20099980906E+04  0.22039716357E+04  0.89943649668E+03 0.  0.
         23    2    4    4    0    0 -0.34106854554E+03  0.85244264435E+02  0.17857926822E+04  0.18219345715E+04  0.82436289283E+02 0.  0.
         23    2    4    4    0    0  0.26329598457E+03 -0.13386590625E+03  0.22420540841E+03  0.38203706419E+03  0.91866190249E+02 0.  0.
          2    1    3    3  502    0 -0.96912779194E+01  0.30298878458E+02  0.21525531449E+01  0.31883795078E+02  0.00000000000E+00 0. -1.
         -1    1    3    3    0  502  0.87463838892E+02  0.18322763353E+02 -0.20628491435E+02  0.91712493312E+02  0.00000000000E+00 0.  1.
         11    1    5    5    0    0 -0.23142459708E+03  0.94326724827E+02  0.11702422179E+04  0.11966293176E+04  0.00000000000E+00 0.  1.
        -11    1    5    5    0    0 -0.10964394846E+03 -0.90824603918E+01  0.61555046427E+03  0.62530525392E+03  0.00000000000E+00 0. -1.
          4    1    6    6  503    0  0.23063292553E+03 -0.81829081110E+02  0.15586812029E+03  0.29014206137E+03  0.00000000000E+00 0.  1.
         -4    1    6    6    0  503  0.32663059042E+02 -0.52036825136E+02  0.68337288120E+02  0.91895002823E+02  0.00000000000E+00 0. -1.
<mgrwt>
<rscale>  0 0.12047456E+04</rscale>
<asrwt>0</asrwt>
<pdfrwt beam="1">  1        2 0.33223768E+00 0.12047456E+04</pdfrwt>
<pdfrwt beam="2">  1       -1 0.25849676E-01 0.12047456E+04</pdfrwt>
<totfact> 0.81062912E+01</totfact>
</mgrwt>
</event>
<event>
12    6  0.8914180E-008  0.2014140E+04  0.7818608E-02  0.8600038E-01
         -1   -1    0    0    0  501 -0.00000000000E+00  0.00000000000E+00  0.42079899809E+03  0.42079899809E+03  0.00000000000E+00 0.  1.
          2   -1    0    0  501    0  0.00000000000E+00 -0.00000000000E+00 -0.24101523238E+04  0.24101523238E+04  0.00000000000E+00 0. -1.
         24    2    1    2    0    0 -0.51225146344E+03 -0.58407878971E+03 -0.50760058602E+03  0.93156275322E+03  0.81247854558E+02 0.  0.
        254    2    1    2    0    0  0.51225146344E+03  0.58407878971E+03 -0.14817527396E+04  0.18993885686E+04  0.89918638713E+03 0.  0.
         23    2    4    4    0    0  0.68019084218E+02 -0.21837317676E+03 -0.18042998898E+03  0.30449698996E+03  0.88600202182E+02 0.  0.
         23    2    4    4    0    0  0.44423237923E+03  0.80245196647E+03 -0.13013227507E+04  0.15948915787E+04  0.94692560745E+02 0.  0.
          4    1    3    3  502    0 -0.44241178458E+03 -0.48421928499E+03 -0.39503138313E+03  0.76566722324E+03  0.00000000000E+00 0. -1.
         -3    1    3    3    0  502 -0.69839678862E+02 -0.99859504722E+02 -0.11256920290E+03  0.16589552998E+03  0.00000000000E+00 0.  1.
         11    1    5    5    0    0  0.81409057635E+02 -0.13192126293E+03 -0.13675218831E+03  0.20671675135E+03  0.00000000000E+00 0.  1.
        -11    1    5    5    0    0 -0.13389973417E+02 -0.86451913829E+02 -0.43677800667E+02  0.97780238617E+02  0.00000000000E+00 0. -1.
          1    1    6    6  503    0  0.94261880676E+01  0.61318332198E+02 -0.10506443740E+03  0.12201363404E+03  0.00000000000E+00 0. -1.
         -1    1    6    6    0  503  0.43480619116E+03  0.74113363427E+03 -0.11962583133E+04  0.14728779446E+04  0.00000000000E+00 0.  1.
<mgrwt>
<rscale>  0 0.20141397E+04</rscale>
<asrwt>0</asrwt>
<pdfrwt beam="1">  1        2 0.37079267E+00 0.20141397E+04</pdfrwt>
<pdfrwt beam="2">  1       -1 0.64738307E-01 0.20141397E+04</pdfrwt>
<totfact> 0.10028009E+01</totfact>
</mgrwt>
</event>
<event>
12    6  0.8914180E-008  0.2255354E+04  0.7818608E-02  0.8495735E-01
         -1   -1    0    0    0  501 -0.00000000000E+00  0.00000000000E+00  0.91383449202E+03  0.91383449202E+03  0.00000000000E+00 0.  1.
          2   -1    0    0  501    0  0.00000000000E+00 -0.00000000000E+00 -0.13915597485E+04  0.13915597485E+04  0.00000000000E+00 0. -1.
         24    2    1    2    0    0 -0.29771615223E+03 -0.75941500258E+03  0.28216494838E+03  0.86679157972E+03  0.79778011703E+02 0.  0.
        254    2    1    2    0    0  0.29771615223E+03  0.75941500258E+03 -0.75989020482E+03  0.14386026608E+04  0.90928457523E+03 0.  0.
         23    2    4    4    0    0 -0.70042682762E+01  0.82050549724E+03 -0.30100914367E+03  0.87864660205E+03  0.90194323228E+02 0.  0.
         23    2    4    4    0    0  0.30472042050E+03 -0.61090494661E+02 -0.45888106114E+03  0.55995605872E+03  0.79952337109E+02 0.  0.
          4    1    3    3  502    0 -0.10879611664E+03 -0.18312696236E+03  0.67184040610E+02  0.22335123606E+03  0.00000000000E+00 0. -1.
         -3    1    3    3    0  502 -0.18892003559E+03 -0.57628804022E+03  0.21498090777E+03  0.64344034366E+03  0.00000000000E+00 0.  1.
         11    1    5    5    0    0  0.18167393402E+01  0.43926534066E+03 -0.11348824894E+03  0.45369254204E+03  0.00000000000E+00 0.  1.
        -11    1    5    5    0    0 -0.88210076164E+01  0.38124015657E+03 -0.18752089473E+03  0.42495406001E+03  0.00000000000E+00 0. -1.
          1    1    6    6  503    0  0.23057366754E+03 -0.69195951404E+02 -0.30168192096E+03  0.38595890622E+03  0.00000000000E+00 0. -1.
         -1    1    6    6    0  503  0.74146752961E+02  0.81054567428E+01 -0.15719914019E+03  0.17399715250E+03  0.00000000000E+00 0.  1.
<mgrwt>
<rscale>  0 0.22553539E+04</rscale>
<asrwt>0</asrwt>
<pdfrwt beam="1">  1        2 0.21408611E+00 0.22553539E+04</pdfrwt>
<pdfrwt beam="2">  1       -1 0.14058992E+00 0.22553539E+04</pdfrwt>
<totfact> 0.62898779E+00</totfact>
</mgrwt>
</event>
<event>
12    6  0.8914180E-008  0.2064844E+04  0.7818608E-02  0.8576890E-01
         -1   -1    0    0    0  501 -0.00000000000E+00  0.00000000000E+00  0.43130774325E+03  0.43130774325E+03  0.00000000000E+00 0.  1.
          2   -1    0    0  501    0  0.00000000000E+00 -0.00000000000E+00 -0.24713112191E+04  0.24713112191E+04  0.00000000000E+00 0. -1.
         24    2    1    2    0    0  0.32999725810E+03 -0.72810382970E+02 -0.19012360794E+04  0.19325771977E+04  0.77178062644E+02 0.  0.
        254    2    1    2    0    0 -0.32999725810E+03  0.72810382970E+02 -0.13876739647E+03  0.97004176465E+03  0.89862399958E+03 0.  0.
         23    2    4    4    0    0 -0.52606330973E+03 -0.23072686697E+03 -0.31800637060E+02  0.58254252297E+03  0.91471403028E+02 0.  0.
         23    2    4    4    0    0  0.19606605163E+03  0.30353724994E+03 -0.10696675941E+03  0.38749924167E+03  0.90205409913E+02 0.  0.
          4    1    3    3  502    0  0.24824456248E+03 -0.47587103615E+02 -0.15824609383E+04  0.16025206759E+04  0.00000000000E+00 0. -1.
         -3    1    3    3    0  502  0.81752695621E+02 -0.25223279355E+02 -0.31877514109E+03  0.33005652189E+03  0.00000000000E+00 0.  1.
         11    1    5    5    0    0 -0.28249606525E+03 -0.76859021234E+02 -0.31404213844E+02  0.29444449507E+03  0.00000000000E+00 0. -1.
        -11    1    5    5    0    0 -0.24356724448E+03 -0.15386784573E+03 -0.39642321589E+00  0.28809802791E+03  0.00000000000E+00 0.  1.
          1    1    6    6  503    0  0.12544087818E+03  0.26200077443E+03 -0.85356608142E+02  0.30276322477E+03  0.00000000000E+00 0. -1.
         -1    1    6    6    0  503  0.70625173452E+02  0.41536475507E+02 -0.21610151266E+02  0.84736016902E+02  0.00000000000E+00 0.  1.
<mgrwt>
<rscale>  0 0.20648445E+04</rscale>
<asrwt>0</asrwt>
<pdfrwt beam="1">  1        2 0.38020172E+00 0.20648445E+04</pdfrwt>
<pdfrwt beam="2">  1       -1 0.66355038E-01 0.20648445E+04</pdfrwt>
<totfact> 0.87594608E+00</totfact>
</mgrwt>
</event>
<event>
12    6  0.8914180E-008  0.2018831E+04  0.7818608E-02  0.8597867E-01
         -1   -1    0    0    0  501 -0.00000000000E+00  0.00000000000E+00  0.50624455831E+03  0.50624455831E+03  0.00000000000E+00 0.  1.
          2   -1    0    0  501    0  0.00000000000E+00 -0.00000000000E+00 -0.20127020536E+04  0.20127020536E+04  0.00000000000E+00 0. -1.
         24    2    1    2    0    0  0.54881583753E+03 -0.15853362665E+03 -0.13287199973E+04  0.14484839938E+04  0.79229506865E+02 0.  0.
        254    2    1    2    0    0 -0.54881583753E+03  0.15853362665E+03 -0.17773749798E+03  0.10704626181E+04  0.88767553998E+03 0.  0.
         23    2    4    4    0    0 -0.19368271083E+03  0.38347550308E+03  0.21435516905E+03  0.48817727359E+03  0.88331523320E+02 0.  0.
         23    2    4    4    0    0 -0.35513312669E+03 -0.22494187643E+03 -0.39209266703E+03  0.58228534452E+03  0.92742533130E+02 0.  0.
          4    1    3    3  502    0  0.52550628016E+03 -0.14508702060E+03 -0.12163125210E+04  0.13329003124E+04  0.00000000000E+00 0. -1.
         -3    1    3    3    0  502  0.23309557366E+02 -0.13446606052E+02 -0.11240747628E+03  0.11558368138E+03  0.00000000000E+00 0.  1.
         11    1    5    5    0    0 -0.13258583410E+03  0.28307050453E+03  0.11112810716E+03  0.33174895650E+03  0.00000000000E+00 0.  1.
        -11    1    5    5    0    0 -0.61096876736E+02  0.10040499855E+03  0.10322706189E+03  0.15642831709E+03  0.00000000000E+00 0. -1.
          3    1    6    6  503    0 -0.20162191745E+02 -0.38698142401E+02 -0.19620339656E+02  0.47843682231E+02  0.00000000000E+00 0. -1.
         -3    1    6    6    0  503 -0.33497093495E+03 -0.18624373403E+03 -0.37247232738E+03  0.53444166229E+03  0.00000000000E+00 0.  1.
<mgrwt>
<rscale>  0 0.20188308E+04</rscale>
<asrwt>0</asrwt>
<pdfrwt beam="1">  1        2 0.30964648E+00 0.20188308E+04</pdfrwt>
<pdfrwt beam="2">  1       -1 0.77883777E-01 0.20188308E+04</pdfrwt>
<totfact> 0.11463637E+01</totfact>
</mgrwt>
</event>
<event>
12    6  0.8914180E-008  0.1955899E+04  0.7818608E-02  0.8627522E-01
         -1   -1    0    0    0  501 -0.00000000000E+00  0.00000000000E+00  0.26928068805E+03  0.26928068805E+03  0.00000000000E+00 0.  1.
          2   -1    0    0  501    0  0.00000000000E+00 -0.00000000000E+00 -0.35516281036E+04  0.35516281036E+04  0.00000000000E+00 0. -1.
         24    2    1    2    0    0  0.11101118273E+03 -0.76101547232E+03 -0.12522266572E+04  0.14717047809E+04  0.79845658646E+02 0.  0.
        254    2    1    2    0    0 -0.11101118273E+03  0.76101547232E+03 -0.20301207583E+04  0.23492040108E+04  0.89771997811E+03 0.  0.
         23    2    4    4    0    0 -0.27341750594E+00 -0.16685639664E+03 -0.67043382409E+03  0.69706274893E+03  0.92594986889E+02 0.  0.
         23    2    4    4    0    0 -0.11073776523E+03  0.92787186895E+03 -0.13596869342E+04  0.16521412619E+04  0.87253264531E+02 0.  0.
          4    1    3    3  502    0 -0.66063341639E+01 -0.82481529357E+01 -0.10712681948E+02  0.15047831487E+02  0.00000000000E+00 0. -1.
         -3    1    3    3    0  502  0.11761751690E+03 -0.75276731938E+03 -0.12415139753E+04  0.14566569494E+04  0.00000000000E+00 0.  1.
         11    1    5    5    0    0  0.39457729000E+02 -0.12571915770E+03 -0.42013143211E+03  0.44030970831E+03  0.00000000000E+00 0. -1.
        -11    1    5    5    0    0 -0.39731146506E+02 -0.41137238935E+02 -0.25030239199E+03  0.25675304061E+03  0.00000000000E+00 0.  1.
          4    1    6    6  503    0 -0.10804680487E+03  0.70924321670E+03 -0.10907351274E+04  0.13055279280E+04  0.00000000000E+00 0. -1.
         -4    1    6    6    0  503 -0.26909603582E+01  0.21862865225E+03 -0.26895180681E+03  0.34661333390E+03  0.00000000000E+00 0.  1.
<mgrwt>
<rscale>  0 0.19558986E+04</rscale>
<asrwt>0</asrwt>
<pdfrwt beam="1">  1        2 0.54640427E+00 0.19558986E+04</pdfrwt>
<pdfrwt beam="2">  1       -1 0.41427803E-01 0.19558986E+04</pdfrwt>
<totfact> 0.45607551E+00</totfact>
</mgrwt>
</event>
<event>
12    6  0.8914180E-008  0.1873976E+04  0.7818608E-02  0.8667920E-01
          2   -1    0    0  501    0  0.00000000000E+00  0.00000000000E+00  0.13882906382E+04  0.13882906382E+04  0.00000000000E+00 0. -1.
         -1   -1    0    0    0  501 -0.00000000000E+00 -0.00000000000E+00 -0.63239387654E+03  0.63239387654E+03  0.00000000000E+00 0.  1.
         24    2    1    2    0    0 -0.43809409982E+02 -0.58431387748E+03  0.73383346100E+03  0.94354300773E+03  0.91759942901E+02 0.  0.
        254    2    1    2    0    0  0.43809409982E+02  0.58431387748E+03  0.22063300681E+02  0.10771415070E+04  0.90355136274E+03 0.  0.
         23    2    4    4    0    0 -0.33233239683E+03  0.14789111068E+02  0.14794638059E+03  0.37719147289E+03  0.98598863591E+02 0.  0.
         23    2    4    4    0    0  0.37614180681E+03  0.56952476641E+03 -0.12588307991E+03  0.69995003414E+03  0.90787565748E+02 0.  0.
          2    1    3    3  502    0 -0.72309566564E+02 -0.39122319948E+03  0.48582333881E+03  0.62793995076E+03  0.00000000000E+00 0. -1.
         -1    1    3    3    0  502  0.28500156582E+02 -0.19309067800E+03  0.24801012220E+03  0.31560305697E+03  0.00000000000E+00 0.  1.
         11    1    5    5    0    0 -0.25796660851E+02  0.23741615347E+02  0.37260562482E+02  0.51161328431E+02  0.00000000000E+00 0. -1.
        -11    1    5    5    0    0 -0.30653573598E+03 -0.89525042785E+01  0.11068581811E+03  0.32603014446E+03  0.00000000000E+00 0.  1.
          3    1    6    6  503    0  0.25423614954E+02  0.81192412575E+02  0.27250358785E+01  0.85123403818E+02  0.00000000000E+00 0. -1.
         -3    1    6    6    0  503  0.35071819186E+03  0.48833235384E+03 -0.12860811579E+03  0.61482663032E+03  0.00000000000E+00 0.  1.
<mgrwt>
<rscale>  0 0.18739760E+04</rscale>
<asrwt>0</asrwt>
<pdfrwt beam="1">  1        2 0.21358317E+00 0.18739760E+04</pdfrwt>
<pdfrwt beam="2">  1       -1 0.97291366E-01 0.18739760E+04</pdfrwt>
<totfact> 0.15950523E+01</totfact>
</mgrwt>
</event>
<event>
12    6  0.8914180E-008  0.1370102E+04  0.7818608E-02  0.8975749E-01
          2   -1    0    0  501    0  0.00000000000E+00  0.00000000000E+00  0.40149919072E+03  0.40149919072E+03  0.00000000000E+00 0. -1.
         -3   -1    0    0    0  501 -0.00000000000E+00 -0.00000000000E+00 -0.11688558459E+04  0.11688558459E+04  0.00000000000E+00 0.  1.
         24    2    1    2    0    0  0.12726545350E+03 -0.34395139672E+03 -0.34355583184E+03  0.50873376985E+03  0.79248848792E+02 0.  0.
        254    2    1    2    0    0 -0.12726545350E+03  0.34395139672E+03 -0.42380082333E+03  0.10616212668E+04  0.90162825889E+03 0.  0.
         23    2    4    4    0    0 -0.44735213049E+03 -0.14996764433E+02 -0.33200106073E+03  0.56384102411E+03  0.85692266562E+02 0.  0.
         23    2    4    4    0    0  0.32008667699E+03  0.35894816115E+03 -0.91799762598E+02  0.49778024265E+03  0.89770320136E+02 0.  0.
          2    1    3    3  502    0 -0.14833579223E+01 -0.82553360498E+02 -0.59230468604E+02  0.10161449745E+03  0.00000000000E+00 0. -1.
         -1    1    3    3    0  502  0.12874881143E+03 -0.26139803622E+03 -0.28432536323E+03  0.40711927240E+03  0.00000000000E+00 0.  1.
         11    1    5    5    0    0 -0.38610434491E+03 -0.30447533492E+02 -0.31273406743E+03  0.49780138046E+03  0.00000000000E+00 0. -1.
        -11    1    5    5    0    0 -0.61247785585E+02  0.15450769059E+02 -0.19266993297E+02  0.66039643656E+02  0.00000000000E+00 0.  1.
          1    1    6    6  503    0  0.23567977795E+03  0.31407472809E+03 -0.86231215713E+02  0.40202452055E+03  0.00000000000E+00 0. -1.
         -1    1    6    6    0  503  0.84406899042E+02  0.44873433063E+02 -0.55685468846E+01  0.95755722101E+02  0.00000000000E+00 0.  1.
<mgrwt>
<rscale>  0 0.13701017E+04</rscale>
<asrwt>0</asrwt>
<pdfrwt beam="1">  1        2 0.61769105E-01 0.13701017E+04</pdfrwt>
<pdfrwt beam="2">  1       -3 0.17982398E+00 0.13701017E+04</pdfrwt>
<totfact> 0.95699559E+00</totfact>
</mgrwt>
</event>
<event>
12    6  0.8914180E-008  0.2113848E+04  0.7818608E-02  0.8555168E-01
          2   -1    0    0  501    0  0.00000000000E+00  0.00000000000E+00  0.78817400140E+03  0.78817400140E+03  0.00000000000E+00 0. -1.
         -1   -1    0    0    0  501 -0.00000000000E+00 -0.00000000000E+00 -0.14173118021E+04  0.14173118021E+04  0.00000000000E+00 0.  1.
         24    2    1    2    0    0 -0.77229368721E+03 -0.34908479386E+03 -0.77421110225E+02  0.85498453523E+03  0.81895021591E+02 0.  0.
        254    2    1    2    0    0  0.77229368721E+03  0.34908479386E+03 -0.55171669042E+03  0.13505012682E+04  0.89507800574E+03 0.  0.
         23    2    4    4    0    0  0.23732610066E+03 -0.20480754377E+03  0.95116497443E+02  0.34087079369E+03  0.94212217179E+02 0.  0.
         23    2    4    4    0    0  0.53496758656E+03  0.55389233763E+03 -0.64683318787E+03  0.10096304745E+04  0.89294354918E+02 0.  0.
          2    1    3    3  502    0 -0.46405614392E+03 -0.21557704561E+03 -0.86542249677E+02  0.51895195180E+03  0.00000000000E+00 0. -1.
         -1    1    3    3    0  502 -0.30823754330E+03 -0.13350774825E+03  0.91211394525E+01  0.33603258343E+03  0.00000000000E+00 0.  1.
         11    1    5    5    0    0  0.47166409874E+02 -0.98641547369E+02  0.37493397484E+02  0.11558797490E+03  0.00000000000E+00 0. -1.
        -11    1    5    5    0    0  0.19015969078E+03 -0.10616599641E+03  0.57623099960E+02  0.22528281879E+03  0.00000000000E+00 0.  1.
          1    1    6    6  503    0  0.45198672728E+03  0.44734269602E+03 -0.49101848559E+03  0.80343428015E+03  0.00000000000E+00 0. -1.
         -1    1    6    6    0  503  0.82980859280E+02  0.10654964161E+03 -0.15581470227E+03  0.20619619438E+03  0.00000000000E+00 0.  1.
<mgrwt>
<rscale>  0 0.21138480E+04</rscale>
<asrwt>0</asrwt>
<pdfrwt beam="1">  1        2 0.12125754E+00 0.21138480E+04</pdfrwt>
<pdfrwt beam="2">  1       -1 0.21804797E+00 0.21138480E+04</pdfrwt>
<totfact> 0.41855603E+00</totfact>
</mgrwt>
</event>
<event>
12    6  0.8914180E-008  0.1841236E+04  0.7818608E-02  0.8684673E-01
         -1   -1    0    0    0  501 -0.00000000000E+00  0.00000000000E+00  0.32648636384E+03  0.32648636384E+03  0.00000000000E+00 0.  1.
          2   -1    0    0  501    0  0.00000000000E+00 -0.00000000000E+00 -0.25959367150E+04  0.25959367150E+04  0.00000000000E+00 0. -1.
         24    2    1    2    0    0  0.23513994355E+03  0.18438900114E+03 -0.18736712806E+04  0.18990227464E+04  0.79707131614E+02 0.  0.
        254    2    1    2    0    0 -0.23513994355E+03 -0.18438900114E+03 -0.39577907062E+03  0.10234003325E+04  0.89521900729E+03 0.  0.
         23    2    4    4    0    0 -0.24442021396E+02  0.30007726579E+02  0.27007003904E+03  0.28717644143E+03  0.89635966353E+02 0.  0.
         23    2    4    4    0    0 -0.21069792216E+03 -0.21439672772E+03 -0.66584910965E+03  0.73622389106E+03  0.91164739297E+02 0.  0.
          4    1    3    3  502    0  0.15731587176E+03  0.89755096051E+02 -0.12880236802E+04  0.13006956837E+04  0.00000000000E+00 0. -1.
         -3    1    3    3    0  502  0.77824071787E+02  0.94633905087E+02 -0.58564760035E+03  0.59832706268E+03  0.00000000000E+00 0.  1.
         11    1    5    5    0    0  0.10967435606E+02  0.23274455931E+02  0.23658118434E+03  0.23797613688E+03  0.00000000000E+00 0. -1.
        -11    1    5    5    0    0 -0.35409457002E+02  0.67332706483E+01  0.33488854700E+02  0.49200304551E+02  0.00000000000E+00 0.  1.
          3    1    6    6  503    0 -0.18708800198E+03 -0.16382958825E+03 -0.60247152491E+03  0.65177756390E+03  0.00000000000E+00 0. -1.
         -3    1    6    6    0  503 -0.23609920173E+02 -0.50567139462E+02 -0.63377584745E+02  0.84446327167E+02  0.00000000000E+00 0.  1.
<mgrwt>
<rscale>  0 0.18412365E+04</rscale>
<asrwt>0</asrwt>
<pdfrwt beam="1">  1        2 0.39937487E+00 0.18412365E+04</pdfrwt>
<pdfrwt beam="2">  1       -1 0.50228672E-01 0.18412365E+04</pdfrwt>
<totfact> 0.13062125E+01</totfact>
</mgrwt>
</event>
<event>
12    6  0.8914180E-008  0.2175616E+04  0.7818608E-02  0.8528646E-01
          2   -1    0    0  501    0  0.00000000000E+00  0.00000000000E+00  0.77266377039E+03  0.77266377039E+03  0.00000000000E+00 0. -1.
         -1   -1    0    0    0  501 -0.00000000000E+00 -0.00000000000E+00 -0.15314897020E+04  0.15314897020E+04  0.00000000000E+00 0.  1.
         24    2    1    2    0    0 -0.39199781417E+03  0.49384249575E+03 -0.10189761063E+04  0.12008712144E+04  0.78972599040E+02 0.  0.
        254    2    1    2    0    0  0.39199781417E+03 -0.49384249575E+03  0.26015017474E+03  0.11032822580E+04  0.86718563780E+03 0.  0.
         23    2    4    4    0    0  0.54477774777E+03 -0.63811418030E+03  0.19952429396E+03  0.86720445403E+03  0.90890701640E+02 0.  0.
         23    2    4    4    0    0 -0.15277993360E+03  0.14427168454E+03  0.60625880775E+02  0.23607780394E+03  0.88888722685E+02 0.  0.
          4    1    3    3  502    0 -0.24349922080E+02  0.16045721805E+02 -0.25274230423E+02  0.38589773477E+02  0.00000000000E+00 0. -1.
         -3    1    3    3    0  502 -0.36764789209E+03  0.47779677395E+03 -0.99370187591E+03  0.11622814409E+04  0.00000000000E+00 0.  1.
         11    1    5    5    0    0  0.53411803667E+02 -0.36794792227E+02 -0.21569996698E+01  0.64894762143E+02  0.00000000000E+00 0. -1.
        -11    1    5    5    0    0  0.49136594410E+03 -0.60131938807E+03  0.20168129363E+03  0.80230969188E+03  0.00000000000E+00 0.  1.
          1    1    6    6  503    0 -0.31366340931E+02  0.40342963178E+01  0.37645904441E+02  0.49166421584E+02  0.00000000000E+00 0. -1.
         -1    1    6    6    0  503 -0.12141359267E+03  0.14023738823E+03  0.22979976334E+02  0.18691138236E+03  0.00000000000E+00 0.  1.
<mgrwt>
<rscale>  0 0.21756163E+04</rscale>
<asrwt>0</asrwt>
<pdfrwt beam="1">  1        2 0.11887135E+00 0.21756163E+04</pdfrwt>
<pdfrwt beam="2">  1       -1 0.23561380E+00 0.21756163E+04</pdfrwt>
<totfact> 0.32660685E+00</totfact>
</mgrwt>
</event>
<event>
12    6  0.8914180E-008  0.1994797E+04  0.7818608E-02  0.8609057E-01
         -1   -1    0    0    0  501 -0.00000000000E+00  0.00000000000E+00  0.18758900188E+04  0.18758900188E+04  0.00000000000E+00 0.  1.
          2   -1    0    0  501    0  0.00000000000E+00 -0.00000000000E+00 -0.53031019720E+03  0.53031019720E+03  0.00000000000E+00 0. -1.
         24    2    1    2    0    0 -0.58835982561E+03 -0.35825341811E+03  0.76082440980E+02  0.69736211911E+03  0.77540901307E+02 0.  0.
        254    2    1    2    0    0  0.58835982561E+03  0.35825341811E+03  0.12694973806E+04  0.17088380969E+04  0.91323121170E+03 0.  0.
         23    2    4    4    0    0 -0.12127548365E+03  0.17516036442E+03 -0.10148001213E+02  0.23125533149E+03  0.89370857752E+02 0.  0.
         23    2    4    4    0    0  0.70963530926E+03  0.18309305369E+03  0.12796453818E+04  0.14775827654E+04  0.93022507545E+02 0.  0.
          4    1    3    3  502    0 -0.50877405734E+03 -0.32156030996E+03  0.90199673900E+02  0.60859514912E+03  0.00000000000E+00 0. -1.
         -1    1    3    3    0  502 -0.79585768271E+02 -0.36693108153E+02 -0.14117232920E+02  0.88766969997E+02  0.00000000000E+00 0.  1.
         11    1    5    5    0    0 -0.83757994270E+02  0.17403331644E+03 -0.37279077971E+01  0.19317581145E+03  0.00000000000E+00 0. -1.
        -11    1    5    5    0    0 -0.37517489383E+02  0.11270479819E+01 -0.64200934154E+01  0.38079520037E+02  0.00000000000E+00 0.  1.
          3    1    6    6  503    0  0.62338926254E+03  0.16215261588E+03  0.10557176433E+04  0.12367082865E+04  0.00000000000E+00 0. -1.
         -3    1    6    6    0  503  0.86246046717E+02  0.20940437817E+02  0.22392773849E+03  0.24087447888E+03  0.00000000000E+00 0.  1.
<mgrwt>
<rscale>  0 0.19947968E+04</rscale>
<asrwt>0</asrwt>
<pdfrwt beam="1">  1        2 0.81586185E-01 0.19947968E+04</pdfrwt>
<pdfrwt beam="2">  1       -1 0.28859846E+00 0.19947968E+04</pdfrwt>
<totfact> 0.23902316E+00</totfact>
</mgrwt>
</event>
<event>
12    6  0.8914180E-008  0.1926628E+04  0.7818608E-02  0.8641714E-01
          2   -1    0    0  501    0  0.00000000000E+00  0.00000000000E+00  0.18016940341E+04  0.18016940341E+04  0.00000000000E+00 0. -1.
         -1   -1    0    0    0  501 -0.00000000000E+00 -0.00000000000E+00 -0.51505609043E+03  0.51505609043E+03  0.00000000000E+00 0.  1.
         24    2    1    2    0    0  0.63027525654E+03  0.35480215829E+03  0.75149657006E+03  0.10463598367E+04  0.83608268063E+02 0.  0.
        254    2    1    2    0    0 -0.63027525654E+03 -0.35480215829E+03  0.53514137357E+03  0.12703902878E+04  0.89687441882E+03 0.  0.
         23    2    4    4    0    0 -0.77087927277E+03 -0.64978831235E+02  0.51614459812E+03  0.93451473091E+03  0.91844621078E+02 0.  0.
         23    2    4    4    0    0  0.14060401624E+03 -0.28982332705E+03  0.18996775451E+02  0.33587555690E+03  0.93190460669E+02 0.  0.
          4    1    3    3  502    0  0.71673370159E+02  0.61144915228E+02  0.68802720380E+02  0.11666013449E+03  0.00000000000E+00 0. -1.
         -3    1    3    3    0  502  0.55860188638E+03  0.29365724306E+03  0.68269384968E+03  0.92969970220E+03  0.00000000000E+00 0.  1.
         11    1    5    5    0    0 -0.24663229119E+03 -0.28404535060E+02  0.11617892051E+03  0.27410189025E+03  0.00000000000E+00 0. -1.
        -11    1    5    5    0    0 -0.52424698159E+03 -0.36574296175E+02  0.39996567761E+03  0.66041284066E+03  0.00000000000E+00 0.  1.
          4    1    6    6  503    0  0.26081374513E+02 -0.86825650080E+02  0.45257041380E+02  0.10132685430E+03  0.00000000000E+00 0. -1.
         -4    1    6    6    0  503  0.11452264172E+03 -0.20299767697E+03 -0.26260265929E+02  0.23454870260E+03  0.00000000000E+00 0.  1.
<mgrwt>
<rscale>  0 0.19266276E+04</rscale>
<asrwt>0</asrwt>
<pdfrwt beam="1">  1        2 0.27718369E+00 0.19266276E+04</pdfrwt>
<pdfrwt beam="2">  1       -1 0.79239399E-01 0.19266276E+04</pdfrwt>
<totfact> 0.14588164E+01</totfact>
</mgrwt>
</event>
<event>
12    6  0.8914180E-008  0.2089812E+04  0.7818608E-02  0.8565744E-01
         -1   -1    0    0    0  501 -0.00000000000E+00  0.00000000000E+00  0.14704762742E+04  0.14704762742E+04  0.00000000000E+00 0.  1.
          2   -1    0    0  501    0  0.00000000000E+00 -0.00000000000E+00 -0.74250023424E+03  0.74250023424E+03  0.00000000000E+00 0. -1.
         24    2    1    2    0    0 -0.45749081693E+03  0.39852161554E+03 -0.31618618917E+03  0.68893500226E+03  0.80872773502E+02 0.  0.
        254    2    1    2    0    0  0.45749081693E+03 -0.39852161554E+03  0.10441622291E+04  0.15240415061E+04  0.92968297079E+03 0.  0.
         23    2    4    4    0    0  0.57831908791E+03 -0.61300225553E+03  0.78827785852E+03  0.11576220058E+04  0.92097737588E+02 0.  0.
         23    2    4    4    0    0 -0.12082827099E+03  0.21448063998E+03  0.25588437055E+03  0.36641950037E+03  0.90471117832E+02 0.  0.
          4    1    3    3  502    0 -0.44146114467E+03  0.38239270261E+03 -0.28376465532E+03  0.64933389013E+03  0.00000000000E+00 0. -1.
         -3    1    3    3    0  502 -0.16029672254E+02  0.16128912932E+02 -0.32421533844E+02  0.39601112128E+02  0.00000000000E+00 0.  1.
         11    1    5    5    0    0  0.15942100758E+03 -0.23049852639E+03  0.27388889743E+03  0.39186701375E+03  0.00000000000E+00 0. -1.
        -11    1    5    5    0    0  0.41889808033E+03 -0.38250372913E+03  0.51438896109E+03  0.76575499202E+03  0.00000000000E+00 0.  1.
          3    1    6    6  503    0 -0.24475794891E+02  0.11469601547E+03  0.78011791132E+02  0.14085481907E+03  0.00000000000E+00 0. -1.
         -3    1    6    6    0  503 -0.96352476098E+02  0.99784624510E+02  0.17787257942E+03  0.22556468130E+03  0.00000000000E+00 0.  1.
<mgrwt>
<rscale>  0 0.20898124E+04</rscale>
<asrwt>0</asrwt>
<pdfrwt beam="1">  1        2 0.11423081E+00 0.20898124E+04</pdfrwt>
<pdfrwt beam="2">  1       -1 0.22622712E+00 0.20898124E+04</pdfrwt>
<totfact> 0.39988043E+00</totfact>
</mgrwt>
</event>
<event>
12    6  0.1529942E-007  0.3213283E+04  0.7818608E-02  0.8185318E-01
         -1   -1    0    0    0  501 -0.00000000000E+00  0.00000000000E+00  0.15063853529E+04  0.15063853529E+04  0.00000000000E+00 0.  1.
          2   -1    0    0  501    0  0.00000000000E+00 -0.00000000000E+00 -0.17135702606E+04  0.17135702606E+04  0.00000000000E+00 0. -1.
         24    2    1    2    0    0  0.26268345611E+03 -0.64301676420E+03 -0.14176340510E+04  0.15806658697E+04  0.79656336658E+02 0.  0.
        254    2    1    2    0    0 -0.26268345611E+03  0.64301676420E+03  0.12104491434E+04  0.16392897438E+04  0.86000615005E+03 0.  0.
         23    2    4    4    0    0 -0.68591000621E+01  0.73529478145E+03  0.11124716632E+04  0.13366438768E+04  0.91204106008E+02 0.  0.
         23    2    4    4    0    0 -0.25582435604E+03 -0.92278017255E+02  0.97977480166E+02  0.30264586699E+03  0.89630355204E+02 0.  0.
          4    1    3    3  502    0  0.16974085576E+03 -0.47375090800E+03 -0.95853723692E+03  0.10826105096E+04  0.00000000000E+00 0. -1.
         -3    1    3    3    0  502  0.92942600351E+02 -0.16926585620E+03 -0.45909681409E+03  0.49805536011E+03  0.00000000000E+00 0.  1.
         11    1    5    5    0    0 -0.19647076496E+02  0.71794575368E+03  0.10912904402E+04  0.13064252515E+04  0.00000000000E+00 0.  1.
        -11    1    5    5    0    0  0.12787976434E+02  0.17349027773E+02  0.21181223067E+02  0.30218625325E+02  0.00000000000E+00 0. -1.
          2    1    6    6  503    0 -0.24824451419E+03 -0.10355809636E+03  0.81023171709E+02  0.28091702067E+03  0.00000000000E+00 0.  1.
         -2    1    6    6    0  503 -0.75798418525E+01  0.11280079109E+02  0.16954308457E+02  0.21728846322E+02  0.00000000000E+00 0. -1.
<mgrwt>
<rscale>  0 0.32132831E+04</rscale>
<asrwt>0</asrwt>
<pdfrwt beam="1">  1        2 0.26362619E+00 0.32132831E+04</pdfrwt>
<pdfrwt beam="2">  1       -1 0.23175159E+00 0.32132831E+04</pdfrwt>
<totfact> 0.84791994E-01</totfact>
</mgrwt>
</event>
<event>
12    6  0.8914180E-008  0.1551751E+04  0.7818608E-02  0.8850750E-01
         -1   -1    0    0    0  501 -0.00000000000E+00  0.00000000000E+00  0.62091639251E+03  0.62091639251E+03  0.00000000000E+00 0.  1.
          2   -1    0    0  501    0  0.00000000000E+00 -0.00000000000E+00 -0.96950638619E+03  0.96950638619E+03  0.00000000000E+00 0. -1.
         24    2    1    2    0    0 -0.22558808045E+03  0.12516616325E+03 -0.56068225977E+03  0.62254848793E+03  0.81519770227E+02 0.  0.
        254    2    1    2    0    0  0.22558808045E+03 -0.12516616325E+03  0.21209226609E+03  0.96787429077E+03  0.90842774228E+03 0.  0.
         23    2    4    4    0    0  0.38323965123E+03 -0.41388898843E+03  0.25129362317E+03  0.62365674565E+03  0.87307080605E+02 0.  0.
         23    2    4    4    0    0 -0.15765157078E+03  0.28872282518E+03 -0.39201357079E+02  0.34421754513E+03  0.93456323635E+02 0.  0.
          2    1    3    3  502    0 -0.10272893500E+03  0.20405607764E+02 -0.16807463094E+03  0.19803712905E+03  0.00000000000E+00 0. -1.
         -1    1    3    3    0  502 -0.12285914545E+03  0.10476055549E+03 -0.39260762883E+03  0.42451135888E+03  0.00000000000E+00 0.  1.
         11    1    5    5    0    0  0.37498905048E+03 -0.38145351047E+03  0.22187179385E+03  0.57909469134E+03  0.00000000000E+00 0. -1.
        -11    1    5    5    0    0  0.82506007439E+01 -0.32435477965E+02  0.29421829320E+02  0.44562054306E+02  0.00000000000E+00 0.  1.
          3    1    6    6  503    0 -0.11048938448E+03  0.12302545104E+03  0.81236522520E+01  0.16555711828E+03  0.00000000000E+00 0. -1.
         -3    1    6    6    0  503 -0.47162186293E+02  0.16569737414E+03 -0.47325009331E+02  0.17866042684E+03  0.00000000000E+00 0.  1.
<mgrwt>
<rscale>  0 0.15517505E+04</rscale>
<asrwt>0</asrwt>
<pdfrwt beam="1">  1        2 0.14915483E+00 0.15517505E+04</pdfrwt>
<pdfrwt beam="2">  1       -1 0.95525599E-01 0.15517505E+04</pdfrwt>
<totfact> 0.30623365E+01</totfact>
</mgrwt>
</event>
<event>
12    6  0.8914180E-008  0.1351341E+04  0.7818608E-02  0.8989813E-01
         -1   -1    0    0    0  501 -0.00000000000E+00  0.00000000000E+00  0.55174439547E+03  0.55174439547E+03  0.00000000000E+00 0.  1.
          2   -1    0    0  501    0  0.00000000000E+00 -0.00000000000E+00 -0.82743166739E+03  0.82743166739E+03  0.00000000000E+00 0. -1.
         24    2    1    2    0    0 -0.32690751903E+03 -0.35568317103E+02  0.97755946375E+02  0.35213818214E+03  0.79444591322E+02 0.  0.
        254    2    1    2    0    0  0.32690751903E+03  0.35568317103E+02 -0.37344321830E+03  0.10270378807E+04  0.89845052171E+03 0.  0.
         23    2    4    4    0    0 -0.10856332862E+03 -0.34339817309E+03 -0.12752569771E+03  0.39260825088E+03  0.90388790676E+02 0.  0.
         23    2    4    4    0    0  0.43547084766E+03  0.37896649019E+03 -0.24591752059E+03  0.63442962984E+03  0.93675335310E+02 0.  0.
          4    1    3    3  502    0 -0.12233331076E+03  0.22864468878E+02  0.22528381972E+02  0.12647430907E+03  0.00000000000E+00 0. -1.
         -3    1    3    3    0  502 -0.20457420827E+03 -0.58432785981E+02  0.75227564403E+02  0.22566387308E+03  0.00000000000E+00 0.  1.
         11    1    5    5    0    0 -0.56497037113E+02 -0.15932003517E+03 -0.10735108643E+03  0.20024745833E+03  0.00000000000E+00 0.  1.
        -11    1    5    5    0    0 -0.52066291510E+02 -0.18407813792E+03 -0.20174611281E+02  0.19236079255E+03  0.00000000000E+00 0. -1.
          1    1    6    6  503    0  0.40467278880E+03  0.32226847253E+03 -0.23794483830E+03  0.56941617510E+03  0.00000000000E+00 0. -1.
         -1    1    6    6    0  503  0.30798058853E+02  0.56698017657E+02 -0.79726822872E+01  0.65013454747E+02  0.00000000000E+00 0.  1.
<mgrwt>
<rscale>  0 0.13513412E+04</rscale>
<asrwt>0</asrwt>
<pdfrwt beam="1">  1        2 0.12729718E+00 0.13513412E+04</pdfrwt>
<pdfrwt beam="2">  1       -1 0.84883754E-01 0.13513412E+04</pdfrwt>
<totfact> 0.50424589E+01</totfact>
</mgrwt>
</event>
<event>
12    6  0.8914180E-008  0.2116220E+04  0.7818608E-02  0.8554132E-01
          2   -1    0    0  501    0  0.00000000000E+00  0.00000000000E+00  0.10434872954E+04  0.10434872954E+04  0.00000000000E+00 0. -1.
         -1   -1    0    0    0  501 -0.00000000000E+00 -0.00000000000E+00 -0.10729373862E+04  0.10729373862E+04  0.00000000000E+00 0.  1.
         24    2    1    2    0    0 -0.34295065109E+03  0.49737009561E+02 -0.78792310731E+03  0.86445450861E+03  0.79811372720E+02 0.  0.
        254    2    1    2    0    0  0.34295065109E+03 -0.49737009561E+02  0.75847301654E+03  0.12519701729E+04  0.93384103458E+03 0.  0.
         23    2    4    4    0    0  0.15723126881E+03  0.46170823099E+02  0.94139847628E+03  0.96001872924E+03  0.92474064239E+02 0.  0.
         23    2    4    4    0    0  0.18571938227E+03 -0.95907832660E+02 -0.18292545974E+03  0.29195144368E+03  0.89910624106E+02 0.  0.
          4    1    3    3  502    0 -0.28457589169E+03  0.40040369877E+02 -0.56600131721E+03  0.63477882797E+03  0.00000000000E+00 0. -1.
         -3    1    3    3    0  502 -0.58374759394E+02  0.96966396839E+01 -0.22192179010E+03  0.22967568064E+03  0.00000000000E+00 0.  1.
         11    1    5    5    0    0  0.39402356067E+02  0.28853560131E+02  0.51470145743E+03  0.51701321441E+03  0.00000000000E+00 0.  1.
        -11    1    5    5    0    0  0.11782891274E+03  0.17317262969E+02  0.42669701885E+03  0.44300551483E+03  0.00000000000E+00 0. -1.
          1    1    6    6  503    0  0.90727905682E+01 -0.13595589583E+02 -0.58487238347E+02  0.60728186489E+02  0.00000000000E+00 0. -1.
         -1    1    6    6    0  503  0.17664659171E+03 -0.82312243078E+02 -0.12443822139E+03  0.23122325719E+03  0.00000000000E+00 0.  1.
<mgrwt>
<rscale>  0 0.21162198E+04</rscale>
<asrwt>0</asrwt>
<pdfrwt beam="1">  1        2 0.16053651E+00 0.21162198E+04</pdfrwt>
<pdfrwt beam="2">  1       -1 0.16506729E+00 0.21162198E+04</pdfrwt>
<totfact> 0.66393709E+00</totfact>
</mgrwt>
</event>
<event>
12    6  0.8914180E-008  0.1964957E+04  0.7818608E-02  0.8623182E-01
          2   -1    0    0  501    0  0.00000000000E+00  0.00000000000E+00  0.19528154117E+04  0.19528154117E+04  0.00000000000E+00 0. -1.
         -1   -1    0    0    0  501 -0.00000000000E+00 -0.00000000000E+00 -0.49429330492E+03  0.49429330492E+03  0.00000000000E+00 0.  1.
         24    2    1    2    0    0  0.67822147830E+03 -0.32106785889E+03  0.34262283794E+03  0.82864113364E+03  0.78656059121E+02 0.  0.
        254    2    1    2    0    0 -0.67822147830E+03  0.32106785889E+03  0.11158992689E+04  0.16184675830E+04  0.90063155358E+03 0.  0.
         23    2    4    4    0    0 -0.35259792787E+03 -0.19297704858E+03  0.85723862972E+03  0.95109002199E+03  0.90270269941E+02 0.  0.
         23    2    4    4    0    0 -0.32562355043E+03  0.51404490747E+03  0.25866063914E+03  0.66737756099E+03  0.90634536373E+02 0.  0.
          2    1    3    3  502    0  0.25982521203E+02 -0.31567157329E+02  0.19216218176E+02  0.45175655733E+02  0.00000000000E+00 0. -1.
         -1    1    3    3    0  502  0.65223895710E+03 -0.28950070156E+03  0.32340661977E+03  0.78346547791E+03  0.00000000000E+00 0.  1.
         11    1    5    5    0    0 -0.34496221569E+03 -0.20200230836E+03  0.82492099013E+03  0.91667797115E+03  0.00000000000E+00 0. -1.
        -11    1    5    5    0    0 -0.76357121850E+01  0.90252597798E+01  0.32317639591E+02  0.34412050845E+02  0.00000000000E+00 0.  1.
          4    1    6    6  503    0 -0.24151525931E+03  0.40777669980E+03  0.16177362493E+03  0.50078155228E+03  0.00000000000E+00 0. -1.
         -4    1    6    6    0  503 -0.84108291123E+02  0.10626820767E+03  0.96887014209E+02  0.16659600872E+03  0.00000000000E+00 0.  1.
<mgrwt>
<rscale>  0 0.19649566E+04</rscale>
<asrwt>0</asrwt>
<pdfrwt beam="1">  1        2 0.30043314E+00 0.19649566E+04</pdfrwt>
<pdfrwt beam="2">  1       -1 0.76045125E-01 0.19649566E+04</pdfrwt>
<totfact> 0.13075804E+01</totfact>
</mgrwt>
</event>
<event>
12    6  0.8914180E-008  0.1707262E+04  0.7818608E-02  0.8757233E-01
          2   -1    0    0  501    0  0.00000000000E+00  0.00000000000E+00  0.27712927898E+04  0.27712927898E+04  0.00000000000E+00 0. -1.
         -1   -1    0    0    0  501 -0.00000000000E+00 -0.00000000000E+00 -0.26294092537E+03  0.26294092537E+03  0.00000000000E+00 0.  1.
         24    2    1    2    0    0  0.61640156528E+03  0.93832434010E+02  0.10574682851E+04  0.12303103954E+04  0.81664433585E+02 0.  0.
        254    2    1    2    0    0 -0.61640156528E+03 -0.93832434010E+02  0.14508835793E+04  0.18039233197E+04  0.87196374205E+03 0.  0.
         23    2    4    4    0    0  0.13041709331E+03 -0.25109861152E+03  0.48798642644E+03  0.57163867453E+03  0.92633098280E+02 0.  0.
         23    2    4    4    0    0 -0.74681865858E+03  0.15726617751E+03  0.96289715284E+03  0.12322846452E+04  0.94253702382E+02 0.  0.
          4    1    3    3  502    0  0.27526566136E+03  0.52405417014E+02  0.39897986929E+03  0.48754738043E+03  0.00000000000E+00 0. -1.
         -3    1    3    3    0  502  0.34113590391E+03  0.41427016996E+02  0.65848841584E+03  0.74276301501E+03  0.00000000000E+00 0.  1.
         11    1    5    5    0    0  0.76787635579E+01  0.78680858786E+01  0.14823569614E+02  0.18455579136E+02  0.00000000000E+00 0.  1.
        -11    1    5    5    0    0  0.12273832975E+03 -0.25896669740E+03  0.47316285683E+03  0.55318309540E+03  0.00000000000E+00 0. -1.
          2    1    6    6  503    0 -0.67390401335E+03  0.16990779476E+03  0.86987546069E+03  0.11134175295E+04  0.00000000000E+00 0. -1.
         -2    1    6    6    0  503 -0.72914645239E+02 -0.12641617249E+02  0.93021692147E+02  0.11886711567E+03  0.00000000000E+00 0.  1.
<mgrwt>
<rscale>  0 0.17072625E+04</rscale>
<asrwt>0</asrwt>
<pdfrwt beam="1">  1        2 0.42635272E+00 0.17072625E+04</pdfrwt>
<pdfrwt beam="2">  1       -1 0.40452452E-01 0.17072625E+04</pdfrwt>
<totfact> 0.15597131E+01</totfact>
</mgrwt>
</event>
<event>
12    6  0.8914180E-008  0.1846371E+04  0.7818608E-02  0.8682021E-01
          2   -1    0    0  501    0  0.00000000000E+00  0.00000000000E+00  0.16752706353E+04  0.16752706353E+04  0.00000000000E+00 0. -1.
         -1   -1    0    0    0  501 -0.00000000000E+00 -0.00000000000E+00 -0.50873678365E+03  0.50873678365E+03  0.00000000000E+00 0.  1.
         24    2    1    2    0    0  0.46985264041E+03 -0.37701012696E+02  0.10622494644E+04  0.11648088940E+04  0.78885771822E+02 0.  0.
        254    2    1    2    0    0 -0.46985264041E+03  0.37701012696E+02  0.10428438731E+03  0.10191985249E+04  0.89761212657E+03 0.  0.
         23    2    4    4    0    0 -0.14755525897E+02  0.37706833853E+03  0.19860225912E+03  0.43749980326E+03  0.97800629130E+02 0.  0.
         23    2    4    4    0    0 -0.45509711451E+03 -0.33936732583E+03 -0.94317871812E+02  0.58169872169E+03  0.84817311869E+02 0.  0.
          4    1    3    3  502    0  0.29478967807E+03 -0.59230695488E+02  0.63539028480E+03  0.70294384100E+03  0.00000000000E+00 0. -1.
         -3    1    3    3    0  502  0.17506296234E+03  0.21529682792E+02  0.42685917957E+03  0.46186505303E+03  0.00000000000E+00 0.  1.
         11    1    5    5    0    0 -0.24343375378E+02  0.88481729931E+02  0.91330637434E+02  0.12947162543E+03  0.00000000000E+00 0.  1.
        -11    1    5    5    0    0  0.95878494806E+01  0.28858660860E+03  0.10727162168E+03  0.30802817783E+03  0.00000000000E+00 0. -1.
          4    1    6    6  503    0 -0.44254223534E+03 -0.34382336813E+03 -0.89384958490E+02  0.56749256324E+03  0.00000000000E+00 0. -1.
         -4    1    6    6    0  503 -0.12554879175E+02  0.44560422968E+01 -0.49329133222E+01  0.14206158450E+02  0.00000000000E+00 0.  1.
<mgrwt>
<rscale>  0 0.18463714E+04</rscale>
<asrwt>0</asrwt>
<pdfrwt beam="1">  1        2 0.25773394E+00 0.18463714E+04</pdfrwt>
<pdfrwt beam="2">  1       -1 0.78267198E-01 0.18463714E+04</pdfrwt>
<totfact> 0.17724118E+01</totfact>
</mgrwt>
</event>
<event>
12    6  0.8914180E-008  0.2297767E+04  0.7818608E-02  0.8478802E-01
          2   -1    0    0  501    0  0.00000000000E+00  0.00000000000E+00  0.73554995054E+03  0.73554995054E+03  0.00000000000E+00 0. -1.
         -1   -1    0    0    0  501 -0.00000000000E+00 -0.00000000000E+00 -0.17944853854E+04  0.17944853854E+04  0.00000000000E+00 0.  1.
         24    2    1    2    0    0  0.24337338590E+03  0.71504906411E+03  0.22223545069E+03  0.79145255855E+03  0.80515761477E+02 0.  0.
        254    2    1    2    0    0 -0.24337338590E+03 -0.71504906411E+03 -0.12811708855E+04  0.17385827774E+04  0.90041405297E+03 0.  0.
         23    2    4    4    0    0 -0.21323477117E+03 -0.92005723360E+03 -0.10239167359E+04  0.13959550983E+04  0.91163443906E+02 0.  0.
         23    2    4    4    0    0 -0.30138614727E+02  0.20500816949E+03 -0.25725414960E+03  0.34262767910E+03  0.90979906278E+02 0.  0.
          2    1    3    3  502    0  0.20779470850E+03  0.52871303606E+03  0.14254743061E+03  0.58569265434E+03  0.00000000000E+00 0. -1.
         -3    1    3    3    0  502  0.35578677402E+02  0.18633602805E+03  0.79688020083E+02  0.20575990421E+03  0.00000000000E+00 0.  1.
         11    1    5    5    0    0 -0.12394816799E+03 -0.70103767912E+03 -0.75075319029E+03  0.10346242451E+04  0.00000000000E+00 0. -1.
        -11    1    5    5    0    0 -0.89286603182E+02 -0.21901955448E+03 -0.27316354566E+03  0.36133085314E+03  0.00000000000E+00 0.  1.
          2    1    6    6  503    0  0.14320981362E+00  0.15753043091E+03 -0.23313362038E+03  0.28136656184E+03  0.00000000000E+00 0. -1.
         -2    1    6    6    0  503 -0.30281824541E+02  0.47477738586E+02 -0.24120529222E+02  0.61261117266E+02  0.00000000000E+00 0.  1.
<mgrwt>
<rscale>  0 0.22977673E+04</rscale>
<asrwt>0</asrwt>
<pdfrwt beam="1">  1        2 0.11316153E+00 0.22977673E+04</pdfrwt>
<pdfrwt beam="2">  1       -1 0.27607467E+00 0.22977673E+04</pdfrwt>
<totfact> 0.18777670E+00</totfact>
</mgrwt>
</event>
<event>
12    6  0.8914180E-008  0.3569492E+04  0.7818608E-02  0.8097516E-01
          2   -1    0    0  501    0  0.00000000000E+00  0.00000000000E+00  0.14655398032E+04  0.14655398032E+04  0.00000000000E+00 0. -1.
         -1   -1    0    0    0  501 -0.00000000000E+00 -0.00000000000E+00 -0.21734775817E+04  0.21734775817E+04  0.00000000000E+00 0.  1.
         24    2    1    2    0    0  0.64232191001E+03 -0.80526690555E+03  0.10085144363E+04  0.14447772073E+04  0.96164366034E+02 0.  0.
        254    2    1    2    0    0 -0.64232191001E+03  0.80526690555E+03 -0.17164522148E+04  0.21942401776E+04  0.89858195282E+03 0.  0.
         23    2    4    4    0    0 -0.75399607711E+02  0.71912067261E+03 -0.63846982392E+03  0.96962714699E+03  0.98556813597E+02 0.  0.
         23    2    4    4    0    0 -0.56692230230E+03  0.86146232940E+02 -0.10779823909E+04  0.12246130306E+04  0.93856109743E+02 0.  0.
          4    1    3    3  502    0  0.59655413500E+03 -0.70331155800E+03  0.88448323860E+03  0.12778241596E+04  0.00000000000E+00 0. -1.
         -3    1    3    3    0  502  0.45767775011E+02 -0.10195534754E+03  0.12403119774E+03  0.16695304769E+03  0.00000000000E+00 0.  1.
         11    1    5    5    0    0 -0.86817637413E+02  0.60294650582E+03 -0.57022063222E+03  0.83440599258E+03  0.00000000000E+00 0. -1.
        -11    1    5    5    0    0  0.11418029702E+02  0.11617416679E+03 -0.68249191691E+02  0.13522115440E+03  0.00000000000E+00 0.  1.
          4    1    6    6  503    0 -0.50604866518E+03  0.67425133987E+02 -0.88865125786E+03  0.10248572868E+04  0.00000000000E+00 0. -1.
         -4    1    6    6    0  503 -0.60873637122E+02  0.18721098953E+02 -0.18933113302E+03  0.19975574378E+03  0.00000000000E+00 0.  1.
<mgrwt>
<rscale>  0 0.35694918E+04</rscale>
<asrwt>0</asrwt>
<pdfrwt beam="1">  1        2 0.22546766E+00 0.35694918E+04</pdfrwt>
<pdfrwt beam="2">  1       -1 0.33438117E+00 0.35694918E+04</pdfrwt>
<totfact> 0.24329916E-01</totfact>
</mgrwt>
</event>
<event>
12    6  0.8914180E-008  0.1164322E+04  0.7818608E-02  0.9144672E-01
          2   -1    0    0  501    0  0.00000000000E+00  0.00000000000E+00  0.18292908475E+04  0.18292908475E+04  0.00000000000E+00 0. -1.
         -3   -1    0    0    0  501 -0.00000000000E+00 -0.00000000000E+00 -0.18526932933E+03  0.18526932933E+03  0.00000000000E+00 0.  1.
         24    2    1    2    0    0 -0.16740073505E+02 -0.16752596308E+03  0.83879036337E+02  0.20383862605E+03  0.78544983070E+02 0.  0.
        254    2    1    2    0    0  0.16740073505E+02  0.16752596308E+03  0.15601424818E+04  0.18107215508E+04  0.90350583422E+03 0.  0.
         23    2    4    4    0    0 -0.40677534626E+02 -0.58421390398E+02  0.15562710637E+04  0.15608304745E+04  0.95626490038E+02 0.  0.
         23    2    4    4    0    0  0.57417608132E+02  0.22594735348E+03  0.38714180843E+01  0.24989107628E+03  0.89897574263E+02 0.  0.
          4    1    3    3  502    0 -0.17510339746E+02 -0.82890292265E+01 -0.68714025191E+01  0.20555684764E+02  0.00000000000E+00 0. -1.
         -3    1    3    3    0  502  0.77026624073E+00 -0.15923693385E+03  0.90750438856E+02  0.18328294129E+03  0.00000000000E+00 0.  1.
         11    1    5    5    0    0  0.17195762306E+01  0.24160566516E+02  0.21740581284E+03  0.21875094828E+03  0.00000000000E+00 0. -1.
        -11    1    5    5    0    0 -0.42397110857E+02 -0.82581956914E+02  0.13388652509E+04  0.13420795262E+04  0.00000000000E+00 0.  1.
          1    1    6    6  503    0  0.57581934377E+02  0.59559382752E+02  0.96456321497E+01  0.83402862421E+02  0.00000000000E+00 0. -1.
         -1    1    6    6    0  503 -0.16432624547E+00  0.16638797073E+03 -0.57742140654E+01  0.16648821386E+03  0.00000000000E+00 0.  1.
<mgrwt>
<rscale>  0 0.11643221E+04</rscale>
<asrwt>0</asrwt>
<pdfrwt beam="1">  1        2 0.28142935E+00 0.11643221E+04</pdfrwt>
<pdfrwt beam="2">  1       -3 0.28502975E-01 0.11643221E+04</pdfrwt>
<totfact> 0.63523109E+01</totfact>
</mgrwt>
</event>
<event>
12    6  0.8914180E-008  0.1016437E+04  0.7818608E-02  0.9290699E-01
         -1   -1    0    0    0  501 -0.00000000000E+00  0.00000000000E+00  0.19411575389E+03  0.19411575389E+03  0.00000000000E+00 0.  1.
          2   -1    0    0  501    0  0.00000000000E+00 -0.00000000000E+00 -0.13305765972E+04  0.13305765972E+04  0.00000000000E+00 0. -1.
         24    2    1    2    0    0  0.42013519200E+01  0.82302406111E+02 -0.16501132745E+03  0.20006841782E+03  0.77506749471E+02 0.  0.
        254    2    1    2    0    0 -0.42013519200E+01 -0.82302406111E+02 -0.97144951583E+03  0.13246239332E+04  0.89672909249E+03 0.  0.
         23    2    4    4    0    0 -0.39346888597E+03 -0.15523476303E+03 -0.73820476920E+03  0.85566251353E+03  0.91084904981E+02 0.  0.
         23    2    4    4    0    0  0.38926753405E+03  0.72932356921E+02 -0.23324474663E+03  0.46896141971E+03  0.93130873485E+02 0.  0.
          4    1    3    3  502    0  0.99571692531E+01  0.27052693782E+02 -0.13272278075E+03  0.13581726691E+03  0.00000000000E+00 0. -1.
         -3    1    3    3    0  502 -0.57558173332E+01  0.55249712329E+02 -0.32288546696E+02  0.64251150911E+02  0.00000000000E+00 0.  1.
         11    1    5    5    0    0 -0.35054611543E+03 -0.13877757349E+03 -0.58719379470E+03  0.69780967783E+03  0.00000000000E+00 0.  1.
        -11    1    5    5    0    0 -0.42922770544E+02 -0.16457189545E+02 -0.15101097450E+03  0.15785283570E+03  0.00000000000E+00 0. -1.
          1    1    6    6  503    0  0.67781073471E+02 -0.18731416625E+02 -0.59992277787E+02  0.92434913770E+02  0.00000000000E+00 0. -1.
         -1    1    6    6    0  503  0.32148646058E+03  0.91663773546E+02 -0.17325246884E+03  0.37652650594E+03  0.00000000000E+00 0.  1.
<mgrwt>
<rscale>  0 0.10164367E+04</rscale>
<asrwt>0</asrwt>
<pdfrwt beam="1">  1        2 0.20470408E+00 0.10164367E+04</pdfrwt>
<pdfrwt beam="2">  1       -1 0.29863963E-01 0.10164367E+04</pdfrwt>
<totfact> 0.18528800E+02</totfact>
</mgrwt>
</event>
<event>
12    6  0.8914180E-008  0.1411060E+04  0.7818608E-02  0.8945851E-01
         -1   -1    0    0    0  501 -0.00000000000E+00  0.00000000000E+00  0.43582841009E+03  0.43582841009E+03  0.00000000000E+00 0.  1.
          2   -1    0    0  501    0  0.00000000000E+00 -0.00000000000E+00 -0.11421298021E+04  0.11421298021E+04  0.00000000000E+00 0. -1.
         24    2    1    2    0    0  0.19249051936E+03  0.25401438095E+03  0.80893088560E+02  0.33816215798E+03  0.78955984821E+02 0.  0.
        254    2    1    2    0    0 -0.19249051936E+03 -0.25401438095E+03 -0.78719448052E+03  0.12397960542E+04  0.90324038881E+03 0.  0.
         23    2    4    4    0    0 -0.10545953802E+01  0.11036821063E+03  0.15285938735E+03  0.20954418647E+03  0.91435877498E+02 0.  0.
         23    2    4    4    0    0 -0.19143592398E+03 -0.36438259158E+03 -0.94005386787E+03  0.10302518677E+04  0.91078264912E+02 0.  0.
          4    1    3    3  502    0 -0.12063977888E+01  0.13564628072E+01  0.12378446534E+02  0.12510848316E+02  0.00000000000E+00 0. -1.
         -3    1    3    3    0  502  0.19369691715E+03  0.25265791814E+03  0.68514642025E+02  0.32565130967E+03  0.00000000000E+00 0.  1.
         11    1    5    5    0    0  0.35190835453E+02  0.98358321729E+02  0.12064478581E+03  0.15958671216E+03  0.00000000000E+00 0.  1.
        -11    1    5    5    0    0 -0.36245430833E+02  0.12009888900E+02  0.32214601541E+02  0.49957474317E+02  0.00000000000E+00 0. -1.
          2    1    6    6  503    0 -0.25587925238E+02 -0.14851874668E+02 -0.34085919882E+02  0.45135020033E+02  0.00000000000E+00 0.  1.
         -2    1    6    6    0  503 -0.16584799875E+03 -0.34953071691E+03 -0.90596794799E+03  0.98511684766E+03  0.00000000000E+00 0. -1.
<mgrwt>
<rscale>  0 0.14110600E+04</rscale>
<asrwt>0</asrwt>
<pdfrwt beam="1">  1        2 0.17571227E+00 0.14110600E+04</pdfrwt>
<pdfrwt beam="2">  1       -1 0.67050526E-01 0.14110600E+04</pdfrwt>
<totfact> 0.51301671E+01</totfact>
</mgrwt>
</event>
<event>
12    6  0.8914180E-008  0.1480007E+04  0.7818608E-02  0.8897858E-01
         -1   -1    0    0    0  501 -0.00000000000E+00  0.00000000000E+00  0.36424904473E+03  0.36424904473E+03  0.00000000000E+00 0.  1.
          2   -1    0    0  501    0  0.00000000000E+00 -0.00000000000E+00 -0.15033813496E+04  0.15033813496E+04  0.00000000000E+00 0. -1.
         24    2    1    2    0    0 -0.12240894098E+03  0.14082765642E+02  0.20369047929E+03  0.25086205090E+03  0.79118165474E+02 0.  0.
        254    2    1    2    0    0  0.12240894098E+03 -0.14082765642E+02 -0.13428227841E+04  0.16167683434E+04  0.89195547735E+03 0.  0.
         23    2    4    4    0    0  0.29556944904E+03 -0.37403797926E+03 -0.64399911353E+03  0.80663674472E+03  0.93071319763E+02 0.  0.
         23    2    4    4    0    0 -0.17316050806E+03  0.35995521362E+03 -0.69882367059E+03  0.81013159869E+03  0.91686243563E+02 0.  0.
          4    1    3    3  502    0 -0.33240765136E+02  0.40107937667E+02  0.90662739388E+02  0.10456255278E+03  0.00000000000E+00 0. -1.
         -3    1    3    3    0  502 -0.89168175844E+02 -0.26025172025E+02  0.11302773990E+03  0.14629949811E+03  0.00000000000E+00 0.  1.
         11    1    5    5    0    0  0.15953354807E+03 -0.18054246582E+03 -0.39895325972E+03  0.46605819204E+03  0.00000000000E+00 0.  1.
        -11    1    5    5    0    0  0.13603590096E+03 -0.19349551344E+03 -0.24504585381E+03  0.34057855268E+03  0.00000000000E+00 0. -1.
          2    1    6    6  503    0 -0.11843823033E+03  0.28032357203E+03 -0.59498230006E+03  0.66829099711E+03  0.00000000000E+00 0. -1.
         -2    1    6    6    0  503 -0.54722277730E+02  0.79631641595E+02 -0.10384137053E+03  0.14184060158E+03  0.00000000000E+00 0.  1.
<mgrwt>
<rscale>  0 0.14800071E+04</rscale>
<asrwt>0</asrwt>
<pdfrwt beam="1">  1        2 0.23128944E+00 0.14800071E+04</pdfrwt>
<pdfrwt beam="2">  1       -1 0.56038315E-01 0.14800071E+04</pdfrwt>
<totfact> 0.44889293E+01</totfact>
</mgrwt>
</event>
<event>
12    6  0.8914180E-008  0.2160976E+04  0.7818608E-02  0.8534849E-01
         -1   -1    0    0    0  501 -0.00000000000E+00  0.00000000000E+00  0.81154799119E+03  0.81154799119E+03  0.00000000000E+00 0.  1.
          2   -1    0    0  501    0  0.00000000000E+00 -0.00000000000E+00 -0.14385525985E+04  0.14385525985E+04  0.00000000000E+00 0. -1.
         24    2    1    2    0    0  0.57755554744E+03  0.61162728448E+03 -0.56037404109E+03  0.10133556731E+04  0.72196320857E+02 0.  0.
        254    2    1    2    0    0 -0.57755554744E+03 -0.61162728448E+03 -0.66630566223E+02  0.12367449166E+04  0.90412389136E+03 0.  0.
         23    2    4    4    0    0 -0.49702669964E+01 -0.30318127733E+03 -0.39204893152E+03  0.50400876192E+03  0.91536205462E+02 0.  0.
         23    2    4    4    0    0 -0.57258528045E+03 -0.30844600715E+03  0.32541836530E+03  0.73273615470E+03  0.89511547966E+02 0.  0.
          4    1    3    3  502    0  0.45252597173E+03  0.45777786236E+03 -0.39532022954E+03  0.75539288469E+03  0.00000000000E+00 0. -1.
         -3    1    3    3    0  502  0.12502957571E+03  0.15384942211E+03 -0.16505381155E+03  0.25796278839E+03  0.00000000000E+00 0.  1.
         11    1    5    5    0    0 -0.16770825502E+02 -0.12750179785E+02 -0.83968674921E+01  0.22678956243E+02  0.00000000000E+00 0. -1.
        -11    1    5    5    0    0  0.11800558506E+02 -0.29043109754E+03 -0.38365206403E+03  0.48132980568E+03  0.00000000000E+00 0.  1.
          1    1    6    6  503    0 -0.14854898467E+03 -0.62062014572E+02  0.42283034042E+02  0.16645224380E+03  0.00000000000E+00 0. -1.
         -1    1    6    6    0  503 -0.42403629577E+03 -0.24638399258E+03  0.28313533125E+03  0.56628391089E+03  0.00000000000E+00 0.  1.
<mgrwt>
<rscale>  0 0.21609761E+04</rscale>
<asrwt>0</asrwt>
<pdfrwt beam="1">  1        2 0.22131578E+00 0.21609761E+04</pdfrwt>
<pdfrwt beam="2">  1       -1 0.12485354E+00 0.21609761E+04</pdfrwt>
<totfact> 0.80664566E+00</totfact>
</mgrwt>
</event>
<event>
12    6  0.8914180E-008  0.1269618E+04  0.7818608E-02  0.9054012E-01
         -1   -1    0    0    0  501 -0.00000000000E+00  0.00000000000E+00  0.27778221506E+03  0.27778221506E+03  0.00000000000E+00 0.  1.
          2   -1    0    0  501    0  0.00000000000E+00 -0.00000000000E+00 -0.14507133688E+04  0.14507133688E+04  0.00000000000E+00 0. -1.
         24    2    1    2    0    0 -0.13186152726E+03 -0.21202268083E+03 -0.53197539962E+02  0.26772653557E+03  0.80662507001E+02 0.  0.
        254    2    1    2    0    0  0.13186152726E+03  0.21202268083E+03 -0.11197336137E+04  0.14607690483E+04  0.90426863655E+03 0.  0.
         23    2    4    4    0    0  0.15311178098E+03  0.55490428763E+03 -0.72344479199E+03  0.92876513775E+03  0.88714869889E+02 0.  0.
         23    2    4    4    0    0 -0.21250253721E+02 -0.34288160680E+03 -0.39628882176E+03  0.53200391051E+03  0.89241027447E+02 0.  0.
          2    1    3    3  502    0 -0.82415041376E+02 -0.63424517844E+02 -0.36569991212E+02  0.11023734742E+03  0.00000000000E+00 0. -1.
         -1    1    3    3    0  502 -0.49446485885E+02 -0.14859816298E+03 -0.16627548751E+02  0.15748918815E+03  0.00000000000E+00 0.  1.
         11    1    5    5    0    0  0.66649111897E+02  0.17134189638E+03 -0.17403677925E+03  0.25315795485E+03  0.00000000000E+00 0.  1.
        -11    1    5    5    0    0  0.86462669085E+02  0.38356239125E+03 -0.54940801274E+03  0.67560718290E+03  0.00000000000E+00 0. -1.
          4    1    6    6  503    0  0.25068670393E+02 -0.15329023879E+03 -0.13447086635E+03  0.20544768055E+03  0.00000000000E+00 0. -1.
         -4    1    6    6    0  503 -0.46318924114E+02 -0.18959136801E+03 -0.26181795540E+03  0.32655622996E+03  0.00000000000E+00 0.  1.
<mgrwt>
<rscale>  0 0.12696179E+04</rscale>
<asrwt>0</asrwt>
<pdfrwt beam="1">  1        2 0.22318667E+00 0.12696179E+04</pdfrwt>
<pdfrwt beam="2">  1       -1 0.42735725E-01 0.12696179E+04</pdfrwt>
<totfact> 0.81661914E+01</totfact>
</mgrwt>
</event>
<event>
12    6  0.8914180E-008  0.1870964E+04  0.7818608E-02  0.8669446E-01
          2   -1    0    0  501    0  0.00000000000E+00  0.00000000000E+00  0.89942314895E+03  0.89942314895E+03  0.00000000000E+00 0. -1.
         -1   -1    0    0    0  501 -0.00000000000E+00 -0.00000000000E+00 -0.97298599957E+03  0.97298599957E+03  0.00000000000E+00 0.  1.
         24    2    1    2    0    0 -0.59418533623E+03  0.76977619936E+02 -0.41196781980E+03  0.73135708740E+03  0.78638012295E+02 0.  0.
        254    2    1    2    0    0  0.59418533623E+03 -0.76977619936E+02  0.33840496919E+03  0.11410520611E+04  0.91021981700E+03 0.  0.
         23    2    4    4    0    0  0.24060332736E+03 -0.23496694994E+03  0.57895800028E+03  0.67711845726E+03  0.10098321824E+03 0.  0.
         23    2    4    4    0    0  0.35358200886E+03  0.15798933000E+03 -0.24055303110E+03  0.46393360386E+03  0.85952095002E+02 0.  0.
          2    1    3    3  502    0 -0.30213490160E+01 -0.61912433887E+01 -0.20578516080E+01  0.71899094442E+01  0.00000000000E+00 0. -1.
         -1    1    3    3    0  502 -0.59116398721E+03  0.83168863324E+02 -0.40990996820E+03  0.72416717795E+03  0.00000000000E+00 0.  1.
         11    1    5    5    0    0  0.22156611063E+03 -0.24251563701E+03  0.55987329929E+03  0.64912517039E+03  0.00000000000E+00 0.  1.
        -11    1    5    5    0    0  0.19037216735E+02  0.75486870786E+01  0.19084700990E+02  0.27993286865E+02  0.00000000000E+00 0. -1.
          3    1    6    6  503    0  0.25323457312E+03  0.76845802101E+02 -0.13427180292E+03  0.29675232667E+03  0.00000000000E+00 0. -1.
         -3    1    6    6    0  503  0.10034743574E+03  0.81143527900E+02 -0.10628122818E+03  0.16718127719E+03  0.00000000000E+00 0.  1.
<mgrwt>
<rscale>  0 0.18709635E+04</rscale>
<asrwt>0</asrwt>
<pdfrwt beam="1">  1        2 0.13837279E+00 0.18709635E+04</pdfrwt>
<pdfrwt beam="2">  1       -1 0.14969015E+00 0.18709635E+04</pdfrwt>
<totfact> 0.11030653E+01</totfact>
</mgrwt>
</event>
<event>
12    6  0.8914180E-008  0.1725610E+04  0.7818608E-02  0.8746892E-01
         -1   -1    0    0    0  501 -0.00000000000E+00  0.00000000000E+00  0.50016291014E+03  0.50016291014E+03  0.00000000000E+00 0.  1.
          2   -1    0    0  501    0  0.00000000000E+00 -0.00000000000E+00 -0.14883793121E+04  0.14883793121E+04  0.00000000000E+00 0. -1.
         24    2    1    2    0    0  0.12537267002E+03  0.28450620604E+03 -0.97110757932E+03  0.10228333418E+04  0.80473765290E+02 0.  0.
        254    2    1    2    0    0 -0.12537267002E+03 -0.28450620604E+03 -0.17108822666E+02  0.96570888043E+03  0.91413283623E+03 0.  0.
         23    2    4    4    0    0 -0.44392394366E+03 -0.40261447789E+03 -0.69581071026E+02  0.61019757120E+03  0.91283431675E+02 0.  0.
         23    2    4    4    0    0  0.31855127365E+03  0.11810827185E+03  0.52472248361E+02  0.35551130923E+03  0.90611678728E+02 0.  0.
          4    1    3    3  502    0  0.10775531149E+03  0.19869972798E+03 -0.59070361664E+03  0.63247415107E+03  0.00000000000E+00 0. -1.
         -3    1    3    3    0  502  0.17617358528E+02  0.85806478060E+02 -0.38040396267E+03  0.39035919077E+03  0.00000000000E+00 0.  1.
         11    1    5    5    0    0  0.14144062720E+01 -0.14888559995E+02  0.30857125918E+01  0.15270605293E+02  0.00000000000E+00 0.  1.
        -11    1    5    5    0    0 -0.44533834994E+03 -0.38772591789E+03 -0.72666783618E+02  0.59492696591E+03  0.00000000000E+00 0. -1.
          3    1    6    6  503    0  0.32386721446E+03  0.11846792158E+03  0.55637661965E+02  0.34931385669E+03  0.00000000000E+00 0. -1.
         -3    1    6    6    0  503 -0.53159408155E+01 -0.35964973565E+00 -0.31654136040E+01  0.61974525388E+01  0.00000000000E+00 0.  1.
<mgrwt>
<rscale>  0 0.17256096E+04</rscale>
<asrwt>0</asrwt>
<pdfrwt beam="1">  1        2 0.22898143E+00 0.17256096E+04</pdfrwt>
<pdfrwt beam="2">  1       -1 0.76948141E-01 0.17256096E+04</pdfrwt>
<totfact> 0.23625209E+01</totfact>
</mgrwt>
</event>
<event>
12    6  0.8914180E-008  0.2062870E+04  0.7818608E-02  0.8577778E-01
          2   -1    0    0  501    0  0.00000000000E+00  0.00000000000E+00  0.11507584844E+04  0.11507584844E+04  0.00000000000E+00 0. -1.
         -1   -1    0    0    0  501 -0.00000000000E+00 -0.00000000000E+00 -0.92448389489E+03  0.92448389489E+03  0.00000000000E+00 0.  1.
         24    2    1    2    0    0  0.58614052150E+03  0.10263196494E+02  0.68857603504E+03  0.90771851974E+03  0.78421367591E+02 0.  0.
        254    2    1    2    0    0 -0.58614052150E+03 -0.10263196494E+02 -0.46230144552E+03  0.11675238596E+04  0.89762090661E+03 0.  0.
         23    2    4    4    0    0 -0.80698565769E+03  0.69862928628E+02 -0.40471274759E+03  0.91018872812E+03  0.92436098030E+02 0.  0.
         23    2    4    4    0    0  0.22084513619E+03 -0.80126125122E+02 -0.57588697931E+02  0.25733513145E+03  0.87818800079E+02 0.  0.
          2    1    3    3  502    0  0.50118179927E+03 -0.18783164723E+02  0.59079619018E+03  0.77496847776E+03  0.00000000000E+00 0. -1.
         -1    1    3    3    0  502  0.84958722235E+02  0.29046361217E+02  0.97779844863E+02  0.13275004198E+03  0.00000000000E+00 0.  1.
         11    1    5    5    0    0 -0.49768388298E+03  0.85255091250E+02 -0.26833318962E+03  0.57180449334E+03  0.00000000000E+00 0.  1.
        -11    1    5    5    0    0 -0.30930177471E+03 -0.15392162622E+02 -0.13637955797E+03  0.33838423477E+03  0.00000000000E+00 0. -1.
          2    1    6    6  503    0  0.33528474820E+02 -0.50941311783E+02 -0.91455431067E+01  0.61666983295E+02  0.00000000000E+00 0.  1.
         -2    1    6    6    0  503  0.18731666137E+03 -0.29184813339E+02 -0.48443154824E+02  0.19566814816E+03  0.00000000000E+00 0. -1.
<mgrwt>
<rscale>  0 0.20628695E+04</rscale>
<asrwt>0</asrwt>
<pdfrwt beam="1">  1        2 0.17703977E+00 0.20628695E+04</pdfrwt>
<pdfrwt beam="2">  1       -1 0.14222829E+00 0.20628695E+04</pdfrwt>
<totfact> 0.85960975E+00</totfact>
</mgrwt>
</event>
<event>
12    6  0.8914180E-008  0.1659370E+04  0.7818608E-02  0.8784882E-01
         -1   -1    0    0    0  501 -0.00000000000E+00  0.00000000000E+00  0.14983116168E+04  0.14983116168E+04  0.00000000000E+00 0.  1.
          2   -1    0    0  501    0  0.00000000000E+00 -0.00000000000E+00 -0.45943543701E+03  0.45943543701E+03  0.00000000000E+00 0. -1.
         24    2    1    2    0    0 -0.36907331530E+02 -0.24713571848E+02  0.10452875859E+04  0.10492836738E+04  0.79982366723E+02 0.  0.
        254    2    1    2    0    0  0.36907331530E+02  0.24713571848E+02 -0.64114061768E+01  0.90846338000E+03  0.90735422791E+03 0.  0.
         23    2    4    4    0    0  0.23197904571E+03 -0.18410837687E+03  0.33293756957E+03  0.45406436698E+03  0.87274578486E+02 0.  0.
         23    2    4    4    0    0 -0.19507171418E+03  0.20882194872E+03 -0.33934897575E+03  0.45439901302E+03  0.98291178399E+02 0.  0.
          4    1    3    3  502    0 -0.41411347358E+02 -0.43502819272E+02  0.49106573288E+03  0.49472512468E+03  0.00000000000E+00 0. -1.
         -3    1    3    3    0  502  0.45040158279E+01  0.18789247424E+02  0.55422185305E+03  0.55455854910E+03  0.00000000000E+00 0.  1.
         11    1    5    5    0    0  0.11661772253E+03 -0.39446330992E+02  0.11912680107E+03  0.17130937210E+03  0.00000000000E+00 0. -1.
        -11    1    5    5    0    0  0.11536132318E+03 -0.14466204588E+03  0.21381076850E+03  0.28275499488E+03  0.00000000000E+00 0.  1.
          2    1    6    6  503    0 -0.16931705554E+02 -0.78800612800E+01 -0.40034177850E+02  0.44175937057E+02  0.00000000000E+00 0. -1.
         -2    1    6    6    0  503 -0.17814000862E+03  0.21670201000E+03 -0.29931479790E+03  0.41022307596E+03  0.00000000000E+00 0.  1.
<mgrwt>
<rscale>  0 0.16593703E+04</rscale>
<asrwt>0</asrwt>
<pdfrwt beam="1">  1        2 0.70682375E-01 0.16593703E+04</pdfrwt>
<pdfrwt beam="2">  1       -1 0.23050948E+00 0.16593703E+04</pdfrwt>
<totfact> 0.69415339E+00</totfact>
</mgrwt>
</event>
<event>
12    6  0.8914180E-008  0.1524092E+04  0.7818608E-02  0.8868588E-01
          2   -1    0    0  501    0  0.00000000000E+00  0.00000000000E+00  0.59543308364E+03  0.59543308364E+03  0.00000000000E+00 0. -1.
         -1   -1    0    0    0  501 -0.00000000000E+00 -0.00000000000E+00 -0.97527979540E+03  0.97527979540E+03  0.00000000000E+00 0.  1.
         24    2    1    2    0    0  0.24027545091E+03  0.28310581493E+03 -0.45987536874E+03  0.59648281759E+03  0.80157358649E+02 0.  0.
        254    2    1    2    0    0 -0.24027545091E+03 -0.28310581493E+03  0.80028656990E+02  0.97423006145E+03  0.89712787937E+03 0.  0.
         23    2    4    4    0    0 -0.33019461567E+03 -0.10387088970E+03 -0.34496254946E+03  0.49740598989E+03  0.92714142928E+02 0.  0.
         23    2    4    4    0    0  0.89919164759E+02 -0.17923492523E+03  0.42499120645E+03  0.47682407156E+03  0.80827316221E+02 0.  0.
          4    1    3    3  502    0  0.88038660123E+02  0.14982779332E+03 -0.25458452249E+03  0.30824089998E+03  0.00000000000E+00 0. -1.
         -3    1    3    3    0  502  0.15223679079E+03  0.13327802161E+03 -0.20529084626E+03  0.28824191761E+03  0.00000000000E+00 0.  1.
         11    1    5    5    0    0 -0.77226335933E+02  0.34755334508E+01 -0.40513062146E+02  0.87277113259E+02  0.00000000000E+00 0.  1.
        -11    1    5    5    0    0 -0.25296827974E+03 -0.10734642315E+03 -0.30444948732E+03  0.41012887663E+03  0.00000000000E+00 0. -1.
          1    1    6    6  503    0  0.81276413420E+02 -0.16274916266E+03  0.41976781633E+03  0.45749116380E+03  0.00000000000E+00 0. -1.
         -1    1    6    6    0  503  0.86427513390E+01 -0.16485762575E+02  0.52233901200E+01  0.19332907767E+02  0.00000000000E+00 0.  1.
<mgrwt>
<rscale>  0 0.15240917E+04</rscale>
<asrwt>0</asrwt>
<pdfrwt beam="1">  1        2 0.91605091E-01 0.15240917E+04</pdfrwt>
<pdfrwt beam="2">  1       -1 0.15004304E+00 0.15240917E+04</pdfrwt>
<totfact> 0.19233715E+01</totfact>
</mgrwt>
</event>
<event>
12    6  0.8914180E-008  0.2100125E+04  0.7818608E-02  0.8561188E-01
         -1   -1    0    0    0  501 -0.00000000000E+00  0.00000000000E+00  0.21676881832E+04  0.21676881832E+04  0.00000000000E+00 0.  1.
          2   -1    0    0  501    0  0.00000000000E+00 -0.00000000000E+00 -0.50866695000E+03  0.50866695000E+03  0.00000000000E+00 0. -1.
         24    2    1    2    0    0  0.86494948275E+02  0.49958636257E+02 -0.37549147309E+03  0.39670850578E+03  0.80040931911E+02 0.  0.
        254    2    1    2    0    0 -0.86494948275E+02 -0.49958636257E+02  0.20345127062E+04  0.22796466274E+04  0.10235084525E+04 0.  0.
         23    2    4    4    0    0 -0.40485420401E+03 -0.25881297715E+03  0.16856163423E+04  0.17553568984E+04  0.95311613745E+02 0.  0.
         23    2    4    4    0    0  0.31835925573E+03  0.20885434089E+03  0.34889636394E+03  0.52428972896E+03  0.90433930046E+02 0.  0.
          2    1    3    3  502    0  0.57477235402E+02 -0.70588788693E+01 -0.23977100086E+03  0.24666494119E+03  0.00000000000E+00 0. -1.
         -1    1    3    3    0  502  0.29017712873E+02  0.57017515127E+02 -0.13572047223E+03  0.15004356458E+03  0.00000000000E+00 0.  1.
         11    1    5    5    0    0 -0.29678987791E+03 -0.23616075800E+03  0.13248974675E+04  0.13781180772E+04  0.00000000000E+00 0. -1.
        -11    1    5    5    0    0 -0.10806432610E+03 -0.22652219144E+02  0.36071887477E+03  0.37723882121E+03  0.00000000000E+00 0.  1.
          1    1    6    6  503    0  0.29482191770E+03  0.17489535697E+03  0.27436820270E+03  0.43907432139E+03  0.00000000000E+00 0. -1.
         -1    1    6    6    0  503  0.23537338031E+02  0.33958983921E+02  0.74528161239E+02  0.85215407575E+02  0.00000000000E+00 0.  1.
<mgrwt>
<rscale>  0 0.21001251E+04</rscale>
<asrwt>0</asrwt>
<pdfrwt beam="1">  1        2 0.78256455E-01 0.21001251E+04</pdfrwt>
<pdfrwt beam="2">  1       -1 0.33349048E+00 0.21001251E+04</pdfrwt>
<totfact> 0.12698870E+00</totfact>
</mgrwt>
</event>
<event>
12    6  0.8914180E-008  0.1200028E+04  0.7818608E-02  0.9112832E-01
         -1   -1    0    0    0  501 -0.00000000000E+00  0.00000000000E+00  0.61973758346E+03  0.61973758346E+03  0.00000000000E+00 0.  1.
          2   -1    0    0  501    0  0.00000000000E+00 -0.00000000000E+00 -0.58091839601E+03  0.58091839601E+03  0.00000000000E+00 0. -1.
         24    2    1    2    0    0  0.13623739745E+03 -0.18197103668E+03  0.12123437066E+03  0.27057299538E+03  0.82691514338E+02 0.  0.
        254    2    1    2    0    0 -0.13623739745E+03  0.18197103668E+03 -0.82415183207E+02  0.93008298410E+03  0.89810244863E+03 0.  0.
         23    2    4    4    0    0 -0.60688952164E+02  0.51224658721E+03 -0.19895171152E+03  0.56036138573E+03  0.91342126556E+02 0.  0.
         23    2    4    4    0    0 -0.75548445289E+02 -0.33027555052E+03  0.11653652832E+03  0.36972159837E+03  0.91234812471E+02 0.  0.
          2    1    3    3  502    0  0.68864051079E+02 -0.33329398952E+02  0.56042563531E+02  0.94836044269E+02  0.00000000000E+00 0. -1.
         -1    1    3    3    0  502  0.67373346374E+02 -0.14864163773E+03  0.65191807125E+02  0.17573695111E+03  0.00000000000E+00 0.  1.
         11    1    5    5    0    0  0.14703394129E+02  0.17497057933E+02 -0.14093087807E+02  0.26850548581E+02  0.00000000000E+00 0. -1.
        -11    1    5    5    0    0 -0.75392346293E+02  0.49474952927E+03 -0.18485862372E+03  0.53351083715E+03  0.00000000000E+00 0.  1.
          1    1    6    6  503    0  0.12584299774E+02 -0.51548660657E+01  0.11282364895E+01  0.13645884454E+02  0.00000000000E+00 0. -1.
         -1    1    6    6    0  503 -0.88132745064E+02 -0.32512068446E+03  0.11540829183E+03  0.35607571391E+03  0.00000000000E+00 0.  1.
<mgrwt>
<rscale>  0 0.12000283E+04</rscale>
<asrwt>0</asrwt>
<pdfrwt beam="1">  1        2 0.89372061E-01 0.12000283E+04</pdfrwt>
<pdfrwt beam="2">  1       -1 0.95344243E-01 0.12000283E+04</pdfrwt>
<totfact> 0.61806653E+01</totfact>
</mgrwt>
</event>
<event>
12    6  0.8914180E-008  0.1252623E+04  0.7818608E-02  0.9068003E-01
          2   -1    0    0  501    0  0.00000000000E+00  0.00000000000E+00  0.15344486033E+04  0.15344486033E+04  0.00000000000E+00 0. -1.
         -1   -1    0    0    0  501 -0.00000000000E+00 -0.00000000000E+00 -0.25563968118E+03  0.25563968118E+03  0.00000000000E+00 0.  1.
         24    2    1    2    0    0 -0.17915000677E+03  0.22783974872E+03  0.23721719746E+03  0.38301152377E+03  0.80125854444E+02 0.  0.
        254    2    1    2    0    0  0.17915000677E+03 -0.22783974872E+03  0.10415917247E+04  0.14070767608E+04  0.90052540977E+03 0.  0.
         23    2    4    4    0    0 -0.29842610468E+02 -0.14580225862E+03  0.11341066539E+04  0.11474294070E+04  0.90815535876E+02 0.  0.
         23    2    4    4    0    0  0.20899261724E+03 -0.82037490096E+02 -0.92514929176E+02  0.25964735379E+03  0.91922099457E+02 0.  0.
          2    1    3    3  502    0 -0.33580449432E+02  0.73768573729E+02  0.10704333744E+03  0.13426736441E+03  0.00000000000E+00 0. -1.
         -3    1    3    3    0  502 -0.14556955734E+03  0.15407117499E+03  0.13017386001E+03  0.24874415936E+03  0.00000000000E+00 0.  1.
         11    1    5    5    0    0  0.29782943932E+02 -0.74670174430E+02  0.59217495524E+03  0.59760675725E+03  0.00000000000E+00 0.  1.
        -11    1    5    5    0    0 -0.59625554400E+02 -0.71132084195E+02  0.54193169864E+03  0.54982264971E+03  0.00000000000E+00 0. -1.
          4    1    6    6  503    0  0.19376247859E+03 -0.54536093653E+02 -0.51142861333E+02  0.20768648460E+03  0.00000000000E+00 0. -1.
         -4    1    6    6    0  503  0.15230138651E+02 -0.27501396443E+02 -0.41372067843E+02  0.51960869193E+02  0.00000000000E+00 0.  1.
<mgrwt>
<rscale>  0 0.12526228E+04</rscale>
<asrwt>0</asrwt>
<pdfrwt beam="1">  1        2 0.23606901E+00 0.12526228E+04</pdfrwt>
<pdfrwt beam="2">  1       -1 0.39329183E-01 0.12526228E+04</pdfrwt>
<totfact> 0.85409533E+01</totfact>
</mgrwt>
</event>
<event>
12    6  0.8914180E-008  0.2221243E+04  0.7818608E-02  0.8509638E-01
          2   -1    0    0  501    0  0.00000000000E+00  0.00000000000E+00  0.25932424207E+04  0.25932424207E+04  0.00000000000E+00 0. -1.
         -1   -1    0    0    0  501 -0.00000000000E+00 -0.00000000000E+00 -0.47565161819E+03  0.47565161819E+03  0.00000000000E+00 0.  1.
         24    2    1    2    0    0  0.65884852429E+03 -0.46880309020E+03  0.14568533492E+04  0.16679831050E+04  0.76734882511E+02 0.  0.
        254    2    1    2    0    0 -0.65884852429E+03  0.46880309020E+03  0.66073745324E+03  0.14009109338E+04  0.93387351768E+03 0.  0.
         23    2    4    4    0    0 -0.73538604866E+03  0.62442749290E+03  0.70716668153E+03  0.11996227569E+04  0.91146633868E+02 0.  0.
         23    2    4    4    0    0  0.76537524378E+02 -0.15562440270E+03 -0.46429228285E+02  0.20128817694E+03  0.91018182712E+02 0.  0.
          4    1    3    3  502    0  0.48868523498E+03 -0.36671640746E+03  0.10371608695E+04  0.12037428511E+04  0.00000000000E+00 0. -1.
         -3    1    3    3    0  502  0.17016328930E+03 -0.10208668274E+03  0.41969247975E+03  0.46424025394E+03  0.00000000000E+00 0.  1.
         11    1    5    5    0    0 -0.48752334517E+03  0.41206175091E+03  0.41351655356E+03  0.76057204703E+03  0.00000000000E+00 0. -1.
        -11    1    5    5    0    0 -0.24786270350E+03  0.21236574199E+03  0.29365012797E+03  0.43905070984E+03  0.00000000000E+00 0.  1.
          3    1    6    6  503    0  0.69157899659E+02 -0.14234052639E+03 -0.62989767873E+01  0.15837713738E+03  0.00000000000E+00 0. -1.
         -3    1    6    6    0  503  0.73796247192E+01 -0.13283876316E+02 -0.40130251498E+02  0.42911039562E+02  0.00000000000E+00 0.  1.
<mgrwt>
<rscale>  0 0.22212429E+04</rscale>
<asrwt>0</asrwt>
<pdfrwt beam="1">  1        2 0.39896036E+00 0.22212429E+04</pdfrwt>
<pdfrwt beam="2">  1       -1 0.73177174E-01 0.22212429E+04</pdfrwt>
<totfact> 0.60027993E+00</totfact>
</mgrwt>
</event>
<event>
12    6  0.8914180E-008  0.1972562E+04  0.7818608E-02  0.8619557E-01
          2   -1    0    0  501    0  0.00000000000E+00  0.00000000000E+00  0.13083493476E+04  0.13083493476E+04  0.00000000000E+00 0. -1.
         -1   -1    0    0    0  501 -0.00000000000E+00 -0.00000000000E+00 -0.74349422705E+03  0.74349422705E+03  0.00000000000E+00 0.  1.
         24    2    1    2    0    0  0.49477538022E+03 -0.46850982017E+03  0.61325690934E+03  0.92059850079E+03  0.84341178193E+02 0.  0.
        254    2    1    2    0    0 -0.49477538022E+03  0.46850982017E+03 -0.48401788735E+02  0.11312450739E+04  0.90170314163E+03 0.  0.
         23    2    4    4    0    0 -0.41831234631E+03 -0.58568218505E+02 -0.30921190659E+03  0.53104703898E+03  0.89350428856E+02 0.  0.
         23    2    4    4    0    0 -0.76463033908E+02  0.52707803867E+03  0.26081011785E+03  0.60019803493E+03  0.92508967954E+02 0.  0.
          4    1    3    3  502    0  0.37311565539E+03 -0.30483958439E+03  0.40959699133E+03  0.63238608446E+03  0.00000000000E+00 0. -1.
         -3    1    3    3    0  502  0.12165972483E+03 -0.16367023578E+03  0.20365991800E+03  0.28821241633E+03  0.00000000000E+00 0.  1.
         11    1    5    5    0    0 -0.65628059801E+02 -0.28873574137E+02 -0.21287577905E+02  0.74792288973E+02  0.00000000000E+00 0. -1.
        -11    1    5    5    0    0 -0.35268428651E+03 -0.29694644368E+02 -0.28792432868E+03  0.45625475000E+03  0.00000000000E+00 0.  1.
          2    1    6    6  503    0 -0.15499184086E+02  0.17226575033E+03  0.38878771075E+02  0.17727738796E+03  0.00000000000E+00 0.  1.
         -2    1    6    6    0  503 -0.60963849822E+02  0.35481228835E+03  0.22193134678E+03  0.42292064697E+03  0.00000000000E+00 0. -1.
<mgrwt>
<rscale>  0 0.19725620E+04</rscale>
<asrwt>0</asrwt>
<pdfrwt beam="1">  1        2 0.20128452E+00 0.19725620E+04</pdfrwt>
<pdfrwt beam="2">  1       -1 0.11438373E+00 0.19725620E+04</pdfrwt>
<totfact> 0.12064696E+01</totfact>
</mgrwt>
</event>
<event>
12    6  0.8914180E-008  0.2989744E+04  0.7818608E-02  0.8246665E-01
          2   -1    0    0  501    0  0.00000000000E+00  0.00000000000E+00  0.28771474439E+04  0.28771474439E+04  0.00000000000E+00 0. -1.
         -1   -1    0    0    0  501 -0.00000000000E+00 -0.00000000000E+00 -0.77668695727E+03  0.77668695727E+03  0.00000000000E+00 0.  1.
         24    2    1    2    0    0 -0.13387840003E+04  0.16418863721E+03  0.73372817566E+03  0.15376693491E+04  0.82276869264E+02 0.  0.
        254    2    1    2    0    0  0.13387840003E+04 -0.16418863721E+03  0.13667323110E+04  0.21161650521E+04  0.88932379358E+03 0.  0.
         23    2    4    4    0    0  0.13171612573E+04 -0.22452107263E+03  0.14532977394E+04  0.19761578392E+04  0.88328908251E+02 0.  0.
         23    2    4    4    0    0  0.21622742977E+02  0.60332435421E+02 -0.86565428421E+02  0.14000721295E+03  0.89447752924E+02 0.  0.
          4    1    3    3  502    0 -0.11709742299E+04  0.12333656416E+03  0.61811296489E+03  0.13298331447E+04  0.00000000000E+00 0. -1.
         -3    1    3    3    0  502 -0.16780977038E+03  0.40852073046E+02  0.11561521077E+03  0.20783620442E+03  0.00000000000E+00 0.  1.
         11    1    5    5    0    0  0.26191294100E+02  0.43690933864E+01  0.43171434837E+02  0.50683780932E+02  0.00000000000E+00 0.  1.
        -11    1    5    5    0    0  0.12909699632E+04 -0.22889016601E+03  0.14101263046E+04  0.19254740583E+04  0.00000000000E+00 0. -1.
          3    1    6    6  503    0 -0.16376713597E+02  0.68150683120E+02 -0.45776825991E+02  0.83715172793E+02  0.00000000000E+00 0. -1.
         -3    1    6    6    0  503  0.37999456574E+02 -0.78182476997E+01 -0.40788602430E+02  0.56292040158E+02  0.00000000000E+00 0.  1.
<mgrwt>
<rscale>  0 0.29897444E+04</rscale>
<asrwt>0</asrwt>
<pdfrwt beam="1">  1        2 0.44263806E+00 0.29897444E+04</pdfrwt>
<pdfrwt beam="2">  1       -1 0.11949030E+00 0.29897444E+04</pdfrwt>
<totfact> 0.12630935E+00</totfact>
</mgrwt>
</event>
<event>
12    6  0.8914180E-008  0.1354764E+04  0.7818608E-02  0.8987230E-01
          2   -1    0    0  501    0  0.00000000000E+00  0.00000000000E+00  0.15400700409E+04  0.15400700409E+04  0.00000000000E+00 0. -1.
         -1   -1    0    0    0  501 -0.00000000000E+00 -0.00000000000E+00 -0.29793854461E+03  0.29793854461E+03  0.00000000000E+00 0.  1.
         24    2    1    2    0    0 -0.24640280320E+03 -0.70625579014E+02 -0.13853409607E+02  0.26826324784E+03  0.77916232881E+02 0.  0.
        254    2    1    2    0    0  0.24640280320E+03  0.70625579014E+02  0.12559849059E+04  0.15697453377E+04  0.90603533456E+03 0.  0.
         23    2    4    4    0    0  0.19382439502E+03  0.47508130931E+03  0.73069751678E+03  0.89840089340E+03  0.99675261078E+02 0.  0.
         23    2    4    4    0    0  0.52578408177E+02 -0.40445573030E+03  0.52528738909E+03  0.67134444425E+03  0.91801933063E+02 0.  0.
          4    1    3    3  502    0 -0.16730768769E+01 -0.24565280710E+01  0.12504616180E+02  0.12852981841E+02  0.00000000000E+00 0. -1.
         -1    1    3    3    0  502 -0.24472972632E+03 -0.68169050943E+02 -0.26358025787E+02  0.25541026599E+03  0.00000000000E+00 0.  1.
         11    1    5    5    0    0  0.16780958722E+03  0.29755498891E+03  0.51231943369E+03  0.61576800106E+03  0.00000000000E+00 0. -1.
        -11    1    5    5    0    0  0.26014807799E+02  0.17752632040E+03  0.21837808308E+03  0.28263289234E+03  0.00000000000E+00 0.  1.
          2    1    6    6  503    0  0.12696617919E+01 -0.29016045401E+03  0.40003269309E+03  0.49418706646E+03  0.00000000000E+00 0. -1.
         -2    1    6    6    0  503  0.51308746385E+02 -0.11429527629E+03  0.12525469600E+03  0.17715737780E+03  0.00000000000E+00 0.  1.
<mgrwt>
<rscale>  0 0.13547638E+04</rscale>
<asrwt>0</asrwt>
<pdfrwt beam="1">  1        2 0.23693385E+00 0.13547638E+04</pdfrwt>
<pdfrwt beam="2">  1       -1 0.45836700E-01 0.13547638E+04</pdfrwt>
<totfact> 0.63419927E+01</totfact>
</mgrwt>
</event>
<event>
12    6  0.8914180E-008  0.1378914E+04  0.7818608E-02  0.8969225E-01
          2   -1    0    0  501    0  0.00000000000E+00  0.00000000000E+00  0.10798361119E+04  0.10798361119E+04  0.00000000000E+00 0. -1.
         -1   -1    0    0    0  501 -0.00000000000E+00 -0.00000000000E+00 -0.44020639423E+03  0.44020639423E+03  0.00000000000E+00 0.  1.
         24    2    1    2    0    0  0.22599333880E+03  0.24415939727E+03  0.43998138419E+03  0.55706355857E+03  0.77777820697E+02 0.  0.
        254    2    1    2    0    0 -0.22599333880E+03 -0.24415939727E+03  0.19964833350E+03  0.96297894757E+03  0.88135248110E+03 0.  0.
         23    2    4    4    0    0 -0.31638564724E+03 -0.52504835015E+03  0.56579346474E+02  0.62239817786E+03  0.91665814671E+02 0.  0.
         23    2    4    4    0    0  0.90392308436E+02  0.28088895287E+03  0.14306898703E+03  0.34058076972E+03  0.91962777149E+02 0.  0.
          4    1    3    3  502    0  0.70883260242E+02  0.13013934754E+03  0.21229407585E+03  0.25890048475E+03  0.00000000000E+00 0. -1.
         -3    1    3    3    0  502  0.15511007856E+03  0.11402004973E+03  0.22768730833E+03  0.29816307382E+03  0.00000000000E+00 0.  1.
         11    1    5    5    0    0 -0.31488846756E+03 -0.49171093615E+03  0.40345647993E+02  0.58528810260E+03  0.00000000000E+00 0.  1.
        -11    1    5    5    0    0 -0.14971796748E+01 -0.33337414000E+02  0.16233698481E+02  0.37110075257E+02  0.00000000000E+00 0. -1.
          3    1    6    6  503    0 -0.11906609617E+02  0.78274232947E+01  0.18850055013E+02  0.23629652600E+02  0.00000000000E+00 0. -1.
         -3    1    6    6    0  503  0.10229891805E+03  0.27306152958E+03  0.12421893202E+03  0.31695111712E+03  0.00000000000E+00 0.  1.
<mgrwt>
<rscale>  0 0.13789137E+04</rscale>
<asrwt>0</asrwt>
<pdfrwt beam="1">  1        2 0.16612863E+00 0.13789137E+04</pdfrwt>
<pdfrwt beam="2">  1       -1 0.67724061E-01 0.13789137E+04</pdfrwt>
<totfact> 0.55046225E+01</totfact>
</mgrwt>
</event>
<event>
12    6  0.8914180E-008  0.1624428E+04  0.7818608E-02  0.8805680E-01
          2   -1    0    0  501    0  0.00000000000E+00  0.00000000000E+00  0.27155889623E+04  0.27155889623E+04  0.00000000000E+00 0. -1.
         -1   -1    0    0    0  501 -0.00000000000E+00 -0.00000000000E+00 -0.24292750507E+03  0.24292750507E+03  0.00000000000E+00 0.  1.
         24    2    1    2    0    0 -0.44603486510E+03  0.18008557526E+03  0.13859578906E+04  0.14692041495E+04  0.79395484931E+02 0.  0.
        254    2    1    2    0    0  0.44603486510E+03 -0.18008557526E+03  0.10867035666E+04  0.14893123179E+04  0.89763501671E+03 0.  0.
         23    2    4    4    0    0  0.15074247632E+03 -0.93448648588E+02 -0.12535911253E+03  0.23563659632E+03  0.91398874944E+02 0.  0.
         23    2    4    4    0    0  0.29529238878E+03 -0.86636926669E+02  0.12120626792E+04  0.12536757216E+04  0.88900645201E+02 0.  0.
          2    1    3    3  502    0 -0.17655381484E+03  0.60516502127E+02  0.42842808441E+03  0.46731586756E+03  0.00000000000E+00 0. -1.
         -1    1    3    3    0  502 -0.26948105026E+03  0.11956907313E+03  0.95752980621E+03  0.10018882819E+04  0.00000000000E+00 0.  1.
         11    1    5    5    0    0  0.33786745662E+02  0.39421922149E+01  0.60617979476E+01  0.34551851705E+02  0.00000000000E+00 0.  1.
        -11    1    5    5    0    0  0.11695573066E+03 -0.97390840802E+02 -0.13142091048E+03  0.20108474462E+03  0.00000000000E+00 0. -1.
          1    1    6    6  503    0  0.29605534790E+03 -0.80394679965E+02  0.12076181025E+04  0.12459749416E+04  0.00000000000E+00 0. -1.
         -1    1    6    6    0  503 -0.76295911919E+00 -0.62422467046E+01  0.44445766398E+01  0.77007799635E+01  0.00000000000E+00 0.  1.
<mgrwt>
<rscale>  0 0.16244276E+04</rscale>
<asrwt>0</asrwt>
<pdfrwt beam="1">  1        2 0.41778290E+00 0.16244276E+04</pdfrwt>
<pdfrwt beam="2">  1       -1 0.37373464E-01 0.16244276E+04</pdfrwt>
<totfact> 0.19594815E+01</totfact>
</mgrwt>
</event>
<event>
12    6  0.8914180E-008  0.1360608E+04  0.7818608E-02  0.8982836E-01
         -1   -1    0    0    0  501 -0.00000000000E+00  0.00000000000E+00  0.28145757064E+03  0.28145757064E+03  0.00000000000E+00 0.  1.
          2   -1    0    0  501    0  0.00000000000E+00 -0.00000000000E+00 -0.16443466090E+04  0.16443466090E+04  0.00000000000E+00 0. -1.
         24    2    1    2    0    0  0.16300876576E+03  0.93266891423E+02 -0.85012944978E+03  0.87635363826E+03  0.10002523262E+03 0.  0.
        254    2    1    2    0    0 -0.16300876576E+03 -0.93266891423E+02 -0.51275958856E+03  0.10494505414E+04  0.89618830184E+03 0.  0.
         23    2    4    4    0    0  0.27589512645E+03  0.18715260395E+03 -0.53012572537E+02  0.34899090308E+03  0.88544337046E+02 0.  0.
         23    2    4    4    0    0 -0.43890389221E+03 -0.28041949537E+03 -0.45974701603E+03  0.70045963828E+03  0.89468799805E+02 0.  0.
          2    1    3    3  502    0  0.76228984596E+02 -0.21154990538E-01 -0.45053785967E+03  0.45694115763E+03  0.00000000000E+00 0. -1.
         -3    1    3    3    0  502  0.86779781165E+02  0.93288046414E+02 -0.39959159011E+03  0.41941248063E+03  0.00000000000E+00 0.  1.
         11    1    5    5    0    0 -0.18194641988E+01  0.21140673064E+02 -0.59310257252E+01  0.22032148641E+02  0.00000000000E+00 0.  1.
        -11    1    5    5    0    0  0.27771459065E+03  0.16601193088E+03 -0.47081546812E+02  0.32695875444E+03  0.00000000000E+00 0. -1.
          1    1    6    6  503    0 -0.32024941423E+03 -0.17846267947E+03 -0.27451427800E+03  0.45800295206E+03  0.00000000000E+00 0. -1.
         -1    1    6    6    0  503 -0.11865447798E+03 -0.10195681590E+03 -0.18523273803E+03  0.24245668622E+03  0.00000000000E+00 0.  1.
<mgrwt>
<rscale>  0 0.13606084E+04</rscale>
<asrwt>0</asrwt>
<pdfrwt beam="1">  1        2 0.25297640E+00 0.13606084E+04</pdfrwt>
<pdfrwt beam="2">  1       -1 0.43301166E-01 0.13606084E+04</pdfrwt>
<totfact> 0.61622530E+01</totfact>
</mgrwt>
</event>
<event>
12    6  0.8914180E-008  0.1151111E+04  0.7818608E-02  0.9156759E-01
         -1   -1    0    0    0  501 -0.00000000000E+00  0.00000000000E+00  0.11693667518E+03  0.11693667518E+03  0.00000000000E+00 0.  1.
          2   -1    0    0  501    0  0.00000000000E+00 -0.00000000000E+00 -0.28328527429E+04  0.28328527429E+04  0.00000000000E+00 0. -1.
         24    2    1    2    0    0 -0.11476185818E+03 -0.16431130080E+03 -0.48664582210E+03  0.53228540473E+03  0.79593393298E+02 0.  0.
        254    2    1    2    0    0  0.11476185818E+03  0.16431130080E+03 -0.22292702456E+04  0.24175040133E+04  0.91351592151E+03 0.  0.
         23    2    4    4    0    0  0.22903995332E+02  0.53391070257E+03 -0.12219228779E+04  0.13367398686E+04  0.90513676528E+02 0.  0.
         23    2    4    4    0    0  0.91857862849E+02 -0.36959940177E+03 -0.10073473677E+04  0.10807641447E+04  0.90889121452E+02 0.  0.
          4    1    3    3  502    0 -0.74564737292E+02 -0.92555525022E+02 -0.37653300561E+03  0.39484621002E+03  0.00000000000E+00 0. -1.
         -3    1    3    3    0  502 -0.40197120889E+02 -0.71755775775E+02 -0.11011281649E+03  0.13743919471E+03  0.00000000000E+00 0.  1.
         11    1    5    5    0    0 -0.24571976218E+02  0.37622522353E+03 -0.87093476276E+03  0.94903981046E+03  0.00000000000E+00 0. -1.
        -11    1    5    5    0    0  0.47475971550E+02  0.15768547904E+03 -0.35098811509E+03  0.38770005817E+03  0.00000000000E+00 0.  1.
          1    1    6    6  503    0  0.61610493185E+02 -0.34536168502E+03 -0.87043500646E+03  0.93847090889E+03  0.00000000000E+00 0. -1.
         -1    1    6    6    0  503  0.30247369664E+02 -0.24237716751E+02 -0.13691236128E+03  0.14229323581E+03  0.00000000000E+00 0.  1.
<mgrwt>
<rscale>  0 0.11511114E+04</rscale>
<asrwt>0</asrwt>
<pdfrwt beam="1">  1        2 0.43582347E+00 0.11511114E+04</pdfrwt>
<pdfrwt beam="2">  1       -1 0.17990259E-01 0.11511114E+04</pdfrwt>
<totfact> 0.61568673E+01</totfact>
</mgrwt>
</event>
<event>
12    6  0.8914180E-008  0.2305326E+04  0.7818608E-02  0.8475824E-01
         -1   -1    0    0    0  501 -0.00000000000E+00  0.00000000000E+00  0.15035026388E+04  0.15035026388E+04  0.00000000000E+00 0.  1.
          2   -1    0    0  501    0  0.00000000000E+00 -0.00000000000E+00 -0.88369089985E+03  0.88369089985E+03  0.00000000000E+00 0. -1.
         24    2    1    2    0    0 -0.84176168359E+03  0.46040549418E+03  0.40178092294E+03  0.10431850046E+04  0.79190230989E+02 0.  0.
        254    2    1    2    0    0  0.84176168359E+03 -0.46040549418E+03  0.21803081599E+03  0.13440085341E+04  0.91557935314E+03 0.  0.
         23    2    4    4    0    0  0.43701232616E+03  0.93624201988E+02 -0.23825010124E+03  0.51498202243E+03  0.93263649262E+02 0.  0.
         23    2    4    4    0    0  0.40474935743E+03 -0.55402969616E+03  0.45628091723E+03  0.82902651163E+03  0.91223544106E+02 0.  0.
          4    1    3    3  502    0 -0.58484630009E+02  0.50624781981E+02  0.47952877553E+02  0.91009883878E+02  0.00000000000E+00 0. -1.
         -3    1    3    3    0  502 -0.78327705358E+03  0.40978071219E+03  0.35382804539E+03  0.95217512069E+03  0.00000000000E+00 0.  1.
         11    1    5    5    0    0  0.33385660205E+03  0.36602006069E+02 -0.15049019246E+03  0.36803156877E+03  0.00000000000E+00 0.  1.
        -11    1    5    5    0    0  0.10315572411E+03  0.57022195919E+02 -0.87759908776E+02  0.14695045366E+03  0.00000000000E+00 0. -1.
          2    1    6    6  503    0  0.55438977976E+02 -0.13674488199E+03  0.85679884563E+02  0.17062732972E+03  0.00000000000E+00 0. -1.
         -2    1    6    6    0  503  0.34931037945E+03 -0.41728481418E+03  0.37060103267E+03  0.65839918191E+03  0.00000000000E+00 0.  1.
<mgrwt>
<rscale>  0 0.23053257E+04</rscale>
<asrwt>0</asrwt>
<pdfrwt beam="1">  1        2 0.13595245E+00 0.23053257E+04</pdfrwt>
<pdfrwt beam="2">  1       -1 0.23130810E+00 0.23053257E+04</pdfrwt>
<totfact> 0.28766910E+00</totfact>
</mgrwt>
</event>
<event>
12    6  0.8914180E-008  0.1616549E+04  0.7818608E-02  0.8810445E-01
          2   -1    0    0  501    0  0.00000000000E+00  0.00000000000E+00  0.69130514746E+03  0.69130514746E+03  0.00000000000E+00 0. -1.
         -1   -1    0    0    0  501 -0.00000000000E+00 -0.00000000000E+00 -0.94503526271E+03  0.94503526271E+03  0.00000000000E+00 0.  1.
         24    2    1    2    0    0 -0.22538666783E+03 -0.24157804001E+03  0.35897429011E+03  0.49477343855E+03  0.82335381756E+02 0.  0.
        254    2    1    2    0    0  0.22538666783E+03  0.24157804001E+03 -0.61270440535E+03  0.11415669716E+04  0.90477033710E+03 0.  0.
         23    2    4    4    0    0 -0.32176811764E+03  0.11343009836E+03 -0.81097276868E+02  0.36257819673E+03  0.92114448840E+02 0.  0.
         23    2    4    4    0    0  0.54715478548E+03  0.12814794166E+03 -0.53160712848E+03  0.77898877489E+03  0.91744853409E+02 0.  0.
          4    1    3    3  502    0 -0.78526147984E+02 -0.13896114255E+03  0.14441808782E+03  0.21525133947E+03  0.00000000000E+00 0. -1.
         -3    1    3    3    0  502 -0.14686051985E+03 -0.10261689747E+03  0.21455620229E+03  0.27952209908E+03  0.00000000000E+00 0.  1.
         11    1    5    5    0    0 -0.22935081932E+03  0.77250448892E+02 -0.13283037588E+02  0.24237547166E+03  0.00000000000E+00 0. -1.
        -11    1    5    5    0    0 -0.92417298328E+02  0.36179649463E+02 -0.67814239281E+02  0.12020272507E+03  0.00000000000E+00 0.  1.
          3    1    6    6  503    0  0.52044644793E+03  0.14137851957E+03 -0.49799696287E+03  0.73406632261E+03  0.00000000000E+00 0. -1.
         -3    1    6    6    0  503  0.26708337544E+02 -0.13230577911E+02 -0.33610165616E+02  0.44922452281E+02  0.00000000000E+00 0.  1.
<mgrwt>
<rscale>  0 0.16165491E+04</rscale>
<asrwt>0</asrwt>
<pdfrwt beam="1">  1        2 0.10635464E+00 0.16165491E+04</pdfrwt>
<pdfrwt beam="2">  1       -1 0.14539004E+00 0.16165491E+04</pdfrwt>
<totfact> 0.17274659E+01</totfact>
</mgrwt>
</event>
<event>
12    6  0.8914180E-008  0.1593844E+04  0.7818608E-02  0.8824339E-01
         -1   -1    0    0    0  501 -0.00000000000E+00  0.00000000000E+00  0.28723984166E+03  0.28723984166E+03  0.00000000000E+00 0.  1.
          2   -1    0    0  501    0  0.00000000000E+00 -0.00000000000E+00 -0.22109913591E+04  0.22109913591E+04  0.00000000000E+00 0. -1.
         24    2    1    2    0    0  0.43011966635E+02  0.14684935640E+03 -0.14599512801E+04  0.14701498712E+04  0.80424751725E+02 0.  0.
        254    2    1    2    0    0 -0.43011966635E+02 -0.14684935640E+03 -0.46380023727E+03  0.10280813295E+04  0.90466888820E+03 0.  0.
         23    2    4    4    0    0 -0.45341658822E+03 -0.11043240563E+03 -0.35221148143E+03  0.59155321210E+03  0.90001979980E+02 0.  0.
         23    2    4    4    0    0  0.41040462159E+03 -0.36416950762E+02 -0.11158875584E+03  0.43652811743E+03  0.91359723895E+02 0.  0.
          4    1    3    3  502    0  0.15539590263E+02  0.14424063421E+03 -0.11998654424E+04  0.12086041202E+04  0.00000000000E+00 0. -1.
         -3    1    3    3    0  502  0.27472376373E+02  0.26087221837E+01 -0.26008583773E+03  0.26154575103E+03  0.00000000000E+00 0.  1.
         11    1    5    5    0    0 -0.19783126631E+03 -0.25240008704E+02 -0.10258209570E+03  0.22427071661E+03  0.00000000000E+00 0. -1.
        -11    1    5    5    0    0 -0.25558532191E+03 -0.85192396929E+02 -0.24962938573E+03  0.36728249549E+03  0.00000000000E+00 0.  1.
          1    1    6    6  503    0  0.13551582409E+03 -0.37648551825E+02 -0.74454755522E+02  0.15913975824E+03  0.00000000000E+00 0. -1.
         -1    1    6    6    0  503  0.27488879750E+03  0.12316010629E+01 -0.37134000315E+02  0.27738835919E+03  0.00000000000E+00 0.  1.
<mgrwt>
<rscale>  0 0.15938442E+04</rscale>
<asrwt>0</asrwt>
<pdfrwt beam="1">  1        2 0.34015251E+00 0.15938442E+04</pdfrwt>
<pdfrwt beam="2">  1       -1 0.44190746E-01 0.15938442E+04</pdfrwt>
<totfact> 0.28203767E+01</totfact>
</mgrwt>
</event>
<event>
12    6  0.8914180E-008  0.3157873E+04  0.7818608E-02  0.8200032E-01
          2   -1    0    0  501    0  0.00000000000E+00  0.00000000000E+00  0.20517051223E+04  0.20517051223E+04  0.00000000000E+00 0. -1.
         -3   -1    0    0    0  501 -0.00000000000E+00 -0.00000000000E+00 -0.12151064251E+04  0.12151064251E+04  0.00000000000E+00 0.  1.
         24    2    1    2    0    0 -0.23765290707E+03  0.12109516668E+04  0.11741834846E+04  0.17052719284E+04  0.79766225699E+02 0.  0.
        254    2    1    2    0    0  0.23765290707E+03 -0.12109516668E+04 -0.33758478735E+03  0.15615396189E+04  0.89529863693E+03 0.  0.
         23    2    4    4    0    0 -0.10831865209E+02  0.98858389179E+02  0.87282584111E+02  0.15932313133E+03  0.88742888584E+02 0.  0.
         23    2    4    4    0    0  0.24848477228E+03 -0.13098100560E+04 -0.42486737146E+03  0.14022164876E+04  0.91387799828E+02 0.  0.
          4    1    3    3  502    0 -0.19737842831E+03  0.98720808611E+03  0.91394312506E+03  0.13597169136E+04  0.00000000000E+00 0. -1.
         -3    1    3    3    0  502 -0.40274478759E+02  0.22374358071E+03  0.26024035957E+03  0.34555501486E+03  0.00000000000E+00 0.  1.
         11    1    5    5    0    0 -0.15352778338E+02 -0.86779267118E+01  0.36024325616E+02  0.40109428453E+02  0.00000000000E+00 0.  1.
        -11    1    5    5    0    0  0.45209131292E+01  0.10753631589E+03  0.51258258494E+02  0.11921370288E+03  0.00000000000E+00 0. -1.
          4    1    6    6  503    0  0.22022526817E+03 -0.94243647337E+03 -0.30461962329E+03  0.10146323423E+04  0.00000000000E+00 0. -1.
         -4    1    6    6    0  503  0.28259504109E+02 -0.36737358262E+03 -0.12024774817E+03  0.38758414534E+03  0.00000000000E+00 0.  1.
<mgrwt>
<rscale>  0 0.31578728E+04</rscale>
<asrwt>0</asrwt>
<pdfrwt beam="1">  1        2 0.31564694E+00 0.31578728E+04</pdfrwt>
<pdfrwt beam="2">  1       -3 0.18693945E+00 0.31578728E+04</pdfrwt>
<totfact> 0.59475051E-01</totfact>
</mgrwt>
</event>
<event>
12    6  0.8914180E-008  0.2095416E+04  0.7818608E-02  0.8563265E-01
         -1   -1    0    0    0  501 -0.00000000000E+00  0.00000000000E+00  0.96282286498E+03  0.96282286498E+03  0.00000000000E+00 0.  1.
          2   -1    0    0  501    0  0.00000000000E+00 -0.00000000000E+00 -0.11400771217E+04  0.11400771217E+04  0.00000000000E+00 0. -1.
         24    2    1    2    0    0  0.52445794243E+03  0.65561120842E+03 -0.16224124728E+03  0.85877521880E+03  0.79312446108E+02 0.  0.
        254    2    1    2    0    0 -0.52445794243E+03 -0.65561120842E+03 -0.15013009425E+02  0.12441247679E+04  0.91800809234E+03 0.  0.
         23    2    4    4    0    0 -0.66975868641E+03 -0.53011423963E+03 -0.28012452849E+03  0.90367028501E+03  0.92479335406E+02 0.  0.
         23    2    4    4    0    0  0.14530074398E+03 -0.12549696879E+03  0.26511151906E+03  0.34045448286E+03  0.93612723429E+02 0.  0.
          4    1    3    3  502    0  0.44848638169E+03  0.51156597100E+03 -0.12481345193E+03  0.69167779712E+03  0.00000000000E+00 0. -1.
         -3    1    3    3    0  502  0.75971560748E+02  0.14404523743E+03 -0.37427795351E+02  0.16709742168E+03  0.00000000000E+00 0.  1.
         11    1    5    5    0    0 -0.24159261243E+03 -0.15402911536E+03 -0.59870086837E+02  0.29270528874E+03  0.00000000000E+00 0.  1.
        -11    1    5    5    0    0 -0.42816607398E+03 -0.37608512427E+03 -0.22025444165E+03  0.61096499628E+03  0.00000000000E+00 0. -1.
          2    1    6    6  503    0  0.25919232672E+00 -0.92941046952E+01  0.71413655437E+02  0.72016371373E+02  0.00000000000E+00 0. -1.
         -2    1    6    6    0  503  0.14504155165E+03 -0.11620286409E+03  0.19369786362E+03  0.26843811149E+03  0.00000000000E+00 0.  1.
<mgrwt>
<rscale>  0 0.20954163E+04</rscale>
<asrwt>0</asrwt>
<pdfrwt beam="1">  1        2 0.17539648E+00 0.20954163E+04</pdfrwt>
<pdfrwt beam="2">  1       -1 0.14812660E+00 0.20954163E+04</pdfrwt>
<totfact> 0.78106717E+00</totfact>
</mgrwt>
</event>
<event>
12    6  0.8914180E-008  0.1391566E+04  0.7818608E-02  0.8959946E-01
          2   -1    0    0  501    0  0.00000000000E+00  0.00000000000E+00  0.58913599807E+03  0.58913599807E+03  0.00000000000E+00 0. -1.
         -1   -1    0    0    0  501 -0.00000000000E+00 -0.00000000000E+00 -0.82173594224E+03  0.82173594224E+03  0.00000000000E+00 0.  1.
         24    2    1    2    0    0  0.11279794321E+03  0.28517214057E+03  0.16238641866E+03  0.35601885972E+03  0.79583627469E+02 0.  0.
        254    2    1    2    0    0 -0.11279794321E+03 -0.28517214057E+03 -0.39498636283E+03  0.10548530806E+04  0.92879183300E+03 0.  0.
         23    2    4    4    0    0  0.19107259034E+03 -0.46894576289E+03  0.15222872542E+01  0.51492361910E+03  0.93408526548E+02 0.  0.
         23    2    4    4    0    0 -0.30387053355E+03  0.18377362232E+03 -0.39650865009E+03  0.53992946149E+03  0.90524407596E+02 0.  0.
          2    1    3    3  502    0  0.51001891409E+02  0.10879001294E+03  0.21710148269E+02  0.12209746263E+03  0.00000000000E+00 0. -1.
         -1    1    3    3    0  502  0.61796051800E+02  0.17638212764E+03  0.14067627039E+03  0.23392139709E+03  0.00000000000E+00 0.  1.
         11    1    5    5    0    0  0.17856649229E+03 -0.33024511276E+03 -0.56953690584E+01  0.37547338640E+03  0.00000000000E+00 0.  1.
        -11    1    5    5    0    0  0.12506098056E+02 -0.13870065013E+03  0.72176563126E+01  0.13945023269E+03  0.00000000000E+00 0. -1.
          1    1    6    6  503    0 -0.91158229336E+02  0.12599561376E+02 -0.80081868000E+02  0.12199048039E+03  0.00000000000E+00 0. -1.
         -1    1    6    6    0  503 -0.21271230421E+03  0.17117406094E+03 -0.31642678209E+03  0.41793898110E+03  0.00000000000E+00 0.  1.
<mgrwt>
<rscale>  0 0.13915663E+04</rscale>
<asrwt>0</asrwt>
<pdfrwt beam="1">  1        2 0.90636308E-01 0.13915663E+04</pdfrwt>
<pdfrwt beam="2">  1       -1 0.12642091E+00 0.13915663E+04</pdfrwt>
<totfact> 0.30712800E+01</totfact>
</mgrwt>
</event>
<event>
12    6  0.8914180E-008  0.2905309E+04  0.7818608E-02  0.8271300E-01
          2   -1    0    0  501    0  0.00000000000E+00  0.00000000000E+00  0.23985458329E+04  0.23985458329E+04  0.00000000000E+00 0. -1.
         -1   -1    0    0    0  501 -0.00000000000E+00 -0.00000000000E+00 -0.87978537298E+03  0.87978537298E+03  0.00000000000E+00 0.  1.
         24    2    1    2    0    0  0.73948033335E+03  0.81527720463E+03  0.14953482759E+04  0.18584738205E+04  0.79689343691E+02 0.  0.
        254    2    1    2    0    0 -0.73948033335E+03 -0.81527720463E+03  0.23412183989E+02  0.14198573853E+04  0.89662633273E+03 0.  0.
         23    2    4    4    0    0 -0.29652746239E+02  0.17301663742E+03 -0.15471445902E+02  0.19898381583E+03  0.92418348510E+02 0.  0.
         23    2    4    4    0    0 -0.70982758712E+03 -0.98829384205E+03  0.38883629891E+02  0.12208735695E+04  0.91871727916E+02 0.  0.
          2    1    3    3  502    0  0.54084790818E+03  0.59484410446E+03  0.10308645130E+04  0.13073016532E+04  0.00000000000E+00 0. -1.
         -1    1    3    3    0  502  0.19863242517E+03  0.22043310017E+03  0.46448376297E+03  0.55117216733E+03  0.00000000000E+00 0.  1.
         11    1    5    5    0    0  0.30287946298E+02  0.66614776490E+02  0.11068265968E+02  0.74009422706E+02  0.00000000000E+00 0. -1.
        -11    1    5    5    0    0 -0.59940692537E+02  0.10640186093E+03 -0.26539711870E+02  0.12497439313E+03  0.00000000000E+00 0.  1.
          1    1    6    6  503    0 -0.49068903570E+03 -0.62752143192E+03 -0.38759171050E+01  0.79660146874E+03  0.00000000000E+00 0. -1.
         -1    1    6    6    0  503 -0.21913855142E+03 -0.36077241013E+03  0.42759546996E+02  0.42427210077E+03  0.00000000000E+00 0.  1.
<mgrwt>
<rscale>  0 0.29053093E+04</rscale>
<asrwt>0</asrwt>
<pdfrwt beam="1">  1        2 0.36900705E+00 0.29053093E+04</pdfrwt>
<pdfrwt beam="2">  1       -1 0.13535160E+00 0.29053093E+04</pdfrwt>
<totfact> 0.17871783E+00</totfact>
</mgrwt>
</event>
<event>
12    6  0.8914180E-008  0.2389126E+04  0.7818608E-02  0.8443586E-01
         -1   -1    0    0    0  501 -0.00000000000E+00  0.00000000000E+00  0.87555042128E+03  0.87555042128E+03  0.00000000000E+00 0.  1.
          2   -1    0    0  501    0  0.00000000000E+00 -0.00000000000E+00 -0.16298092786E+04  0.16298092786E+04  0.00000000000E+00 0. -1.
         24    2    1    2    0    0  0.28856626176E+03 -0.84287495827E+03  0.20068794160E+03  0.91675273452E+03  0.80319634265E+02 0.  0.
        254    2    1    2    0    0 -0.28856626176E+03  0.84287495827E+03 -0.95494679896E+03  0.15886069654E+04  0.90445564785E+03 0.  0.
         23    2    4    4    0    0  0.28524543437E+03  0.83859179713E+02 -0.28377459963E+03  0.42059158826E+03  0.89285725995E+02 0.  0.
         23    2    4    4    0    0 -0.57381169613E+03  0.75901577856E+03 -0.67117219933E+03  0.11680153771E+04  0.91776823614E+02 0.  0.
          4    1    3    3  502    0  0.15957807242E+03 -0.47822104991E+03  0.15405899703E+03  0.52715719510E+03  0.00000000000E+00 0. -1.
         -3    1    3    3    0  502  0.12898818934E+03 -0.36465390836E+03  0.46628944573E+02  0.38959553943E+03  0.00000000000E+00 0.  1.
         11    1    5    5    0    0  0.25916567919E+02 -0.85889377873E+01 -0.59589110009E+02  0.65546169810E+02  0.00000000000E+00 0. -1.
        -11    1    5    5    0    0  0.25932886645E+03  0.92448117500E+02 -0.22418548962E+03  0.35504541845E+03  0.00000000000E+00 0.  1.
          4    1    6    6  503    0 -0.24171010839E+03  0.27526728721E+03 -0.30204698718E+03  0.47479283732E+03  0.00000000000E+00 0. -1.
         -4    1    6    6    0  503 -0.33210158774E+03  0.48374849135E+03 -0.36912521215E+03  0.69322253981E+03  0.00000000000E+00 0.  1.
<mgrwt>
<rscale>  0 0.23891255E+04</rscale>
<asrwt>0</asrwt>
<pdfrwt beam="1">  1        2 0.25073989E+00 0.23891255E+04</pdfrwt>
<pdfrwt beam="2">  1       -1 0.13470007E+00 0.23891255E+04</pdfrwt>
<totfact> 0.50958888E+00</totfact>
</mgrwt>
</event>
<event>
12    6  0.8914180E-008  0.1159219E+04  0.7818608E-02  0.9149320E-01
         -1   -1    0    0    0  501 -0.00000000000E+00  0.00000000000E+00  0.54347545817E+03  0.54347545817E+03  0.00000000000E+00 0.  1.
          2   -1    0    0  501    0  0.00000000000E+00 -0.00000000000E+00 -0.61814617847E+03  0.61814617847E+03  0.00000000000E+00 0. -1.
         24    2    1    2    0    0 -0.55926591365E+01  0.69888321510E+01 -0.23619640068E+03  0.25012905150E+03  0.81827141587E+02 0.  0.
        254    2    1    2    0    0  0.55926591365E+01 -0.69888321510E+01  0.16152568038E+03  0.91149258514E+03  0.89702177551E+03 0.  0.
         23    2    4    4    0    0 -0.23021054965E+03  0.33458196500E+03 -0.79163062016E+02  0.42336835608E+03  0.89621348267E+02 0.  0.
         23    2    4    4    0    0  0.23580320878E+03 -0.34157079715E+03  0.24068874240E+03  0.48812422906E+03  0.89779894978E+02 0.  0.
          4    1    3    3  502    0 -0.37121497445E+01  0.29892034800E+02 -0.21990861238E+03  0.22196195980E+03  0.00000000000E+00 0. -1.
         -3    1    3    3    0  502 -0.18805093920E+01 -0.22903202649E+02 -0.16287788298E+02  0.28167091699E+02  0.00000000000E+00 0.  1.
         11    1    5    5    0    0 -0.12038953679E+03  0.24815573746E+03 -0.60539252110E+02  0.28238256257E+03  0.00000000000E+00 0. -1.
        -11    1    5    5    0    0 -0.10982101286E+03  0.86426227544E+02 -0.18623809906E+02  0.14098579350E+03  0.00000000000E+00 0.  1.
          3    1    6    6  503    0  0.20016453801E+03 -0.32571315400E+03  0.19885941451E+03  0.43092919106E+03  0.00000000000E+00 0. -1.
         -3    1    6    6    0  503  0.35638670773E+02 -0.15857643148E+02  0.41829327890E+02  0.57195038005E+02  0.00000000000E+00 0.  1.
<mgrwt>
<rscale>  0 0.11592192E+04</rscale>
<asrwt>0</asrwt>
<pdfrwt beam="1">  1        2 0.95099411E-01 0.11592192E+04</pdfrwt>
<pdfrwt beam="2">  1       -1 0.83611610E-01 0.11592192E+04</pdfrwt>
<totfact> 0.76759213E+01</totfact>
</mgrwt>
</event>
<event>
12    6  0.8914180E-008  0.1186403E+04  0.7818608E-02  0.9124842E-01
          2   -1    0    0  501    0  0.00000000000E+00  0.00000000000E+00  0.14591216727E+04  0.14591216727E+04  0.00000000000E+00 0. -1.
         -1   -1    0    0    0  501 -0.00000000000E+00 -0.00000000000E+00 -0.24116441905E+03  0.24116441905E+03  0.00000000000E+00 0.  1.
         24    2    1    2    0    0 -0.16081620877E+03 -0.31524153751E+02  0.46854734768E+03  0.50280973829E+03  0.80158534379E+02 0.  0.
        254    2    1    2    0    0  0.16081620877E+03  0.31524153751E+02  0.74940990600E+03  0.11974763535E+04  0.91949920321E+03 0.  0.
         23    2    4    4    0    0  0.40585655750E+03  0.33429211646E+03  0.43245621290E+03  0.68697607724E+03  0.91907509086E+02 0.  0.
         23    2    4    4    0    0 -0.24504034874E+03 -0.30276796271E+03  0.31695369310E+03  0.51050027626E+03  0.91856827406E+02 0.  0.
          4    1    3    3  502    0 -0.10290118784E+03 -0.41326053164E+02  0.38520341484E+03  0.40084681355E+03  0.00000000000E+00 0. -1.
         -3    1    3    3    0  502 -0.57915020926E+02  0.98018994132E+01  0.83343932836E+02  0.10196292474E+03  0.00000000000E+00 0.  1.
         11    1    5    5    0    0  0.77437688699E+02  0.11005256882E+03  0.87274583074E+02  0.16039020040E+03  0.00000000000E+00 0. -1.
        -11    1    5    5    0    0  0.32841886880E+03  0.22423954764E+03  0.34518162983E+03  0.52658587683E+03  0.00000000000E+00 0.  1.
          3    1    6    6  503    0 -0.91512315449E+02 -0.10661352663E+03  0.17276326651E+03  0.22268384359E+03  0.00000000000E+00 0. -1.
         -3    1    6    6    0  503 -0.15352803329E+03 -0.19615443607E+03  0.14419042659E+03  0.28781643267E+03  0.00000000000E+00 0.  1.
<mgrwt>
<rscale>  0 0.11864034E+04</rscale>
<asrwt>0</asrwt>
<pdfrwt beam="1">  1        2 0.22448025E+00 0.11864034E+04</pdfrwt>
<pdfrwt beam="2">  1       -1 0.37102219E-01 0.11864034E+04</pdfrwt>
<totfact> 0.10519089E+02</totfact>
</mgrwt>
</event>
<event>
12    6  0.8914180E-008  0.1639011E+04  0.7818608E-02  0.8796934E-01
          2   -1    0    0  501    0  0.00000000000E+00  0.00000000000E+00  0.30598682612E+04  0.30598682612E+04  0.00000000000E+00 0. -1.
         -1   -1    0    0    0  501 -0.00000000000E+00 -0.00000000000E+00 -0.21948311510E+03  0.21948311510E+03  0.00000000000E+00 0.  1.
         24    2    1    2    0    0 -0.18075230000E+03  0.16846242214E+03  0.20800173493E+04  0.20962122490E+04  0.81133457849E+02 0.  0.
        254    2    1    2    0    0  0.18075230000E+03 -0.16846242214E+03  0.76036779685E+03  0.11831391273E+04  0.87212844608E+03 0.  0.
         23    2    4    4    0    0  0.41152975300E+03 -0.38878478286E+03  0.44505226379E+03  0.72530571028E+03  0.86524625772E+02 0.  0.
         23    2    4    4    0    0 -0.23077745300E+03  0.22032236072E+03  0.31531553306E+03  0.45783341704E+03  0.91582623456E+02 0.  0.
          2    1    3    3  502    0 -0.12195975988E+03  0.10213060749E+03  0.10010574993E+04  0.10136177588E+04  0.00000000000E+00 0. -1.
         -1    1    3    3    0  502 -0.58792540115E+02  0.66331814647E+02  0.10789598500E+04  0.10825944902E+04  0.00000000000E+00 0.  1.
         11    1    5    5    0    0  0.38588126331E+03 -0.34020751917E+03  0.37668033127E+03  0.63759985684E+03  0.00000000000E+00 0. -1.
        -11    1    5    5    0    0  0.25648489694E+02 -0.48577263689E+02  0.68371932517E+02  0.87705853438E+02  0.00000000000E+00 0.  1.
          4    1    6    6  503    0 -0.14109112323E+03  0.95538489810E+02  0.21493177047E+03  0.27428083062E+03  0.00000000000E+00 0. -1.
         -4    1    6    6    0  503 -0.89686329772E+02  0.12478387091E+03  0.10038376259E+03  0.18355258642E+03  0.00000000000E+00 0.  1.
<mgrwt>
<rscale>  0 0.16390112E+04</rscale>
<asrwt>0</asrwt>
<pdfrwt beam="1">  1        2 0.47074893E+00 0.16390112E+04</pdfrwt>
<pdfrwt beam="2">  1       -1 0.33766635E-01 0.16390112E+04</pdfrwt>
<totfact> 0.14465217E+01</totfact>
</mgrwt>
</event>
