<event>
12    7  0.1711607E-007  0.2833537E+04  0.7818608E-02  0.8292931E-01
         -1   -1    0    0    0  501 -0.00000000000E+00  0.00000000000E+00  0.14208179250E+04  0.14208179250E+04  0.00000000000E+00 0.  1.
          2   -1    0    0  501    0  0.00000000000E+00 -0.00000000000E+00 -0.14127306445E+04  0.14127306445E+04  0.00000000000E+00 0. -1.
         24    2    1    2    0    0  0.11946577190E+04  0.27614928099E+03  0.32096538743E+03  0.12700040516E+04  0.80162461932E+02 0.  0.
        254    2    1    2    0    0 -0.11946577190E+04 -0.27614928099E+03 -0.31287810689E+03  0.15635445179E+04  0.91832089092E+03 0.  0.
         23    2    4    4    0    0 -0.29841328567E+03  0.13817059965E+03 -0.44770675590E+03  0.56285519382E+03  0.90680903506E+02 0.  0.
         23    2    4    4    0    0 -0.89624443333E+03 -0.41431988064E+03  0.13482864901E+03  0.10006893241E+04  0.91023683432E+02 0.  0.
          2    1    3    3  502    0  0.29071511700E+03  0.59809134512E+02  0.43299116258E+02  0.29994537051E+03  0.00000000000E+00 0. -1.
         -1    1    3    3    0  502  0.90394260200E+03  0.21634014648E+03  0.27766627117E+03  0.97005868113E+03  0.00000000000E+00 0.  1.
         13    1    5    5    0    0 -0.26170623381E+03  0.13917301899E+03 -0.35100895732E+03  0.45941981906E+03  0.00000000000E+00 0. -1.
        -13    1    5    5    0    0 -0.36707051868E+02 -0.10024193435E+01 -0.96697798586E+02  0.10343537477E+03  0.00000000000E+00 0.  1.
          4    1    6    6  503    0 -0.72521955943E+03 -0.37327700126E+03  0.11423081420E+03  0.82360658567E+03  0.00000000000E+00 0. -1.
         -4    1    6    6    0  503 -0.17102487390E+03 -0.41042879386E+02  0.20597834818E+02  0.17708273840E+03  0.00000000000E+00 0.  1.
<mgrwt>
<rscale>  0 0.28335370E+04</rscale>
<asrwt>0</asrwt>
<pdfrwt beam="1">  1        2 0.21734317E+00 0.28335370E+04</pdfrwt>
<pdfrwt beam="2">  1       -1 0.21858737E+00 0.28335370E+04</pdfrwt>
<totfact> 0.15819224E+00</totfact>
</mgrwt>
</event>
<event>
12    7  0.1711607E-007  0.1632944E+04  0.7818608E-02  0.8800561E-01
         -1   -1    0    0    0  501 -0.00000000000E+00  0.00000000000E+00  0.17514440278E+03  0.17514440278E+03  0.00000000000E+00 0.  1.
          2   -1    0    0  501    0  0.00000000000E+00 -0.00000000000E+00 -0.38061550211E+04  0.38061550211E+04  0.00000000000E+00 0. -1.
         24    2    1    2    0    0 -0.42568813315E+03  0.36938422706E+03 -0.82678239763E+03  0.10037661297E+04  0.79512364462E+02 0.  0.
        254    2    1    2    0    0  0.42568813315E+03 -0.36938422706E+03 -0.28042282206E+04  0.29775332942E+04  0.82725661713E+03 0.  0.
         23    2    4    4    0    0  0.19244753181E+03 -0.57979355219E+03 -0.22568597686E+04  0.23398222384E+04  0.90307675877E+02 0.  0.
         23    2    4    4    0    0  0.23324060133E+03  0.21040932513E+03 -0.54736845203E+03  0.63771105581E+03  0.91596431201E+02 0.  0.
          4    1    3    3  502    0 -0.68584447896E+02  0.75071816584E+02 -0.20336154059E+03  0.22736648902E+03  0.00000000000E+00 0. -1.
         -1    1    3    3    0  502 -0.35710368525E+03  0.29431241048E+03 -0.62342085705E+03  0.77639964064E+03  0.00000000000E+00 0.  1.
         13    1    5    5    0    0  0.17977289206E+03 -0.50325147144E+03 -0.20610166077E+04  0.21291711517E+04  0.00000000000E+00 0.  1.
        -13    1    5    5    0    0  0.12674639753E+02 -0.76542080753E+02 -0.19584316096E+03  0.21065108666E+03  0.00000000000E+00 0. -1.
          3    1    6    6  503    0  0.10547797340E+03  0.60934500558E+02 -0.28409711111E+03  0.30911128218E+03  0.00000000000E+00 0. -1.
         -3    1    6    6    0  503  0.12776262793E+03  0.14947482457E+03 -0.26327134093E+03  0.32859977363E+03  0.00000000000E+00 0.  1.
<mgrwt>
<rscale>  0 0.16329443E+04</rscale>
<asrwt>0</asrwt>
<pdfrwt beam="1">  1        2 0.58556228E+00 0.16329443E+04</pdfrwt>
<pdfrwt beam="2">  1       -1 0.26945294E-01 0.16329443E+04</pdfrwt>
<totfact> 0.66164116E+00</totfact>
</mgrwt>
</event>
<event>
12    7  0.1711607E-007  0.1635607E+04  0.7818608E-02  0.8798967E-01
         -1   -1    0    0    0  501 -0.00000000000E+00  0.00000000000E+00  0.85736274170E+03  0.85736274170E+03  0.00000000000E+00 0.  1.
          2   -1    0    0  501    0  0.00000000000E+00 -0.00000000000E+00 -0.78006942795E+03  0.78006942795E+03  0.00000000000E+00 0. -1.
         24    2    1    2    0    0 -0.19664291749E+03 -0.49428951081E+03 -0.14810148330E+03  0.55795377197E+03  0.79923743680E+02 0.  0.
        254    2    1    2    0    0  0.19664291749E+03  0.49428951081E+03  0.22539479705E+03  0.10794783977E+04  0.91185538273E+03 0.  0.
         23    2    4    4    0    0 -0.17109522062E+03  0.61443885507E+03  0.22143415324E+03  0.68113201272E+03  0.89994740888E+02 0.  0.
         23    2    4    4    0    0  0.36773813811E+03 -0.12014934426E+03  0.39606438090E+01  0.39834638496E+03  0.94852267037E+02 0.  0.
          2    1    3    3  502    0 -0.14457236402E+03 -0.32763380481E+03 -0.13552832197E+03  0.38290077637E+03  0.00000000000E+00 0. -1.
         -1    1    3    3    0  502 -0.52070553470E+02 -0.16665570600E+03 -0.12573161332E+02  0.17505299560E+03  0.00000000000E+00 0.  1.
         13    1    5    5    0    0 -0.96888767988E+02  0.28980566674E+03  0.15062842455E+03  0.34068120013E+03  0.00000000000E+00 0. -1.
        -13    1    5    5    0    0 -0.74206452633E+02  0.32463318833E+03  0.70805728687E+02  0.34045081259E+03  0.00000000000E+00 0.  1.
          4    1    6    6  503    0  0.80255864463E+02 -0.63935145920E+00 -0.28855219723E+02  0.85287960793E+02  0.00000000000E+00 0. -1.
         -4    1    6    6    0  503  0.28748227365E+03 -0.11950999280E+03  0.32815863532E+02  0.31305842416E+03  0.00000000000E+00 0.  1.
<mgrwt>
<rscale>  0 0.16356069E+04</rscale>
<asrwt>0</asrwt>
<pdfrwt beam="1">  1        2 0.12001068E+00 0.16356069E+04</pdfrwt>
<pdfrwt beam="2">  1       -1 0.13190196E+00 0.16356069E+04</pdfrwt>
<totfact> 0.19012782E+01</totfact>
</mgrwt>
</event>
<event>
12    7  0.1711607E-007  0.2072130E+04  0.7818608E-02  0.8573620E-01
         -1   -1    0    0    0  501 -0.00000000000E+00  0.00000000000E+00  0.56720393859E+03  0.56720393859E+03  0.00000000000E+00 0.  1.
          2   -1    0    0  501    0  0.00000000000E+00 -0.00000000000E+00 -0.18924958339E+04  0.18924958339E+04  0.00000000000E+00 0. -1.
         24    2    1    2    0    0  0.71262260068E+02 -0.63932598838E+03  0.93809233100E+02  0.65495870781E+03  0.79716419821E+02 0.  0.
        254    2    1    2    0    0 -0.71262260068E+02  0.63932598838E+03 -0.14191011284E+04  0.18047410647E+04  0.91072842758E+03 0.  0.
         23    2    4    4    0    0  0.30186417003E+03  0.26513034299E+03 -0.11144340551E+04  0.11880625848E+04  0.90074225637E+02 0.  0.
         23    2    4    4    0    0 -0.37312643010E+03  0.37419564539E+03 -0.30466707328E+03  0.61667847994E+03  0.90689625724E+02 0.  0.
          2    1    3    3  502    0  0.21601844905E+02 -0.58796503588E+02 -0.90811649839E+01  0.63294044704E+02  0.00000000000E+00 0. -1.
         -1    1    3    3    0  502  0.49660415163E+02 -0.58052948479E+03  0.10289039808E+03  0.59166466310E+03  0.00000000000E+00 0.  1.
         13    1    5    5    0    0  0.15198839685E+03  0.75372692487E+02 -0.48124380826E+03  0.51027161251E+03  0.00000000000E+00 0. -1.
        -13    1    5    5    0    0  0.14987577318E+03  0.18975765050E+03 -0.63319024688E+03  0.67779097225E+03  0.00000000000E+00 0.  1.
          2    1    6    6  503    0 -0.14781000789E+03  0.15356980303E+03 -0.17472622084E+03  0.27560975143E+03  0.00000000000E+00 0. -1.
         -2    1    6    6    0  503 -0.22531642221E+03  0.22062584237E+03 -0.12994085244E+03  0.34106872851E+03  0.00000000000E+00 0.  1.
<mgrwt>
<rscale>  0 0.20721304E+04</rscale>
<asrwt>0</asrwt>
<pdfrwt beam="1">  1        2 0.29115321E+00 0.20721304E+04</pdfrwt>
<pdfrwt beam="2">  1       -1 0.87262144E-01 0.20721304E+04</pdfrwt>
<totfact> 0.10423285E+01</totfact>
</mgrwt>
</event>
<event>
12    7  0.1711607E-007  0.1435895E+04  0.7818608E-02  0.8928238E-01
          4   -1    0    0  501    0  0.00000000000E+00  0.00000000000E+00  0.53495329427E+03  0.53495329427E+03  0.00000000000E+00 0. -1.
         -3   -1    0    0    0  501 -0.00000000000E+00 -0.00000000000E+00 -0.96353965599E+03  0.96353965599E+03  0.00000000000E+00 0.  1.
         24    2    1    2    0    0 -0.24821132519E+03  0.27322118928E+03 -0.35173511658E+03  0.51606847741E+03  0.79689402793E+02 0.  0.
        254    2    1    2    0    0  0.24821132519E+03 -0.27322118928E+03 -0.76851245135E+02  0.98242447284E+03  0.90718964431E+03 0.  0.
         23    2    4    4    0    0  0.33064082658E+03 -0.51358890556E+03 -0.24614760372E+03  0.66472722555E+03  0.90425225728E+02 0.  0.
         23    2    4    4    0    0 -0.82429501382E+02  0.24036771628E+03  0.16929635859E+03  0.31769724730E+03  0.87744072051E+02 0.  0.
          2    1    3    3  502    0 -0.58270108793E+02  0.93000930032E+02 -0.64052832335E+02  0.12707219954E+03  0.00000000000E+00 0. -1.
         -1    1    3    3    0  502 -0.18994121640E+03  0.18022025925E+03 -0.28768228425E+03  0.38899627788E+03  0.00000000000E+00 0.  1.
         13    1    5    5    0    0  0.46454208774E+02 -0.14352634872E+03 -0.62685576805E+02  0.16336244315E+03  0.00000000000E+00 0. -1.
        -13    1    5    5    0    0  0.28418661780E+03 -0.37006255684E+03 -0.18346202692E+03  0.50136478240E+03  0.00000000000E+00 0.  1.
          3    1    6    6  503    0  0.16234923175E+02  0.13206755616E+02  0.16928193467E+02  0.26917556695E+02  0.00000000000E+00 0. -1.
         -3    1    6    6    0  503 -0.98664424557E+02  0.22716096067E+03  0.15236816512E+03  0.29077969060E+03  0.00000000000E+00 0.  1.
<mgrwt>
<rscale>  0 0.14358951E+04</rscale>
<asrwt>0</asrwt>
<pdfrwt beam="1">  1        4 0.82300508E-01 0.14358951E+04</pdfrwt>
<pdfrwt beam="2">  1       -3 0.14823687E+00 0.14358951E+04</pdfrwt>
<totfact> 0.96099689E-01</totfact>
</mgrwt>
</event>
<event>
12    7  0.1792720E-007  0.1822576E+04  0.7818608E-02  0.8694385E-01
          2   -1    0    0  501    0  0.00000000000E+00  0.00000000000E+00  0.16488099764E+04  0.16488099764E+04  0.00000000000E+00 0. -1.
         -1   -1    0    0    0  501 -0.00000000000E+00 -0.00000000000E+00 -0.50366386924E+03  0.50366386924E+03  0.00000000000E+00 0.  1.
         24    2    1    2    0    0  0.21821930175E+02  0.35626608435E+03 -0.26605002507E+03  0.45230396975E+03  0.79965903461E+02 0.  0.
        254    2    1    2    0    0 -0.21821930175E+02 -0.35626608435E+03  0.14111961322E+04  0.17001698759E+04  0.87846534580E+03 0.  0.
         23    2    4    4    0    0  0.71053971318E+02 -0.38591729150E+03  0.14909922196E+04  0.15447970155E+04  0.96742943937E+02 0.  0.
         23    2    4    4    0    0 -0.92875901493E+02  0.29651207153E+02 -0.79796087436E+02  0.15537286042E+03  0.90929549768E+02 0.  0.
          4    1    3    3  502    0 -0.15762913487E+02  0.17669560327E+02 -0.28148220647E+02  0.36783218039E+02  0.00000000000E+00 0. -1.
         -3    1    3    3    0  502  0.37584843662E+02  0.33859652402E+03 -0.23790180442E+03  0.41552075171E+03  0.00000000000E+00 0.  1.
         13    1    5    5    0    0  0.10275920116E+02 -0.12611356412E+03  0.66001053956E+03  0.67202986386E+03  0.00000000000E+00 0. -1.
        -13    1    5    5    0    0  0.60778051202E+02 -0.25980372738E+03  0.83098168009E+03  0.87276715160E+03  0.00000000000E+00 0.  1.
          3    1    6    6  503    0 -0.81950171063E+02  0.24378959929E+01 -0.92334156515E+02  0.12348024268E+03  0.00000000000E+00 0. -1.
         -3    1    6    6    0  503 -0.10925730430E+02  0.27213311160E+02  0.12538069079E+02  0.31892617734E+02  0.00000000000E+00 0.  1.
<mgrwt>
<rscale>  0 0.18225762E+04</rscale>
<asrwt>0</asrwt>
<pdfrwt beam="1">  1        2 0.25366307E+00 0.18225762E+04</pdfrwt>
<pdfrwt beam="2">  1       -1 0.77486750E-01 0.18225762E+04</pdfrwt>
<totfact> 0.18766671E+01</totfact>
</mgrwt>
</event>
<event>
12    7  0.1950729E-007  0.2264431E+04  0.7818608E-02  0.8492079E-01
          2   -1    0    0  501    0  0.00000000000E+00  0.00000000000E+00  0.12514376997E+04  0.12514376997E+04  0.00000000000E+00 0. -1.
         -1   -1    0    0    0  501 -0.00000000000E+00 -0.00000000000E+00 -0.10243511637E+04  0.10243511637E+04  0.00000000000E+00 0.  1.
         24    2    1    2    0    0 -0.35242511652E+03 -0.26449690725E+03 -0.75321405507E+03  0.87626837452E+03  0.79704295659E+02 0.  0.
        254    2    1    2    0    0  0.35242511652E+03  0.26449690725E+03  0.98030059108E+03  0.13995204889E+04  0.89638511438E+03 0.  0.
         23    2    4    4    0    0 -0.22809225795E+03  0.15167297576E+03  0.66099729457E+03  0.72135147060E+03  0.91650155493E+02 0.  0.
         23    2    4    4    0    0  0.58051737446E+03  0.11282393149E+03  0.31930329651E+03  0.67816901830E+03  0.90713618869E+02 0.  0.
          4    1    3    3  502    0 -0.20536241115E+02 -0.37282489095E+02 -0.10637395295E+03  0.11457372761E+03  0.00000000000E+00 0. -1.
         -3    1    3    3    0  502 -0.33188887540E+03 -0.22721441815E+03 -0.64684010212E+03  0.76169464692E+03  0.00000000000E+00 0.  1.
         13    1    5    5    0    0 -0.16425975349E+03  0.10813767912E+03  0.56423835908E+03  0.59752820027E+03  0.00000000000E+00 0. -1.
        -13    1    5    5    0    0 -0.63832504453E+02  0.43535296643E+02  0.96758935491E+02  0.12382327033E+03  0.00000000000E+00 0.  1.
          2    1    6    6  503    0  0.91076743375E+02  0.52153322979E+02  0.50157580268E+02  0.11632164519E+03  0.00000000000E+00 0.  1.
         -2    1    6    6    0  503  0.48944063109E+03  0.60670608506E+02  0.26914571624E+03  0.56184737311E+03  0.00000000000E+00 0. -1.
<mgrwt>
<rscale>  0 0.22644308E+04</rscale>
<asrwt>0</asrwt>
<pdfrwt beam="1">  1        2 0.19252888E+00 0.22644308E+04</pdfrwt>
<pdfrwt beam="2">  1       -1 0.15759249E+00 0.22644308E+04</pdfrwt>
<totfact> 0.55772965E+00</totfact>
</mgrwt>
</event>
<event>
12    7  0.1711607E-007  0.1351891E+04  0.7818608E-02  0.8989398E-01
         -1   -1    0    0    0  501 -0.00000000000E+00  0.00000000000E+00  0.86181495549E+03  0.86181495549E+03  0.00000000000E+00 0.  1.
          2   -1    0    0  501    0  0.00000000000E+00 -0.00000000000E+00 -0.53016321001E+03  0.53016321001E+03  0.00000000000E+00 0. -1.
         24    2    1    2    0    0 -0.12750492220E+03  0.12994435961E+03  0.42844083296E+03  0.47220564645E+03  0.79205955631E+02 0.  0.
        254    2    1    2    0    0  0.12750492220E+03 -0.12994435961E+03 -0.96789087482E+02  0.91977251906E+03  0.89636505821E+03 0.  0.
         23    2    4    4    0    0 -0.13302822182E+03  0.23773757548E+03  0.21921026260E+03  0.36155236256E+03  0.91931001539E+02 0.  0.
         23    2    4    4    0    0  0.26053314401E+03 -0.36768193510E+03 -0.31599935009E+03  0.55822015650E+03  0.93202088750E+02 0.  0.
          4    1    3    3  502    0 -0.81456788011E+02  0.50442574516E+02  0.14126393610E+03  0.17069024951E+03  0.00000000000E+00 0. -1.
         -3    1    3    3    0  502 -0.46048134186E+02  0.79501785098E+02  0.28717689687E+03  0.30151539694E+03  0.00000000000E+00 0.  1.
         13    1    5    5    0    0 -0.81829897646E+02  0.16557446233E+03  0.19759194166E+03  0.27046924064E+03  0.00000000000E+00 0. -1.
        -13    1    5    5    0    0 -0.51198324169E+02  0.72163113148E+02  0.21618320946E+02  0.91083121914E+02  0.00000000000E+00 0.  1.
          2    1    6    6  503    0 -0.60998164385E+01 -0.37382376301E+01 -0.12728915775E+02  0.14601625868E+02  0.00000000000E+00 0.  1.
         -2    1    6    6    0  503  0.26663296045E+03 -0.36394369747E+03 -0.30327043431E+03  0.54361853064E+03  0.00000000000E+00 0. -1.
<mgrwt>
<rscale>  0 0.13518914E+04</rscale>
<asrwt>0</asrwt>
<pdfrwt beam="1">  1        2 0.81563571E-01 0.13518914E+04</pdfrwt>
<pdfrwt beam="2">  1       -1 0.13258692E+00 0.13518914E+04</pdfrwt>
<totfact> 0.30976552E+01</totfact>
</mgrwt>
</event>
<event>
12    7  0.1711607E-007  0.1483554E+04  0.7818608E-02  0.8895464E-01
         -1   -1    0    0    0  501 -0.00000000000E+00  0.00000000000E+00  0.33954215392E+03  0.33954215392E+03  0.00000000000E+00 0.  1.
          2   -1    0    0  501    0  0.00000000000E+00 -0.00000000000E+00 -0.16205146176E+04  0.16205146176E+04  0.00000000000E+00 0. -1.
         24    2    1    2    0    0 -0.40776913297E+03 -0.16022625916E+03 -0.22006626239E+03  0.49955657053E+03  0.95809641415E+02 0.  0.
        254    2    1    2    0    0  0.40776913297E+03  0.16022625916E+03 -0.10609062013E+04  0.14605002010E+04  0.90310063076E+03 0.  0.
         23    2    4    4    0    0 -0.11257473547E+03  0.39784512130E+03 -0.41568614593E+03  0.59342866371E+03  0.91699484159E+02 0.  0.
         23    2    4    4    0    0  0.52034386844E+03 -0.23761886214E+03 -0.64522005540E+03  0.86707153732E+03  0.91014646483E+02 0.  0.
          4    1    3    3  502    0 -0.38228709468E+03 -0.13510185712E+03 -0.22456051115E+03  0.46349040737E+03  0.00000000000E+00 0. -1.
         -3    1    3    3    0  502 -0.25482038295E+02 -0.25124402039E+02  0.44942487562E+01  0.36066163163E+02  0.00000000000E+00 0.  1.
         13    1    5    5    0    0  0.62850429686E+00  0.16562808281E+02 -0.51671042422E+02  0.54264336915E+02  0.00000000000E+00 0. -1.
        -13    1    5    5    0    0 -0.11320323976E+03  0.38128231302E+03 -0.36401510350E+03  0.53916432680E+03  0.00000000000E+00 0.  1.
          3    1    6    6  503    0  0.16043136134E+03 -0.33686356726E+02 -0.15462848607E+03  0.22535075113E+03  0.00000000000E+00 0. -1.
         -3    1    6    6    0  503  0.35991250710E+03 -0.20393250541E+03 -0.49059156933E+03  0.64172078619E+03  0.00000000000E+00 0.  1.
<mgrwt>
<rscale>  0 0.14835539E+04</rscale>
<asrwt>0</asrwt>
<pdfrwt beam="1">  1        2 0.24930994E+00 0.14835539E+04</pdfrwt>
<pdfrwt beam="2">  1       -1 0.52237255E-01 0.14835539E+04</pdfrwt>
<totfact> 0.44181937E+01</totfact>
</mgrwt>
</event>
<event>
12    7  0.3136687E-007  0.2051767E+04  0.7818608E-02  0.8582793E-01
         -1   -1    0    0    0  501 -0.00000000000E+00  0.00000000000E+00  0.83360958782E+03  0.83360958782E+03  0.00000000000E+00 0.  1.
          2   -1    0    0  501    0  0.00000000000E+00 -0.00000000000E+00 -0.12625056867E+04  0.12625056867E+04  0.00000000000E+00 0. -1.
         24    2    1    2    0    0 -0.18801343918E+03 -0.38445283043E+03  0.54104208804E+03  0.69430826089E+03  0.78640879833E+02 0.  0.
        254    2    1    2    0    0  0.18801343918E+03  0.38445283043E+03 -0.96993818696E+03  0.14018070137E+04  0.91713128007E+03 0.  0.
         23    2    4    4    0    0 -0.10549612328E+02  0.42637736094E+03 -0.10702512582E+04  0.11560807467E+04  0.95791383071E+02 0.  0.
         23    2    4    4    0    0  0.19856305151E+03 -0.41924530510E+02  0.10031307124E+03  0.24572626692E+03  0.95570572399E+02 0.  0.
          2    1    3    3  502    0  0.28923621880E+01 -0.46225275145E+02  0.48544955091E+02  0.67095115217E+02  0.00000000000E+00 0. -1.
         -1    1    3    3    0  502 -0.19090580137E+03 -0.33822755529E+03  0.49249713294E+03  0.62721314568E+03  0.00000000000E+00 0.  1.
         13    1    5    5    0    0 -0.22735911734E+01  0.40620305642E+03 -0.10518046781E+04  0.11275190345E+04  0.00000000000E+00 0. -1.
        -13    1    5    5    0    0 -0.82760211547E+01  0.20174304521E+02 -0.18446580069E+02  0.28561712227E+02  0.00000000000E+00 0.  1.
          1    1    6    6  503    0  0.20686610599E+03 -0.48641559276E+02  0.10043361671E+03  0.23504573695E+03  0.00000000000E+00 0. -1.
         -1    1    6    6    0  503 -0.83030544763E+01  0.67170287661E+01 -0.12054547326E+00  0.10680529963E+02  0.00000000000E+00 0.  1.
<mgrwt>
<rscale>  0 0.20517669E+04</rscale>
<asrwt>0</asrwt>
<pdfrwt beam="1">  1        2 0.19423164E+00 0.20517669E+04</pdfrwt>
<pdfrwt beam="2">  1       -1 0.12824763E+00 0.20517669E+04</pdfrwt>
<totfact> 0.96258748E+00</totfact>
</mgrwt>
</event>
<event>
12    7  0.1711607E-007  0.1668160E+04  0.7818608E-02  0.8779735E-01
         -1   -1    0    0    0  501 -0.00000000000E+00  0.00000000000E+00  0.25938886918E+03  0.25938886918E+03  0.00000000000E+00 0.  1.
          2   -1    0    0  501    0  0.00000000000E+00 -0.00000000000E+00 -0.26820331057E+04  0.26820331057E+04  0.00000000000E+00 0. -1.
         24    2    1    2    0    0 -0.25563363449E+03 -0.12661098330E+01 -0.18132132276E+04  0.18335696208E+04  0.94261272844E+02 0.  0.
        254    2    1    2    0    0  0.25563363449E+03  0.12661098330E+01 -0.60943100893E+03  0.11078523541E+04  0.88914595294E+03 0.  0.
         23    2    4    4    0    0  0.43522029713E+02 -0.39094816094E+03 -0.49468856813E+03  0.63857346258E+03  0.91239553147E+02 0.  0.
         23    2    4    4    0    0  0.21211160477E+03  0.39221427078E+03 -0.11474244080E+03  0.46927889148E+03  0.90738542978E+02 0.  0.
          2    1    3    3  502    0 -0.21432791896E+03  0.58031450800E+00 -0.12019608847E+04  0.12209204568E+04  0.00000000000E+00 0. -1.
         -1    1    3    3    0  502 -0.41305715532E+02 -0.18464243410E+01 -0.61125234292E+03  0.61264916399E+03  0.00000000000E+00 0.  1.
         13    1    5    5    0    0  0.57390064984E+02 -0.37399896604E+03 -0.44400111895E+03  0.58335738599E+03  0.00000000000E+00 0. -1.
        -13    1    5    5    0    0 -0.13868035271E+02 -0.16949194910E+02 -0.50687449180E+02  0.55216076597E+02  0.00000000000E+00 0.  1.
          3    1    6    6  503    0  0.20223312773E+03  0.33080059099E+03 -0.12245687129E+03  0.40659925514E+03  0.00000000000E+00 0. -1.
         -3    1    6    6    0  503  0.98784770473E+01  0.61413679785E+02  0.77144304947E+01  0.62679636337E+02  0.00000000000E+00 0.  1.
<mgrwt>
<rscale>  0 0.16681601E+04</rscale>
<asrwt>0</asrwt>
<pdfrwt beam="1">  1        2 0.41262047E+00 0.16681601E+04</pdfrwt>
<pdfrwt beam="2">  1       -1 0.39905981E-01 0.16681601E+04</pdfrwt>
<totfact> 0.18135910E+01</totfact>
</mgrwt>
</event>
<event>
12    7  0.1711607E-007  0.1331279E+04  0.7818608E-02  0.9005122E-01
         -1   -1    0    0    0  501 -0.00000000000E+00  0.00000000000E+00  0.64767874658E+03  0.64767874658E+03  0.00000000000E+00 0.  1.
          2   -1    0    0  501    0  0.00000000000E+00 -0.00000000000E+00 -0.68409816690E+03  0.68409816690E+03  0.00000000000E+00 0. -1.
         24    2    1    2    0    0  0.10836103536E+03 -0.14994659994E+03  0.28766465923E+03  0.35138110768E+03  0.80570651268E+02 0.  0.
        254    2    1    2    0    0 -0.10836103536E+03  0.14994659994E+03 -0.32408407955E+03  0.98039580581E+03  0.90659767736E+03 0.  0.
         23    2    4    4    0    0  0.12860292453E+03 -0.60240964867E+02  0.26049011525E+03  0.31068277168E+03  0.92200859139E+02 0.  0.
         23    2    4    4    0    0 -0.23696395989E+03  0.21018756481E+03 -0.58457419481E+03  0.66971303413E+03  0.80360613246E+02 0.  0.
          2    1    3    3  502    0  0.77567672791E+02 -0.39689018392E+02  0.13165868382E+03  0.15787960941E+03  0.00000000000E+00 0. -1.
         -1    1    3    3    0  502  0.30793362567E+02 -0.11025758155E+03  0.15600597541E+03  0.19350149826E+03  0.00000000000E+00 0.  1.
         13    1    5    5    0    0  0.18215196394E+02  0.52337859353E+01  0.11551321910E+03  0.11705763401E+03  0.00000000000E+00 0.  1.
        -13    1    5    5    0    0  0.11038772813E+03 -0.65474750803E+02  0.14497689616E+03  0.19362513766E+03  0.00000000000E+00 0. -1.
          4    1    6    6  503    0 -0.12394272826E+03  0.12376258699E+03 -0.24171445867E+03  0.29850436740E+03  0.00000000000E+00 0. -1.
         -4    1    6    6    0  503 -0.11302123163E+03  0.86424977818E+02 -0.34285973614E+03  0.37120866673E+03  0.00000000000E+00 0.  1.
<mgrwt>
<rscale>  0 0.13312788E+04</rscale>
<asrwt>0</asrwt>
<pdfrwt beam="1">  1        2 0.10524587E+00 0.13312788E+04</pdfrwt>
<pdfrwt beam="2">  1       -1 0.99642884E-01 0.13312788E+04</pdfrwt>
<totfact> 0.45308205E+01</totfact>
</mgrwt>
</event>
<event>
12    7  0.1711607E-007  0.1970695E+04  0.7818608E-02  0.8620445E-01
          2   -1    0    0  501    0  0.00000000000E+00  0.00000000000E+00  0.94644193520E+03  0.94644193520E+03  0.00000000000E+00 0. -1.
         -1   -1    0    0    0  501 -0.00000000000E+00 -0.00000000000E+00 -0.10258527010E+04  0.10258527010E+04  0.00000000000E+00 0.  1.
         24    2    1    2    0    0  0.32215189857E+03 -0.29332467377E+03 -0.65974717955E+03  0.79458021812E+03  0.79184418367E+02 0.  0.
        254    2    1    2    0    0 -0.32215189857E+03  0.29332467377E+03  0.58033641376E+03  0.11777144181E+04  0.92757732153E+03 0.  0.
         23    2    4    4    0    0  0.18089285047E+03  0.44714450188E+03  0.29823396171E+03  0.57432977681E+03  0.90833736558E+02 0.  0.
         23    2    4    4    0    0 -0.50304474904E+03 -0.15381982811E+03  0.28210245205E+03  0.60338464127E+03  0.88185445574E+02 0.  0.
          2    1    3    3  502    0  0.14465753599E+03 -0.15375399366E+03 -0.25437524387E+03  0.33056445359E+03  0.00000000000E+00 0. -1.
         -1    1    3    3    0  502  0.17749436258E+03 -0.13957068011E+03 -0.40537193569E+03  0.46401576453E+03  0.00000000000E+00 0.  1.
         13    1    5    5    0    0 -0.30699502557E+01  0.15411718255E+02 -0.38979470083E+01  0.16190727131E+02  0.00000000000E+00 0. -1.
        -13    1    5    5    0    0  0.18396280072E+03  0.43173278363E+03  0.30213190872E+03  0.55813904968E+03  0.00000000000E+00 0.  1.
          3    1    6    6  503    0 -0.41182389058E+02  0.78526642475E+01  0.37800145318E+02  0.56449131883E+02  0.00000000000E+00 0. -1.
         -3    1    6    6    0  503 -0.46186235998E+03 -0.16167249236E+03  0.24430230673E+03  0.54693550938E+03  0.00000000000E+00 0.  1.
<mgrwt>
<rscale>  0 0.19706953E+04</rscale>
<asrwt>0</asrwt>
<pdfrwt beam="1">  1        2 0.14560645E+00 0.19706953E+04</pdfrwt>
<pdfrwt beam="2">  1       -1 0.15782349E+00 0.19706953E+04</pdfrwt>
<totfact> 0.88053469E+00</totfact>
</mgrwt>
</event>
<event>
12    7  0.1711607E-007  0.2131741E+04  0.7818608E-02  0.8547389E-01
         -1   -1    0    0    0  501 -0.00000000000E+00  0.00000000000E+00  0.59970215958E+03  0.59970215958E+03  0.00000000000E+00 0.  1.
          2   -1    0    0  501    0  0.00000000000E+00 -0.00000000000E+00 -0.18944072477E+04  0.18944072477E+04  0.00000000000E+00 0. -1.
         24    2    1    2    0    0  0.76476221936E+03  0.54392025555E+02 -0.10273418103E+04  0.12844101884E+04  0.80365366905E+02 0.  0.
        254    2    1    2    0    0 -0.76476221936E+03 -0.54392025555E+02 -0.26736327779E+03  0.12096992189E+04  0.89669913196E+03 0.  0.
         23    2    4    4    0    0 -0.66244966199E+03 -0.10316591374E+03  0.21313681988E+03  0.70805918124E+03  0.80235526527E+02 0.  0.
         23    2    4    4    0    0 -0.10231255736E+03  0.48773888181E+02 -0.48050009768E+03  0.50164003764E+03  0.88969837212E+02 0.  0.
          4    1    3    3  502    0  0.67453309365E+03  0.73909892743E+02 -0.90237377259E+03  0.11290420684E+04  0.00000000000E+00 0. -1.
         -3    1    3    3    0  502  0.90229125703E+02 -0.19517867188E+02 -0.12496803771E+03  0.15536812001E+03  0.00000000000E+00 0.  1.
         13    1    5    5    0    0 -0.76650269018E+02  0.13814026559E+00  0.49060785742E+02  0.91006832276E+02  0.00000000000E+00 0.  1.
        -13    1    5    5    0    0 -0.58579939298E+03 -0.10330405400E+03  0.16407603414E+03  0.61705234896E+03  0.00000000000E+00 0. -1.
          3    1    6    6  503    0 -0.10685475482E+03  0.60643007111E+02 -0.46783015533E+03  0.48369470451E+03  0.00000000000E+00 0. -1.
         -3    1    6    6    0  503  0.45421974600E+01 -0.11869118929E+02 -0.12669942350E+02  0.17945333128E+02  0.00000000000E+00 0.  1.
<mgrwt>
<rscale>  0 0.21317412E+04</rscale>
<asrwt>0</asrwt>
<pdfrwt beam="1">  1        2 0.29144727E+00 0.21317412E+04</pdfrwt>
<pdfrwt beam="2">  1       -1 0.92261870E-01 0.21317412E+04</pdfrwt>
<totfact> 0.91488532E+00</totfact>
</mgrwt>
</event>
<event>
12    7  0.1711607E-007  0.1783104E+04  0.7818608E-02  0.8715336E-01
          2   -1    0    0  501    0  0.00000000000E+00  0.00000000000E+00  0.85256913658E+03  0.85256913658E+03  0.00000000000E+00 0. -1.
         -1   -1    0    0    0  501 -0.00000000000E+00 -0.00000000000E+00 -0.93231774334E+03  0.93231774334E+03  0.00000000000E+00 0.  1.
         24    2    1    2    0    0 -0.43260233338E+03 -0.49710004295E+03 -0.82628341464E+02  0.67000391943E+03  0.88456642984E+02 0.  0.
        254    2    1    2    0    0  0.43260233338E+03  0.49710004295E+03  0.28797346965E+01  0.11148829605E+04  0.89927887287E+03 0.  0.
         23    2    4    4    0    0  0.43855590410E+03  0.68543775442E+03  0.18221321098E+03  0.83887136305E+03  0.91363632143E+02 0.  0.
         23    2    4    4    0    0 -0.59535707270E+01 -0.18833771147E+03 -0.17933347628E+03  0.27601159745E+03  0.92278749700E+02 0.  0.
          2    1    3    3  502    0 -0.15236548723E+01  0.37615533070E+01 -0.70274311751E+00  0.41188172259E+01  0.00000000000E+00 0. -1.
         -1    1    3    3    0  502 -0.43107867850E+03 -0.50086159626E+03 -0.81925598346E+02  0.66588510220E+03  0.00000000000E+00 0.  1.
         13    1    5    5    0    0  0.21540631812E+03  0.25432991795E+03  0.81030364300E+02  0.34300074196E+03  0.00000000000E+00 0. -1.
        -13    1    5    5    0    0  0.22314958598E+03  0.43110783647E+03  0.10118284668E+03  0.49587062108E+03  0.00000000000E+00 0.  1.
          1    1    6    6  503    0 -0.49119769952E+02 -0.10576843793E+03 -0.97600363481E+02  0.15207085590E+03  0.00000000000E+00 0. -1.
         -1    1    6    6    0  503  0.43166199225E+02 -0.82569273536E+02 -0.81733112800E+02  0.12394074155E+03  0.00000000000E+00 0.  1.
<mgrwt>
<rscale>  0 0.17831044E+04</rscale>
<asrwt>0</asrwt>
<pdfrwt beam="1">  1        2 0.13116448E+00 0.17831044E+04</pdfrwt>
<pdfrwt beam="2">  1       -1 0.14343350E+00 0.17831044E+04</pdfrwt>
<totfact> 0.13412489E+01</totfact>
</mgrwt>
</event>
<event>
12    7  0.1711607E-007  0.1421292E+04  0.7818608E-02  0.8938549E-01
          2   -1    0    0  501    0  0.00000000000E+00  0.00000000000E+00  0.64365729990E+03  0.64365729990E+03  0.00000000000E+00 0. -1.
         -1   -1    0    0    0  501 -0.00000000000E+00 -0.00000000000E+00 -0.78460604665E+03  0.78460604665E+03  0.00000000000E+00 0.  1.
         24    2    1    2    0    0 -0.51114426345E+02  0.22815010105E+03  0.31361730413E+03  0.39888109678E+03  0.78007453000E+02 0.  0.
        254    2    1    2    0    0  0.51114426345E+02 -0.22815010105E+03 -0.45456605088E+03  0.10293822498E+04  0.89349447024E+03 0.  0.
         23    2    4    4    0    0  0.45697716291E+02  0.30764001159E+03 -0.35157276460E+03  0.47619861430E+03  0.80193849179E+02 0.  0.
         23    2    4    4    0    0  0.54167100542E+01 -0.53579011264E+03 -0.10299328628E+03  0.55318363548E+03  0.91127010213E+02 0.  0.
          4    1    3    3  502    0 -0.58167384651E+02  0.23062083417E+03  0.30955113672E+03  0.39037330856E+03  0.00000000000E+00 0. -1.
         -3    1    3    3    0  502  0.70529583057E+01 -0.24707331133E+01  0.40661674130E+01  0.85077882208E+01  0.00000000000E+00 0.  1.
         13    1    5    5    0    0  0.36287656886E+02  0.22719583736E+03 -0.30733087528E+03  0.38391015806E+03  0.00000000000E+00 0. -1.
        -13    1    5    5    0    0  0.94100594055E+01  0.80444174225E+02 -0.44241889316E+02  0.92288456239E+02  0.00000000000E+00 0.  1.
          3    1    6    6  503    0  0.35106012084E+02 -0.46715523259E+03 -0.94653141948E+02  0.47793897173E+03  0.00000000000E+00 0. -1.
         -3    1    6    6    0  503 -0.29689302030E+02 -0.68634880054E+02 -0.83401443316E+01  0.75244663747E+02  0.00000000000E+00 0.  1.
<mgrwt>
<rscale>  0 0.14212915E+04</rscale>
<asrwt>0</asrwt>
<pdfrwt beam="1">  1        2 0.99024200E-01 0.14212915E+04</pdfrwt>
<pdfrwt beam="2">  1       -1 0.12070862E+00 0.14212915E+04</pdfrwt>
<totfact> 0.30844257E+01</totfact>
</mgrwt>
</event>
<event>
12    7  0.1711607E-007  0.1212311E+04  0.7818608E-02  0.9102149E-01
         -1   -1    0    0    0  501 -0.00000000000E+00  0.00000000000E+00  0.27144181798E+03  0.27144181798E+03  0.00000000000E+00 0.  1.
          2   -1    0    0  501    0  0.00000000000E+00 -0.00000000000E+00 -0.13536020731E+04  0.13536020731E+04  0.00000000000E+00 0. -1.
         24    2    1    2    0    0 -0.14976827432E+03  0.24271411662E+02 -0.53569951005E+03  0.56211395794E+03  0.77320755449E+02 0.  0.
        254    2    1    2    0    0  0.14976827432E+03 -0.24271411662E+02 -0.54646074506E+03  0.10629299331E+04  0.89898890952E+03 0.  0.
         23    2    4    4    0    0  0.45132705522E+03 -0.19523295153E+03 -0.48792598051E+03  0.69854846629E+03  0.89923195917E+02 0.  0.
         23    2    4    4    0    0 -0.30155878090E+03  0.17096153987E+03 -0.58534764551E+02  0.36438146684E+03  0.95822691803E+02 0.  0.
          2    1    3    3  502    0 -0.22053580111E+02  0.30096835046E+02 -0.18771666855E+03  0.19138894306E+03  0.00000000000E+00 0. -1.
         -1    1    3    3    0  502 -0.12771469421E+03 -0.58254233846E+01 -0.34798284150E+03  0.37072501488E+03  0.00000000000E+00 0.  1.
         13    1    5    5    0    0  0.19273950873E+03 -0.50803214787E+02 -0.24240294767E+03  0.31382905203E+03  0.00000000000E+00 0. -1.
        -13    1    5    5    0    0  0.25858754649E+03 -0.14442973674E+03 -0.24552303284E+03  0.38471941426E+03  0.00000000000E+00 0.  1.
          3    1    6    6  503    0 -0.23568798049E+03  0.14417688786E+03 -0.84118573429E+02  0.28881089581E+03  0.00000000000E+00 0. -1.
         -3    1    6    6    0  503 -0.65870800411E+02  0.26784652008E+02  0.25583808879E+02  0.75570571036E+02  0.00000000000E+00 0.  1.
<mgrwt>
<rscale>  0 0.12123105E+04</rscale>
<asrwt>0</asrwt>
<pdfrwt beam="1">  1        2 0.20824647E+00 0.12123105E+04</pdfrwt>
<pdfrwt beam="2">  1       -1 0.41760280E-01 0.12123105E+04</pdfrwt>
<totfact> 0.97243956E+01</totfact>
</mgrwt>
</event>
<event>
12    7  0.1711607E-007  0.1374938E+04  0.7818608E-02  0.8972162E-01
          2   -1    0    0  501    0  0.00000000000E+00  0.00000000000E+00  0.23396489337E+04  0.23396489337E+04  0.00000000000E+00 0. -1.
         -1   -1    0    0    0  501 -0.00000000000E+00 -0.00000000000E+00 -0.20200200035E+03  0.20200200035E+03  0.00000000000E+00 0.  1.
         24    2    1    2    0    0  0.31804832715E+03 -0.16904830120E+03  0.34148243675E+03  0.50282549958E+03  0.80567747135E+02 0.  0.
        254    2    1    2    0    0 -0.31804832715E+03  0.16904830120E+03  0.17961644966E+04  0.20388254345E+04  0.89491350803E+03 0.  0.
         23    2    4    4    0    0  0.20629935185E+03 -0.49196448683E+01  0.93500880861E+02  0.24647091092E+03  0.97066316133E+02 0.  0.
         23    2    4    4    0    0 -0.52434767899E+03  0.17396794607E+03  0.17026636158E+04  0.17923545236E+04  0.90917627528E+02 0.  0.
          4    1    3    3  502    0  0.27552477094E+02  0.81273009818E+01  0.23600796157E+02  0.37177810513E+02  0.00000000000E+00 0. -1.
         -3    1    3    3    0  502  0.29049585005E+03 -0.17717560219E+03  0.31788164059E+03  0.46564768907E+03  0.00000000000E+00 0.  1.
         13    1    5    5    0    0  0.76381537002E+02 -0.41326354809E+02  0.90900196119E+01  0.87319157424E+02  0.00000000000E+00 0.  1.
        -13    1    5    5    0    0  0.12991781485E+03  0.36406709941E+02  0.84410861249E+02  0.15915175349E+03  0.00000000000E+00 0. -1.
          3    1    6    6  503    0 -0.26603550371E+03  0.44040679138E+02  0.87739109746E+03  0.91789411620E+03  0.00000000000E+00 0. -1.
         -3    1    6    6    0  503 -0.25831217528E+03  0.12992726693E+03  0.82527251832E+03  0.87446040739E+03  0.00000000000E+00 0.  1.
<mgrwt>
<rscale>  0 0.13749382E+04</rscale>
<asrwt>0</asrwt>
<pdfrwt beam="1">  1        2 0.35994597E+00 0.13749382E+04</pdfrwt>
<pdfrwt beam="2">  1       -1 0.31077232E-01 0.13749382E+04</pdfrwt>
<totfact> 0.45955157E+01</totfact>
</mgrwt>
</event>
<event>
12    7  0.1711607E-007  0.1886863E+04  0.7818608E-02  0.8661423E-01
          2   -1    0    0  501    0  0.00000000000E+00  0.00000000000E+00  0.33265301719E+04  0.33265301719E+04  0.00000000000E+00 0. -1.
         -1   -1    0    0    0  501 -0.00000000000E+00 -0.00000000000E+00 -0.26756503895E+03  0.26756503895E+03  0.00000000000E+00 0.  1.
         24    2    1    2    0    0 -0.48297992107E+02  0.67220228349E+03  0.68301250787E+03  0.96289772286E+03  0.80481878715E+02 0.  0.
        254    2    1    2    0    0  0.48297992107E+02 -0.67220228349E+03  0.23759526251E+04  0.26311974880E+04  0.90766774661E+03 0.  0.
         23    2    4    4    0    0  0.59094882657E+01 -0.47713299370E+03  0.23618043450E+04  0.24112459971E+04  0.91086107797E+02 0.  0.
         23    2    4    4    0    0  0.42388503842E+02 -0.19506928979E+03  0.14148280161E+02  0.21995149091E+03  0.91267033726E+02 0.  0.
          2    1    3    3  502    0 -0.68686538707E+01  0.58039432418E+01  0.20691236906E+01  0.92274284607E+01  0.00000000000E+00 0. -1.
         -1    1    3    3    0  502 -0.41429338237E+02  0.66639834025E+03  0.68094338418E+03  0.95367029440E+03  0.00000000000E+00 0.  1.
         13    1    5    5    0    0  0.36942188149E+02 -0.30054432842E+03  0.13355339109E+04  0.13694314315E+04  0.00000000000E+00 0. -1.
        -13    1    5    5    0    0 -0.31032699883E+02 -0.17658866529E+03  0.10262704341E+04  0.10418145656E+04  0.00000000000E+00 0.  1.
          3    1    6    6  503    0  0.19614529556E+02 -0.13535151340E+03 -0.32805693509E+02  0.14064485585E+03  0.00000000000E+00 0. -1.
         -3    1    6    6    0  503  0.22773974286E+02 -0.59717776388E+02  0.46953973670E+02  0.79306635062E+02  0.00000000000E+00 0.  1.
<mgrwt>
<rscale>  0 0.18868632E+04</rscale>
<asrwt>0</asrwt>
<pdfrwt beam="1">  1        2 0.51177384E+00 0.18868632E+04</pdfrwt>
<pdfrwt beam="2">  1       -1 0.41163854E-01 0.18868632E+04</pdfrwt>
<totfact> 0.66297750E+00</totfact>
</mgrwt>
</event>
<event>
12    7  0.1711607E-007  0.1019786E+04  0.7818608E-02  0.9287106E-01
          2   -1    0    0  501    0  0.00000000000E+00  0.00000000000E+00  0.21676405827E+04  0.21676405827E+04  0.00000000000E+00 0. -1.
         -1   -1    0    0    0  501 -0.00000000000E+00 -0.00000000000E+00 -0.11994183369E+03  0.11994183369E+03  0.00000000000E+00 0.  1.
         24    2    1    2    0    0 -0.22147134783E+01 -0.68532854371E+02  0.33744829127E+03  0.35349015101E+03  0.79889176317E+02 0.  0.
        254    2    1    2    0    0  0.22147134783E+01  0.68532854371E+02  0.17102504577E+04  0.19340922654E+04  0.90058570151E+03 0.  0.
         23    2    4    4    0    0 -0.39823193162E+03  0.87605763774E+02  0.47523396385E+03  0.63242985344E+03  0.88638354669E+02 0.  0.
         23    2    4    4    0    0  0.40044664510E+03 -0.19072909403E+02  0.12350164939E+04  0.13016624119E+04  0.91312666511E+02 0.  0.
          2    1    3    3  502    0 -0.38329126093E+02 -0.24658582777E+02  0.19199780285E+03  0.19733302793E+03  0.00000000000E+00 0. -1.
         -1    1    3    3    0  502  0.36114412615E+02 -0.43874271595E+02  0.14545048842E+03  0.15615712308E+03  0.00000000000E+00 0.  1.
         13    1    5    5    0    0 -0.12608410550E+03  0.62051963002E+02  0.12437893502E+03  0.18766397429E+03  0.00000000000E+00 0.  1.
        -13    1    5    5    0    0 -0.27214782612E+03  0.25553800772E+02  0.35085502883E+03  0.44476587914E+03  0.00000000000E+00 0. -1.
          2    1    6    6  503    0  0.23324958766E+03 -0.50995573568E+02  0.78607091312E+03  0.82153113095E+03  0.00000000000E+00 0. -1.
         -2    1    6    6    0  503  0.16719705743E+03  0.31922664165E+02  0.44894558073E+03  0.48013128097E+03  0.00000000000E+00 0.  1.
<mgrwt>
<rscale>  0 0.10197858E+04</rscale>
<asrwt>0</asrwt>
<pdfrwt beam="1">  1        2 0.33348314E+00 0.10197858E+04</pdfrwt>
<pdfrwt beam="2">  1       -1 0.18452591E-01 0.10197858E+04</pdfrwt>
<totfact> 0.14395454E+02</totfact>
</mgrwt>
</event>
<event>
12    7  0.1711607E-007  0.2610780E+04  0.7818608E-02  0.8364549E-01
         -1   -1    0    0    0  501 -0.00000000000E+00  0.00000000000E+00  0.37967675303E+03  0.37967675303E+03  0.00000000000E+00 0.  1.
          2   -1    0    0  501    0  0.00000000000E+00 -0.00000000000E+00 -0.44881413012E+04  0.44881413012E+04  0.00000000000E+00 0. -1.
         24    2    1    2    0    0  0.55807290456E+03 -0.58305344239E+03 -0.33246571916E+04  0.34221115650E+04  0.78137304068E+02 0.  0.
        254    2    1    2    0    0 -0.55807290456E+03  0.58305344239E+03 -0.78380735650E+03  0.14457064891E+04  0.90791882741E+03 0.  0.
         23    2    4    4    0    0 -0.39842967933E+03 -0.13886243686E+03 -0.12209774494E+03  0.44852331330E+03  0.90754159719E+02 0.  0.
         23    2    4    4    0    0 -0.15964322523E+03  0.72191587925E+03 -0.66170961156E+03  0.99718317585E+03  0.99328646866E+02 0.  0.
          4    1    3    3  502    0  0.27874382784E+03 -0.26493331009E+03 -0.17288360969E+04  0.17710906330E+04  0.00000000000E+00 0. -1.
         -3    1    3    3    0  502  0.27932907673E+03 -0.31812013230E+03 -0.15958210948E+04  0.16510209321E+04  0.00000000000E+00 0.  1.
         13    1    5    5    0    0 -0.33322991407E+03 -0.13858553289E+03 -0.12830581119E+03  0.38302807566E+03  0.00000000000E+00 0.  1.
        -13    1    5    5    0    0 -0.65199765263E+02 -0.27690396508E+00  0.62080662540E+01  0.65495237634E+02  0.00000000000E+00 0. -1.
          1    1    6    6  503    0  0.54183637870E+01  0.71718151743E+02 -0.94135380516E+02  0.11846654304E+03  0.00000000000E+00 0. -1.
         -1    1    6    6    0  503 -0.16506158901E+03  0.65019772750E+03 -0.56757423105E+03  0.87871663280E+03  0.00000000000E+00 0.  1.
<mgrwt>
<rscale>  0 0.26107799E+04</rscale>
<asrwt>0</asrwt>
<pdfrwt beam="1">  1        2 0.69048330E+00 0.26107799E+04</pdfrwt>
<pdfrwt beam="2">  1       -1 0.58411806E-01 0.26107799E+04</pdfrwt>
<totfact> 0.37879315E-01</totfact>
</mgrwt>
</event>
<event>
12    7  0.1711607E-007  0.1652240E+04  0.7818608E-02  0.8789082E-01
         -1   -1    0    0    0  501 -0.00000000000E+00  0.00000000000E+00  0.27831095996E+03  0.27831095996E+03  0.00000000000E+00 0.  1.
          2   -1    0    0  501    0  0.00000000000E+00 -0.00000000000E+00 -0.24522018659E+04  0.24522018659E+04  0.00000000000E+00 0. -1.
         24    2    1    2    0    0  0.13988105694E+03 -0.24265410611E+03  0.62385751520E+02  0.30318030341E+03  0.97870266587E+02 0.  0.
        254    2    1    2    0    0 -0.13988105694E+03  0.24265410611E+03 -0.22362766575E+04  0.24273325225E+04  0.90142229868E+03 0.  0.
         23    2    4    4    0    0 -0.37618731417E+02 -0.16258963259E+03 -0.18213277500E+04  0.18313453275E+04  0.93489990217E+02 0.  0.
         23    2    4    4    0    0 -0.10226232552E+03  0.40524373870E+03 -0.41494890749E+03  0.59598719492E+03  0.91313031415E+02 0.  0.
          4    1    3    3  502    0 -0.88168964367E+01 -0.30444000944E+02  0.27033308135E+02  0.41657827655E+02  0.00000000000E+00 0. -1.
         -3    1    3    3    0  502  0.14869795337E+03 -0.21221010517E+03  0.35352443385E+02  0.26152247576E+03  0.00000000000E+00 0.  1.
         13    1    5    5    0    0 -0.37524338035E+02 -0.17482609238E+03 -0.17253338939E+04  0.17345746694E+04  0.00000000000E+00 0. -1.
        -13    1    5    5    0    0 -0.94393381864E-01  0.12236459788E+02 -0.95993856123E+02  0.96770658113E+02  0.00000000000E+00 0.  1.
          4    1    6    6  503    0 -0.81585118087E+02  0.20193487434E+03 -0.26217433581E+03  0.34083604170E+03  0.00000000000E+00 0. -1.
         -4    1    6    6    0  503 -0.20677207433E+02  0.20330886437E+03 -0.15277457168E+03  0.25515115322E+03  0.00000000000E+00 0.  1.
<mgrwt>
<rscale>  0 0.16522405E+04</rscale>
<asrwt>0</asrwt>
<pdfrwt beam="1">  1        2 0.37726185E+00 0.16522405E+04</pdfrwt>
<pdfrwt beam="2">  1       -1 0.42817068E-01 0.16522405E+04</pdfrwt>
<totfact> 0.21714089E+01</totfact>
</mgrwt>
</event>
<event>
12    7  0.1711607E-007  0.2243195E+04  0.7818608E-02  0.8500661E-01
          2   -1    0    0  501    0  0.00000000000E+00  0.00000000000E+00  0.16501402518E+04  0.16501402518E+04  0.00000000000E+00 0. -1.
         -1   -1    0    0    0  501 -0.00000000000E+00 -0.00000000000E+00 -0.76234804713E+03  0.76234804713E+03  0.00000000000E+00 0.  1.
         24    2    1    2    0    0  0.52557630768E+03 -0.30757898159E+03 -0.39219029144E+03  0.72876049864E+03  0.80270508729E+02 0.  0.
        254    2    1    2    0    0 -0.52557630768E+03  0.30757898159E+03  0.12799824961E+04  0.16837278003E+04  0.90870723007E+03 0.  0.
         23    2    4    4    0    0 -0.39132479293E+03 -0.18319051704E+03  0.10055704535E+04  0.10983405821E+04  0.92120780042E+02 0.  0.
         23    2    4    4    0    0 -0.13425151476E+03  0.49076949863E+03  0.27441204258E+03  0.58538721821E+03  0.92184901854E+02 0.  0.
          4    1    3    3  502    0  0.75396426617E+02 -0.55305652604E+02 -0.29647544046E+02  0.98093390320E+02  0.00000000000E+00 0. -1.
         -3    1    3    3    0  502  0.45017988107E+03 -0.25227332899E+03 -0.36254274739E+03  0.63066710832E+03  0.00000000000E+00 0.  1.
         13    1    5    5    0    0 -0.97336428521E+01  0.10031305641E+02  0.28088361394E+02  0.31373985112E+02  0.00000000000E+00 0. -1.
        -13    1    5    5    0    0 -0.38159115007E+03 -0.19322182268E+03  0.97748209215E+03  0.10669665970E+04  0.00000000000E+00 0.  1.
          2    1    6    6  503    0 -0.85656444903E+01  0.10634344045E+03  0.22920260168E+02  0.10912211471E+03  0.00000000000E+00 0. -1.
         -2    1    6    6    0  503 -0.12568587027E+03  0.38442605819E+03  0.25149178241E+03  0.47626510351E+03  0.00000000000E+00 0.  1.
<mgrwt>
<rscale>  0 0.22431952E+04</rscale>
<asrwt>0</asrwt>
<pdfrwt beam="1">  1        2 0.25386773E+00 0.22431952E+04</pdfrwt>
<pdfrwt beam="2">  1       -1 0.11728432E+00 0.22431952E+04</pdfrwt>
<totfact> 0.70990391E+00</totfact>
</mgrwt>
</event>
<event>
12    7  0.1711607E-007  0.1789026E+04  0.7818608E-02  0.8712157E-01
         -1   -1    0    0    0  501 -0.00000000000E+00  0.00000000000E+00  0.61004371612E+03  0.61004371612E+03  0.00000000000E+00 0.  1.
          2   -1    0    0  501    0  0.00000000000E+00 -0.00000000000E+00 -0.13116337714E+04  0.13116337714E+04  0.00000000000E+00 0. -1.
         24    2    1    2    0    0  0.29581190122E+03 -0.54069449271E+02  0.37143273694E+03  0.48428632773E+03  0.78375907683E+02 0.  0.
        254    2    1    2    0    0 -0.29581190122E+03  0.54069449271E+02 -0.10730227922E+04  0.14373911598E+04  0.90790266401E+03 0.  0.
         23    2    4    4    0    0 -0.29618704851E+03  0.40853346857E+03 -0.33407064699E+03  0.61222412040E+03  0.92675853228E+02 0.  0.
         23    2    4    4    0    0  0.37514729113E+00 -0.35446401930E+03 -0.73895214521E+03  0.82516703935E+03  0.95945235511E+02 0.  0.
          2    1    3    3  502    0  0.36617321609E+02 -0.26454554011E+02  0.28042570836E+02  0.53170080392E+02  0.00000000000E+00 0. -1.
         -1    1    3    3    0  502  0.25919457961E+03 -0.27614895260E+02  0.34339016611E+03  0.43111624734E+03  0.00000000000E+00 0.  1.
         13    1    5    5    0    0 -0.11369666617E+03  0.22655612180E+03 -0.19157904816E+03  0.31773753307E+03  0.00000000000E+00 0.  1.
        -13    1    5    5    0    0 -0.18249038234E+03  0.18197734677E+03 -0.14249159883E+03  0.29448658734E+03  0.00000000000E+00 0. -1.
          2    1    6    6  503    0  0.38528301096E+01 -0.12827468612E+03 -0.37794877816E+03  0.39914222817E+03  0.00000000000E+00 0. -1.
         -2    1    6    6    0  503 -0.34776828185E+01 -0.22618933318E+03 -0.36100336705E+03  0.42602481118E+03  0.00000000000E+00 0.  1.
<mgrwt>
<rscale>  0 0.17890265E+04</rscale>
<asrwt>0</asrwt>
<pdfrwt beam="1">  1        2 0.20178981E+00 0.17890265E+04</pdfrwt>
<pdfrwt beam="2">  1       -1 0.93852882E-01 0.17890265E+04</pdfrwt>
<totfact> 0.19291060E+01</totfact>
</mgrwt>
</event>
<event>
12    7  0.1711607E-007  0.2253648E+04  0.7818608E-02  0.8496424E-01
          2   -1    0    0  501    0  0.00000000000E+00  0.00000000000E+00  0.83882228640E+03  0.83882228640E+03  0.00000000000E+00 0. -1.
         -1   -1    0    0    0  501 -0.00000000000E+00 -0.00000000000E+00 -0.15137090522E+04  0.15137090522E+04  0.00000000000E+00 0.  1.
         24    2    1    2    0    0 -0.91346484534E+03 -0.23557553899E+03 -0.32620996101E+03  0.10013226785E+04  0.79500374588E+02 0.  0.
        254    2    1    2    0    0  0.91346484534E+03  0.23557553899E+03 -0.34867680480E+03  0.13512086601E+04  0.90237213539E+03 0.  0.
         23    2    4    4    0    0  0.90268328085E+03 -0.29669328444E+01  0.14295294687E+02  0.90733105728E+03  0.90550449107E+02 0.  0.
         23    2    4    4    0    0  0.10781564490E+02  0.23854247183E+03 -0.36297209948E+03  0.44387760284E+03  0.90883597525E+02 0.  0.
          2    1    3    3  502    0 -0.38416943954E+03 -0.92555564356E+02 -0.95866114074E+02  0.40662390805E+03  0.00000000000E+00 0. -1.
         -1    1    3    3    0  502 -0.52929540580E+03 -0.14301997463E+03 -0.23034384694E+03  0.59469877044E+03  0.00000000000E+00 0.  1.
         13    1    5    5    0    0  0.86247709837E+03 -0.21145532104E+02  0.19082771094E+02  0.86294729323E+03  0.00000000000E+00 0. -1.
        -13    1    5    5    0    0  0.40206182479E+02  0.18178599259E+02 -0.47874764077E+01  0.44383764047E+02  0.00000000000E+00 0.  1.
          4    1    6    6  503    0 -0.51432716903E+01 -0.55023751448E+01 -0.18859204118E+01  0.77644105838E+01  0.00000000000E+00 0.  1.
         -4    1    6    6    0  503  0.15924836180E+02  0.24404484698E+03 -0.36108617907E+03  0.43611319226E+03  0.00000000000E+00 0. -1.
<mgrwt>
<rscale>  0 0.22536485E+04</rscale>
<asrwt>0</asrwt>
<pdfrwt beam="1">  1        2 0.12904958E+00 0.22536485E+04</pdfrwt>
<pdfrwt beam="2">  1       -1 0.23287831E+00 0.22536485E+04</pdfrwt>
<totfact> 0.30305706E+00</totfact>
</mgrwt>
</event>
<event>
12    7  0.1711607E-007  0.1234485E+04  0.7818608E-02  0.9083196E-01
         -1   -1    0    0    0  501 -0.00000000000E+00  0.00000000000E+00  0.12482549173E+04  0.12482549173E+04  0.00000000000E+00 0.  1.
          2   -1    0    0  501    0  0.00000000000E+00 -0.00000000000E+00 -0.30521679092E+03  0.30521679092E+03  0.00000000000E+00 0. -1.
         24    2    1    2    0    0  0.15134152879E+02 -0.15337780462E+03  0.56468141521E+03  0.59072556940E+03  0.79610326816E+02 0.  0.
        254    2    1    2    0    0 -0.15134152879E+02  0.15337780462E+03  0.37835671119E+03  0.96274613883E+03  0.87176403539E+03 0.  0.
         23    2    4    4    0    0 -0.40259315002E+03  0.11414369333E+03  0.24278274501E+02  0.42822025686E+03  0.87596384656E+02 0.  0.
         23    2    4    4    0    0  0.38745899714E+03  0.39234111286E+02  0.35407843669E+03  0.53452588197E+03  0.93180412190E+02 0.  0.
          4    1    3    3  502    0 -0.98408826669E+01 -0.60961672130E+02  0.11067912304E+03  0.12674003597E+03  0.00000000000E+00 0. -1.
         -3    1    3    3    0  502  0.24975035546E+02 -0.92416132485E+02  0.45400229217E+03  0.46398553343E+03  0.00000000000E+00 0.  1.
         13    1    5    5    0    0 -0.11226157818E+03  0.50065398272E+02  0.43225665034E+02  0.13029836590E+03  0.00000000000E+00 0.  1.
        -13    1    5    5    0    0 -0.29033157184E+03  0.64078295058E+02 -0.18947390533E+02  0.29792189096E+03  0.00000000000E+00 0. -1.
          3    1    6    6  503    0  0.23055184395E+03  0.41408086150E+02  0.26652932389E+03  0.35483328880E+03  0.00000000000E+00 0. -1.
         -3    1    6    6    0  503  0.15690715319E+03 -0.21739748642E+01  0.87549112796E+02  0.17969259317E+03  0.00000000000E+00 0.  1.
<mgrwt>
<rscale>  0 0.12344851E+04</rscale>
<asrwt>0</asrwt>
<pdfrwt beam="1">  1        2 0.46956430E-01 0.12344851E+04</pdfrwt>
<pdfrwt beam="2">  1       -1 0.19203922E+00 0.12344851E+04</pdfrwt>
<totfact> 0.20770837E+01</totfact>
</mgrwt>
</event>
<event>
12    7  0.2546794E-007  0.1432111E+04  0.7818608E-02  0.8930898E-01
         -1   -1    0    0    0  501 -0.00000000000E+00  0.00000000000E+00  0.38838343369E+03  0.38838343369E+03  0.00000000000E+00 0.  1.
          2   -1    0    0  501    0  0.00000000000E+00 -0.00000000000E+00 -0.13201780783E+04  0.13201780783E+04  0.00000000000E+00 0. -1.
         24    2    1    2    0    0  0.15928552585E+03  0.16216774528E+03  0.14336023558E+03  0.28106136316E+03  0.82298702067E+02 0.  0.
        254    2    1    2    0    0 -0.15928552585E+03 -0.16216774528E+03 -0.10751548802E+04  0.14275001488E+04  0.91111382504E+03 0.  0.
         23    2    4    4    0    0 -0.18947013236E+03 -0.18536031612E+03 -0.12204649691E+04  0.12521514595E+04  0.89950869062E+02 0.  0.
         23    2    4    4    0    0  0.30184606513E+02  0.23192570838E+02  0.14531008893E+03  0.17534868934E+03  0.90460682588E+02 0.  0.
          4    1    3    3  502    0 -0.55793805883E+01 -0.32420138383E+01 -0.96444425518E+00  0.65245914967E+01  0.00000000000E+00 0. -1.
         -3    1    3    3    0  502  0.16486490644E+03  0.16540975912E+03  0.14432467983E+03  0.27453677166E+03  0.00000000000E+00 0.  1.
         13    1    5    5    0    0 -0.19207035356E+03 -0.18715469540E+03 -0.12197888856E+04  0.12489206645E+04  0.00000000000E+00 0. -1.
        -13    1    5    5    0    0  0.26002211954E+01  0.17943792764E+01 -0.67608345114E+00  0.32307949619E+01  0.00000000000E+00 0.  1.
          1    1    6    6  503    0  0.40325301310E+02  0.10459064556E+01  0.14550175199E+03  0.15099001185E+03  0.00000000000E+00 0. -1.
         -1    1    6    6    0  503 -0.10140694797E+02  0.22146664383E+02 -0.19166305773E+00  0.24358677488E+02  0.00000000000E+00 0.  1.
<mgrwt>
<rscale>  0 0.14321107E+04</rscale>
<asrwt>0</asrwt>
<pdfrwt beam="1">  1        2 0.20310432E+00 0.14321107E+04</pdfrwt>
<pdfrwt beam="2">  1       -1 0.59751296E-01 0.14321107E+04</pdfrwt>
<totfact> 0.50573477E+01</totfact>
</mgrwt>
</event>
<event>
12    7  0.1711607E-007  0.1634225E+04  0.7818608E-02  0.8799794E-01
         -1   -1    0    0    0  501 -0.00000000000E+00  0.00000000000E+00  0.30044618051E+03  0.30044618051E+03  0.00000000000E+00 0.  1.
          2   -1    0    0  501    0  0.00000000000E+00 -0.00000000000E+00 -0.22222702965E+04  0.22222702965E+04  0.00000000000E+00 0. -1.
         24    2    1    2    0    0  0.49758014207E+03  0.17674980586E+03 -0.36411826507E+03  0.64605672669E+03  0.77334930640E+02 0.  0.
        254    2    1    2    0    0 -0.49758014207E+03 -0.17674980586E+03 -0.15577058509E+04  0.18766597503E+04  0.90364694922E+03 0.  0.
         23    2    4    4    0    0  0.67809107323E+01 -0.19409224342E+03 -0.12693335053E+04  0.12880781427E+04  0.10109388887E+03 0.  0.
         23    2    4    4    0    0 -0.50436105280E+03  0.17342437565E+02 -0.28837234562E+03  0.58858160760E+03  0.92676142392E+02 0.  0.
          4    1    3    3  502    0  0.37496404143E+02  0.14529436867E+02 -0.55116029601E+01  0.40588947099E+02  0.00000000000E+00 0. -1.
         -3    1    3    3    0  502  0.46008373792E+03  0.16222036899E+03 -0.35860666211E+03  0.60546777959E+03  0.00000000000E+00 0.  1.
         13    1    5    5    0    0 -0.37866358035E+02 -0.40742279839E+02 -0.23546157186E+03  0.24194203079E+03  0.00000000000E+00 0.  1.
        -13    1    5    5    0    0  0.44647268767E+02 -0.15334996358E+03 -0.10338719334E+04  0.10461361119E+04  0.00000000000E+00 0. -1.
          1    1    6    6  503    0 -0.31473573467E+03  0.15504687573E+02 -0.23013469903E+03  0.39020630148E+03  0.00000000000E+00 0. -1.
         -1    1    6    6    0  503 -0.18962531813E+03  0.18377499920E+01 -0.58237646595E+02  0.19837530613E+03  0.00000000000E+00 0.  1.
<mgrwt>
<rscale>  0 0.16342247E+04</rscale>
<asrwt>0</asrwt>
<pdfrwt beam="1">  1        2 0.34188773E+00 0.16342247E+04</pdfrwt>
<pdfrwt beam="2">  1       -1 0.46222490E-01 0.16342247E+04</pdfrwt>
<totfact> 0.25469448E+01</totfact>
</mgrwt>
</event>
<event>
12    7  0.1711607E-007  0.2651176E+04  0.7818608E-02  0.8351023E-01
         -1   -1    0    0    0  501 -0.00000000000E+00  0.00000000000E+00  0.15781631593E+04  0.15781631593E+04  0.00000000000E+00 0.  1.
          2   -1    0    0  501    0  0.00000000000E+00 -0.00000000000E+00 -0.11134355862E+04  0.11134355862E+04  0.00000000000E+00 0. -1.
         24    2    1    2    0    0  0.33006417527E+03  0.86135970583E+03 -0.52439389215E+03  0.10640594219E+04  0.79690630011E+02 0.  0.
        254    2    1    2    0    0 -0.33006417527E+03 -0.86135970583E+03  0.98912146520E+03  0.16275393236E+04  0.90533975638E+03 0.  0.
         23    2    4    4    0    0  0.15022865724E+03  0.10154423759E+03  0.22966888989E+03  0.30741183901E+03  0.94203811700E+02 0.  0.
         23    2    4    4    0    0 -0.48029283251E+03 -0.96290394342E+03  0.75945257532E+03  0.13201274846E+04  0.90017511269E+02 0.  0.
          4    1    3    3  502    0  0.23187303032E+03  0.69062691521E+03 -0.39983391825E+03  0.83102214193E+03  0.00000000000E+00 0. -1.
         -3    1    3    3    0  502  0.98191144951E+02  0.17073279062E+03 -0.12455997390E+03  0.23303727993E+03  0.00000000000E+00 0.  1.
         13    1    5    5    0    0  0.43644455194E+02  0.66502797417E+02  0.45166694966E+02  0.91473990115E+02  0.00000000000E+00 0. -1.
        -13    1    5    5    0    0  0.10658420204E+03  0.35041440172E+02  0.18450219492E+03  0.21593784890E+03  0.00000000000E+00 0.  1.
          3    1    6    6  503    0 -0.29992131322E+03 -0.62959393267E+03  0.54159724769E+03  0.88298861424E+03  0.00000000000E+00 0. -1.
         -3    1    6    6    0  503 -0.18037151929E+03 -0.33331001074E+03  0.21785532763E+03  0.43713887039E+03  0.00000000000E+00 0.  1.
<mgrwt>
<rscale>  0 0.26511756E+04</rscale>
<asrwt>0</asrwt>
<pdfrwt beam="1">  1        2 0.17129778E+00 0.26511756E+04</pdfrwt>
<pdfrwt beam="2">  1       -1 0.24279433E+00 0.26511756E+04</pdfrwt>
<totfact> 0.16676238E+00</totfact>
</mgrwt>
</event>
<event>
12    7  0.1711607E-007  0.1923540E+04  0.7818608E-02  0.8643227E-01
          2   -1    0    0  501    0  0.00000000000E+00  0.00000000000E+00  0.28961848180E+04  0.28961848180E+04  0.00000000000E+00 0. -1.
         -1   -1    0    0    0  501 -0.00000000000E+00 -0.00000000000E+00 -0.31938632564E+03  0.31938632564E+03  0.00000000000E+00 0.  1.
         24    2    1    2    0    0  0.14074747848E+03 -0.72742374517E+03  0.11943270149E+04  0.14076976167E+04  0.78996226482E+02 0.  0.
        254    2    1    2    0    0 -0.14074747848E+03  0.72742374517E+03  0.13824714775E+04  0.18078735270E+04  0.89901287292E+03 0.  0.
         23    2    4    4    0    0 -0.13307984628E+03  0.17878075382E+03 -0.71636317648E+02  0.25072956897E+03  0.89781687044E+02 0.  0.
         23    2    4    4    0    0 -0.76676321998E+01  0.54864299135E+03  0.14541077951E+04  0.15571439580E+04  0.95916116841E+02 0.  0.
          4    1    3    3  502    0  0.13618562358E+03 -0.72756800634E+03  0.11830476780E+04  0.13955298407E+04  0.00000000000E+00 0. -1.
         -3    1    3    3    0  502  0.45618549040E+01  0.14426116673E+00  0.11279336855E+02  0.12167775941E+02  0.00000000000E+00 0.  1.
         13    1    5    5    0    0 -0.13131926736E+03  0.17769323170E+03 -0.85347968587E+02  0.23686264019E+03  0.00000000000E+00 0.  1.
        -13    1    5    5    0    0 -0.17605789217E+01  0.10875221144E+01  0.13711650940E+02  0.13866928787E+02  0.00000000000E+00 0. -1.
          1    1    6    6  503    0 -0.27201894461E+02  0.74534923842E+02  0.15579281102E+03  0.17483362920E+03  0.00000000000E+00 0. -1.
         -1    1    6    6    0  503  0.19534262261E+02  0.47410806751E+03  0.12983149841E+04  0.13823103288E+04  0.00000000000E+00 0.  1.
<mgrwt>
<rscale>  0 0.19235403E+04</rscale>
<asrwt>0</asrwt>
<pdfrwt beam="1">  1        2 0.44556688E+00 0.19235403E+04</pdfrwt>
<pdfrwt beam="2">  1       -1 0.49136360E-01 0.19235403E+04</pdfrwt>
<totfact> 0.89396905E+00</totfact>
</mgrwt>
</event>
<event>
12    7  0.1711607E-007  0.2640036E+04  0.7818608E-02  0.8354728E-01
         -1   -1    0    0    0  501 -0.00000000000E+00  0.00000000000E+00  0.40025326732E+04  0.40025326732E+04  0.00000000000E+00 0.  1.
          2   -1    0    0  501    0  0.00000000000E+00 -0.00000000000E+00 -0.43533607752E+03  0.43533607752E+03  0.00000000000E+00 0. -1.
         24    2    1    2    0    0  0.63980139879E+03  0.83133686960E+03  0.24378259777E+04  0.26551277432E+04  0.79000089923E+02 0.  0.
        254    2    1    2    0    0 -0.63980139879E+03 -0.83133686960E+03  0.11293706179E+04  0.17827410075E+04  0.89566773228E+03 0.  0.
         23    2    4    4    0    0 -0.79399334792E+03 -0.45136666867E+03  0.56113083778E+03  0.10762212591E+04  0.96057666143E+02 0.  0.
         23    2    4    4    0    0  0.15419194913E+03 -0.37997020093E+03  0.56823978012E+03  0.70651974845E+03  0.90117681214E+02 0.  0.
          2    1    3    3  502    0  0.11069244161E+03  0.16423254424E+03  0.39210911219E+03  0.43928885836E+03  0.00000000000E+00 0. -1.
         -1    1    3    3    0  502  0.52910895718E+03  0.66710432536E+03  0.20457168655E+04  0.22158388848E+04  0.00000000000E+00 0.  1.
         13    1    5    5    0    0 -0.39875376546E+03 -0.25907806577E+03  0.24598335564E+03  0.53538193926E+03  0.00000000000E+00 0. -1.
        -13    1    5    5    0    0 -0.39523958246E+03 -0.19228860290E+03  0.31514748214E+03  0.54083931980E+03  0.00000000000E+00 0.  1.
          1    1    6    6  503    0  0.16609713259E+03 -0.35283513480E+03  0.53398860855E+03  0.66122970583E+03  0.00000000000E+00 0. -1.
         -1    1    6    6    0  503 -0.11905183460E+02 -0.27135066124E+02  0.34251171573E+02  0.45290042624E+02  0.00000000000E+00 0.  1.
<mgrwt>
<rscale>  0 0.26400355E+04</rscale>
<asrwt>0</asrwt>
<pdfrwt beam="1">  1        2 0.66974784E-01 0.26400355E+04</pdfrwt>
<pdfrwt beam="2">  1       -1 0.61577423E+00 0.26400355E+04</pdfrwt>
<totfact> 0.27448868E-02</totfact>
</mgrwt>
</event>
<event>
12    7  0.1711607E-007  0.2287825E+04  0.7818608E-02  0.8482737E-01
          2   -1    0    0  501    0  0.00000000000E+00  0.00000000000E+00  0.18719198696E+04  0.18719198696E+04  0.00000000000E+00 0. -1.
         -1   -1    0    0    0  501 -0.00000000000E+00 -0.00000000000E+00 -0.69903396734E+03  0.69903396734E+03  0.00000000000E+00 0.  1.
         24    2    1    2    0    0 -0.74959764702E+03  0.38610870420E+03 -0.31807460110E+02  0.84729690923E+03  0.76966057479E+02 0.  0.
        254    2    1    2    0    0  0.74959764702E+03 -0.38610870420E+03  0.12046933624E+04  0.17236569277E+04  0.89929446972E+03 0.  0.
         23    2    4    4    0    0 -0.12975904422E+03 -0.13901758757E+02 -0.28046123014E+02  0.16181576469E+03  0.91471789273E+02 0.  0.
         23    2    4    4    0    0  0.87935669124E+03 -0.37220694544E+03  0.12327394854E+04  0.15618411630E+04  0.88853694692E+02 0.  0.
          4    1    3    3  502    0 -0.14293896494E+03  0.46701296090E+02 -0.22771912907E+02  0.15208918032E+03  0.00000000000E+00 0. -1.
         -3    1    3    3    0  502 -0.60665868208E+03  0.33940740811E+03 -0.90355472027E+01  0.69520772891E+03  0.00000000000E+00 0.  1.
         13    1    5    5    0    0 -0.14302440563E+03 -0.62598772072E+01 -0.20094285216E+02  0.14456468091E+03  0.00000000000E+00 0.  1.
        -13    1    5    5    0    0  0.13265361414E+02 -0.76418815498E+01 -0.79518377983E+01  0.17251083776E+02  0.00000000000E+00 0. -1.
          1    1    6    6  503    0  0.15019079310E+03 -0.31646766599E+02  0.22070812133E+03  0.26883241432E+03  0.00000000000E+00 0. -1.
         -1    1    6    6    0  503  0.72916589814E+03 -0.34056017884E+03  0.10120313641E+04  0.12930087487E+04  0.00000000000E+00 0.  1.
<mgrwt>
<rscale>  0 0.22878248E+04</rscale>
<asrwt>0</asrwt>
<pdfrwt beam="1">  1        2 0.28798767E+00 0.22878248E+04</pdfrwt>
<pdfrwt beam="2">  1       -1 0.10754369E+00 0.22878248E+04</pdfrwt>
<totfact> 0.65448356E+00</totfact>
</mgrwt>
</event>
<event>
12    7  0.1711607E-007  0.1963648E+04  0.7818608E-02  0.8623808E-01
         -1   -1    0    0    0  501 -0.00000000000E+00  0.00000000000E+00  0.97567327395E+03  0.97567327395E+03  0.00000000000E+00 0.  1.
          2   -1    0    0  501    0  0.00000000000E+00 -0.00000000000E+00 -0.98801344066E+03  0.98801344066E+03  0.00000000000E+00 0. -1.
         24    2    1    2    0    0  0.12270418156E+03 -0.84127452181E+02 -0.76065725907E+03  0.77919939938E+03  0.80115503050E+02 0.  0.
        254    2    1    2    0    0 -0.12270418156E+03  0.84127452181E+02  0.74831709237E+03  0.11844873152E+04  0.90603420731E+03 0.  0.
         23    2    4    4    0    0 -0.32596424968E+03 -0.21580811807E+03  0.69840102388E+03  0.80702456065E+03  0.10343507841E+03 0.  0.
         23    2    4    4    0    0  0.20326006812E+03  0.29993557025E+03  0.49916068491E+02  0.37746275458E+03  0.93330143067E+02 0.  0.
          4    1    3    3  502    0  0.12580456592E+03 -0.90442661658E+02 -0.75310396283E+03  0.76887726113E+03  0.00000000000E+00 0. -1.
         -3    1    3    3    0  502 -0.31003843533E+01  0.63152094770E+01 -0.75532962397E+01  0.10322138246E+02  0.00000000000E+00 0.  1.
         13    1    5    5    0    0 -0.28661385130E+03 -0.15465368588E+03  0.61836614419E+03  0.69888622150E+03  0.00000000000E+00 0.  1.
        -13    1    5    5    0    0 -0.39350398384E+02 -0.61154432187E+02  0.80034879683E+02  0.10813833915E+03  0.00000000000E+00 0. -1.
          4    1    6    6  503    0  0.82127283203E+02  0.96343179811E+02 -0.24907753287E+02  0.12902439737E+03  0.00000000000E+00 0. -1.
         -4    1    6    6    0  503  0.12113278492E+03  0.20359239044E+03  0.74823821778E+02  0.24843835721E+03  0.00000000000E+00 0.  1.
<mgrwt>
<rscale>  0 0.19636479E+04</rscale>
<asrwt>0</asrwt>
<pdfrwt beam="1">  1        2 0.15200207E+00 0.19636479E+04</pdfrwt>
<pdfrwt beam="2">  1       -1 0.15010358E+00 0.19636479E+04</pdfrwt>
<totfact> 0.94922910E+00</totfact>
</mgrwt>
</event>
<event>
12    7  0.1711607E-007  0.1630034E+04  0.7818608E-02  0.8802307E-01
          2   -1    0    0  501    0  0.00000000000E+00  0.00000000000E+00  0.13289952428E+04  0.13289952428E+04  0.00000000000E+00 0. -1.
         -1   -1    0    0    0  501 -0.00000000000E+00 -0.00000000000E+00 -0.49981550011E+03  0.49981550011E+03  0.00000000000E+00 0.  1.
         24    2    1    2    0    0 -0.32769723443E+03  0.25513362520E+03  0.79195789145E+03  0.89770908772E+03  0.78776012740E+02 0.  0.
        254    2    1    2    0    0  0.32769723443E+03 -0.25513362520E+03  0.37221851253E+02  0.93110165521E+03  0.83251797696E+03 0.  0.
         23    2    4    4    0    0  0.39502396391E+03  0.12280364644E+03 -0.20167570058E+03  0.47011292317E+03  0.95960432919E+02 0.  0.
         23    2    4    4    0    0 -0.67326729472E+02 -0.37793727164E+03  0.23889755183E+03  0.46098873204E+03  0.89828174895E+02 0.  0.
          4    1    3    3  502    0 -0.26069793151E+03  0.15872178456E+03  0.56357415586E+03  0.64091485046E+03  0.00000000000E+00 0. -1.
         -3    1    3    3    0  502 -0.66999302920E+02  0.96411840638E+02  0.22838373559E+03  0.25679423726E+03  0.00000000000E+00 0.  1.
         13    1    5    5    0    0  0.16300148005E+03  0.23732106405E+01 -0.70085210330E+02  0.17744591101E+03  0.00000000000E+00 0.  1.
        -13    1    5    5    0    0  0.23202248386E+03  0.12043043580E+03 -0.13159049025E+03  0.29266701216E+03  0.00000000000E+00 0. -1.
          1    1    6    6  503    0 -0.15392198786E+01  0.48883584075E+01  0.32007431369E+00  0.51349482297E+01  0.00000000000E+00 0. -1.
         -1    1    6    6    0  503 -0.65787509594E+02 -0.38282563004E+03  0.23857747752E+03  0.45585378381E+03  0.00000000000E+00 0.  1.
<mgrwt>
<rscale>  0 0.16300336E+04</rscale>
<asrwt>0</asrwt>
<pdfrwt beam="1">  1        2 0.20446080E+00 0.16300336E+04</pdfrwt>
<pdfrwt beam="2">  1       -1 0.76894693E-01 0.16300336E+04</pdfrwt>
<totfact> 0.29422356E+01</totfact>
</mgrwt>
</event>
<event>
12    7  0.1711607E-007  0.1677467E+04  0.7818608E-02  0.8774321E-01
          2   -1    0    0  501    0  0.00000000000E+00  0.00000000000E+00  0.63679076590E+03  0.63679076590E+03  0.00000000000E+00 0. -1.
         -1   -1    0    0    0  501 -0.00000000000E+00 -0.00000000000E+00 -0.11047175421E+04  0.11047175421E+04  0.00000000000E+00 0.  1.
         24    2    1    2    0    0 -0.97185902024E+02 -0.57418576558E+03 -0.41784821507E+02  0.58958410305E+03  0.82030788780E+02 0.  0.
        254    2    1    2    0    0  0.97185902024E+02  0.57418576558E+03 -0.42614195470E+03  0.11519242050E+04  0.89788530195E+03 0.  0.
         23    2    4    4    0    0 -0.20508972554E+03  0.56487892615E+03 -0.54328550292E+03  0.81514455870E+03  0.90285752858E+02 0.  0.
         23    2    4    4    0    0  0.30227562756E+03  0.93068394351E+01  0.11714354823E+03  0.33677964626E+03  0.90778560049E+02 0.  0.
          2    1    3    3  502    0 -0.19189586838E+02 -0.25928810713E+03  0.14159214952E+02  0.26038249963E+03  0.00000000000E+00 0. -1.
         -1    1    3    3    0  502 -0.77996315186E+02 -0.31489765845E+03 -0.55944036459E+02  0.32920160342E+03  0.00000000000E+00 0.  1.
         13    1    5    5    0    0 -0.19829459509E+03  0.47435169365E+03 -0.43202769740E+03  0.67154910992E+03  0.00000000000E+00 0. -1.
        -13    1    5    5    0    0 -0.67951304456E+01  0.90527232493E+02 -0.11125780553E+03  0.14359544878E+03  0.00000000000E+00 0.  1.
          1    1    6    6  503    0  0.17527915227E+03  0.49608927697E+02  0.59835106471E+02  0.19173958093E+03  0.00000000000E+00 0. -1.
         -1    1    6    6    0  503  0.12699647529E+03 -0.40302088262E+02  0.57308441754E+02  0.14504006533E+03  0.00000000000E+00 0.  1.
<mgrwt>
<rscale>  0 0.16774671E+04</rscale>
<asrwt>0</asrwt>
<pdfrwt beam="1">  1        2 0.97967811E-01 0.16774671E+04</pdfrwt>
<pdfrwt beam="2">  1       -1 0.16995654E+00 0.16774671E+04</pdfrwt>
<totfact> 0.12364388E+01</totfact>
</mgrwt>
</event>
<event>
12    7  0.1711607E-007  0.1428699E+04  0.7818608E-02  0.8933303E-01
          2   -1    0    0  501    0  0.00000000000E+00  0.00000000000E+00  0.14829234861E+04  0.14829234861E+04  0.00000000000E+00 0. -1.
         -3   -1    0    0    0  501 -0.00000000000E+00 -0.00000000000E+00 -0.34411438710E+03  0.34411438710E+03  0.00000000000E+00 0.  1.
         24    2    1    2    0    0 -0.72950249085E+02 -0.17055155643E+03 -0.14846812220E+03  0.25007998985E+03  0.78023366811E+02 0.  0.
        254    2    1    2    0    0  0.72950249085E+02  0.17055155643E+03  0.12872772212E+04  0.15769578833E+04  0.89179815506E+03 0.  0.
         23    2    4    4    0    0  0.44130436517E+03  0.23462216261E+03  0.88480102683E+03  0.10202391866E+04  0.90653399475E+02 0.  0.
         23    2    4    4    0    0 -0.36835411609E+03 -0.64070606176E+02  0.40247619433E+03  0.55671869673E+03  0.90326202599E+02 0.  0.
          4    1    3    3  502    0 -0.62890592670E+02 -0.91436135971E+02 -0.45752375206E+02  0.12003780007E+03  0.00000000000E+00 0. -1.
         -3    1    3    3    0  502 -0.10059656415E+02 -0.79115420463E+02 -0.10271574700E+03  0.13004218978E+03  0.00000000000E+00 0.  1.
         13    1    5    5    0    0  0.14238690870E+03  0.39178514114E+02  0.20956603311E+03  0.25637259988E+03  0.00000000000E+00 0.  1.
        -13    1    5    5    0    0  0.29891745648E+03  0.19544364850E+03  0.67523499372E+03  0.76386658670E+03  0.00000000000E+00 0. -1.
          3    1    6    6  503    0 -0.54899772248E+02  0.16959044404E+02  0.36417222828E+02  0.68027996431E+02  0.00000000000E+00 0. -1.
         -3    1    6    6    0  503 -0.31345434384E+03 -0.81029650580E+02  0.36605897150E+03  0.48869070030E+03  0.00000000000E+00 0.  1.
<mgrwt>
<rscale>  0 0.14286991E+04</rscale>
<asrwt>0</asrwt>
<pdfrwt beam="1">  1        2 0.22814207E+00 0.14286991E+04</pdfrwt>
<pdfrwt beam="2">  1       -3 0.52940676E-01 0.14286991E+04</pdfrwt>
<totfact> 0.28455592E+01</totfact>
</mgrwt>
</event>
<event>
12    7  0.1711607E-007  0.1232398E+04  0.7818608E-02  0.9084962E-01
          2   -1    0    0  501    0  0.00000000000E+00  0.00000000000E+00  0.11239245001E+04  0.11239245001E+04  0.00000000000E+00 0. -1.
         -1   -1    0    0    0  501 -0.00000000000E+00 -0.00000000000E+00 -0.33783506369E+03  0.33783506369E+03  0.00000000000E+00 0.  1.
         24    2    1    2    0    0 -0.67047771652E+02 -0.98287663317E+02 -0.11638441237E+03  0.18559821736E+03  0.82130983189E+02 0.  0.
        254    2    1    2    0    0  0.67047771652E+02  0.98287663317E+02  0.90247384884E+03  0.12761613465E+04  0.89441202248E+03 0.  0.
         23    2    4    4    0    0  0.50837424434E+02 -0.36833745189E+03  0.21116215263E+03  0.43705507677E+03  0.90392274251E+02 0.  0.
         23    2    4    4    0    0  0.16210347217E+02  0.46662511521E+03  0.69131169621E+03  0.83910626970E+03  0.90474842012E+02 0.  0.
          2    1    3    3  502    0 -0.74204015313E+02 -0.41490941057E+02 -0.85410449255E+02  0.12051007809E+03  0.00000000000E+00 0. -1.
         -3    1    3    3    0  502  0.71562436613E+01 -0.56796722259E+02 -0.30973963120E+02  0.65088139274E+02  0.00000000000E+00 0.  1.
         13    1    5    5    0    0  0.65273485262E+02 -0.17546621534E+03  0.12637970054E+03  0.22587795225E+03  0.00000000000E+00 0. -1.
        -13    1    5    5    0    0 -0.14436060828E+02 -0.19287123655E+03  0.84782452085E+02  0.21117712452E+03  0.00000000000E+00 0.  1.
          3    1    6    6  503    0  0.10564505669E+02  0.34998451637E+02  0.21993432714E+02  0.42663936522E+02  0.00000000000E+00 0. -1.
         -3    1    6    6    0  503  0.56458415480E+01  0.43162666357E+03  0.66931826349E+03  0.79644233318E+03  0.00000000000E+00 0.  1.
<mgrwt>
<rscale>  0 0.12323978E+04</rscale>
<asrwt>0</asrwt>
<pdfrwt beam="1">  1        2 0.17291146E+00 0.12323978E+04</pdfrwt>
<pdfrwt beam="2">  1       -1 0.51974626E-01 0.12323978E+04</pdfrwt>
<totfact> 0.88109177E+01</totfact>
</mgrwt>
</event>
<event>
12    7  0.1711607E-007  0.1220617E+04  0.7818608E-02  0.9094999E-01
         -1   -1    0    0    0  501 -0.00000000000E+00  0.00000000000E+00  0.26335229718E+03  0.26335229718E+03  0.00000000000E+00 0.  1.
          2   -1    0    0  501    0  0.00000000000E+00 -0.00000000000E+00 -0.14143663911E+04  0.14143663911E+04  0.00000000000E+00 0. -1.
         24    2    1    2    0    0 -0.66824076174E+02  0.13421921067E+03 -0.56213628775E+03  0.58719514906E+03  0.79502725778E+02 0.  0.
        254    2    1    2    0    0  0.66824076174E+02 -0.13421921067E+03 -0.58887780612E+03  0.10905235392E+04  0.90552982572E+03 0.  0.
         23    2    4    4    0    0  0.45681805861E+03 -0.50194402918E+02 -0.47183562187E+03  0.66509656962E+03  0.92316716248E+02 0.  0.
         23    2    4    4    0    0 -0.38999398244E+03 -0.84024807748E+02 -0.11704218426E+03  0.42542696955E+03  0.90187354254E+02 0.  0.
          4    1    3    3  502    0 -0.50186229977E+02  0.11146686678E+03 -0.53227480558E+03  0.54613184189E+03  0.00000000000E+00 0. -1.
         -3    1    3    3    0  502 -0.16637846197E+02  0.22752343889E+02 -0.29861482168E+02  0.41063307171E+02  0.00000000000E+00 0.  1.
         13    1    5    5    0    0  0.41255864449E+03 -0.66260835300E+02 -0.44691296409E+03  0.61182213993E+03  0.00000000000E+00 0.  1.
        -13    1    5    5    0    0  0.44259414123E+02  0.16066432382E+02 -0.24922657776E+02  0.53274429689E+02  0.00000000000E+00 0. -1.
          2    1    6    6  503    0 -0.99940359290E+02 -0.61232432676E+02 -0.46161195757E+02  0.12596960832E+03  0.00000000000E+00 0. -1.
         -2    1    6    6    0  503 -0.29005362315E+03 -0.22792375073E+02 -0.70880988498E+02  0.29945736123E+03  0.00000000000E+00 0.  1.
<mgrwt>
<rscale>  0 0.12206173E+04</rscale>
<asrwt>0</asrwt>
<pdfrwt beam="1">  1        2 0.21759483E+00 0.12206173E+04</pdfrwt>
<pdfrwt beam="2">  1       -1 0.40515738E-01 0.12206173E+04</pdfrwt>
<totfact> 0.94815790E+01</totfact>
</mgrwt>
</event>
<event>
12    7  0.1711607E-007  0.3492973E+04  0.7818608E-02  0.8115457E-01
          2   -1    0    0  501    0  0.00000000000E+00  0.00000000000E+00  0.32675214075E+04  0.32675214075E+04  0.00000000000E+00 0. -1.
         -1   -1    0    0    0  501 -0.00000000000E+00 -0.00000000000E+00 -0.93349507631E+03  0.93349507631E+03  0.00000000000E+00 0.  1.
         24    2    1    2    0    0  0.81327854742E+03  0.14134568014E+04  0.10891207117E+04  0.19623673116E+04  0.73616681020E+02 0.  0.
        254    2    1    2    0    0 -0.81327854742E+03 -0.14134568014E+04  0.12449056196E+04  0.22386491723E+04  0.89581135829E+03 0.  0.
         23    2    4    4    0    0 -0.51381962033E+03 -0.91662227290E+03  0.12699592549E+04  0.16508761281E+04  0.91588688588E+02 0.  0.
         23    2    4    4    0    0 -0.29945892709E+03 -0.49683452855E+03 -0.25053635338E+02  0.58777304415E+03  0.91264829030E+02 0.  0.
          2    1    3    3  502    0  0.23272665457E+03  0.38998575182E+03  0.34248142122E+03  0.56880937602E+03  0.00000000000E+00 0. -1.
         -1    1    3    3    0  502  0.58055189285E+03  0.10234710496E+04  0.74663929045E+03  0.13935579356E+04  0.00000000000E+00 0.  1.
         13    1    5    5    0    0 -0.34650134660E+03 -0.69312247178E+03  0.90670186990E+03  0.11927238679E+04  0.00000000000E+00 0. -1.
        -13    1    5    5    0    0 -0.16731827374E+03 -0.22349980113E+03  0.36325738500E+03  0.45815226026E+03  0.00000000000E+00 0.  1.
          1    1    6    6  503    0 -0.19750945268E+03 -0.29308288932E+03 -0.56051466861E+02  0.35783981171E+03  0.00000000000E+00 0. -1.
         -1    1    6    6    0  503 -0.10194947441E+03 -0.20375163923E+03  0.30997831523E+02  0.22993323244E+03  0.00000000000E+00 0.  1.
<mgrwt>
<rscale>  0 0.34929730E+04</rscale>
<asrwt>0</asrwt>
<pdfrwt beam="1">  1        2 0.50269560E+00 0.34929730E+04</pdfrwt>
<pdfrwt beam="2">  1       -1 0.14361463E+00 0.34929730E+04</pdfrwt>
<totfact> 0.42780811E-01</totfact>
</mgrwt>
</event>
<event>
12    7  0.1711607E-007  0.1732974E+04  0.7818608E-02  0.8742779E-01
          2   -1    0    0  501    0  0.00000000000E+00  0.00000000000E+00  0.19560142099E+04  0.19560142099E+04  0.00000000000E+00 0. -1.
         -1   -1    0    0    0  501 -0.00000000000E+00 -0.00000000000E+00 -0.38384145262E+03  0.38384145262E+03  0.00000000000E+00 0.  1.
         24    2    1    2    0    0  0.16422303776E+03 -0.55735459370E+03  0.89115926139E+03  0.10674995726E+04  0.88188202386E+02 0.  0.
        254    2    1    2    0    0 -0.16422303776E+03  0.55735459370E+03  0.68101349586E+03  0.12723560899E+04  0.90415556667E+03 0.  0.
         23    2    4    4    0    0 -0.47546443921E+03  0.52719542818E+03  0.60398918062E+03  0.93753349821E+03  0.10082002536E+03 0.  0.
         23    2    4    4    0    0  0.31124140145E+03  0.30159165517E+02  0.77024315243E+02  0.33482259170E+03  0.91611339566E+02 0.  0.
          4    1    3    3  502    0  0.93524635696E+02 -0.34230340680E+03  0.46481113414E+03  0.58478018966E+03  0.00000000000E+00 0. -1.
         -3    1    3    3    0  502  0.70698402068E+02 -0.21505118690E+03  0.42634812724E+03  0.48271938292E+03  0.00000000000E+00 0.  1.
         13    1    5    5    0    0 -0.36403221026E+03  0.37720420565E+03  0.38956681259E+03  0.65311925736E+03  0.00000000000E+00 0.  1.
        -13    1    5    5    0    0 -0.11143222895E+03  0.14999122253E+03  0.21442236803E+03  0.28441424084E+03  0.00000000000E+00 0. -1.
          3    1    6    6  503    0  0.88833120082E+02  0.19647644892E+02  0.65052465018E+02  0.11184442936E+03  0.00000000000E+00 0. -1.
         -3    1    6    6    0  503  0.22240828136E+03  0.10511520625E+02  0.11971850224E+02  0.22297816234E+03  0.00000000000E+00 0.  1.
<mgrwt>
<rscale>  0 0.17329736E+04</rscale>
<asrwt>0</asrwt>
<pdfrwt beam="1">  1        2 0.30092526E+00 0.17329736E+04</pdfrwt>
<pdfrwt beam="2">  1       -1 0.59052532E-01 0.17329736E+04</pdfrwt>
<totfact> 0.22209584E+01</totfact>
</mgrwt>
</event>
<event>
12    7  0.1711607E-007  0.2138916E+04  0.7818608E-02  0.8544292E-01
          2   -1    0    0  501    0  0.00000000000E+00  0.00000000000E+00  0.15167765103E+04  0.15167765103E+04  0.00000000000E+00 0. -1.
         -1   -1    0    0    0  501 -0.00000000000E+00 -0.00000000000E+00 -0.75405965604E+03  0.75405965604E+03  0.00000000000E+00 0.  1.
         24    2    1    2    0    0  0.31551239017E+03  0.63938757466E+03 -0.22501314807E+03  0.75257427445E+03  0.85863745479E+02 0.  0.
        254    2    1    2    0    0 -0.31551239017E+03 -0.63938757466E+03  0.98773000235E+03  0.15182618919E+04  0.90617000385E+03 0.  0.
         23    2    4    4    0    0 -0.18502751795E+03 -0.60994301085E+02  0.88318152944E+03  0.90900710406E+03  0.91262336792E+02 0.  0.
         23    2    4    4    0    0 -0.13048487222E+03 -0.57839327357E+03  0.10454847290E+03  0.60925478784E+03  0.93251984022E+02 0.  0.
          4    1    3    3  502    0  0.15925870714E+03  0.31166196696E+03 -0.15516104234E+03  0.38284653127E+03  0.00000000000E+00 0. -1.
         -3    1    3    3    0  502  0.15625368303E+03  0.32772560770E+03 -0.69852105732E+02  0.36972774318E+03  0.00000000000E+00 0.  1.
         13    1    5    5    0    0  0.60974018262E+01 -0.10442264844E+02  0.19161568130E+02  0.22657998528E+02  0.00000000000E+00 0. -1.
        -13    1    5    5    0    0 -0.19112491977E+03 -0.50552036240E+02  0.86401996131E+03  0.88634910553E+03  0.00000000000E+00 0.  1.
          2    1    6    6  503    0 -0.26738885309E+02 -0.11780647663E+03  0.60421323123E+02  0.13507061194E+03  0.00000000000E+00 0. -1.
         -2    1    6    6    0  503 -0.10374598691E+03 -0.46058679694E+03  0.44127149780E+02  0.47418417589E+03  0.00000000000E+00 0.  1.
<mgrwt>
<rscale>  0 0.21389156E+04</rscale>
<asrwt>0</asrwt>
<pdfrwt beam="1">  1        2 0.23335023E+00 0.21389156E+04</pdfrwt>
<pdfrwt beam="2">  1       -1 0.11600918E+00 0.21389156E+04</pdfrwt>
<totfact> 0.87363196E+00</totfact>
</mgrwt>
</event>
<event>
12    7  0.1711607E-007  0.1919967E+04  0.7818608E-02  0.8644981E-01
         -1   -1    0    0    0  501 -0.00000000000E+00  0.00000000000E+00  0.99875103963E+03  0.99875103963E+03  0.00000000000E+00 0.  1.
          2   -1    0    0  501    0  0.00000000000E+00 -0.00000000000E+00 -0.92272053873E+03  0.92272053873E+03  0.00000000000E+00 0. -1.
         24    2    1    2    0    0 -0.71700622766E+03  0.13085373902E+03  0.17733114502E+03  0.75406728202E+03  0.77139479495E+02 0.  0.
        254    2    1    2    0    0  0.71700622766E+03 -0.13085373902E+03 -0.10130064412E+03  0.11674042963E+04  0.90628380714E+03 0.  0.
         23    2    4    4    0    0  0.24774944063E+03 -0.24842933808E+03  0.34680862731E+03  0.50140825379E+03  0.89649827874E+02 0.  0.
         23    2    4    4    0    0  0.46925678703E+03  0.11757559906E+03 -0.44810927143E+03  0.66599604255E+03  0.93396230537E+02 0.  0.
          2    1    3    3  502    0 -0.69739721219E+03  0.13304054673E+03  0.18366424636E+03  0.73334522160E+03  0.00000000000E+00 0. -1.
         -1    1    3    3    0  502 -0.19609015468E+02 -0.21868077133E+01 -0.63331013355E+01  0.20722060422E+02  0.00000000000E+00 0.  1.
         13    1    5    5    0    0  0.20539264846E+03 -0.16475889511E+03  0.21664270695E+03  0.34097755943E+03  0.00000000000E+00 0.  1.
        -13    1    5    5    0    0  0.42356792174E+02 -0.83670442973E+02  0.13016592036E+03  0.16043069436E+03  0.00000000000E+00 0. -1.
          4    1    6    6  503    0  0.68138842567E+02  0.22526307961E+01 -0.27680359802E+02  0.73581101722E+02  0.00000000000E+00 0. -1.
         -4    1    6    6    0  503  0.40111794446E+03  0.11532296826E+03 -0.42042891163E+03  0.59241494083E+03  0.00000000000E+00 0.  1.
<mgrwt>
<rscale>  0 0.19199668E+04</rscale>
<asrwt>0</asrwt>
<pdfrwt beam="1">  1        2 0.14195701E+00 0.19199668E+04</pdfrwt>
<pdfrwt beam="2">  1       -1 0.15365401E+00 0.19199668E+04</pdfrwt>
<totfact> 0.98709450E+00</totfact>
</mgrwt>
</event>
<event>
12    7  0.1711607E-007  0.2284953E+04  0.7818608E-02  0.8483878E-01
         -1   -1    0    0    0  501 -0.00000000000E+00  0.00000000000E+00  0.38835508271E+03  0.38835508271E+03  0.00000000000E+00 0.  1.
          2   -1    0    0  501    0  0.00000000000E+00 -0.00000000000E+00 -0.33609770923E+04  0.33609770923E+04  0.00000000000E+00 0. -1.
         24    2    1    2    0    0  0.87297394126E+03 -0.40502753267E+03 -0.13458593318E+04  0.16564805752E+04  0.80372574717E+02 0.  0.
        254    2    1    2    0    0 -0.87297394126E+03  0.40502753267E+03 -0.16267626777E+04  0.20928515997E+04  0.89863240786E+03 0.  0.
         23    2    4    4    0    0 -0.65738430344E+03 -0.17839390236E+03 -0.87864850864E+03  0.11156964443E+04  0.93684829955E+02 0.  0.
         23    2    4    4    0    0 -0.21558963783E+03  0.58342143503E+03 -0.74811416911E+03  0.97715515540E+03  0.91092946558E+02 0.  0.
          2    1    3    3  502    0  0.82761680207E+03 -0.39874948523E+03 -0.12623659728E+04  0.15612554475E+04  0.00000000000E+00 0. -1.
         -1    1    3    3    0  502  0.45357139193E+02 -0.62780474399E+01 -0.83493358975E+02  0.95225127716E+02  0.00000000000E+00 0.  1.
         13    1    5    5    0    0 -0.14728603465E+03 -0.63902837052E+00 -0.19621575922E+03  0.24534508051E+03  0.00000000000E+00 0. -1.
        -13    1    5    5    0    0 -0.51009826878E+03 -0.17775487399E+03 -0.68243274941E+03  0.87035136383E+03  0.00000000000E+00 0.  1.
          3    1    6    6  503    0 -0.27123456121E+02  0.10375100835E+03 -0.82258066498E+02  0.13515303589E+03  0.00000000000E+00 0. -1.
         -3    1    6    6    0  503 -0.18846618171E+03  0.47967042668E+03 -0.66585610261E+03  0.84200211951E+03  0.00000000000E+00 0.  1.
<mgrwt>
<rscale>  0 0.22849530E+04</rscale>
<asrwt>0</asrwt>
<pdfrwt beam="1">  1        2 0.51707339E+00 0.22849530E+04</pdfrwt>
<pdfrwt beam="2">  1       -1 0.59746937E-01 0.22849530E+04</pdfrwt>
<totfact> 0.29791200E+00</totfact>
</mgrwt>
</event>
<event>
12    7  0.1711607E-007  0.1573762E+04  0.7818608E-02  0.8836831E-01
          2   -1    0    0  501    0  0.00000000000E+00  0.00000000000E+00  0.29495047511E+03  0.29495047511E+03  0.00000000000E+00 0. -1.
         -1   -1    0    0    0  501 -0.00000000000E+00 -0.00000000000E+00 -0.20992740076E+04  0.20992740076E+04  0.00000000000E+00 0.  1.
         24    2    1    2    0    0 -0.28271124373E+03 -0.44716712743E+03 -0.71597717359E+03  0.89366548688E+03  0.78298161820E+02 0.  0.
        254    2    1    2    0    0  0.28271124373E+03  0.44716712743E+03 -0.10883463589E+04  0.15005589959E+04  0.88729668988E+03 0.  0.
         23    2    4    4    0    0 -0.20738024580E+03  0.29377941931E+03 -0.98221294593E+02  0.38141342008E+03  0.80720881734E+02 0.  0.
         23    2    4    4    0    0  0.49009148952E+03  0.15338770812E+03 -0.99012506435E+03  0.11191455758E+04  0.91769927770E+02 0.  0.
          4    1    3    3  502    0 -0.75013394213E+02 -0.92605324130E+02 -0.21402205602E+03  0.24496570338E+03  0.00000000000E+00 0. -1.
         -1    1    3    3    0  502 -0.20769784951E+03 -0.35456180330E+03 -0.50195511757E+03  0.64869978350E+03  0.00000000000E+00 0.  1.
         13    1    5    5    0    0 -0.17490759053E+03  0.26824697195E+03 -0.61378315894E+02  0.32606195860E+03  0.00000000000E+00 0. -1.
        -13    1    5    5    0    0 -0.32472655271E+02  0.25532447362E+02 -0.36842978699E+02  0.55351461481E+02  0.00000000000E+00 0.  1.
          4    1    6    6  503    0  0.40060501611E+03  0.12084227957E+03 -0.72038315430E+03  0.83309010585E+03  0.00000000000E+00 0. -1.
         -4    1    6    6    0  503  0.89486473411E+02  0.32545428552E+02 -0.26974191005E+03  0.28605546994E+03  0.00000000000E+00 0.  1.
<mgrwt>
<rscale>  0 0.15737622E+04</rscale>
<asrwt>0</asrwt>
<pdfrwt beam="1">  1        2 0.45376997E-01 0.15737622E+04</pdfrwt>
<pdfrwt beam="2">  1       -1 0.32296523E+00 0.15737622E+04</pdfrwt>
<totfact> 0.28901567E+00</totfact>
</mgrwt>
</event>
<event>
12    7  0.1711607E-007  0.1108081E+04  0.7818608E-02  0.9197351E-01
         -1   -1    0    0    0  501 -0.00000000000E+00  0.00000000000E+00  0.12680101508E+03  0.12680101508E+03  0.00000000000E+00 0.  1.
          2   -1    0    0  501    0  0.00000000000E+00 -0.00000000000E+00 -0.24208093644E+04  0.24208093644E+04  0.00000000000E+00 0. -1.
         24    2    1    2    0    0 -0.12012310820E+03 -0.78276791322E+01 -0.77048378841E+03  0.78429152353E+03  0.83528988939E+02 0.  0.
        254    2    1    2    0    0  0.12012310820E+03  0.78276791322E+01 -0.15235245609E+04  0.17633188560E+04  0.87958823684E+03 0.  0.
         23    2    4    4    0    0  0.97389010186E+02 -0.39904964810E+03 -0.47767908334E+03  0.63671568235E+03  0.92218829634E+02 0.  0.
         23    2    4    4    0    0  0.22734098013E+02  0.40687732723E+03 -0.10458454776E+04  0.11266031736E+04  0.96829485047E+02 0.  0.
          2    1    3    3  502    0 -0.66698080068E+02 -0.44300087257E+02 -0.36489559750E+03  0.37357720580E+03  0.00000000000E+00 0. -1.
         -1    1    3    3    0  502 -0.53425028131E+02  0.36472408125E+02 -0.40558819090E+03  0.41071431773E+03  0.00000000000E+00 0.  1.
         13    1    5    5    0    0  0.66936109786E+02 -0.10891444799E+03 -0.17022436380E+03  0.21288291103E+03  0.00000000000E+00 0.  1.
        -13    1    5    5    0    0  0.30452900400E+02 -0.29013520011E+03 -0.30745471953E+03  0.42383277132E+03  0.00000000000E+00 0. -1.
          1    1    6    6  503    0  0.27382124094E+02  0.39179108493E+03 -0.92774928452E+03  0.10074565846E+04  0.00000000000E+00 0. -1.
         -1    1    6    6    0  503 -0.46480260813E+01  0.15086242307E+02 -0.11809619309E+03  0.11914658902E+03  0.00000000000E+00 0.  1.
<mgrwt>
<rscale>  0 0.11080814E+04</rscale>
<asrwt>0</asrwt>
<pdfrwt beam="1">  1        2 0.37243220E+00 0.11080814E+04</pdfrwt>
<pdfrwt beam="2">  1       -1 0.19507849E-01 0.11080814E+04</pdfrwt>
<totfact> 0.93921592E+01</totfact>
</mgrwt>
</event>
<event>
12    7  0.1711607E-007  0.2226641E+04  0.7818608E-02  0.8507421E-01
          2   -1    0    0  501    0  0.00000000000E+00  0.00000000000E+00  0.17929016659E+04  0.17929016659E+04  0.00000000000E+00 0. -1.
         -1   -1    0    0    0  501 -0.00000000000E+00 -0.00000000000E+00 -0.69132765808E+03  0.69132765808E+03  0.00000000000E+00 0.  1.
         24    2    1    2    0    0  0.30024094333E+03  0.86894655332E+03  0.32857257963E+03  0.97983345240E+03  0.83071762747E+02 0.  0.
        254    2    1    2    0    0 -0.30024094333E+03 -0.86894655332E+03  0.77300142820E+03  0.15043958716E+04  0.90579412336E+03 0.  0.
         23    2    4    4    0    0  0.31128369671E+03 -0.20546516266E+03  0.21268086299E+03  0.43768876679E+03  0.84999024621E+02 0.  0.
         23    2    4    4    0    0 -0.61152464005E+03 -0.66348139066E+03  0.56032056522E+03  0.10667071048E+04  0.98665954245E+02 0.  0.
          2    1    3    3  502    0  0.26506148707E+03  0.66755701936E+03  0.24361903092E+03  0.75844590990E+03  0.00000000000E+00 0. -1.
         -1    1    3    3    0  502  0.35179456268E+02  0.20138953396E+03  0.84953548712E+02  0.22138754249E+03  0.00000000000E+00 0.  1.
         13    1    5    5    0    0  0.13448095390E+03 -0.13931505783E+03  0.11353084078E+03  0.22446172081E+03  0.00000000000E+00 0. -1.
        -13    1    5    5    0    0  0.17680274281E+03 -0.66150104836E+02  0.99150022211E+02  0.21322704598E+03  0.00000000000E+00 0.  1.
          1    1    6    6  503    0 -0.30564291279E+03 -0.25934112975E+03  0.24870836984E+03  0.47173219622E+03  0.00000000000E+00 0. -1.
         -1    1    6    6    0  503 -0.30588172726E+03 -0.40414026091E+03  0.31161219537E+03  0.59497490860E+03  0.00000000000E+00 0.  1.
<mgrwt>
<rscale>  0 0.22266410E+04</rscale>
<asrwt>0</asrwt>
<pdfrwt beam="1">  1        2 0.27583103E+00 0.22266410E+04</pdfrwt>
<pdfrwt beam="2">  1       -1 0.10635810E+00 0.22266410E+04</pdfrwt>
<totfact> 0.74697697E+00</totfact>
</mgrwt>
</event>
<event>
12    7  0.1711607E-007  0.1448370E+04  0.7818608E-02  0.8919531E-01
         -1   -1    0    0    0  501 -0.00000000000E+00  0.00000000000E+00  0.48413534102E+03  0.48413534102E+03  0.00000000000E+00 0.  1.
          2   -1    0    0  501    0  0.00000000000E+00 -0.00000000000E+00 -0.10832588637E+04  0.10832588637E+04  0.00000000000E+00 0. -1.
         24    2    1    2    0    0  0.11792682205E+02 -0.28098725383E+02  0.28954758744E+03  0.30302088987E+03  0.83995527145E+02 0.  0.
        254    2    1    2    0    0 -0.11792682205E+02  0.28098725383E+02 -0.88867111011E+03  0.12643733148E+04  0.89887425794E+03 0.  0.
         23    2    4    4    0    0 -0.35219596986E+03  0.26614543191E+03 -0.31397334874E+03  0.54948611169E+03  0.92088713276E+02 0.  0.
         23    2    4    4    0    0  0.34040328766E+03 -0.23804670653E+03 -0.57469776138E+03  0.71488720314E+03  0.90805085457E+02 0.  0.
          2    1    3    3  502    0 -0.26803931270E+02 -0.35006822890E+02  0.97413320360E+02  0.10692653255E+03  0.00000000000E+00 0. -1.
         -3    1    3    3    0  502  0.38596613475E+02  0.69080975070E+01  0.19213426709E+03  0.19609435732E+03  0.00000000000E+00 0.  1.
         13    1    5    5    0    0 -0.28459315642E+03  0.24624689651E+03 -0.23519406719E+03  0.44378716516E+03  0.00000000000E+00 0. -1.
        -13    1    5    5    0    0 -0.67602813441E+02  0.19898535397E+02 -0.78779281546E+02  0.10569894653E+03  0.00000000000E+00 0.  1.
          1    1    6    6  503    0  0.33699134607E+03 -0.22118398472E+03 -0.56783728923E+03  0.69636535631E+03  0.00000000000E+00 0. -1.
         -1    1    6    6    0  503  0.34119415863E+01 -0.16862721802E+02 -0.68604721460E+01  0.18521846831E+02  0.00000000000E+00 0.  1.
<mgrwt>
<rscale>  0 0.14483700E+04</rscale>
<asrwt>0</asrwt>
<pdfrwt beam="1">  1        2 0.16665521E+00 0.14483700E+04</pdfrwt>
<pdfrwt beam="2">  1       -1 0.74482361E-01 0.14483700E+04</pdfrwt>
<totfact> 0.44784637E+01</totfact>
</mgrwt>
</event>
<event>
12    7  0.1711607E-007  0.1765990E+04  0.7818608E-02  0.8724597E-01
          2   -1    0    0  501    0  0.00000000000E+00  0.00000000000E+00  0.75887868058E+03  0.75887868058E+03  0.00000000000E+00 0. -1.
         -1   -1    0    0    0  501 -0.00000000000E+00 -0.00000000000E+00 -0.10274111172E+04  0.10274111172E+04  0.00000000000E+00 0.  1.
         24    2    1    2    0    0  0.14456326117E+03  0.54482171027E+03 -0.45419832867E+03  0.72847087632E+03  0.81513578115E+02 0.  0.
        254    2    1    2    0    0 -0.14456326117E+03 -0.54482171027E+03  0.18566589208E+03  0.10578189214E+04  0.87565964541E+03 0.  0.
         23    2    4    4    0    0  0.31593310688E+03 -0.28527558401E+02  0.14767427702E+03  0.35886603643E+03  0.79684317131E+02 0.  0.
         23    2    4    4    0    0 -0.46049636805E+03 -0.51629415187E+03  0.37991615056E+02  0.69895288500E+03  0.92060938516E+02 0.  0.
          2    1    3    3  502    0  0.49817107517E+02  0.22860329718E+03 -0.13952966907E+03  0.27241464761E+03  0.00000000000E+00 0. -1.
         -1    1    3    3    0  502  0.94746153655E+02  0.31621841309E+03 -0.31466865959E+03  0.45605622871E+03  0.00000000000E+00 0.  1.
         13    1    5    5    0    0  0.73333221903E+02  0.24043437177E+02  0.19988041326E+02  0.79720575149E+02  0.00000000000E+00 0. -1.
        -13    1    5    5    0    0  0.24259988498E+03 -0.52570995578E+02  0.12768623569E+03  0.27914546128E+03  0.00000000000E+00 0.  1.
          4    1    6    6  503    0 -0.23148767965E+03 -0.32203160719E+03  0.40280461812E+02  0.39863945799E+03  0.00000000000E+00 0. -1.
         -4    1    6    6    0  503 -0.22900868840E+03 -0.19426254467E+03 -0.22888467553E+01  0.30031342702E+03  0.00000000000E+00 0.  1.
<mgrwt>
<rscale>  0 0.17659903E+04</rscale>
<asrwt>0</asrwt>
<pdfrwt beam="1">  1        2 0.11675057E+00 0.17659903E+04</pdfrwt>
<pdfrwt beam="2">  1       -1 0.15806325E+00 0.17659903E+04</pdfrwt>
<totfact> 0.12066339E+01</totfact>
</mgrwt>
</event>
<event>
12    7  0.1711607E-007  0.2697452E+04  0.7818608E-02  0.8335832E-01
          2   -1    0    0  501    0  0.00000000000E+00  0.00000000000E+00  0.94867590495E+03  0.94867590495E+03  0.00000000000E+00 0. -1.
         -1   -1    0    0    0  501 -0.00000000000E+00 -0.00000000000E+00 -0.19174737854E+04  0.19174737854E+04  0.00000000000E+00 0.  1.
         24    2    1    2    0    0  0.88657799879E+03 -0.18683450803E+01 -0.12746777819E+04  0.15541716642E+04  0.67985845857E+02 0.  0.
        254    2    1    2    0    0 -0.88657799879E+03  0.18683450803E+01  0.30587990155E+03  0.13119780261E+04  0.91744198087E+03 0.  0.
         23    2    4    4    0    0  0.15380921822E+03  0.38403571282E+02 -0.74692465178E+02  0.19984199551E+03  0.96050762200E+02 0.  0.
         23    2    4    4    0    0 -0.10403872170E+04 -0.36535226202E+02  0.38057236672E+03  0.11121360306E+04  0.90944160052E+02 0.  0.
          4    1    3    3  502    0  0.19905237646E+03 -0.21089114155E+02 -0.32236094549E+03  0.37945115428E+03  0.00000000000E+00 0. -1.
         -3    1    3    3    0  502  0.68752562233E+03  0.19220769075E+02 -0.95231683646E+03  0.11747205099E+04  0.00000000000E+00 0.  1.
         13    1    5    5    0    0  0.24374069217E+02 -0.29780172048E+02 -0.92687298569E+01  0.39583623514E+02  0.00000000000E+00 0. -1.
        -13    1    5    5    0    0  0.12943514900E+03  0.68183743330E+02 -0.65423735322E+02  0.16025837200E+03  0.00000000000E+00 0.  1.
          3    1    6    6  503    0 -0.32493151636E+02 -0.13194534502E+02  0.16341661589E+01  0.35107992580E+02  0.00000000000E+00 0. -1.
         -3    1    6    6    0  503 -0.10078940654E+04 -0.23340691699E+02  0.37893820057E+03  0.10770280381E+04  0.00000000000E+00 0.  1.
<mgrwt>
<rscale>  0 0.26974515E+04</rscale>
<asrwt>0</asrwt>
<pdfrwt beam="1">  1        2 0.14595014E+00 0.26974515E+04</pdfrwt>
<pdfrwt beam="2">  1       -1 0.29499597E+00 0.26974515E+04</pdfrwt>
<totfact> 0.96839518E-01</totfact>
</mgrwt>
</event>
<event>
12    7  0.1711607E-007  0.1817285E+04  0.7818608E-02  0.8697161E-01
          2   -1    0    0  501    0  0.00000000000E+00  0.00000000000E+00  0.57386331463E+03  0.57386331463E+03  0.00000000000E+00 0. -1.
         -1   -1    0    0    0  501 -0.00000000000E+00 -0.00000000000E+00 -0.14387248607E+04  0.14387248607E+04  0.00000000000E+00 0.  1.
         24    2    1    2    0    0 -0.31644915693E+03 -0.71870830654E+02  0.34112817345E+03  0.47771424826E+03  0.80851636012E+02 0.  0.
        254    2    1    2    0    0  0.31644915693E+03  0.71870830654E+02 -0.12059897196E+04  0.15348739271E+04  0.89225628785E+03 0.  0.
         23    2    4    4    0    0  0.10218015915E+03 -0.68825398774E+02 -0.12505106374E+04  0.12599407197E+04  0.92173979404E+02 0.  0.
         23    2    4    4    0    0  0.21426899779E+03  0.14069622943E+03  0.44520917875E+02  0.27493320737E+03  0.88879266416E+02 0.  0.
          2    1    3    3  502    0 -0.20133697884E+03 -0.67184429170E+01  0.22097394787E+03  0.29901705998E+03  0.00000000000E+00 0. -1.
         -1    1    3    3    0  502 -0.11511217809E+03 -0.65152387737E+02  0.12015422559E+03  0.17869718828E+03  0.00000000000E+00 0.  1.
         13    1    5    5    0    0 -0.10944316082E+02 -0.19658804152E+02 -0.85224873507E+02  0.88144913066E+02  0.00000000000E+00 0. -1.
        -13    1    5    5    0    0  0.11312447523E+03 -0.49166594622E+02 -0.11652857639E+04  0.11717958067E+04  0.00000000000E+00 0.  1.
          4    1    6    6  503    0  0.92128576235E+02  0.72793017327E+02 -0.23130654792E+02  0.11967257464E+03  0.00000000000E+00 0. -1.
         -4    1    6    6    0  503  0.12214042155E+03  0.67903212101E+02  0.67651572666E+02  0.15526063273E+03  0.00000000000E+00 0.  1.
<mgrwt>
<rscale>  0 0.18172852E+04</rscale>
<asrwt>0</asrwt>
<pdfrwt beam="1">  1        2 0.88286663E-01 0.18172852E+04</pdfrwt>
<pdfrwt beam="2">  1       -1 0.22134229E+00 0.18172852E+04</pdfrwt>
<totfact> 0.60744709E+00</totfact>
</mgrwt>
</event>
<event>
12    7  0.1711607E-007  0.2958763E+04  0.7818608E-02  0.8255605E-01
         -1   -1    0    0    0  501 -0.00000000000E+00  0.00000000000E+00  0.10299746332E+04  0.10299746332E+04  0.00000000000E+00 0.  1.
          2   -1    0    0  501    0  0.00000000000E+00 -0.00000000000E+00 -0.21248777224E+04  0.21248777224E+04  0.00000000000E+00 0. -1.
         24    2    1    2    0    0 -0.24336109081E+03  0.12390186483E+04 -0.98684219389E+03  0.16046047295E+04  0.80665921625E+02 0.  0.
        254    2    1    2    0    0  0.24336109081E+03 -0.12390186483E+04 -0.10806089530E+03  0.15502476261E+04  0.89285985114E+03 0.  0.
         23    2    4    4    0    0  0.26819229722E+03 -0.11770953904E+04 -0.36920245627E+03  0.12657911880E+04  0.91848851601E+02 0.  0.
         23    2    4    4    0    0 -0.24831206409E+02 -0.61923257877E+02  0.26114156096E+03  0.28445643807E+03  0.90936635189E+02 0.  0.
          2    1    3    3  502    0 -0.16535684687E+03  0.99468508712E+03 -0.80367853469E+03  0.12894341769E+04  0.00000000000E+00 0. -1.
         -1    1    3    3    0  502 -0.78004243945E+02  0.24433356120E+03 -0.18316365920E+03  0.31517055264E+03  0.00000000000E+00 0.  1.
         13    1    5    5    0    0  0.31399748772E+02 -0.56123816459E+02 -0.99281283662E+01  0.65072227023E+02  0.00000000000E+00 0.  1.
        -13    1    5    5    0    0  0.23679254845E+03 -0.11209715740E+04 -0.35927432790E+03  0.12007189610E+04  0.00000000000E+00 0. -1.
          3    1    6    6  503    0 -0.35004033752E+02  0.39399323185E+01  0.15634453530E+03  0.16026359276E+03  0.00000000000E+00 0. -1.
         -3    1    6    6    0  503  0.10172827343E+02 -0.65863190196E+02  0.10479702566E+03  0.12419284531E+03  0.00000000000E+00 0.  1.
<mgrwt>
<rscale>  0 0.29587634E+04</rscale>
<asrwt>0</asrwt>
<pdfrwt beam="1">  1        2 0.32690426E+00 0.29587634E+04</pdfrwt>
<pdfrwt beam="2">  1       -1 0.15845764E+00 0.29587634E+04</pdfrwt>
<totfact> 0.16688519E+00</totfact>
</mgrwt>
</event>
<event>
12    7  0.1711607E-007  0.1294207E+04  0.7818608E-02  0.9034172E-01
         -1   -1    0    0    0  501 -0.00000000000E+00  0.00000000000E+00  0.43639088987E+03  0.43639088987E+03  0.00000000000E+00 0.  1.
          2   -1    0    0  501    0  0.00000000000E+00 -0.00000000000E+00 -0.95955907212E+03  0.95955907212E+03  0.00000000000E+00 0. -1.
         24    2    1    2    0    0 -0.26031280462E+03  0.19374857709E+03 -0.18637180063E+03  0.38239199246E+03  0.78663336139E+02 0.  0.
        254    2    1    2    0    0  0.26031280462E+03 -0.19374857709E+03 -0.33679638162E+03  0.10135579695E+04  0.89920336273E+03 0.  0.
         23    2    4    4    0    0 -0.32326186440E+03 -0.13788138171E+03 -0.14608740849E+03  0.39020995411E+03  0.86097438799E+02 0.  0.
         23    2    4    4    0    0  0.58357466903E+03 -0.55867195388E+02 -0.19070897313E+03  0.62334801542E+03  0.92262115979E+02 0.  0.
          4    1    3    3  502    0 -0.24748972151E+02  0.14275707304E+02 -0.47207565050E+02  0.55180264946E+02  0.00000000000E+00 0. -1.
         -3    1    3    3    0  502 -0.23556383247E+03  0.17947286979E+03 -0.13916423558E+03  0.32721172752E+03  0.00000000000E+00 0.  1.
         13    1    5    5    0    0 -0.19998661597E+03 -0.89317197432E+02 -0.13491469187E+03  0.25724343025E+03  0.00000000000E+00 0. -1.
        -13    1    5    5    0    0 -0.12327524843E+03 -0.48564184275E+02 -0.11172716619E+02  0.13296652386E+03  0.00000000000E+00 0.  1.
          1    1    6    6  503    0  0.53698179662E+03 -0.33592957013E+02 -0.15287466933E+03  0.55932870585E+03  0.00000000000E+00 0. -1.
         -1    1    6    6    0  503  0.46592872409E+02 -0.22274238374E+02 -0.37834303796E+02  0.64019309573E+02  0.00000000000E+00 0.  1.
<mgrwt>
<rscale>  0 0.12942068E+04</rscale>
<asrwt>0</asrwt>
<pdfrwt beam="1">  1        2 0.14762447E+00 0.12942068E+04</pdfrwt>
<pdfrwt beam="2">  1       -1 0.67137060E-01 0.12942068E+04</pdfrwt>
<totfact> 0.67292549E+01</totfact>
</mgrwt>
</event>
<event>
12    7  0.1711607E-007  0.4255568E+04  0.7818608E-02  0.7954886E-01
          2   -1    0    0  501    0  0.00000000000E+00  0.00000000000E+00  0.15364497885E+04  0.15364497885E+04  0.00000000000E+00 0. -1.
         -1   -1    0    0    0  501 -0.00000000000E+00 -0.00000000000E+00 -0.29467046711E+04  0.29467046711E+04  0.00000000000E+00 0.  1.
         24    2    1    2    0    0  0.96627681578E+03 -0.67686955592E+03 -0.24167783888E+04  0.26905792195E+04  0.80965890041E+02 0.  0.
        254    2    1    2    0    0 -0.96627681578E+03  0.67686955592E+03  0.10065235063E+04  0.17925752401E+04  0.89910685804E+03 0.  0.
         23    2    4    4    0    0 -0.54394472068E+03  0.68091425969E+03  0.10388580329E+04  0.13591782241E+04  0.92840422604E+02 0.  0.
         23    2    4    4    0    0 -0.42233209510E+03 -0.40447037700E+01 -0.32334526604E+02  0.43339701601E+03  0.91688023725E+02 0.  0.
          2    1    3    3  502    0  0.33228929237E+03 -0.19237375273E+03 -0.74348689856E+03  0.83677751099E+03  0.00000000000E+00 0. -1.
         -1    1    3    3    0  502  0.63398752341E+03 -0.48449580319E+03 -0.16732914903E+04  0.18538017085E+04  0.00000000000E+00 0.  1.
         13    1    5    5    0    0 -0.28760082086E+03  0.40911307792E+03  0.64721661706E+03  0.81791019806E+03  0.00000000000E+00 0. -1.
        -13    1    5    5    0    0 -0.25634389982E+03  0.27180118176E+03  0.39164141581E+03  0.54126802599E+03  0.00000000000E+00 0.  1.
          4    1    6    6  503    0 -0.33090280161E+03  0.20398847156E+02 -0.55045918566E+02  0.33606968061E+03  0.00000000000E+00 0.  1.
         -4    1    6    6    0  503 -0.91429293499E+02 -0.24443550926E+02  0.22711391961E+02  0.97327335402E+02  0.00000000000E+00 0. -1.
<mgrwt>
<rscale>  0 0.42555675E+04</rscale>
<asrwt>0</asrwt>
<pdfrwt beam="1">  1        2 0.23637689E+00 0.42555675E+04</pdfrwt>
<pdfrwt beam="2">  1       -1 0.45333918E+00 0.42555675E+04</pdfrwt>
<totfact> 0.32725528E-02</totfact>
</mgrwt>
</event>
<event>
12    7  0.1711607E-007  0.2465329E+04  0.7818608E-02  0.8415443E-01
          2   -1    0    0  501    0  0.00000000000E+00  0.00000000000E+00  0.34243098010E+04  0.34243098010E+04  0.00000000000E+00 0. -1.
         -1   -1    0    0    0  501 -0.00000000000E+00 -0.00000000000E+00 -0.44372774096E+03  0.44372774096E+03  0.00000000000E+00 0.  1.
         24    2    1    2    0    0 -0.47092666330E+03  0.60417581163E+03  0.12986397089E+03  0.78082372929E+03  0.77593245319E+02 0.  0.
        254    2    1    2    0    0  0.47092666330E+03 -0.60417581163E+03  0.28507180892E+04  0.30872138127E+04  0.90415439382E+03 0.  0.
         23    2    4    4    0    0  0.40924163767E+02 -0.19059836564E+03  0.48449359641E+02  0.22067470954E+03  0.91364450496E+02 0.  0.
         23    2    4    4    0    0  0.43000249953E+03 -0.41357744599E+03  0.28022687295E+04  0.28665391032E+04  0.91585719753E+02 0.  0.
          4    1    3    3  502    0 -0.14161309339E+03  0.19837761561E+03  0.76686813961E+02  0.25551675881E+03  0.00000000000E+00 0. -1.
         -3    1    3    3    0  502 -0.32931356991E+03  0.40579819602E+03  0.53177156931E+02  0.52530697048E+03  0.00000000000E+00 0.  1.
         13    1    5    5    0    0  0.26472297537E+02 -0.56148618296E+01 -0.51372081377E+01  0.27544511571E+02  0.00000000000E+00 0.  1.
        -13    1    5    5    0    0  0.14451866230E+02 -0.18498350381E+03  0.53586567778E+02  0.19313019797E+03  0.00000000000E+00 0. -1.
          4    1    6    6  503    0  0.40981460813E+03 -0.41506098491E+03  0.27160277808E+04  0.27779543806E+04  0.00000000000E+00 0. -1.
         -4    1    6    6    0  503  0.20187891400E+02  0.14835389261E+01  0.86240948681E+02  0.88584722590E+02  0.00000000000E+00 0.  1.
<mgrwt>
<rscale>  0 0.24653286E+04</rscale>
<asrwt>0</asrwt>
<pdfrwt beam="1">  1        2 0.52681688E+00 0.24653286E+04</pdfrwt>
<pdfrwt beam="2">  1       -1 0.68265808E-01 0.24653286E+04</pdfrwt>
<totfact> 0.20299062E+00</totfact>
</mgrwt>
</event>
<event>
12    7  0.1711607E-007  0.1093456E+04  0.7818608E-02  0.9211593E-01
         -1   -1    0    0    0  501 -0.00000000000E+00  0.00000000000E+00  0.18461449110E+03  0.18461449110E+03  0.00000000000E+00 0.  1.
          2   -1    0    0  501    0  0.00000000000E+00 -0.00000000000E+00 -0.16191130678E+04  0.16191130678E+04  0.00000000000E+00 0. -1.
         24    2    1    2    0    0  0.34089922115E+02 -0.14925790343E+03 -0.31554985459E+03  0.35941812399E+03  0.78547008808E+02 0.  0.
        254    2    1    2    0    0 -0.34089922115E+02  0.14925790343E+03 -0.11189487221E+04  0.14443094350E+04  0.90030186969E+03 0.  0.
         23    2    4    4    0    0 -0.80227593944E+02  0.26046805321E+03 -0.12260155226E+04  0.12595646270E+04  0.95440632821E+02 0.  0.
         23    2    4    4    0    0  0.46137671829E+02 -0.11121014978E+03  0.10706680041E+03  0.18474480798E+03  0.90393374471E+02 0.  0.
          4    1    3    3  502    0  0.34152313719E+01 -0.10439637744E+03 -0.13395343324E+03  0.16986403299E+03  0.00000000000E+00 0. -1.
         -3    1    3    3    0  502  0.30674690743E+02 -0.44861525995E+02 -0.18159642135E+03  0.18955409099E+03  0.00000000000E+00 0.  1.
         13    1    5    5    0    0 -0.29003084527E+02  0.21424281435E+03 -0.83660354076E+03  0.86408717548E+03  0.00000000000E+00 0.  1.
        -13    1    5    5    0    0 -0.51224509417E+02  0.46225238860E+02 -0.38941198180E+03  0.39547745150E+03  0.00000000000E+00 0. -1.
          1    1    6    6  503    0  0.28603257641E+02 -0.55174187662E+01 -0.51657725937E+01  0.29585020940E+02  0.00000000000E+00 0. -1.
         -1    1    6    6    0  503  0.17534414188E+02 -0.10569273102E+03  0.11223257300E+03  0.15515978704E+03  0.00000000000E+00 0.  1.
<mgrwt>
<rscale>  0 0.10934564E+04</rscale>
<asrwt>0</asrwt>
<pdfrwt beam="1">  1        2 0.24909432E+00 0.10934564E+04</pdfrwt>
<pdfrwt beam="2">  1       -1 0.28402230E-01 0.10934564E+04</pdfrwt>
<totfact> 0.13822901E+02</totfact>
</mgrwt>
</event>
<event>
12    7  0.1711607E-007  0.1515597E+04  0.7818608E-02  0.8874147E-01
         -1   -1    0    0    0  501 -0.00000000000E+00  0.00000000000E+00  0.36544638382E+03  0.36544638382E+03  0.00000000000E+00 0.  1.
          2   -1    0    0  501    0  0.00000000000E+00 -0.00000000000E+00 -0.15713899382E+04  0.15713899382E+04  0.00000000000E+00 0. -1.
         24    2    1    2    0    0 -0.27650824139E+02  0.12958289113E+02  0.22829905908E+03  0.24365123307E+03  0.79454248909E+02 0.  0.
        254    2    1    2    0    0  0.27650824139E+02 -0.12958289113E+02 -0.14342426135E+04  0.16931850889E+04  0.89938389235E+03 0.  0.
         23    2    4    4    0    0  0.29967839015E+03  0.12075785777E+03 -0.14889540867E+03  0.36915108397E+03  0.98554971120E+02 0.  0.
         23    2    4    4    0    0 -0.27202756602E+03 -0.13371614689E+03 -0.12853472048E+04  0.13240340050E+04  0.95234473089E+02 0.  0.
          2    1    3    3  502    0 -0.43280625998E+02  0.47550072723E+01  0.58437627671E+02  0.72875091827E+02  0.00000000000E+00 0. -1.
         -1    1    3    3    0  502  0.15629801860E+02  0.82032818411E+01  0.16986143141E+03  0.17077614124E+03  0.00000000000E+00 0.  1.
         13    1    5    5    0    0  0.73972312390E+02  0.35532960471E+02  0.62669524908E+01  0.82302909874E+02  0.00000000000E+00 0.  1.
        -13    1    5    5    0    0  0.22570607776E+03  0.85224897301E+02 -0.15516236117E+03  0.28684817410E+03  0.00000000000E+00 0. -1.
          2    1    6    6  503    0 -0.13065982727E+03 -0.11682274283E+03 -0.69436207838E+03  0.71614121484E+03  0.00000000000E+00 0. -1.
         -2    1    6    6    0  503 -0.14136773875E+03 -0.16893404051E+02 -0.59098512641E+03  0.60789279013E+03  0.00000000000E+00 0.  1.
<mgrwt>
<rscale>  0 0.15155973E+04</rscale>
<asrwt>0</asrwt>
<pdfrwt beam="1">  1        2 0.24175230E+00 0.15155973E+04</pdfrwt>
<pdfrwt beam="2">  1       -1 0.56222520E-01 0.15155973E+04</pdfrwt>
<totfact> 0.40726302E+01</totfact>
</mgrwt>
</event>
<event>
12    7  0.1711607E-007  0.3386736E+04  0.7818608E-02  0.8141169E-01
         -1   -1    0    0    0  501 -0.00000000000E+00  0.00000000000E+00  0.10971968241E+04  0.10971968241E+04  0.00000000000E+00 0.  1.
          2   -1    0    0  501    0  0.00000000000E+00 -0.00000000000E+00 -0.26134736494E+04  0.26134736494E+04  0.00000000000E+00 0. -1.
         24    2    1    2    0    0  0.69800432309E+02  0.15444000252E+04 -0.39253474588E+03  0.15969547759E+04  0.78342144141E+02 0.  0.
        254    2    1    2    0    0 -0.69800432309E+02 -0.15444000252E+04 -0.11237420794E+04  0.21137156976E+04  0.90274816608E+03 0.  0.
         23    2    4    4    0    0 -0.64542857851E+02 -0.54363167057E+03 -0.94024529398E+03  0.10922269476E+04  0.95902651322E+02 0.  0.
         23    2    4    4    0    0 -0.52575744578E+01 -0.10007683546E+04 -0.18349678542E+03  0.10214887500E+04  0.90571819497E+02 0.  0.
          4    1    3    3  502    0  0.34187947870E+02  0.11844007341E+04 -0.27273339987E+03  0.12158772233E+04  0.00000000000E+00 0. -1.
         -3    1    3    3    0  502  0.35612484439E+02  0.35999929107E+03 -0.11980134601E+03  0.38107755264E+03  0.00000000000E+00 0.  1.
         13    1    5    5    0    0  0.21254794456E+02 -0.20752166582E+03 -0.37033763477E+03  0.42504937572E+03  0.00000000000E+00 0. -1.
        -13    1    5    5    0    0 -0.85797652307E+02 -0.33611000475E+03 -0.56990765921E+03  0.66717757191E+03  0.00000000000E+00 0.  1.
          1    1    6    6  503    0  0.67438170644E+01 -0.19176945559E+03 -0.15542635834E+00  0.19188805936E+03  0.00000000000E+00 0. -1.
         -1    1    6    6    0  503 -0.12001391522E+02 -0.80899889900E+03 -0.18334135906E+03  0.82960069065E+03  0.00000000000E+00 0.  1.
<mgrwt>
<rscale>  0 0.33867359E+04</rscale>
<asrwt>0</asrwt>
<pdfrwt beam="1">  1        2 0.40207287E+00 0.33867359E+04</pdfrwt>
<pdfrwt beam="2">  1       -1 0.16879951E+00 0.33867359E+04</pdfrwt>
<totfact> 0.70694661E-01</totfact>
</mgrwt>
</event>
<event>
12    7  0.1711607E-007  0.2923818E+04  0.7818608E-02  0.8265826E-01
          2   -1    0    0  501    0  0.00000000000E+00  0.00000000000E+00  0.39216396399E+04  0.39216396399E+04  0.00000000000E+00 0. -1.
         -1   -1    0    0    0  501 -0.00000000000E+00 -0.00000000000E+00 -0.54497053350E+03  0.54497053350E+03  0.00000000000E+00 0.  1.
         24    2    1    2    0    0 -0.23647364838E+03  0.54343710694E+02  0.35177075686E+04  0.35267495646E+04  0.69447306794E+02 0.  0.
        254    2    1    2    0    0  0.23647364838E+03 -0.54343710694E+02 -0.14103846219E+03  0.93986060875E+03  0.89697998349E+03 0.  0.
         23    2    4    4    0    0  0.16121432392E+03  0.19861544902E+03 -0.44861827528E+03  0.52430928707E+03  0.90574371458E+02 0.  0.
         23    2    4    4    0    0  0.75259324461E+02 -0.25295915971E+03  0.30757981309E+03  0.41555132168E+03  0.91789199388E+02 0.  0.
          4    1    3    3  502    0 -0.16913816074E+03  0.47950342552E+02  0.29062232449E+04  0.29115357634E+04  0.00000000000E+00 0. -1.
         -3    1    3    3    0  502 -0.67335487638E+02  0.63933681424E+01  0.61148432371E+03  0.61521380120E+03  0.00000000000E+00 0.  1.
         13    1    5    5    0    0  0.16537453151E+03  0.19129287105E+03 -0.44959917498E+03  0.51583051124E+03  0.00000000000E+00 0. -1.
        -13    1    5    5    0    0 -0.41602075889E+01  0.73225779726E+01  0.98089969729E+00  0.84787758293E+01  0.00000000000E+00 0.  1.
          1    1    6    6  503    0  0.45531536742E+02 -0.12458979239E+03  0.22142750425E+03  0.25811988851E+03  0.00000000000E+00 0. -1.
         -1    1    6    6    0  503  0.29727787719E+02 -0.12836936733E+03  0.86152308840E+02  0.15743143317E+03  0.00000000000E+00 0.  1.
<mgrwt>
<rscale>  0 0.29238181E+04</rscale>
<asrwt>0</asrwt>
<pdfrwt beam="1">  1        2 0.60332916E+00 0.29238181E+04</pdfrwt>
<pdfrwt beam="2">  1       -1 0.83841623E-01 0.29238181E+04</pdfrwt>
<totfact> 0.54549945E-01</totfact>
</mgrwt>
</event>
<event>
12    7  0.1711607E-007  0.1486573E+04  0.7818608E-02  0.8893431E-01
          2   -1    0    0  501    0  0.00000000000E+00  0.00000000000E+00  0.24385794775E+04  0.24385794775E+04  0.00000000000E+00 0. -1.
         -1   -1    0    0    0  501 -0.00000000000E+00 -0.00000000000E+00 -0.22655604133E+03  0.22655604133E+03  0.00000000000E+00 0.  1.
         24    2    1    2    0    0  0.19128809554E+03 -0.60827052212E+02  0.15088911820E+04  0.15241453956E+04  0.77301501627E+02 0.  0.
        254    2    1    2    0    0 -0.19128809554E+03  0.60827052212E+02  0.70313225426E+03  0.11409901233E+04  0.87588379861E+03 0.  0.
         23    2    4    4    0    0 -0.16565906479E+03 -0.30508854378E+03  0.66929991154E+03  0.75965948060E+03  0.92726531239E+02 0.  0.
         23    2    4    4    0    0 -0.25629030753E+02  0.36591559599E+03  0.33832342721E+02  0.38133064267E+03  0.98576675864E+02 0.  0.
          4    1    3    3  502    0  0.15931870642E+03 -0.75726339246E+02  0.11393326920E+04  0.11529075903E+04  0.00000000000E+00 0. -1.
         -3    1    3    3    0  502  0.31969389119E+02  0.14899287035E+02  0.36955848996E+03  0.37123780532E+03  0.00000000000E+00 0.  1.
         13    1    5    5    0    0 -0.20576140775E+02 -0.75326309033E+02  0.23220837242E+03  0.24498603761E+03  0.00000000000E+00 0.  1.
        -13    1    5    5    0    0 -0.14508292401E+03 -0.22976223474E+03  0.43709153912E+03  0.51467344299E+03  0.00000000000E+00 0. -1.
          1    1    6    6  503    0 -0.36619304077E+02  0.31411054637E+03 -0.39733077332E+01  0.31626285894E+03  0.00000000000E+00 0. -1.
         -1    1    6    6    0  503  0.10990273324E+02  0.51805049618E+02  0.37805650454E+02  0.65067783733E+02  0.00000000000E+00 0.  1.
<mgrwt>
<rscale>  0 0.14865731E+04</rscale>
<asrwt>0</asrwt>
<pdfrwt beam="1">  1        2 0.37516605E+00 0.14865731E+04</pdfrwt>
<pdfrwt beam="2">  1       -1 0.34854777E-01 0.14865731E+04</pdfrwt>
<totfact> 0.32611162E+01</totfact>
</mgrwt>
</event>
<event>
12    7  0.1711607E-007  0.1347662E+04  0.7818608E-02  0.8992600E-01
         -1   -1    0    0    0  501 -0.00000000000E+00  0.00000000000E+00  0.25719708945E+03  0.25719708945E+03  0.00000000000E+00 0.  1.
          2   -1    0    0  501    0  0.00000000000E+00 -0.00000000000E+00 -0.17653705810E+04  0.17653705810E+04  0.00000000000E+00 0. -1.
         24    2    1    2    0    0 -0.14827372710E+03  0.21498419375E+03 -0.81306341197E+03  0.85768345817E+03  0.79658651884E+02 0.  0.
        254    2    1    2    0    0  0.14827372710E+03 -0.21498419375E+03 -0.69511007959E+03  0.11648842123E+04  0.89753768922E+03 0.  0.
         23    2    4    4    0    0 -0.24189542398E+03 -0.41459652117E+02  0.81269060032E+02  0.27401198340E+03  0.90805330419E+02 0.  0.
         23    2    4    4    0    0  0.39016915107E+03 -0.17352454163E+03 -0.77637913962E+03  0.89087222888E+03  0.92444722724E+02 0.  0.
          4    1    3    3  502    0 -0.65640432073E+02  0.16149844886E+03 -0.53791033514E+03  0.56545375050E+03  0.00000000000E+00 0. -1.
         -3    1    3    3    0  502 -0.82633295022E+02  0.53485744891E+02 -0.27515307683E+03  0.29222970766E+03  0.00000000000E+00 0.  1.
         13    1    5    5    0    0 -0.17385471481E+03 -0.55185051285E+02  0.91135070858E+02  0.20390304777E+03  0.00000000000E+00 0. -1.
        -13    1    5    5    0    0 -0.68040709164E+02  0.13725399167E+02 -0.98660108256E+01  0.70108935632E+02  0.00000000000E+00 0.  1.
          2    1    6    6  503    0  0.32160063394E+03 -0.17910264565E+03 -0.65542182733E+03  0.75171969322E+03  0.00000000000E+00 0. -1.
         -2    1    6    6    0  503  0.68568517129E+02  0.55781040125E+01 -0.12095731229E+03  0.13915253566E+03  0.00000000000E+00 0.  1.
<mgrwt>
<rscale>  0 0.13476619E+04</rscale>
<asrwt>0</asrwt>
<pdfrwt beam="1">  1        2 0.27159548E+00 0.13476619E+04</pdfrwt>
<pdfrwt beam="2">  1       -1 0.39568783E-01 0.13476619E+04</pdfrwt>
<totfact> 0.62371160E+01</totfact>
</mgrwt>
</event>
<event>
12    7  0.1711607E-007  0.1934855E+04  0.7818608E-02  0.8637699E-01
         -1   -1    0    0    0  501 -0.00000000000E+00  0.00000000000E+00  0.10238253040E+04  0.10238253040E+04  0.00000000000E+00 0.  1.
          2   -1    0    0  501    0  0.00000000000E+00 -0.00000000000E+00 -0.91413644870E+03  0.91413644870E+03  0.00000000000E+00 0. -1.
         24    2    1    2    0    0 -0.23580361408E+03 -0.26202615661E+03  0.70411012130E+03  0.79141116076E+03  0.79369460799E+02 0.  0.
        254    2    1    2    0    0  0.23580361408E+03  0.26202615661E+03 -0.59442126597E+03  0.11465505920E+04  0.91486642049E+03 0.  0.
         23    2    4    4    0    0 -0.24028809667E+03  0.29049791258E+03 -0.52759818244E+03  0.65616678701E+03  0.10033744890E+03 0.  0.
         23    2    4    4    0    0  0.47609171075E+03 -0.28471755975E+02 -0.66823083531E+02  0.49038380495E+03  0.92395853418E+02 0.  0.
          2    1    3    3  502    0 -0.12270701849E+03 -0.17596819133E+03  0.35943762385E+03  0.41858956292E+03  0.00000000000E+00 0. -1.
         -1    1    3    3    0  502 -0.11309659558E+03 -0.86057965279E+02  0.34467249745E+03  0.37282159784E+03  0.00000000000E+00 0.  1.
         13    1    5    5    0    0 -0.17868735144E+03  0.25887894689E+03 -0.38125907744E+03  0.49427316621E+03  0.00000000000E+00 0.  1.
        -13    1    5    5    0    0 -0.61600745234E+02  0.31618965690E+02 -0.14633910500E+03  0.16189362080E+03  0.00000000000E+00 0. -1.
          1    1    6    6  503    0  0.13896207966E+03  0.28181628773E+02 -0.40769228322E+02  0.14753573724E+03  0.00000000000E+00 0. -1.
         -1    1    6    6    0  503  0.33712963109E+03 -0.56653384748E+02 -0.26053855209E+02  0.34284806771E+03  0.00000000000E+00 0.  1.
<mgrwt>
<rscale>  0 0.19348551E+04</rscale>
<asrwt>0</asrwt>
<pdfrwt beam="1">  1        2 0.14063638E+00 0.19348551E+04</pdfrwt>
<pdfrwt beam="2">  1       -1 0.15751158E+00 0.19348551E+04</pdfrwt>
<totfact> 0.93316373E+00</totfact>
</mgrwt>
</event>
<event>
12    7  0.1711607E-007  0.1934344E+04  0.7818608E-02  0.8637948E-01
         -1   -1    0    0    0  501 -0.00000000000E+00  0.00000000000E+00  0.17605451881E+04  0.17605451881E+04  0.00000000000E+00 0.  1.
          2   -1    0    0  501    0  0.00000000000E+00 -0.00000000000E+00 -0.53132493045E+03  0.53132493045E+03  0.00000000000E+00 0. -1.
         24    2    1    2    0    0  0.86749084438E+02  0.74192217274E+03  0.55377059827E+03  0.93389669290E+03  0.86759687945E+02 0.  0.
        254    2    1    2    0    0 -0.86749084438E+02 -0.74192217274E+03  0.67544965938E+03  0.13579734257E+04  0.91098060813E+03 0.  0.
         23    2    4    4    0    0 -0.25819825869E+03 -0.75298958550E+02  0.59456368720E+03  0.65880041818E+03  0.90419792659E+02 0.  0.
         23    2    4    4    0    0  0.17144917426E+03 -0.66662321419E+03  0.80885972186E+02  0.69917300748E+03  0.92298563648E+02 0.  0.
          2    1    3    3  502    0  0.80296282076E+02  0.56025568570E+03  0.37500182368E+03  0.67894056738E+03  0.00000000000E+00 0. -1.
         -1    1    3    3    0  502  0.64528023615E+01  0.18166648703E+03  0.17876877459E+03  0.25495612551E+03  0.00000000000E+00 0.  1.
         13    1    5    5    0    0 -0.96105419881E+02 -0.56628311873E+02  0.32600442315E+03  0.34456044658E+03  0.00000000000E+00 0. -1.
        -13    1    5    5    0    0 -0.16209283881E+03 -0.18670646677E+02  0.26855926405E+03  0.31423997160E+03  0.00000000000E+00 0.  1.
          4    1    6    6  503    0  0.49647870256E+01 -0.10705785548E+03 -0.12663419452E+02  0.10791846793E+03  0.00000000000E+00 0. -1.
         -4    1    6    6    0  503  0.16648438723E+03 -0.55956535871E+03  0.93549391638E+02  0.59125453955E+03  0.00000000000E+00 0.  1.
<mgrwt>
<rscale>  0 0.19343439E+04</rscale>
<asrwt>0</asrwt>
<pdfrwt beam="1">  1        2 0.81742298E-01 0.19343439E+04</pdfrwt>
<pdfrwt beam="2">  1       -1 0.27085310E+00 0.19343439E+04</pdfrwt>
<totfact> 0.31223643E+00</totfact>
</mgrwt>
</event>
<event>
12    7  0.1711607E-007  0.2004987E+04  0.7818608E-02  0.8604293E-01
          2   -1    0    0  501    0  0.00000000000E+00  0.00000000000E+00  0.10381932756E+04  0.10381932756E+04  0.00000000000E+00 0. -1.
         -1   -1    0    0    0  501 -0.00000000000E+00 -0.00000000000E+00 -0.96802098714E+03  0.96802098714E+03  0.00000000000E+00 0.  1.
         24    2    1    2    0    0  0.30552578681E+03  0.67223058914E+03 -0.27989330461E+03  0.79341694028E+03  0.77007842296E+02 0.  0.
        254    2    1    2    0    0 -0.30552578681E+03 -0.67223058914E+03  0.35006559305E+03  0.12127973224E+04  0.89615370027E+03 0.  0.
         23    2    4    4    0    0 -0.19429363101E+03 -0.39321860707E+03 -0.26645739128E+03  0.52121117886E+03  0.91053081217E+02 0.  0.
         23    2    4    4    0    0 -0.11123215580E+03 -0.27901198207E+03  0.61652298433E+03  0.69158614359E+03  0.89277797747E+02 0.  0.
          4    1    3    3  502    0  0.13444815972E+03  0.28514425737E+03 -0.79267696427E+02  0.32506449031E+03  0.00000000000E+00 0. -1.
         -1    1    3    3    0  502  0.17107762709E+03  0.38708633177E+03 -0.20062560818E+03  0.46835244997E+03  0.00000000000E+00 0.  1.
         13    1    5    5    0    0 -0.10887530037E+03 -0.22821533298E+03 -0.20497554068E+03  0.32550121584E+03  0.00000000000E+00 0. -1.
        -13    1    5    5    0    0 -0.85418330637E+02 -0.16500327409E+03 -0.61481850603E+02  0.19570996301E+03  0.00000000000E+00 0.  1.
          1    1    6    6  503    0 -0.74439880461E+02 -0.23390018868E+03  0.41838656932E+03  0.48507516475E+03  0.00000000000E+00 0. -1.
         -1    1    6    6    0  503 -0.36792275342E+02 -0.45111793387E+02  0.19813641501E+03  0.20651097884E+03  0.00000000000E+00 0.  1.
<mgrwt>
<rscale>  0 0.20049867E+04</rscale>
<asrwt>0</asrwt>
<pdfrwt beam="1">  1        2 0.15972204E+00 0.20049867E+04</pdfrwt>
<pdfrwt beam="2">  1       -1 0.14892631E+00 0.20049867E+04</pdfrwt>
<totfact> 0.89735618E+00</totfact>
</mgrwt>
</event>
<event>
12    7  0.1711607E-007  0.1160702E+04  0.7818608E-02  0.9147967E-01
         -1   -1    0    0    0  501 -0.00000000000E+00  0.00000000000E+00  0.62370087271E+03  0.62370087271E+03  0.00000000000E+00 0.  1.
          2   -1    0    0  501    0  0.00000000000E+00 -0.00000000000E+00 -0.54001368215E+03  0.54001368215E+03  0.00000000000E+00 0. -1.
         24    2    1    2    0    0 -0.12865470841E+02  0.10889483355E+03 -0.18710099297E+03  0.23098380006E+03  0.79518106157E+02 0.  0.
        254    2    1    2    0    0  0.12865470841E+02 -0.10889483355E+03  0.27078818353E+03  0.93273075480E+03  0.88579727675E+03 0.  0.
         23    2    4    4    0    0  0.81451390418E+02 -0.44732198944E+03  0.32925898702E+03  0.57080685874E+03  0.10333294833E+03 0.  0.
         23    2    4    4    0    0 -0.68585919578E+02  0.33842715590E+03 -0.58470803496E+02  0.36192389606E+03  0.91285833865E+02 0.  0.
          2    1    3    3  502    0 -0.24881039243E+02  0.59964422585E+01 -0.70535517781E+02  0.75035209750E+02  0.00000000000E+00 0. -1.
         -1    1    3    3    0  502  0.12015568403E+02  0.10289839129E+03 -0.11656547519E+03  0.15594859031E+03  0.00000000000E+00 0.  1.
         13    1    5    5    0    0 -0.23801459473E+02 -0.12321345519E+03  0.86995038272E+02  0.15269643642E+03  0.00000000000E+00 0.  1.
        -13    1    5    5    0    0  0.10525284989E+03 -0.32410853426E+03  0.24226394875E+03  0.41811042232E+03  0.00000000000E+00 0. -1.
          2    1    6    6  503    0 -0.26279553884E+02  0.29524825710E+03 -0.54134042518E+02  0.30131817541E+03  0.00000000000E+00 0. -1.
         -2    1    6    6    0  503 -0.42306365694E+02  0.43178898793E+02 -0.43367609775E+01  0.60605720646E+02  0.00000000000E+00 0.  1.
<mgrwt>
<rscale>  0 0.11607015E+04</rscale>
<asrwt>0</asrwt>
<pdfrwt beam="1">  1        2 0.83079028E-01 0.11607015E+04</pdfrwt>
<pdfrwt beam="2">  1       -1 0.95953981E-01 0.11607015E+04</pdfrwt>
<totfact> 0.66651271E+01</totfact>
</mgrwt>
</event>
<event>
12    7  0.1711607E-007  0.1285833E+04  0.7818608E-02  0.9040875E-01
         -1   -1    0    0    0  501 -0.00000000000E+00  0.00000000000E+00  0.75183742338E+03  0.75183742338E+03  0.00000000000E+00 0.  1.
          2   -1    0    0  501    0  0.00000000000E+00 -0.00000000000E+00 -0.54977558768E+03  0.54977558768E+03  0.00000000000E+00 0. -1.
         24    2    1    2    0    0 -0.11290476344E+03  0.70358084097E+02 -0.24916548772E+03  0.29377599954E+03  0.80766032654E+02 0.  0.
        254    2    1    2    0    0  0.11290476344E+03 -0.70358084097E+02  0.45122732343E+03  0.10078370115E+04  0.89130892443E+03 0.  0.
         23    2    4    4    0    0  0.17820750457E+03 -0.55028572167E+02 -0.23404811357E+03  0.31306299538E+03  0.91890484689E+02 0.  0.
         23    2    4    4    0    0 -0.65302741122E+02 -0.15329511930E+02  0.68527543699E+03  0.69477401613E+03  0.92785058146E+02 0.  0.
          4    1    3    3  502    0 -0.88716599438E+02  0.85672525162E+02 -0.22377281320E+03  0.25550868578E+03  0.00000000000E+00 0. -1.
         -3    1    3    3    0  502 -0.24188164006E+02 -0.15314441065E+02 -0.25392674524E+02  0.38267313763E+02  0.00000000000E+00 0.  1.
         13    1    5    5    0    0  0.45256539062E+01 -0.83787912591E+01  0.73576939826E+01  0.12034174130E+02  0.00000000000E+00 0.  1.
        -13    1    5    5    0    0  0.17368185066E+03 -0.46649780908E+02 -0.24140580755E+03  0.30102882125E+03  0.00000000000E+00 0. -1.
          4    1    6    6  503    0 -0.24778240202E+02 -0.14793639419E+02  0.59635850889E+03  0.59705634917E+03  0.00000000000E+00 0. -1.
         -4    1    6    6    0  503 -0.40524500921E+02 -0.53587251059E+00  0.88916928098E+02  0.97717666963E+02  0.00000000000E+00 0.  1.
<mgrwt>
<rscale>  0 0.12858334E+04</rscale>
<asrwt>0</asrwt>
<pdfrwt beam="1">  1        2 0.84580859E-01 0.12858334E+04</pdfrwt>
<pdfrwt beam="2">  1       -1 0.11566730E+00 0.12858334E+04</pdfrwt>
<totfact> 0.41834867E+01</totfact>
</mgrwt>
</event>
<event>
12    7  0.1711607E-007  0.2577162E+04  0.7818608E-02  0.8376000E-01
          2   -1    0    0  501    0  0.00000000000E+00  0.00000000000E+00  0.16820964158E+04  0.16820964158E+04  0.00000000000E+00 0. -1.
         -1   -1    0    0    0  501 -0.00000000000E+00 -0.00000000000E+00 -0.98712596349E+03  0.98712596349E+03  0.00000000000E+00 0.  1.
         24    2    1    2    0    0 -0.53090581163E+03  0.51308060784E+03 -0.57997513570E+03  0.94256479463E+03  0.83333925217E+02 0.  0.
        254    2    1    2    0    0  0.53090581163E+03 -0.51308060784E+03  0.12749455880E+04  0.17266575847E+04  0.90041516609E+03 0.  0.
         23    2    4    4    0    0  0.46204159764E+03 -0.82626645793E+02  0.12650660662E+03  0.49497015998E+03  0.93176913484E+02 0.  0.
         23    2    4    4    0    0  0.68864213990E+02 -0.43045396204E+03  0.11484389814E+04  0.12316874247E+04  0.90049568266E+02 0.  0.
          4    1    3    3  502    0 -0.40480965211E+03  0.36029341079E+03 -0.38626200521E+03  0.66549269941E+03  0.00000000000E+00 0. -1.
         -1    1    3    3    0  502 -0.12609615952E+03  0.15278719705E+03 -0.19371313049E+03  0.27707209522E+03  0.00000000000E+00 0.  1.
         13    1    5    5    0    0  0.45339246569E+03 -0.94333917201E+02  0.11722971802E+03  0.47770955890E+03  0.00000000000E+00 0. -1.
        -13    1    5    5    0    0  0.86491319447E+01  0.11707271408E+02  0.92768886057E+01  0.17260601074E+02  0.00000000000E+00 0.  1.
          2    1    6    6  503    0  0.61716490677E+02 -0.26855994615E+03  0.82716303537E+03  0.87185552529E+03  0.00000000000E+00 0. -1.
         -2    1    6    6    0  503  0.71477233130E+01 -0.16189401589E+03  0.32127594601E+03  0.35983189939E+03  0.00000000000E+00 0.  1.
<mgrwt>
<rscale>  0 0.25771620E+04</rscale>
<asrwt>0</asrwt>
<pdfrwt beam="1">  1        2 0.25878406E+00 0.25771620E+04</pdfrwt>
<pdfrwt beam="2">  1       -1 0.15186553E+00 0.25771620E+04</pdfrwt>
<totfact> 0.34163570E+00</totfact>
</mgrwt>
</event>
<event>
12    7  0.1711607E-007  0.2955351E+04  0.7818608E-02  0.8256597E-01
         -1   -1    0    0    0  501 -0.00000000000E+00  0.00000000000E+00  0.61512987150E+03  0.61512987150E+03  0.00000000000E+00 0.  1.
          2   -1    0    0  501    0  0.00000000000E+00 -0.00000000000E+00 -0.35496983190E+04  0.35496983190E+04  0.00000000000E+00 0. -1.
         24    2    1    2    0    0 -0.21308015137E+03  0.45425662074E+03 -0.30851532544E+04  0.31269442355E+04  0.88642089516E+02 0.  0.
        254    2    1    2    0    0  0.21308015137E+03 -0.45425662074E+03  0.15058480694E+03  0.10378839550E+04  0.89597717137E+03 0.  0.
         23    2    4    4    0    0 -0.29125161695E+03 -0.39599926620E+03 -0.14939240716E+01  0.50019839479E+03  0.92483939840E+02 0.  0.
         23    2    4    4    0    0  0.50433176832E+03 -0.58257354540E+02  0.15207873101E+03  0.53768556024E+03  0.90737915816E+02 0.  0.
          2    1    3    3  502    0 -0.69105610934E+02  0.23099263859E+03 -0.13066039575E+04  0.13286636467E+04  0.00000000000E+00 0. -1.
         -1    1    3    3    0  502 -0.14397454043E+03  0.22326398215E+03 -0.17785492970E+04  0.17982805887E+04  0.00000000000E+00 0.  1.
         13    1    5    5    0    0 -0.73261600489E+01 -0.36569488022E+02 -0.18926808330E+02  0.41823727103E+02  0.00000000000E+00 0. -1.
        -13    1    5    5    0    0 -0.28392545690E+03 -0.35942977818E+03  0.17432884258E+02  0.45837466768E+03  0.00000000000E+00 0.  1.
          2    1    6    6  503    0  0.21962166390E+03  0.98314054800E+01  0.94728041442E+02  0.23938198266E+03  0.00000000000E+00 0. -1.
         -2    1    6    6    0  503  0.28471010442E+03 -0.68088760020E+02  0.57350689572E+02  0.29830357758E+03  0.00000000000E+00 0.  1.
<mgrwt>
<rscale>  0 0.29553514E+04</rscale>
<asrwt>0</asrwt>
<pdfrwt beam="1">  1        2 0.54610744E+00 0.29553514E+04</pdfrwt>
<pdfrwt beam="2">  1       -1 0.94635364E-01 0.29553514E+04</pdfrwt>
<totfact> 0.79013082E-01</totfact>
</mgrwt>
</event>
<event>
12    7  0.1711607E-007  0.1650045E+04  0.7818608E-02  0.8790380E-01
         -1   -1    0    0    0  501 -0.00000000000E+00  0.00000000000E+00  0.39166491200E+03  0.39166491200E+03  0.00000000000E+00 0.  1.
          2   -1    0    0  501    0  0.00000000000E+00 -0.00000000000E+00 -0.17378678646E+04  0.17378678646E+04  0.00000000000E+00 0. -1.
         24    2    1    2    0    0 -0.14855339548E+03  0.51781026933E+03 -0.72873747192E+03  0.90981404291E+03  0.80670337566E+02 0.  0.
        254    2    1    2    0    0  0.14855339548E+03 -0.51781026933E+03 -0.61746548066E+03  0.12197187337E+04  0.90346808638E+03 0.  0.
         23    2    4    4    0    0  0.19564969311E+03 -0.13077607708E+03 -0.75552105473E+03  0.79598557659E+03  0.86022027666E+02 0.  0.
         23    2    4    4    0    0 -0.47096297637E+02 -0.38703419225E+03  0.13805557407E+03  0.42373315707E+03  0.92070188710E+02 0.  0.
          4    1    3    3  502    0 -0.76931559666E+02  0.18748395500E+03 -0.32813030655E+03  0.38566591284E+03  0.00000000000E+00 0. -1.
         -3    1    3    3    0  502 -0.71621835809E+02  0.33032631432E+03 -0.40060716538E+03  0.52414813007E+03  0.00000000000E+00 0.  1.
         13    1    5    5    0    0  0.57044760588E+02 -0.13977469157E+02 -0.30062554598E+03  0.30630898330E+03  0.00000000000E+00 0.  1.
        -13    1    5    5    0    0  0.13860493252E+03 -0.11679860792E+03 -0.45489550875E+03  0.48967659328E+03  0.00000000000E+00 0. -1.
          1    1    6    6  503    0 -0.39624069339E+02 -0.18576089405E+03  0.11236930575E+03  0.22068991255E+03  0.00000000000E+00 0. -1.
         -1    1    6    6    0  503 -0.74722282974E+01 -0.20127329820E+03  0.25686268326E+02  0.20304324452E+03  0.00000000000E+00 0.  1.
<mgrwt>
<rscale>  0 0.16500447E+04</rscale>
<asrwt>0</asrwt>
<pdfrwt beam="1">  1        2 0.26736428E+00 0.16500447E+04</pdfrwt>
<pdfrwt beam="2">  1       -1 0.60256141E-01 0.16500447E+04</pdfrwt>
<totfact> 0.28392070E+01</totfact>
</mgrwt>
</event>
<event>
12    7  0.1711607E-007  0.1864052E+04  0.7818608E-02  0.8672960E-01
          2   -1    0    0  501    0  0.00000000000E+00  0.00000000000E+00  0.22109873626E+04  0.22109873626E+04  0.00000000000E+00 0. -1.
         -1   -1    0    0    0  501 -0.00000000000E+00 -0.00000000000E+00 -0.39288878613E+03  0.39288878613E+03  0.00000000000E+00 0.  1.
         24    2    1    2    0    0 -0.87294996007E+02 -0.28325804496E+03 -0.20498195419E+03  0.36923082760E+03  0.80363338305E+02 0.  0.
        254    2    1    2    0    0  0.87294996007E+02  0.28325804496E+03  0.20230805307E+04  0.22346453212E+04  0.90162594315E+03 0.  0.
         23    2    4    4    0    0  0.22940362458E+03  0.29181662797E+03  0.26045437655E+03  0.46426389878E+03  0.99606817639E+02 0.  0.
         23    2    4    4    0    0 -0.14210862857E+03 -0.85585830026E+01  0.17626261541E+04  0.17703814224E+04  0.84447082782E+02 0.  0.
          4    1    3    3  502    0  0.59803366904E+01 -0.86732592847E+02 -0.37460273898E+02  0.94665617884E+02  0.00000000000E+00 0. -1.
         -3    1    3    3    0  502 -0.93275332697E+02 -0.19652545212E+03 -0.16752168029E+03  0.27456520972E+03  0.00000000000E+00 0.  1.
         13    1    5    5    0    0  0.79464603946E+02  0.60580504030E+02  0.28120271195E+02  0.10380448160E+03  0.00000000000E+00 0. -1.
        -13    1    5    5    0    0  0.14993902063E+03  0.23123612394E+03  0.23233410535E+03  0.36045941718E+03  0.00000000000E+00 0.  1.
          4    1    6    6  503    0 -0.17633213312E+02  0.31824935523E+01  0.72912062278E+03  0.72934075783E+03  0.00000000000E+00 0. -1.
         -4    1    6    6    0  503 -0.12447541526E+03 -0.11741076555E+02  0.10335055314E+04  0.10410406645E+04  0.00000000000E+00 0.  1.
<mgrwt>
<rscale>  0 0.18640517E+04</rscale>
<asrwt>0</asrwt>
<pdfrwt beam="1">  1        2 0.34015190E+00 0.18640517E+04</pdfrwt>
<pdfrwt beam="2">  1       -1 0.60444430E-01 0.18640517E+04</pdfrwt>
<totfact> 0.15114549E+01</totfact>
</mgrwt>
</event>
<event>
12    7  0.1711607E-007  0.1599787E+04  0.7818608E-02  0.8820679E-01
         -1   -1    0    0    0  501 -0.00000000000E+00  0.00000000000E+00  0.20099593617E+03  0.20099593617E+03  0.00000000000E+00 0.  1.
          2   -1    0    0  501    0  0.00000000000E+00 -0.00000000000E+00 -0.31832945018E+04  0.31832945018E+04  0.00000000000E+00 0. -1.
         24    2    1    2    0    0  0.42943989193E+03 -0.23494237670E+03 -0.51052547925E+03  0.71250207552E+03  0.86060452663E+02 0.  0.
        254    2    1    2    0    0 -0.42943989193E+03  0.23494237670E+03 -0.24717730864E+04  0.26717883625E+04  0.88835484014E+03 0.  0.
         23    2    4    4    0    0 -0.63931080005E+03 -0.38143760041E+02 -0.13974651773E+04  0.15399534600E+04  0.91512248503E+02 0.  0.
         23    2    4    4    0    0  0.20987090812E+03  0.27308613674E+03 -0.10743079091E+04  0.11318349025E+04  0.91054526422E+02 0.  0.
          4    1    3    3  502    0 -0.43060375538E+00  0.56857438537E+00  0.27137869379E+01  0.28059465373E+01  0.00000000000E+00 0. -1.
         -3    1    3    3    0  502  0.42987049568E+03 -0.23551095108E+03 -0.51323926619E+03  0.70969612899E+03  0.00000000000E+00 0.  1.
         13    1    5    5    0    0 -0.54204435553E+03 -0.20258771750E+02 -0.10997768661E+04  0.12262673674E+04  0.00000000000E+00 0. -1.
        -13    1    5    5    0    0 -0.97266444517E+02 -0.17884988291E+02 -0.29768831117E+03  0.31368609252E+03  0.00000000000E+00 0.  1.
          1    1    6    6  503    0  0.14471086995E+03  0.11628094415E+03 -0.59890450020E+03  0.62701602389E+03  0.00000000000E+00 0. -1.
         -1    1    6    6    0  503  0.65160038172E+02  0.15680519259E+03 -0.47540340893E+03  0.50481887862E+03  0.00000000000E+00 0.  1.
<mgrwt>
<rscale>  0 0.15997866E+04</rscale>
<asrwt>0</asrwt>
<pdfrwt beam="1">  1        2 0.48973758E+00 0.15997866E+04</pdfrwt>
<pdfrwt beam="2">  1       -1 0.30922454E-01 0.15997866E+04</pdfrwt>
<totfact> 0.14156718E+01</totfact>
</mgrwt>
</event>
<event>
12    7  0.1711607E-007  0.1329766E+04  0.7818608E-02  0.9006288E-01
         -1   -1    0    0    0  501 -0.00000000000E+00  0.00000000000E+00  0.47994286812E+03  0.47994286812E+03  0.00000000000E+00 0.  1.
          2   -1    0    0  501    0  0.00000000000E+00 -0.00000000000E+00 -0.92108810747E+03  0.92108810747E+03  0.00000000000E+00 0. -1.
         24    2    1    2    0    0  0.25746971768E+03  0.23282276782E+03 -0.22569832610E+03  0.42157029822E+03  0.79276006439E+02 0.  0.
        254    2    1    2    0    0 -0.25746971768E+03 -0.23282276782E+03 -0.21544691325E+03  0.97946067737E+03  0.89018467148E+03 0.  0.
         23    2    4    4    0    0  0.27378638238E+03  0.49412168426E+02  0.80200702794E+02  0.30330016836E+03  0.90323274053E+02 0.  0.
         23    2    4    4    0    0 -0.53125610006E+03 -0.28223493625E+03 -0.29564761604E+03  0.67616050901E+03  0.88858978064E+02 0.  0.
          2    1    3    3  502    0  0.20771528232E+03  0.14600931498E+03 -0.18196024871E+03  0.31236819729E+03  0.00000000000E+00 0. -1.
         -1    1    3    3    0  502  0.49754435368E+02  0.86813452845E+02 -0.43738077385E+02  0.10920210093E+03  0.00000000000E+00 0.  1.
         13    1    5    5    0    0  0.14268590969E+03 -0.11110127507E+02  0.67820927903E+02  0.15837418357E+03  0.00000000000E+00 0. -1.
        -13    1    5    5    0    0  0.13110047268E+03  0.60522295933E+02  0.12379774891E+02  0.14492598479E+03  0.00000000000E+00 0.  1.
          2    1    6    6  503    0 -0.14767383903E+03 -0.12480010736E+03 -0.87775773852E+02  0.21233750495E+03  0.00000000000E+00 0.  1.
         -2    1    6    6    0  503 -0.38358226103E+03 -0.15743482889E+03 -0.20787184219E+03  0.46382300406E+03  0.00000000000E+00 0. -1.
<mgrwt>
<rscale>  0 0.13297664E+04</rscale>
<asrwt>0</asrwt>
<pdfrwt beam="1">  1        2 0.14170586E+00 0.13297664E+04</pdfrwt>
<pdfrwt beam="2">  1       -1 0.73837365E-01 0.13297664E+04</pdfrwt>
<totfact> 0.58530699E+01</totfact>
</mgrwt>
</event>
<event>
12    7  0.1711607E-007  0.1957401E+04  0.7818608E-02  0.8626800E-01
          2   -1    0    0  501    0  0.00000000000E+00  0.00000000000E+00  0.21179914214E+04  0.21179914214E+04  0.00000000000E+00 0. -1.
         -1   -1    0    0    0  501 -0.00000000000E+00 -0.00000000000E+00 -0.45224682466E+03  0.45224682466E+03  0.00000000000E+00 0.  1.
         24    2    1    2    0    0  0.26299871558E+03  0.72282921008E+03  0.57946995673E+03  0.96650651920E+03  0.81847599588E+02 0.  0.
        254    2    1    2    0    0 -0.26299871558E+03 -0.72282921008E+03  0.10862746400E+04  0.16037317269E+04  0.89460184823E+03 0.  0.
         23    2    4    4    0    0 -0.22334482735E+03 -0.54729939142E+03  0.12224197009E+04  0.13608319693E+04  0.90189731522E+02 0.  0.
         23    2    4    4    0    0 -0.39653888226E+02 -0.17552981866E+03 -0.13614506087E+03  0.24289975761E+03  0.89898089826E+02 0.  0.
          4    1    3    3  502    0  0.21519470896E+02  0.88853242758E+02  0.40176550994E+02  0.99860610984E+02  0.00000000000E+00 0. -1.
         -3    1    3    3    0  502  0.24147924468E+03  0.63397596733E+03  0.53929340573E+03  0.86664590821E+03  0.00000000000E+00 0.  1.
         13    1    5    5    0    0 -0.52350424288E+02 -0.10840542465E+03  0.33805068397E+03  0.35884616196E+03  0.00000000000E+00 0.  1.
        -13    1    5    5    0    0 -0.17099440307E+03 -0.43889396677E+03  0.88436901692E+03  0.10019858073E+04  0.00000000000E+00 0. -1.
          3    1    6    6  503    0 -0.40909224415E+02 -0.24171267945E+02 -0.17717566477E+02  0.50712197726E+02  0.00000000000E+00 0. -1.
         -3    1    6    6    0  503  0.12553361892E+01 -0.15135855072E+03 -0.11842749440E+03  0.19218755988E+03  0.00000000000E+00 0.  1.
<mgrwt>
<rscale>  0 0.19574012E+04</rscale>
<asrwt>0</asrwt>
<pdfrwt beam="1">  1        2 0.32584483E+00 0.19574012E+04</pdfrwt>
<pdfrwt beam="2">  1       -1 0.69576436E-01 0.19574012E+04</pdfrwt>
<totfact> 0.12731105E+01</totfact>
</mgrwt>
</event>
<event>
12    7  0.1711607E-007  0.2693236E+04  0.7818608E-02  0.8337203E-01
         -1   -1    0    0    0  501 -0.00000000000E+00  0.00000000000E+00  0.10123527559E+04  0.10123527559E+04  0.00000000000E+00 0.  1.
          2   -1    0    0  501    0  0.00000000000E+00 -0.00000000000E+00 -0.17912534168E+04  0.17912534168E+04  0.00000000000E+00 0. -1.
         24    2    1    2    0    0  0.95492074832E+03  0.46854670554E+03 -0.91098022733E+03  0.14028012755E+04  0.80974027330E+02 0.  0.
        254    2    1    2    0    0 -0.95492074832E+03 -0.46854670554E+03  0.13207956644E+03  0.14008048972E+04  0.90188674309E+03 0.  0.
         23    2    4    4    0    0 -0.95547744848E+03 -0.67078342300E+03  0.14386829867E+03  0.11799285126E+04  0.92982000632E+02 0.  0.
         23    2    4    4    0    0  0.55670016882E+00  0.20223671746E+03 -0.11788732228E+02  0.22087638458E+03  0.88019334560E+02 0.  0.
          2    1    3    3  502    0  0.60959556778E+03  0.30969751028E+03 -0.63427398118E+03  0.93264290451E+03  0.00000000000E+00 0. -1.
         -1    1    3    3    0  502  0.34532518054E+03  0.15884919526E+03 -0.27670624615E+03  0.47015837098E+03  0.00000000000E+00 0.  1.
         13    1    5    5    0    0 -0.10243664691E+03 -0.10129579592E+03 -0.10947518294E+01  0.14406701004E+03  0.00000000000E+00 0. -1.
        -13    1    5    5    0    0 -0.85304080158E+03 -0.56948762707E+03  0.14496305050E+03  0.10358615026E+04  0.00000000000E+00 0.  1.
          4    1    6    6  503    0  0.39428558928E+01  0.41740007949E+02  0.33958039036E+02  0.53952968327E+02  0.00000000000E+00 0. -1.
         -4    1    6    6    0  503 -0.33861557240E+01  0.16049670951E+03 -0.45746771264E+02  0.16692341626E+03  0.00000000000E+00 0.  1.
<mgrwt>
<rscale>  0 0.26932362E+04</rscale>
<asrwt>0</asrwt>
<pdfrwt beam="1">  1        2 0.27557745E+00 0.26932362E+04</pdfrwt>
<pdfrwt beam="2">  1       -1 0.15574658E+00 0.26932362E+04</pdfrwt>
<totfact> 0.27455307E+00</totfact>
</mgrwt>
</event>
<event>
12    7  0.1711607E-007  0.9925813E+03  0.7818608E-02  0.9316719E-01
         -1   -1    0    0    0  501 -0.00000000000E+00  0.00000000000E+00  0.10424012122E+04  0.10424012122E+04  0.00000000000E+00 0.  1.
          2   -1    0    0  501    0  0.00000000000E+00 -0.00000000000E+00 -0.23628559683E+03  0.23628559683E+03  0.00000000000E+00 0. -1.
         24    2    1    2    0    0 -0.30475465610E+01  0.34137291160E+02  0.90986156378E+02  0.12564300861E+03  0.79580417017E+02 0.  0.
        254    2    1    2    0    0  0.30475465610E+01 -0.34137291160E+02  0.71512945896E+03  0.11530438004E+04  0.90383915624E+03 0.  0.
         23    2    4    4    0    0  0.43110859162E+03  0.34992325680E+02  0.23809218178E+03  0.50209666148E+03  0.91291236266E+02 0.  0.
         23    2    4    4    0    0 -0.42806104506E+03 -0.69129616840E+02  0.47703727717E+03  0.65094713891E+03  0.90290927657E+02 0.  0.
          2    1    3    3  502    0  0.33427574251E+02  0.60359510516E+01  0.15765326089E+02  0.37448376895E+02  0.00000000000E+00 0. -1.
         -1    1    3    3    0  502 -0.36475120812E+02  0.28101340109E+02  0.75220830289E+02  0.88194631716E+02  0.00000000000E+00 0.  1.
         13    1    5    5    0    0  0.38178878897E+03  0.57016450606E+02  0.22387150984E+03  0.44624209566E+03  0.00000000000E+00 0. -1.
        -13    1    5    5    0    0  0.49319802650E+02 -0.22024124926E+02  0.14220671941E+02  0.55854565818E+02  0.00000000000E+00 0.  1.
          1    1    6    6  503    0 -0.39606165379E+03 -0.41453422428E+02  0.44919840194E+03  0.60030194414E+03  0.00000000000E+00 0. -1.
         -1    1    6    6    0  503 -0.31999391268E+02 -0.27676194412E+02  0.27838875235E+02  0.50645194767E+02  0.00000000000E+00 0.  1.
<mgrwt>
<rscale>  0 0.99258127E+03</rscale>
<asrwt>0</asrwt>
<pdfrwt beam="1">  1        2 0.36351631E-01 0.99258127E+03</pdfrwt>
<pdfrwt beam="2">  1       -1 0.16036941E+00 0.99258127E+03</pdfrwt>
<totfact> 0.47728450E+01</totfact>
</mgrwt>
</event>
<event>
12    7  0.1711607E-007  0.1527580E+04  0.7818608E-02  0.8866317E-01
          2   -1    0    0  501    0  0.00000000000E+00  0.00000000000E+00  0.28075918204E+04  0.28075918204E+04  0.00000000000E+00 0. -1.
         -1   -1    0    0    0  501 -0.00000000000E+00 -0.00000000000E+00 -0.20778490583E+03  0.20778490583E+03  0.00000000000E+00 0.  1.
         24    2    1    2    0    0  0.13694740696E+03  0.14775430608E+03  0.17556680443E+04  0.17688857218E+04  0.77462816666E+02 0.  0.
        254    2    1    2    0    0 -0.13694740696E+03 -0.14775430608E+03  0.84413887036E+03  0.12464910045E+04  0.89475329812E+03 0.  0.
         23    2    4    4    0    0 -0.63784031813E+02 -0.51019059929E+03  0.58772583414E+03  0.78574364023E+03  0.87227069923E+02 0.  0.
         23    2    4    4    0    0 -0.73163375146E+02  0.36243629321E+03  0.25641303622E+03  0.46074736423E+03  0.99133961883E+02 0.  0.
          4    1    3    3  502    0  0.10999661744E+03  0.15244540285E+03  0.14895794757E+04  0.15013946420E+04  0.00000000000E+00 0. -1.
         -3    1    3    3    0  502  0.26950789519E+02 -0.46910967688E+01  0.26608856855E+03  0.26749107977E+03  0.00000000000E+00 0.  1.
         13    1    5    5    0    0 -0.37455331324E+02 -0.35517943998E+03  0.34518284574E+03  0.49669561446E+03  0.00000000000E+00 0. -1.
        -13    1    5    5    0    0 -0.26328700489E+02 -0.15501115931E+03  0.24254298840E+03  0.28904802577E+03  0.00000000000E+00 0.  1.
          2    1    6    6  503    0 -0.18692859752E+02  0.23270322143E+02  0.54904073084E+02  0.62493104737E+02  0.00000000000E+00 0. -1.
         -2    1    6    6    0  503 -0.54470515394E+02  0.33916597107E+03  0.20150896314E+03  0.39825425949E+03  0.00000000000E+00 0.  1.
<mgrwt>
<rscale>  0 0.15275800E+04</rscale>
<asrwt>0</asrwt>
<pdfrwt beam="1">  1        2 0.43193718E+00 0.15275800E+04</pdfrwt>
<pdfrwt beam="2">  1       -1 0.31966911E-01 0.15275800E+04</pdfrwt>
<totfact> 0.23030812E+01</totfact>
</mgrwt>
</event>
<event>
12    7  0.1711607E-007  0.1556651E+04  0.7818608E-02  0.8847631E-01
         -1   -1    0    0    0  501 -0.00000000000E+00  0.00000000000E+00  0.12542582408E+04  0.12542582408E+04  0.00000000000E+00 0.  1.
          2   -1    0    0  501    0  0.00000000000E+00 -0.00000000000E+00 -0.48298721549E+03  0.48298721549E+03  0.00000000000E+00 0. -1.
         24    2    1    2    0    0  0.28087466291E+03  0.27849434124E+03 -0.10652737361E+03  0.41736864754E+03  0.79992701248E+02 0.  0.
        254    2    1    2    0    0 -0.28087466291E+03 -0.27849434124E+03  0.87779839890E+03  0.13198768087E+04  0.90282616639E+03 0.  0.
         23    2    4    4    0    0 -0.37036087164E+03 -0.92600999146E+02  0.99147095263E+03  0.10664265628E+04  0.92243393129E+02 0.  0.
         23    2    4    4    0    0  0.89486208732E+02 -0.18589334210E+03 -0.11367255372E+03  0.25345024596E+03  0.93549246483E+02 0.  0.
          2    1    3    3  502    0  0.23167057558E+03  0.22768055301E+03 -0.11823834275E+03  0.34567324963E+03  0.00000000000E+00 0. -1.
         -1    1    3    3    0  502  0.49204087328E+02  0.50813788233E+02  0.11710969138E+02  0.71695397918E+02  0.00000000000E+00 0.  1.
         13    1    5    5    0    0 -0.31745001481E+03 -0.11140476605E+03  0.83854861940E+03  0.90352051493E+03  0.00000000000E+00 0. -1.
        -13    1    5    5    0    0 -0.52910856831E+02  0.18803766909E+02  0.15292233322E+03  0.16290604783E+03  0.00000000000E+00 0.  1.
          4    1    6    6  503    0  0.95373172194E+02 -0.13929686336E+03 -0.53448646900E+02  0.17707742931E+03  0.00000000000E+00 0. -1.
         -4    1    6    6    0  503 -0.58869634619E+01 -0.46596478737E+02 -0.60223906824E+02  0.76372816647E+02  0.00000000000E+00 0.  1.
<mgrwt>
<rscale>  0 0.15566511E+04</rscale>
<asrwt>0</asrwt>
<pdfrwt beam="1">  1        2 0.74305726E-01 0.15566511E+04</pdfrwt>
<pdfrwt beam="2">  1       -1 0.19296280E+00 0.15566511E+04</pdfrwt>
<totfact> 0.11875890E+01</totfact>
</mgrwt>
</event>
<event>
12    7  0.1711607E-007  0.2671346E+04  0.7818608E-02  0.8344362E-01
          2   -1    0    0  501    0  0.00000000000E+00  0.00000000000E+00  0.34623144963E+04  0.34623144963E+04  0.00000000000E+00 0. -1.
         -1   -1    0    0    0  501 -0.00000000000E+00 -0.00000000000E+00 -0.51526879113E+03  0.51526879113E+03  0.00000000000E+00 0.  1.
         24    2    1    2    0    0 -0.39490903738E+03  0.10533548290E+04  0.75562140371E+03  0.13570877513E+04  0.72207445392E+02 0.  0.
        254    2    1    2    0    0  0.39490903738E+03 -0.10533548290E+04  0.21914243015E+04  0.26204955362E+04  0.89395013419E+03 0.  0.
         23    2    4    4    0    0 -0.11391783697E+03 -0.74188469397E+03  0.16286750797E+04  0.17956202085E+04  0.91100192784E+02 0.  0.
         23    2    4    4    0    0  0.50882687434E+03 -0.31147013508E+03  0.56274922178E+03  0.82487532772E+03  0.88397887816E+02 0.  0.
          4    1    3    3  502    0 -0.17172946641E+03  0.41458009650E+03  0.33995154151E+03  0.56296955212E+03  0.00000000000E+00 0. -1.
         -3    1    3    3    0  502 -0.22317957097E+03  0.63877473255E+03  0.41566986221E+03  0.79411819913E+03  0.00000000000E+00 0.  1.
         13    1    5    5    0    0 -0.11248863459E+03 -0.70761690923E+03  0.15896629387E+04  0.17436753258E+04  0.00000000000E+00 0. -1.
        -13    1    5    5    0    0 -0.14292023728E+01 -0.34267784747E+02  0.39012141009E+02  0.51944882683E+02  0.00000000000E+00 0.  1.
          1    1    6    6  503    0  0.51067047704E+03 -0.30455443791E+03  0.54856575390E+03  0.80898833621E+03  0.00000000000E+00 0. -1.
         -1    1    6    6    0  503 -0.18436026967E+01 -0.69156971683E+01  0.14183467878E+02  0.15886991511E+02  0.00000000000E+00 0.  1.
<mgrwt>
<rscale>  0 0.26713462E+04</rscale>
<asrwt>0</asrwt>
<pdfrwt beam="1">  1        2 0.53266375E+00 0.26713462E+04</pdfrwt>
<pdfrwt beam="2">  1       -1 0.79272124E-01 0.26713462E+04</pdfrwt>
<totfact> 0.13736771E+00</totfact>
</mgrwt>
</event>
<event>
12    7  0.1711607E-007  0.2145249E+04  0.7818608E-02  0.8541569E-01
          2   -1    0    0  501    0  0.00000000000E+00  0.00000000000E+00  0.24506786481E+04  0.24506786481E+04  0.00000000000E+00 0. -1.
         -1   -1    0    0    0  501 -0.00000000000E+00 -0.00000000000E+00 -0.46947131719E+03  0.46947131719E+03  0.00000000000E+00 0.  1.
         24    2    1    2    0    0 -0.40989506680E+03 -0.69142419739E+03  0.13241313551E+04  0.15510559946E+04  0.79808936068E+02 0.  0.
        254    2    1    2    0    0  0.40989506680E+03  0.69142419739E+03  0.65707597579E+03  0.13690939707E+04  0.89251782954E+03 0.  0.
         23    2    4    4    0    0  0.43473942025E+03  0.81053212209E+02 -0.21255862700E+02  0.45167775858E+03  0.89403574692E+02 0.  0.
         23    2    4    4    0    0 -0.24844353454E+02  0.61037098518E+03  0.67833183849E+03  0.91741621209E+03  0.91369807092E+02 0.  0.
          2    1    3    3  502    0 -0.37253087825E+03 -0.64183952206E+03  0.12561531816E+04  0.14589921326E+04  0.00000000000E+00 0. -1.
         -1    1    3    3    0  502 -0.37364188542E+02 -0.49584675332E+02  0.67978173498E+02  0.92063861994E+02  0.00000000000E+00 0.  1.
         13    1    5    5    0    0  0.11965111029E+03  0.92567331322E+01 -0.43741687019E+02  0.12773179121E+03  0.00000000000E+00 0.  1.
        -13    1    5    5    0    0  0.31508830996E+03  0.71796479077E+02  0.22485824319E+02  0.32394596737E+03  0.00000000000E+00 0. -1.
          1    1    6    6  503    0  0.18068386533E+01  0.19050979673E-02 -0.22190123758E+01  0.28615879285E+01  0.00000000000E+00 0. -1.
         -1    1    6    6    0  503 -0.26651192108E+02  0.61036908008E+03  0.68055085086E+03  0.91455462416E+03  0.00000000000E+00 0.  1.
<mgrwt>
<rscale>  0 0.21452490E+04</rscale>
<asrwt>0</asrwt>
<pdfrwt beam="1">  1        2 0.37702748E+00 0.21452490E+04</pdfrwt>
<pdfrwt beam="2">  1       -1 0.72226358E-01 0.21452490E+04</pdfrwt>
<totfact> 0.75137321E+00</totfact>
</mgrwt>
</event>
<event>
12    7  0.1711607E-007  0.2828296E+04  0.7818608E-02  0.8294537E-01
          2   -1    0    0  501    0  0.00000000000E+00  0.00000000000E+00  0.12884272398E+04  0.12884272398E+04  0.00000000000E+00 0. -1.
         -1   -1    0    0    0  501 -0.00000000000E+00 -0.00000000000E+00 -0.15521360235E+04  0.15521360235E+04  0.00000000000E+00 0.  1.
         24    2    1    2    0    0  0.41066572834E+03  0.11048216848E+04  0.35920588123E+03  0.12346959936E+04  0.78536843947E+02 0.  0.
        254    2    1    2    0    0 -0.41066572834E+03 -0.11048216848E+04 -0.62291466495E+03  0.16058672698E+04  0.89527074836E+03 0.  0.
         23    2    4    4    0    0 -0.39112126276E+03 -0.16112670663E+03 -0.48095594296E+03  0.64702689320E+03  0.91583424709E+02 0.  0.
         23    2    4    4    0    0 -0.19544465582E+02 -0.94369497813E+03 -0.14195872199E+03  0.95884037660E+03  0.90996654738E+02 0.  0.
          2    1    3    3  502    0  0.25977021094E+03  0.79927584707E+03  0.24886980707E+03  0.87650363551E+03  0.00000000000E+00 0. -1.
         -1    1    3    3    0  502  0.15089551740E+03  0.30554583769E+03  0.11033607417E+03  0.35819235805E+03  0.00000000000E+00 0.  1.
         13    1    5    5    0    0 -0.30550339016E+02  0.60299849387E+01 -0.63009771660E+02  0.70284530709E+02  0.00000000000E+00 0. -1.
        -13    1    5    5    0    0 -0.36057092375E+03 -0.16715669157E+03 -0.41794617130E+03  0.57674236249E+03  0.00000000000E+00 0.  1.
          1    1    6    6  503    0  0.98527866452E+01 -0.10054147685E+02 -0.37467817589E+01  0.14567143299E+02  0.00000000000E+00 0. -1.
         -1    1    6    6    0  503 -0.29397252228E+02 -0.93364083044E+03 -0.13821194023E+03  0.94427323330E+03  0.00000000000E+00 0.  1.
<mgrwt>
<rscale>  0 0.28282958E+04</rscale>
<asrwt>0</asrwt>
<pdfrwt beam="1">  1        2 0.19821957E+00 0.28282958E+04</pdfrwt>
<pdfrwt beam="2">  1       -1 0.23879016E+00 0.28282958E+04</pdfrwt>
<totfact> 0.13712128E+00</totfact>
</mgrwt>
</event>
<event>
12    7  0.1711607E-007  0.2146171E+04  0.7818608E-02  0.8541173E-01
          2   -1    0    0  501    0  0.00000000000E+00  0.00000000000E+00  0.89895499101E+03  0.89895499101E+03  0.00000000000E+00 0. -1.
         -1   -1    0    0    0  501 -0.00000000000E+00 -0.00000000000E+00 -0.12809451469E+04  0.12809451469E+04  0.00000000000E+00 0.  1.
         24    2    1    2    0    0  0.23129129195E+03  0.84510107335E+03 -0.25240814903E+03  0.91509284243E+03  0.77418025423E+02 0.  0.
        254    2    1    2    0    0 -0.23129129195E+03 -0.84510107335E+03 -0.12958200684E+03  0.12648072955E+04  0.90291445454E+03 0.  0.
         23    2    4    4    0    0  0.27208197161E+02 -0.72609401277E+03 -0.42339512143E+03  0.84552658758E+03  0.87743832159E+02 0.  0.
         23    2    4    4    0    0 -0.25849948911E+03 -0.11900706058E+03  0.29381311460E+03  0.41928070787E+03  0.92116770147E+02 0.  0.
          2    1    3    3  502    0  0.22874389104E+03  0.74346875754E+03 -0.21959868817E+03  0.80826551638E+03  0.00000000000E+00 0. -1.
         -1    1    3    3    0  502  0.25474009042E+01  0.10163231582E+03 -0.32809460855E+02  0.10682732605E+03  0.00000000000E+00 0.  1.
         13    1    5    5    0    0  0.29687131259E+02 -0.31455364799E+03 -0.13840894650E+03  0.34493819693E+03  0.00000000000E+00 0. -1.
        -13    1    5    5    0    0 -0.24789340978E+01 -0.41154036478E+03 -0.28498617494E+03  0.50058839066E+03  0.00000000000E+00 0.  1.
          3    1    6    6  503    0 -0.77829882413E+01  0.10397703621E+02  0.31354907353E+02  0.33938434874E+02  0.00000000000E+00 0. -1.
         -3    1    6    6    0  503 -0.25071650087E+03 -0.12940476420E+03  0.26245820725E+03  0.38534227300E+03  0.00000000000E+00 0.  1.
<mgrwt>
<rscale>  0 0.21461706E+04</rscale>
<asrwt>0</asrwt>
<pdfrwt beam="1">  1        2 0.13830077E+00 0.21461706E+04</pdfrwt>
<pdfrwt beam="2">  1       -1 0.19706848E+00 0.21461706E+04</pdfrwt>
<totfact> 0.48506428E+00</totfact>
</mgrwt>
</event>
<event>
12    7  0.1711607E-007  0.1490836E+04  0.7818608E-02  0.8890570E-01
          2   -1    0    0  501    0  0.00000000000E+00  0.00000000000E+00  0.10990304038E+04  0.10990304038E+04  0.00000000000E+00 0. -1.
         -1   -1    0    0    0  501 -0.00000000000E+00 -0.00000000000E+00 -0.50558007227E+03  0.50558007227E+03  0.00000000000E+00 0.  1.
         24    2    1    2    0    0 -0.23036705556E+03 -0.21824065399E+03  0.55974119253E+03  0.64840486964E+03  0.80129326828E+02 0.  0.
        254    2    1    2    0    0  0.23036705556E+03  0.21824065399E+03  0.33709139016E+02  0.95620560645E+03  0.90138498568E+03 0.  0.
         23    2    4    4    0    0 -0.13938435414E+03  0.55004493313E+02  0.37736344005E+03  0.41633265628E+03  0.92066401760E+02 0.  0.
         23    2    4    4    0    0  0.36975140969E+03  0.16323616067E+03 -0.34365430103E+03  0.53987295017E+03  0.10001187221E+03 0.  0.
          4    1    3    3  502    0 -0.12794584991E+03 -0.15429847772E+03  0.28631587994E+03  0.34950671501E+03  0.00000000000E+00 0. -1.
         -3    1    3    3    0  502 -0.10242120565E+03 -0.63942176269E+02  0.27342531259E+03  0.29889815463E+03  0.00000000000E+00 0.  1.
         13    1    5    5    0    0 -0.82021737584E+02 -0.16503517104E+02  0.19625342210E+03  0.21334323800E+03  0.00000000000E+00 0.  1.
        -13    1    5    5    0    0 -0.57362616551E+02  0.71508010417E+02  0.18111001795E+03  0.20298941828E+03  0.00000000000E+00 0. -1.
          1    1    6    6  503    0  0.23481046335E+03  0.67733945043E+02 -0.25117779171E+03  0.35044846134E+03  0.00000000000E+00 0. -1.
         -1    1    6    6    0  503  0.13494094635E+03  0.95502215629E+02 -0.92476509327E+02  0.18942448883E+03  0.00000000000E+00 0.  1.
<mgrwt>
<rscale>  0 0.14908358E+04</rscale>
<asrwt>0</asrwt>
<pdfrwt beam="1">  1        2 0.16908160E+00 0.14908358E+04</pdfrwt>
<pdfrwt beam="2">  1       -1 0.77781550E-01 0.14908358E+04</pdfrwt>
<totfact> 0.39845444E+01</totfact>
</mgrwt>
</event>
<event>
12    7  0.1711607E-007  0.2078233E+04  0.7818608E-02  0.8570893E-01
          2   -1    0    0  501    0  0.00000000000E+00  0.00000000000E+00  0.29291392049E+04  0.29291392049E+04  0.00000000000E+00 0. -1.
         -1   -1    0    0    0  501 -0.00000000000E+00 -0.00000000000E+00 -0.36862810836E+03  0.36862810836E+03  0.00000000000E+00 0.  1.
         24    2    1    2    0    0  0.46081487037E+02  0.77946167725E+03  0.14482874447E+04  0.16473307364E+04  0.80486165686E+02 0.  0.
        254    2    1    2    0    0 -0.46081487037E+02 -0.77946167725E+03  0.11122236519E+04  0.16504365769E+04  0.93659779674E+03 0.  0.
         23    2    4    4    0    0  0.31904502177E+03 -0.75635321820E+03  0.63363659595E+03  0.10414006448E+04  0.95708153754E+02 0.  0.
         23    2    4    4    0    0 -0.36512650880E+03 -0.23108459049E+02  0.47858705599E+03  0.60903593213E+03  0.89598148205E+02 0.  0.
          2    1    3    3  502    0  0.15771521413E+02  0.45688419423E+03  0.76655983522E+03  0.89252780841E+03  0.00000000000E+00 0. -1.
         -1    1    3    3    0  502  0.30309965624E+02  0.32257748302E+03  0.68172760944E+03  0.75480292795E+03  0.00000000000E+00 0.  1.
         13    1    5    5    0    0  0.28263466051E+03 -0.72588397523E+03  0.59632600407E+03  0.98101712521E+03  0.00000000000E+00 0.  1.
        -13    1    5    5    0    0  0.36410361253E+02 -0.30469242974E+02  0.37310591875E+02  0.60383519606E+02  0.00000000000E+00 0. -1.
          4    1    6    6  503    0 -0.24520455684E+03 -0.57133299223E+02  0.33023961013E+03  0.41526821293E+03  0.00000000000E+00 0. -1.
         -4    1    6    6    0  503 -0.11992195196E+03  0.34024840174E+02  0.14834744586E+03  0.19376771920E+03  0.00000000000E+00 0.  1.
<mgrwt>
<rscale>  0 0.20782329E+04</rscale>
<asrwt>0</asrwt>
<pdfrwt beam="1">  1        2 0.45063679E+00 0.20782329E+04</pdfrwt>
<pdfrwt beam="2">  1       -1 0.56712018E-01 0.20782329E+04</pdfrwt>
<totfact> 0.63841066E+00</totfact>
</mgrwt>
</event>
<event>
12    7  0.1711607E-007  0.1608432E+04  0.7818608E-02  0.8815385E-01
          2   -1    0    0  501    0  0.00000000000E+00  0.00000000000E+00  0.11125425993E+04  0.11125425993E+04  0.00000000000E+00 0. -1.
         -1   -1    0    0    0  501 -0.00000000000E+00 -0.00000000000E+00 -0.58133771907E+03  0.58133771907E+03  0.00000000000E+00 0.  1.
         24    2    1    2    0    0 -0.27988766566E+03 -0.46854907773E+03  0.21504560227E+03  0.59105944411E+03  0.72327807859E+02 0.  0.
        254    2    1    2    0    0  0.27988766566E+03  0.46854907773E+03  0.31615927794E+03  0.11028208742E+04  0.90464459762E+03 0.  0.
         23    2    4    4    0    0 -0.33924064963E+02 -0.20032243961E+03  0.27879282709E+03  0.35640169425E+03  0.89536613889E+02 0.  0.
         23    2    4    4    0    0  0.31381173063E+03  0.66887151734E+03  0.37366450850E+02  0.74641917999E+03  0.99390299437E+02 0.  0.
          4    1    3    3  502    0 -0.13477906016E+03 -0.25516150833E+03  0.14863059646E+03  0.32459797380E+03  0.00000000000E+00 0. -1.
         -3    1    3    3    0  502 -0.14510860551E+03 -0.21338756940E+03  0.66415005811E+02  0.26646147031E+03  0.00000000000E+00 0.  1.
         13    1    5    5    0    0 -0.55535316025E+02 -0.16262600886E+03  0.18204061602E+03  0.25034012056E+03  0.00000000000E+00 0.  1.
        -13    1    5    5    0    0  0.21611251062E+02 -0.37696430754E+02  0.96752211077E+02  0.10606157368E+03  0.00000000000E+00 0. -1.
          3    1    6    6  503    0  0.20105657696E+01  0.42588228464E+02 -0.14137265060E+02  0.44918390908E+02  0.00000000000E+00 0. -1.
         -3    1    6    6    0  503  0.31180116486E+03  0.62628328887E+03  0.51503715910E+02  0.70150078908E+03  0.00000000000E+00 0.  1.
<mgrwt>
<rscale>  0 0.16084315E+04</rscale>
<asrwt>0</asrwt>
<pdfrwt beam="1">  1        2 0.17116040E+00 0.16084315E+04</pdfrwt>
<pdfrwt beam="2">  1       -1 0.89436572E-01 0.16084315E+04</pdfrwt>
<totfact> 0.28655658E+01</totfact>
</mgrwt>
</event>
<event>
12    7  0.1711607E-007  0.2333414E+04  0.7818608E-02  0.8464862E-01
         -1   -1    0    0    0  501 -0.00000000000E+00  0.00000000000E+00  0.55320508218E+03  0.55320508218E+03  0.00000000000E+00 0.  1.
          2   -1    0    0  501    0  0.00000000000E+00 -0.00000000000E+00 -0.24605804484E+04  0.24605804484E+04  0.00000000000E+00 0. -1.
         24    2    1    2    0    0  0.30746772950E+03 -0.91100196285E+03 -0.53329056961E+03  0.11024022570E+04  0.80193039396E+02 0.  0.
        254    2    1    2    0    0 -0.30746772950E+03  0.91100196285E+03 -0.13740847966E+04  0.19113832736E+04  0.91696020049E+03 0.  0.
         23    2    4    4    0    0 -0.86385577199E+02 -0.12516458187E+03 -0.39556971185E+01  0.17684413517E+03  0.90164073228E+02 0.  0.
         23    2    4    4    0    0 -0.22108215230E+03  0.10361665447E+04 -0.13701290994E+04  0.17345391384E+04  0.94094882800E+02 0.  0.
          4    1    3    3  502    0  0.26694519930E+03 -0.72343949740E+03 -0.39937060256E+03  0.86840159145E+03  0.00000000000E+00 0. -1.
         -3    1    3    3    0  502  0.40522530195E+02 -0.18756246545E+03 -0.13391996705E+03  0.23400066554E+03  0.00000000000E+00 0.  1.
         13    1    5    5    0    0 -0.75897557203E+02 -0.42665111735E+02 -0.25892725061E+02  0.90836028974E+02  0.00000000000E+00 0. -1.
        -13    1    5    5    0    0 -0.10488019996E+02 -0.82499470138E+02  0.21937027943E+02  0.86008106197E+02  0.00000000000E+00 0.  1.
          1    1    6    6  503    0 -0.19741109021E+03  0.99851278574E+03 -0.13287508565E+04  0.16737914328E+04  0.00000000000E+00 0. -1.
         -1    1    6    6    0  503 -0.23671062089E+02  0.37653758987E+02 -0.41378242950E+02  0.60747705602E+02  0.00000000000E+00 0.  1.
<mgrwt>
<rscale>  0 0.23334143E+04</rscale>
<asrwt>0</asrwt>
<pdfrwt beam="1">  1        2 0.37855084E+00 0.23334143E+04</pdfrwt>
<pdfrwt beam="2">  1       -1 0.85108473E-01 0.23334143E+04</pdfrwt>
<totfact> 0.51522781E+00</totfact>
</mgrwt>
</event>
<event>
12    7  0.1711607E-007  0.2178048E+04  0.7818608E-02  0.8527621E-01
         -1   -1    0    0    0  501 -0.00000000000E+00  0.00000000000E+00  0.20569017504E+04  0.20569017504E+04  0.00000000000E+00 0.  1.
          2   -1    0    0  501    0  0.00000000000E+00 -0.00000000000E+00 -0.57658215329E+03  0.57658215329E+03  0.00000000000E+00 0. -1.
         24    2    1    2    0    0  0.55283740393E+03 -0.64577567337E+03  0.24587704636E+03  0.88858095455E+03  0.80406314178E+02 0.  0.
        254    2    1    2    0    0 -0.55283740393E+03  0.64577567337E+03  0.12344425507E+04  0.17449029491E+04  0.89341058608E+03 0.  0.
         23    2    4    4    0    0 -0.34367499733E+03 -0.16154722282E+03  0.33461485717E+03  0.51434976698E+03  0.91534535367E+02 0.  0.
         23    2    4    4    0    0 -0.20916240660E+03  0.80732289619E+03  0.89982769354E+03  0.12305531821E+04  0.95142445596E+02 0.  0.
          4    1    3    3  502    0  0.47911928795E+02 -0.62251731428E+02 -0.47709274946E+00  0.78556085723E+02  0.00000000000E+00 0. -1.
         -3    1    3    3    0  502  0.50492547513E+03 -0.58352394194E+03  0.24635413911E+03  0.81002486882E+03  0.00000000000E+00 0.  1.
         13    1    5    5    0    0 -0.24939209092E+03 -0.15851614860E+03  0.26729559494E+03  0.39846043650E+03  0.00000000000E+00 0.  1.
        -13    1    5    5    0    0 -0.94282906412E+02 -0.30310742136E+01  0.67319262232E+02  0.11588933048E+03  0.00000000000E+00 0. -1.
          3    1    6    6  503    0 -0.10811079001E+03  0.57786116838E+03  0.65464166206E+03  0.87986770514E+03  0.00000000000E+00 0. -1.
         -3    1    6    6    0  503 -0.10105161659E+03  0.22946172781E+03  0.24518603148E+03  0.35068547700E+03  0.00000000000E+00 0.  1.
<mgrwt>
<rscale>  0 0.21780476E+04</rscale>
<asrwt>0</asrwt>
<pdfrwt beam="1">  1        2 0.88704948E-01 0.21780476E+04</pdfrwt>
<pdfrwt beam="2">  1       -1 0.31644642E+00 0.21780476E+04</pdfrwt>
<totfact> 0.14052893E+00</totfact>
</mgrwt>
</event>
<event>
12    7  0.1711607E-007  0.1841248E+04  0.7818608E-02  0.8684667E-01
          2   -1    0    0  501    0  0.00000000000E+00  0.00000000000E+00  0.13399382911E+04  0.13399382911E+04  0.00000000000E+00 0. -1.
         -1   -1    0    0    0  501 -0.00000000000E+00 -0.00000000000E+00 -0.63252780747E+03  0.63252780747E+03  0.00000000000E+00 0.  1.
         24    2    1    2    0    0  0.27409626010E+03  0.60498942163E+03  0.57234676619E+02  0.67127553845E+03  0.78702479162E+02 0.  0.
        254    2    1    2    0    0 -0.27409626010E+03 -0.60498942163E+03  0.65017580702E+03  0.13011905601E+04  0.91061920342E+03 0.  0.
         23    2    4    4    0    0 -0.18769965515E+03 -0.64737446935E+03  0.83350802691E+03  0.10753184590E+04  0.85142780911E+02 0.  0.
         23    2    4    4    0    0 -0.86396604950E+02  0.42385047724E+02 -0.18333221988E+03  0.22587210117E+03  0.90258726019E+02 0.  0.
          4    1    3    3  502    0  0.34026799991E+01  0.39400969499E+02  0.16726752223E+02  0.42939479137E+02  0.00000000000E+00 0. -1.
         -3    1    3    3    0  502  0.27069358010E+03  0.56558845213E+03  0.40507924396E+02  0.62833605931E+03  0.00000000000E+00 0.  1.
         13    1    5    5    0    0 -0.75695909565E+02 -0.28972288007E+03  0.30513207283E+03  0.42752169516E+03  0.00000000000E+00 0.  1.
        -13    1    5    5    0    0 -0.11200374558E+03 -0.35765158928E+03  0.52837595408E+03  0.64779676380E+03  0.00000000000E+00 0. -1.
          1    1    6    6  503    0 -0.84213631866E+01 -0.22332512127E+02 -0.11754843935E+02  0.26605202719E+02  0.00000000000E+00 0. -1.
         -1    1    6    6    0  503 -0.77975241763E+02  0.64717559850E+02 -0.17157737595E+03  0.19926689845E+03  0.00000000000E+00 0.  1.
<mgrwt>
<rscale>  0 0.18412477E+04</rscale>
<asrwt>0</asrwt>
<pdfrwt beam="1">  1        2 0.20614435E+00 0.18412477E+04</pdfrwt>
<pdfrwt beam="2">  1       -1 0.97311971E-01 0.18412477E+04</pdfrwt>
<totfact> 0.17046595E+01</totfact>
</mgrwt>
</event>
<event>
12    7  0.1711607E-007  0.1322539E+04  0.7818608E-02  0.9011880E-01
          2   -1    0    0  501    0  0.00000000000E+00  0.00000000000E+00  0.24363279136E+04  0.24363279136E+04  0.00000000000E+00 0. -1.
         -1   -1    0    0    0  501 -0.00000000000E+00 -0.00000000000E+00 -0.17948224865E+03  0.17948224865E+03  0.00000000000E+00 0.  1.
         24    2    1    2    0    0 -0.23766433998E+03  0.22053385615E+03  0.55179240221E+03  0.64546948158E+03  0.83883707001E+02 0.  0.
        254    2    1    2    0    0  0.23766433998E+03 -0.22053385615E+03  0.17050532627E+04  0.19703406807E+04  0.93269300895E+03 0.  0.
         23    2    4    4    0    0  0.18566924678E+03  0.30058576958E+03  0.31431839412E+03  0.48157651268E+03  0.91076948815E+02 0.  0.
         23    2    4    4    0    0  0.51995093203E+02 -0.52111962573E+03  0.13907348686E+04  0.14887641680E+04  0.89476919321E+02 0.  0.
          2    1    3    3  502    0 -0.45316741472E+02  0.66068440930E+02  0.80820509610E+02  0.11380070614E+03  0.00000000000E+00 0. -1.
         -1    1    3    3    0  502 -0.19234759851E+03  0.15446541522E+03  0.47097189261E+03  0.53166877544E+03  0.00000000000E+00 0.  1.
         13    1    5    5    0    0  0.44434853139E+02  0.32802730106E+02  0.86745453826E+02  0.10283602985E+03  0.00000000000E+00 0.  1.
        -13    1    5    5    0    0  0.14123439364E+03  0.26778303947E+03  0.22757294029E+03  0.37874048283E+03  0.00000000000E+00 0. -1.
          3    1    6    6  503    0  0.69481039053E+02 -0.49255019344E+03  0.13157372421E+04  0.14066263889E+04  0.00000000000E+00 0. -1.
         -3    1    6    6    0  503 -0.17485945850E+02 -0.28569432291E+02  0.74997626523E+02  0.82137779053E+02  0.00000000000E+00 0.  1.
<mgrwt>
<rscale>  0 0.13225394E+04</rscale>
<asrwt>0</asrwt>
<pdfrwt beam="1">  1        2 0.37481966E+00 0.13225394E+04</pdfrwt>
<pdfrwt beam="2">  1       -1 0.27612655E-01 0.13225394E+04</pdfrwt>
<totfact> 0.50013079E+01</totfact>
</mgrwt>
</event>
<event>
12    7  0.1711607E-007  0.2322162E+04  0.7818608E-02  0.8469234E-01
          2   -1    0    0  501    0  0.00000000000E+00  0.00000000000E+00  0.11940519511E+04  0.11940519511E+04  0.00000000000E+00 0. -1.
         -1   -1    0    0    0  501 -0.00000000000E+00 -0.00000000000E+00 -0.11290205500E+04  0.11290205500E+04  0.00000000000E+00 0.  1.
         24    2    1    2    0    0 -0.64771647167E+03  0.73255242473E+03  0.15159016989E+03  0.99262779729E+03  0.78490010177E+02 0.  0.
        254    2    1    2    0    0  0.64771647167E+03 -0.73255242473E+03 -0.86558768788E+02  0.13304447039E+04  0.89800946931E+03 0.  0.
         23    2    4    4    0    0  0.26278789750E+03 -0.56828972626E+03  0.34640139284E+03  0.72139436355E+03  0.91679936492E+02 0.  0.
         23    2    4    4    0    0  0.38492857417E+03 -0.16426269847E+03 -0.43296016163E+03  0.60905034032E+03  0.91299365653E+02 0.  0.
          2    1    3    3  502    0 -0.32194227854E+02  0.64166747204E+02  0.19962471914E+02  0.74514025785E+02  0.00000000000E+00 0. -1.
         -1    1    3    3    0  502 -0.61552224382E+03  0.66838567753E+03  0.13162769798E+03  0.91811377151E+03  0.00000000000E+00 0.  1.
         13    1    5    5    0    0  0.24674318971E+03 -0.53184745994E+03  0.29486919844E+03  0.65627110747E+03  0.00000000000E+00 0. -1.
        -13    1    5    5    0    0  0.16044707790E+02 -0.36442266326E+02  0.51532194405E+02  0.65123256086E+02  0.00000000000E+00 0.  1.
          4    1    6    6  503    0  0.12939774083E+03 -0.21545336915E+02 -0.17645038188E+03  0.21986976632E+03  0.00000000000E+00 0. -1.
         -4    1    6    6    0  503  0.25553083334E+03 -0.14271736155E+03 -0.25650977975E+03  0.38918057400E+03  0.00000000000E+00 0.  1.
<mgrwt>
<rscale>  0 0.23221621E+04</rscale>
<asrwt>0</asrwt>
<pdfrwt beam="1">  1        2 0.18370030E+00 0.23221621E+04</pdfrwt>
<pdfrwt beam="2">  1       -1 0.17369547E+00 0.23221621E+04</pdfrwt>
<totfact> 0.45546698E+00</totfact>
</mgrwt>
</event>
<event>
12    7  0.1711607E-007  0.2948835E+04  0.7818608E-02  0.8258494E-01
          2   -1    0    0  501    0  0.00000000000E+00  0.00000000000E+00  0.28998562054E+04  0.28998562054E+04  0.00000000000E+00 0. -1.
         -1   -1    0    0    0  501 -0.00000000000E+00 -0.00000000000E+00 -0.74966007508E+03  0.74966007508E+03  0.00000000000E+00 0.  1.
         24    2    1    2    0    0 -0.37327920736E+03  0.12485288397E+04  0.61832036043E+03  0.14445689617E+04  0.79358597594E+02 0.  0.
        254    2    1    2    0    0  0.37327920736E+03 -0.12485288397E+04  0.15318757699E+04  0.22049473188E+04  0.90387370461E+03 0.  0.
         23    2    4    4    0    0  0.23444417414E+02  0.61954606630E+02  0.46009138873E+03  0.47383594438E+03  0.91915190308E+02 0.  0.
         23    2    4    4    0    0  0.34983478995E+03 -0.13104834463E+04  0.10717843812E+04  0.17311113744E+04  0.90959262676E+02 0.  0.
          4    1    3    3  502    0 -0.67636560833E+02  0.27177673973E+03  0.16646867862E+03  0.32580534308E+03  0.00000000000E+00 0. -1.
         -3    1    3    3    0  502 -0.30564264653E+03  0.97675209994E+03  0.45185168181E+03  0.11187636187E+04  0.00000000000E+00 0.  1.
         13    1    5    5    0    0  0.24859434514E+02  0.45624507735E+02  0.45301087768E+03  0.45598074793E+03  0.00000000000E+00 0.  1.
        -13    1    5    5    0    0 -0.14150170998E+01  0.16330098895E+02  0.70805110523E+01  0.17855196445E+02  0.00000000000E+00 0. -1.
          1    1    6    6  503    0  0.12832316575E+03 -0.44655484948E+03  0.42165372100E+03  0.62743121447E+03  0.00000000000E+00 0. -1.
         -1    1    6    6    0  503  0.22151162420E+03 -0.86392859681E+03  0.65013066021E+03  0.11036801599E+04  0.00000000000E+00 0.  1.
<mgrwt>
<rscale>  0 0.29488346E+04</rscale>
<asrwt>0</asrwt>
<pdfrwt beam="1">  1        2 0.44613172E+00 0.29488346E+04</pdfrwt>
<pdfrwt beam="2">  1       -1 0.11533232E+00 0.29488346E+04</pdfrwt>
<totfact> 0.13373238E+00</totfact>
</mgrwt>
</event>
<event>
12    7  0.1711607E-007  0.2022268E+04  0.7818608E-02  0.8596280E-01
          2   -1    0    0  501    0  0.00000000000E+00  0.00000000000E+00  0.21686822313E+04  0.21686822313E+04  0.00000000000E+00 0. -1.
         -1   -1    0    0    0  501 -0.00000000000E+00 -0.00000000000E+00 -0.47143453136E+03  0.47143453136E+03  0.00000000000E+00 0.  1.
         24    2    1    2    0    0 -0.21171223925E+03 -0.35791381636E+03 -0.21937002809E+03  0.47812275084E+03  0.86912504608E+02 0.  0.
        254    2    1    2    0    0  0.21171223925E+03  0.35791381636E+03  0.19166177280E+04  0.21619940118E+04  0.90987373827E+03 0.  0.
         23    2    4    4    0    0  0.24051054642E+03  0.52030289147E+02  0.18027809873E+04  0.18216801031E+04  0.89143905549E+02 0.  0.
         23    2    4    4    0    0 -0.28798307171E+02  0.30588352721E+03  0.11383674072E+03  0.34031390873E+03  0.91981945079E+02 0.  0.
          2    1    3    3  502    0 -0.33274662466E+02 -0.12460771665E+02 -0.12264570184E+02  0.37588477949E+02  0.00000000000E+00 0. -1.
         -1    1    3    3    0  502 -0.17843757678E+03 -0.34545304469E+03 -0.20710545791E+03  0.44053427289E+03  0.00000000000E+00 0.  1.
         13    1    5    5    0    0  0.44720241971E+02  0.47822582849E+02  0.49750361051E+03  0.50179352521E+03  0.00000000000E+00 0. -1.
        -13    1    5    5    0    0  0.19579030445E+03  0.42077062978E+01  0.13052773768E+04  0.13198865779E+04  0.00000000000E+00 0.  1.
          4    1    6    6  503    0  0.21005341389E+02  0.25306712987E+02  0.26594127181E+02  0.42295409793E+02  0.00000000000E+00 0. -1.
         -4    1    6    6    0  503 -0.49803648560E+02  0.28057681422E+03  0.87242613539E+02  0.29801849893E+03  0.00000000000E+00 0.  1.
<mgrwt>
<rscale>  0 0.20222677E+04</rscale>
<asrwt>0</asrwt>
<pdfrwt beam="1">  1        2 0.33364342E+00 0.20222677E+04</pdfrwt>
<pdfrwt beam="2">  1       -1 0.72528390E-01 0.20222677E+04</pdfrwt>
<totfact> 0.10885412E+01</totfact>
</mgrwt>
</event>
<event>
12    7  0.1711607E-007  0.1095647E+04  0.7818608E-02  0.9209445E-01
         -1   -1    0    0    0  501 -0.00000000000E+00  0.00000000000E+00  0.38294122302E+03  0.38294122302E+03  0.00000000000E+00 0.  1.
          2   -1    0    0  501    0  0.00000000000E+00 -0.00000000000E+00 -0.78369851930E+03  0.78369851930E+03  0.00000000000E+00 0. -1.
         24    2    1    2    0    0 -0.21474607988E+02  0.28934028793E+02  0.91161864706E+02  0.12642430155E+03  0.79839098417E+02 0.  0.
        254    2    1    2    0    0  0.21474607988E+02 -0.28934028793E+02 -0.49191916099E+03  0.10402154408E+04  0.91584134295E+03 0.  0.
         23    2    4    4    0    0 -0.36908938030E+01 -0.61482642908E+02 -0.75300541244E+03  0.76093512647E+03  0.90616651080E+02 0.  0.
         23    2    4    4    0    0  0.25165501791E+02  0.32548614115E+02  0.26108625145E+03  0.27928031430E+03  0.90215012610E+02 0.  0.
          4    1    3    3  502    0  0.26785900694E+02  0.19507988946E+02  0.58997749856E+02  0.67666687497E+02  0.00000000000E+00 0. -1.
         -3    1    3    3    0  502 -0.48260508682E+02  0.94260398466E+01  0.32164114850E+02  0.58757614056E+02  0.00000000000E+00 0.  1.
         13    1    5    5    0    0 -0.78461738201E+01 -0.53414769209E+02 -0.74912063391E+03  0.75106352871E+03  0.00000000000E+00 0. -1.
        -13    1    5    5    0    0  0.41552800171E+01 -0.80678736995E+01 -0.38847785336E+01  0.98715977585E+01  0.00000000000E+00 0.  1.
          1    1    6    6  503    0  0.22372615948E+02  0.27867204346E+02  0.26805840709E+03  0.27043007346E+03  0.00000000000E+00 0. -1.
         -1    1    6    6    0  503  0.27928858437E+01  0.46814097698E+01 -0.69721556361E+01  0.88502408432E+01  0.00000000000E+00 0.  1.
<mgrwt>
<rscale>  0 0.10956468E+04</rscale>
<asrwt>0</asrwt>
<pdfrwt beam="1">  1        2 0.12056900E+00 0.10956468E+04</pdfrwt>
<pdfrwt beam="2">  1       -1 0.58914035E-01 0.10956468E+04</pdfrwt>
<totfact> 0.11720518E+02</totfact>
</mgrwt>
</event>
<event>
12    7  0.1711607E-007  0.1309478E+04  0.7818608E-02  0.9022082E-01
          2   -1    0    0  501    0  0.00000000000E+00  0.00000000000E+00  0.18878556693E+04  0.18878556693E+04  0.00000000000E+00 0. -1.
         -1   -1    0    0    0  501 -0.00000000000E+00 -0.00000000000E+00 -0.22707420852E+03  0.22707420852E+03  0.00000000000E+00 0.  1.
         24    2    1    2    0    0 -0.62591182021E+02 -0.28547366238E+03  0.16463287861E+03  0.34465404672E+03  0.79180548271E+02 0.  0.
        254    2    1    2    0    0  0.62591182021E+02  0.28547366238E+03  0.14961485822E+04  0.17702758311E+04  0.90000170571E+03 0.  0.
         23    2    4    4    0    0  0.38271274896E+03  0.32748256474E+03  0.48653741641E+03  0.70627375946E+03  0.91597419806E+02 0.  0.
         23    2    4    4    0    0 -0.32012156693E+03 -0.42008902357E+02  0.10096111658E+04  0.10640020717E+04  0.92429091381E+02 0.  0.
          2    1    3    3  502    0  0.18842131728E+02 -0.68308112509E+02  0.38325423243E+02  0.80559681165E+02  0.00000000000E+00 0. -1.
         -1    1    3    3    0  502 -0.81433313750E+02 -0.21716554987E+03  0.12630745536E+03  0.26409436556E+03  0.00000000000E+00 0.  1.
         13    1    5    5    0    0  0.18126959693E+03  0.10429048278E+03  0.23195805834E+03  0.31231348418E+03  0.00000000000E+00 0. -1.
        -13    1    5    5    0    0  0.20144315202E+03  0.22319208195E+03  0.25457935807E+03  0.39396027528E+03  0.00000000000E+00 0.  1.
          3    1    6    6  503    0 -0.15537377164E+03  0.16048015561E+02  0.38650779000E+03  0.41687746335E+03  0.00000000000E+00 0. -1.
         -3    1    6    6    0  503 -0.16474779529E+03 -0.58056917918E+02  0.62310337578E+03  0.64712460831E+03  0.00000000000E+00 0.  1.
<mgrwt>
<rscale>  0 0.13094783E+04</rscale>
<asrwt>0</asrwt>
<pdfrwt beam="1">  1        2 0.29043932E+00 0.13094783E+04</pdfrwt>
<pdfrwt beam="2">  1       -1 0.34934495E-01 0.13094783E+04</pdfrwt>
<totfact> 0.67031169E+01</totfact>
</mgrwt>
</event>
<event>
12    7  0.1711607E-007  0.1315424E+04  0.7818608E-02  0.9017422E-01
         -1   -1    0    0    0  501 -0.00000000000E+00  0.00000000000E+00  0.40241363046E+03  0.40241363046E+03  0.00000000000E+00 0.  1.
          2   -1    0    0  501    0  0.00000000000E+00 -0.00000000000E+00 -0.10749765079E+04  0.10749765079E+04  0.00000000000E+00 0. -1.
         24    2    1    2    0    0  0.27574380456E+03 -0.17298204912E+03 -0.18089927380E+03  0.38459394279E+03  0.96075587404E+02 0.  0.
        254    2    1    2    0    0 -0.27574380456E+03  0.17298204912E+03 -0.49166360362E+03  0.10927961956E+04  0.92006140601E+03 0.  0.
         23    2    4    4    0    0  0.24654835571E+03 -0.19743066847E+03 -0.17507837122E+03  0.37260432065E+03  0.91741937759E+02 0.  0.
         23    2    4    4    0    0 -0.52229216027E+03  0.37041271759E+03 -0.31658523240E+03  0.72019187491E+03  0.91953495206E+02 0.  0.
          2    1    3    3  502    0 -0.46962014886E+00 -0.10830836535E+01  0.82063397874E+01  0.82908157615E+01  0.00000000000E+00 0. -1.
         -1    1    3    3    0  502  0.27621342471E+03 -0.17189896547E+03 -0.18910561359E+03  0.37630312703E+03  0.00000000000E+00 0.  1.
         13    1    5    5    0    0  0.21072261696E+03 -0.15278992471E+03 -0.10148192518E+03  0.27936958233E+03  0.00000000000E+00 0. -1.
        -13    1    5    5    0    0  0.35825738746E+02 -0.44640743759E+02 -0.73596446042E+02  0.93234738323E+02  0.00000000000E+00 0.  1.
          4    1    6    6  503    0 -0.33756967235E+03  0.29136486749E+03 -0.21505472981E+03  0.49507101158E+03  0.00000000000E+00 0. -1.
         -4    1    6    6    0  503 -0.18472248791E+03  0.79047850103E+02 -0.10153050259E+03  0.22512086332E+03  0.00000000000E+00 0.  1.
<mgrwt>
<rscale>  0 0.13154242E+04</rscale>
<asrwt>0</asrwt>
<pdfrwt beam="1">  1        2 0.16538100E+00 0.13154242E+04</pdfrwt>
<pdfrwt beam="2">  1       -1 0.61909789E-01 0.13154242E+04</pdfrwt>
<totfact> 0.66730226E+01</totfact>
</mgrwt>
</event>
<event>
12    7  0.1711607E-007  0.2610513E+04  0.7818608E-02  0.8364639E-01
          2   -1    0    0  501    0  0.00000000000E+00  0.00000000000E+00  0.93023093929E+03  0.93023093929E+03  0.00000000000E+00 0. -1.
         -1   -1    0    0    0  501 -0.00000000000E+00 -0.00000000000E+00 -0.18314750983E+04  0.18314750983E+04  0.00000000000E+00 0.  1.
         24    2    1    2    0    0  0.41014047942E+03  0.10068184821E+04 -0.11343668690E+02  0.10900960639E+04  0.79259580016E+02 0.  0.
        254    2    1    2    0    0 -0.41014047942E+03 -0.10068184821E+04 -0.88990049031E+03  0.16716099737E+04  0.90579156146E+03 0.  0.
         23    2    4    4    0    0 -0.60239420902E+03 -0.45139534682E+03 -0.73836094493E+03  0.10579370026E+04  0.86123599011E+02 0.  0.
         23    2    4    4    0    0  0.19225372960E+03 -0.55542313524E+03 -0.15153954538E+03  0.61367297108E+03  0.90409766690E+02 0.  0.
          2    1    3    3  502    0  0.24215186060E+03  0.52541363703E+03  0.23741962920E+02  0.57901700698E+03  0.00000000000E+00 0. -1.
         -1    1    3    3    0  502  0.16798861882E+03  0.48140484503E+03 -0.35085631610E+02  0.51107905692E+03  0.00000000000E+00 0.  1.
         13    1    5    5    0    0 -0.15635151941E+03 -0.10480630967E+03 -0.13645851110E+03  0.23248889311E+03  0.00000000000E+00 0. -1.
        -13    1    5    5    0    0 -0.44604268960E+03 -0.34658903716E+03 -0.60190243383E+03  0.82544810950E+03  0.00000000000E+00 0.  1.
          2    1    6    6  503    0  0.39256822802E+02 -0.15576681259E+03 -0.81186324845E+02  0.17998782565E+03  0.00000000000E+00 0. -1.
         -2    1    6    6    0  503  0.15299690680E+03 -0.39965632265E+03 -0.70353220536E+02  0.43368514543E+03  0.00000000000E+00 0.  1.
<mgrwt>
<rscale>  0 0.26105132E+04</rscale>
<asrwt>0</asrwt>
<pdfrwt beam="1">  1        2 0.14311245E+00 0.26105132E+04</pdfrwt>
<pdfrwt beam="2">  1       -1 0.28176540E+00 0.26105132E+04</pdfrwt>
<totfact> 0.12222775E+00</totfact>
</mgrwt>
</event>
<event>
12    7  0.1711607E-007  0.1958410E+04  0.7818608E-02  0.8626316E-01
          2   -1    0    0  501    0  0.00000000000E+00  0.00000000000E+00  0.10044386152E+04  0.10044386152E+04  0.00000000000E+00 0. -1.
         -1   -1    0    0    0  501 -0.00000000000E+00 -0.00000000000E+00 -0.95460537704E+03  0.95460537704E+03  0.00000000000E+00 0.  1.
         24    2    1    2    0    0  0.20615384241E+03 -0.32194949695E+03  0.69083382213E+03  0.79375866246E+03  0.81550960199E+02 0.  0.
        254    2    1    2    0    0 -0.20615384241E+03  0.32194949695E+03 -0.64100058400E+03  0.11652853298E+04  0.89490628880E+03 0.  0.
         23    2    4    4    0    0 -0.38611560214E+02 -0.10840363474E+03  0.17154691196E+03  0.22618188025E+03  0.92128710745E+02 0.  0.
         23    2    4    4    0    0 -0.16754228219E+03  0.43035313168E+03 -0.81254749596E+03  0.93910344951E+03  0.91693082641E+02 0.  0.
          4    1    3    3  502    0  0.44159621664E+02 -0.14210369562E+03  0.26884734238E+03  0.30728232295E+03  0.00000000000E+00 0. -1.
         -3    1    3    3    0  502  0.16199422074E+03 -0.17984580132E+03  0.42198647975E+03  0.48647633951E+03  0.00000000000E+00 0.  1.
         13    1    5    5    0    0  0.61514802184E+01  0.89523854679E+01 -0.28804239338E+01  0.11237560077E+02  0.00000000000E+00 0.  1.
        -13    1    5    5    0    0 -0.44763040433E+02 -0.11735602021E+03  0.17442733590E+03  0.21494432017E+03  0.00000000000E+00 0. -1.
          4    1    6    6  503    0 -0.23301160515E+02  0.12548362734E+03 -0.29418878198E+03  0.32068072011E+03  0.00000000000E+00 0. -1.
         -4    1    6    6    0  503 -0.14424112168E+03  0.30486950435E+03 -0.51835871399E+03  0.61842272939E+03  0.00000000000E+00 0.  1.
<mgrwt>
<rscale>  0 0.19584101E+04</rscale>
<asrwt>0</asrwt>
<pdfrwt beam="1">  1        2 0.15452902E+00 0.19584101E+04</pdfrwt>
<pdfrwt beam="2">  1       -1 0.14686236E+00 0.19584101E+04</pdfrwt>
<totfact> 0.98272613E+00</totfact>
</mgrwt>
</event>
<event>
12    7  0.1711607E-007  0.1387376E+04  0.7818608E-02  0.8963008E-01
         -1   -1    0    0    0  501 -0.00000000000E+00  0.00000000000E+00  0.24493389756E+03  0.24493389756E+03  0.00000000000E+00 0.  1.
          2   -1    0    0  501    0  0.00000000000E+00 -0.00000000000E+00 -0.19646238275E+04  0.19646238275E+04  0.00000000000E+00 0. -1.
         24    2    1    2    0    0  0.26373892457E+03 -0.20373677348E+02 -0.88983975312E+03  0.93190454613E+03  0.81596506054E+02 0.  0.
        254    2    1    2    0    0 -0.26373892457E+03  0.20373677348E+02 -0.82985017680E+03  0.12776531789E+04  0.93475826959E+03 0.  0.
         23    2    4    4    0    0 -0.97223366027E+01 -0.42084107228E+03 -0.23988757952E+03  0.49298095873E+03  0.91007927773E+02 0.  0.
         23    2    4    4    0    0 -0.25401658797E+03  0.44121474963E+03 -0.58996259728E+03  0.78467222017E+03  0.91976870257E+02 0.  0.
          2    1    3    3  502    0  0.26853525601E+03 -0.18243202095E+02 -0.84680362405E+03  0.88854959110E+03  0.00000000000E+00 0. -1.
         -1    1    3    3    0  502 -0.47963314380E+01 -0.21304752526E+01 -0.43036129073E+02  0.43354955030E+02  0.00000000000E+00 0.  1.
         13    1    5    5    0    0  0.17040500013E+01 -0.36688646236E+03 -0.17113222865E+03  0.40483925172E+03  0.00000000000E+00 0.  1.
        -13    1    5    5    0    0 -0.11426386604E+02 -0.53954609927E+02 -0.68755350868E+02  0.88141707018E+02  0.00000000000E+00 0. -1.
          2    1    6    6  503    0 -0.68920180223E+02  0.10930809470E+03 -0.21470753067E+03  0.25059444235E+03  0.00000000000E+00 0.  1.
         -2    1    6    6    0  503 -0.18509640775E+03  0.33190665493E+03 -0.37525506661E+03  0.53407777782E+03  0.00000000000E+00 0. -1.
<mgrwt>
<rscale>  0 0.13873759E+04</rscale>
<asrwt>0</asrwt>
<pdfrwt beam="1">  1        2 0.30224981E+00 0.13873759E+04</pdfrwt>
<pdfrwt beam="2">  1       -1 0.37682140E-01 0.13873759E+04</pdfrwt>
<totfact> 0.52716217E+01</totfact>
</mgrwt>
</event>
<event>
12    7  0.1711607E-007  0.1420114E+04  0.7818608E-02  0.8939387E-01
         -1   -1    0    0    0  501 -0.00000000000E+00  0.00000000000E+00  0.42928950828E+03  0.42928950828E+03  0.00000000000E+00 0.  1.
          2   -1    0    0  501    0  0.00000000000E+00 -0.00000000000E+00 -0.11744538264E+04  0.11744538264E+04  0.00000000000E+00 0. -1.
         24    2    1    2    0    0 -0.82749907937E+02 -0.24970513637E+03  0.13228371495E+03  0.30517489745E+03  0.80203082241E+02 0.  0.
        254    2    1    2    0    0  0.82749907937E+02  0.24970513637E+03 -0.87744803309E+03  0.12985684373E+04  0.92041552196E+03 0.  0.
         23    2    4    4    0    0 -0.34753110971E+03 -0.39328439634E+02 -0.12752887652E+03  0.38222197621E+03  0.86633863883E+02 0.  0.
         23    2    4    4    0    0  0.43028101765E+03  0.28903357601E+03 -0.74991915657E+03  0.91634646104E+03  0.92897433063E+02 0.  0.
          4    1    3    3  502    0 -0.46392057371E+01 -0.37296346384E+02 -0.86476031133E+01  0.38565797322E+02  0.00000000000E+00 0. -1.
         -3    1    3    3    0  502 -0.78110702200E+02 -0.21240878999E+03  0.14093131806E+03  0.26660910013E+03  0.00000000000E+00 0.  1.
         13    1    5    5    0    0 -0.85286199371E+02 -0.42925288096E+02 -0.14260465782E+02  0.96538474432E+02  0.00000000000E+00 0. -1.
        -13    1    5    5    0    0 -0.26224491034E+03  0.35968484616E+01 -0.11326841074E+03  0.28568350178E+03  0.00000000000E+00 0.  1.
          4    1    6    6  503    0  0.84129974435E+02  0.49533091258E+02 -0.21125963797E+03  0.23272733910E+03  0.00000000000E+00 0. -1.
         -4    1    6    6    0  503  0.34615104321E+03  0.23950048475E+03 -0.53865951859E+03  0.68361912194E+03  0.00000000000E+00 0.  1.
<mgrwt>
<rscale>  0 0.14201137E+04</rscale>
<asrwt>0</asrwt>
<pdfrwt beam="1">  1        2 0.18068520E+00 0.14201137E+04</pdfrwt>
<pdfrwt beam="2">  1       -1 0.66044540E-01 0.14201137E+04</pdfrwt>
<totfact> 0.50529894E+01</totfact>
</mgrwt>
</event>
<event>
12    7  0.1711607E-007  0.1438146E+04  0.7818608E-02  0.8926660E-01
          2   -1    0    0  501    0  0.00000000000E+00  0.00000000000E+00  0.21544542672E+04  0.21544542672E+04  0.00000000000E+00 0. -1.
         -1   -1    0    0    0  501 -0.00000000000E+00 -0.00000000000E+00 -0.23999873506E+03  0.23999873506E+03  0.00000000000E+00 0.  1.
         24    2    1    2    0    0  0.92047111590E+02  0.69571094882E+02 -0.11325314778E+03  0.18106248911E+03  0.81514056983E+02 0.  0.
        254    2    1    2    0    0 -0.92047111590E+02 -0.69571094882E+02  0.20277086799E+04  0.22133905131E+04  0.87987627830E+03 0.  0.
         23    2    4    4    0    0 -0.46066627557E+03 -0.15331770177E+03  0.10256306383E+04  0.11384649672E+04  0.92002935416E+02 0.  0.
         23    2    4    4    0    0  0.36861916399E+03  0.83746606889E+02  0.10020780416E+04  0.10749255460E+04  0.91711208121E+02 0.  0.
          2    1    3    3  502    0 -0.12797273919E+02  0.16794154812E+02 -0.57244981612E+01  0.21876556740E+02  0.00000000000E+00 0. -1.
         -1    1    3    3    0  502  0.10484438551E+03  0.52776940070E+02 -0.10752864962E+03  0.15918593237E+03  0.00000000000E+00 0.  1.
         13    1    5    5    0    0 -0.12080115843E+03 -0.70495183707E+02  0.36608834282E+03  0.39189688127E+03  0.00000000000E+00 0.  1.
        -13    1    5    5    0    0 -0.33986511715E+03 -0.82822518064E+02  0.65954229548E+03  0.74656808590E+03  0.00000000000E+00 0. -1.
          2    1    6    6  503    0  0.33161582814E+03  0.74132842394E+02  0.95852100645E+03  0.10169696434E+04  0.00000000000E+00 0. -1.
         -2    1    6    6    0  503  0.37003335849E+02  0.96137644959E+01  0.43557035167E+02  0.57955902583E+02  0.00000000000E+00 0.  1.
<mgrwt>
<rscale>  0 0.14381464E+04</rscale>
<asrwt>0</asrwt>
<pdfrwt beam="1">  1        2 0.33145449E+00 0.14381464E+04</pdfrwt>
<pdfrwt beam="2">  1       -1 0.36922884E-01 0.14381464E+04</pdfrwt>
<totfact> 0.42719948E+01</totfact>
</mgrwt>
</event>
<event>
12    7  0.1711607E-007  0.2170511E+04  0.7818608E-02  0.8530803E-01
          2   -1    0    0  501    0  0.00000000000E+00  0.00000000000E+00  0.12812952358E+04  0.12812952358E+04  0.00000000000E+00 0. -1.
         -1   -1    0    0    0  501 -0.00000000000E+00 -0.00000000000E+00 -0.91920992989E+03  0.91920992989E+03  0.00000000000E+00 0.  1.
         24    2    1    2    0    0 -0.62134386400E+02  0.48809849267E+03 -0.58875817265E+03  0.77113755822E+03  0.76916365721E+02 0.  0.
        254    2    1    2    0    0  0.62134386400E+02 -0.48809849267E+03  0.95084347857E+03  0.14293676075E+04  0.94704150705E+03 0.  0.
         23    2    4    4    0    0  0.35367625000E+03 -0.53301498844E+03  0.30812061462E+03  0.71624140169E+03  0.94188983583E+02 0.  0.
         23    2    4    4    0    0 -0.29154186360E+03  0.44916495777E+02  0.64272286395E+03  0.71312620579E+03  0.91881204386E+02 0.  0.
          2    1    3    3  502    0 -0.36450850107E+02  0.21934727036E+03 -0.20874051725E+03  0.30498277497E+03  0.00000000000E+00 0. -1.
         -1    1    3    3    0  502 -0.25683536293E+02  0.26875122231E+03 -0.38001765540E+03  0.46615478325E+03  0.00000000000E+00 0.  1.
         13    1    5    5    0    0  0.19789071117E+03 -0.22630083599E+03  0.17146716199E+03  0.34608350088E+03  0.00000000000E+00 0.  1.
        -13    1    5    5    0    0  0.15578553882E+03 -0.30671415245E+03  0.13665345263E+03  0.37015790081E+03  0.00000000000E+00 0. -1.
          4    1    6    6  503    0 -0.23643402898E+02  0.25606901031E+02  0.12643237933E+03  0.13114827648E+03  0.00000000000E+00 0. -1.
         -4    1    6    6    0  503 -0.26789846070E+03  0.19309594746E+02  0.51629048462E+03  0.58197792931E+03  0.00000000000E+00 0.  1.
<mgrwt>
<rscale>  0 0.21705108E+04</rscale>
<asrwt>0</asrwt>
<pdfrwt beam="1">  1        2 0.19712234E+00 0.21705108E+04</pdfrwt>
<pdfrwt beam="2">  1       -1 0.14141691E+00 0.21705108E+04</pdfrwt>
<totfact> 0.72281953E+00</totfact>
</mgrwt>
</event>
<event>
12    7  0.1711607E-007  0.3480678E+04  0.7818608E-02  0.8118384E-01
         -1   -1    0    0    0  501 -0.00000000000E+00  0.00000000000E+00  0.18296198350E+04  0.18296198350E+04  0.00000000000E+00 0.  1.
          2   -1    0    0  501    0  0.00000000000E+00 -0.00000000000E+00 -0.16554152322E+04  0.16554152322E+04  0.00000000000E+00 0. -1.
         24    2    1    2    0    0 -0.14268452812E+04  0.44150526564E+03 -0.53091838115E+03  0.15873859342E+04  0.84293655888E+02 0.  0.
        254    2    1    2    0    0  0.14268452812E+04 -0.44150526564E+03  0.70512298395E+03  0.18976491331E+04  0.93437650530E+03 0.  0.
         23    2    4    4    0    0  0.97033621873E+03  0.71680893372E+02  0.70597974063E+03  0.12054179216E+04  0.89075494656E+02 0.  0.
         23    2    4    4    0    0  0.45650906247E+03 -0.51318615901E+03 -0.85675667294E+00  0.69223121144E+03  0.86155430121E+02 0.  0.
          4    1    3    3  502    0 -0.13988176632E+04  0.41967793712E+03 -0.51971593566E+03  0.15501371163E+04  0.00000000000E+00 0. -1.
         -3    1    3    3    0  502 -0.28027618046E+02  0.21827328523E+02 -0.11202445492E+02  0.37248817817E+02  0.00000000000E+00 0.  1.
         13    1    5    5    0    0  0.89451877356E+03  0.42483687735E+02  0.65502243730E+03  0.11095148009E+04  0.00000000000E+00 0.  1.
        -13    1    5    5    0    0  0.75817445173E+02  0.29197205637E+02  0.50957303323E+02  0.95903120760E+02  0.00000000000E+00 0. -1.
          2    1    6    6  503    0  0.15259522909E+03 -0.11402993247E+03  0.34718960826E+01  0.19052607040E+03  0.00000000000E+00 0. -1.
         -2    1    6    6    0  503  0.30391383337E+03 -0.39915622655E+03 -0.43286527555E+01  0.50170514104E+03  0.00000000000E+00 0.  1.
<mgrwt>
<rscale>  0 0.34806784E+04</rscale>
<asrwt>0</asrwt>
<pdfrwt beam="1">  1        2 0.25467927E+00 0.34806784E+04</pdfrwt>
<pdfrwt beam="2">  1       -1 0.28147997E+00 0.34806784E+04</pdfrwt>
<totfact> 0.42347618E-01</totfact>
</mgrwt>
</event>
<event>
12    7  0.1711607E-007  0.2276997E+04  0.7818608E-02  0.8487047E-01
          2   -1    0    0  501    0  0.00000000000E+00  0.00000000000E+00  0.10655239050E+04  0.10655239050E+04  0.00000000000E+00 0. -1.
         -1   -1    0    0    0  501 -0.00000000000E+00 -0.00000000000E+00 -0.12164705640E+04  0.12164705640E+04  0.00000000000E+00 0.  1.
         24    2    1    2    0    0 -0.54553860100E+02 -0.95270712603E+03 -0.16475653572E+03  0.97225226870E+03  0.86618510077E+02 0.  0.
        254    2    1    2    0    0  0.54553860100E+02  0.95270712603E+03  0.13809876710E+02  0.13097422003E+04  0.89699884439E+03 0.  0.
         23    2    4    4    0    0  0.42079037210E+03  0.31963574167E+03  0.15674416532E+03  0.55919841125E+03  0.94353511766E+02 0.  0.
         23    2    4    4    0    0 -0.36623651199E+03  0.63307138436E+03 -0.14293428861E+03  0.75054378902E+03  0.89315216868E+02 0.  0.
          2    1    3    3  502    0 -0.55868166925E+01 -0.54278718028E+01 -0.74012329509E+01  0.10744885400E+02  0.00000000000E+00 0. -1.
         -1    1    3    3    0  502 -0.48967043408E+02 -0.94727925423E+03 -0.15735530277E+03  0.96150738330E+03  0.00000000000E+00 0.  1.
         13    1    5    5    0    0  0.11915664328E+03  0.40830218439E+02  0.40717816540E+02  0.13237580201E+03  0.00000000000E+00 0. -1.
        -13    1    5    5    0    0  0.30163372882E+03  0.27880552323E+03  0.11602634878E+03  0.42682260924E+03  0.00000000000E+00 0.  1.
          2    1    6    6  503    0 -0.32698139853E+03  0.53810940448E+03 -0.15085184312E+03  0.64748347064E+03  0.00000000000E+00 0. -1.
         -2    1    6    6    0  503 -0.39255113461E+02  0.94961979880E+02  0.79175545137E+01  0.10306031838E+03  0.00000000000E+00 0.  1.
<mgrwt>
<rscale>  0 0.22769967E+04</rscale>
<asrwt>0</asrwt>
<pdfrwt beam="1">  1        2 0.16392675E+00 0.22769967E+04</pdfrwt>
<pdfrwt beam="2">  1       -1 0.18714932E+00 0.22769967E+04</pdfrwt>
<totfact> 0.43870563E+00</totfact>
</mgrwt>
</event>
<event>
12    7  0.1711607E-007  0.1623024E+04  0.7818608E-02  0.8806527E-01
         -3   -1    0    0    0  501 -0.00000000000E+00  0.00000000000E+00  0.22213232948E+03  0.22213232948E+03  0.00000000000E+00 0.  1.
          2   -1    0    0  501    0  0.00000000000E+00 -0.00000000000E+00 -0.29646806700E+04  0.29646806700E+04  0.00000000000E+00 0. -1.
         24    2    1    2    0    0  0.10139603343E+03  0.55436213514E+03 -0.12047612017E+04  0.13322957089E+04  0.77225452623E+02 0.  0.
        254    2    1    2    0    0 -0.10139603343E+03 -0.55436213514E+03 -0.15377871388E+04  0.18545172905E+04  0.86996928913E+03 0.  0.
         23    2    4    4    0    0  0.16285063984E+02 -0.23630072235E+03  0.23984684335E+02  0.25396050313E+03  0.88416273241E+02 0.  0.
         23    2    4    4    0    0 -0.11768109741E+03 -0.31806141279E+03 -0.15617718232E+04  0.16005567874E+04  0.87400795448E+02 0.  0.
          2    1    3    3  502    0  0.73328734953E+01  0.17794078138E+03 -0.44183286662E+03  0.47637482588E+03  0.00000000000E+00 0. -1.
         -1    1    3    3    0  502  0.94063159934E+02  0.37642135376E+03 -0.76292833505E+03  0.85592088305E+03  0.00000000000E+00 0.  1.
         13    1    5    5    0    0 -0.23041046625E+02 -0.32031247305E+02  0.23527426410E+02  0.45939421274E+02  0.00000000000E+00 0. -1.
        -13    1    5    5    0    0  0.39326110608E+02 -0.20426947505E+03  0.45725792476E+00  0.20802108186E+03  0.00000000000E+00 0.  1.
          3    1    6    6  503    0 -0.63781726773E+02 -0.10631636328E+03 -0.41371552984E+03  0.43189329401E+03  0.00000000000E+00 0. -1.
         -3    1    6    6    0  503 -0.53899370641E+02 -0.21174504951E+03 -0.11480562933E+04  0.11686634934E+04  0.00000000000E+00 0.  1.
<mgrwt>
<rscale>  0 0.16230236E+04</rscale>
<asrwt>0</asrwt>
<pdfrwt beam="1">  1        2 0.45610469E+00 0.16230236E+04</pdfrwt>
<pdfrwt beam="2">  1       -3 0.34174207E-01 0.16230236E+04</pdfrwt>
<totfact> 0.96649182E+00</totfact>
</mgrwt>
</event>
<event>
12    7  0.1711607E-007  0.2267663E+04  0.7818608E-02  0.8490781E-01
         -1   -1    0    0    0  501 -0.00000000000E+00  0.00000000000E+00  0.46022323462E+03  0.46022323462E+03  0.00000000000E+00 0.  1.
          2   -1    0    0  501    0  0.00000000000E+00 -0.00000000000E+00 -0.27933695360E+04  0.27933695360E+04  0.00000000000E+00 0. -1.
         24    2    1    2    0    0  0.70285999846E+03  0.60924479544E+03 -0.13005811700E+04  0.16009257278E+04  0.79122740602E+02 0.  0.
        254    2    1    2    0    0 -0.70285999846E+03 -0.60924479544E+03 -0.10325651314E+04  0.16526670428E+04  0.89438593769E+03 0.  0.
         23    2    4    4    0    0 -0.72078316995E+03 -0.61670717116E+03 -0.43572847697E+03  0.10482001112E+04  0.94910771390E+02 0.  0.
         23    2    4    4    0    0  0.17923171484E+02  0.74623757162E+01 -0.59683665441E+03  0.60446693154E+03  0.93751544793E+02 0.  0.
          4    1    3    3  502    0  0.43792376136E+03  0.37597977438E+03 -0.87159494120E+03  0.10453782823E+04  0.00000000000E+00 0. -1.
         -3    1    3    3    0  502  0.26493623710E+03  0.23326502106E+03 -0.42898622879E+03  0.55554744556E+03  0.00000000000E+00 0.  1.
         13    1    5    5    0    0 -0.22853139022E+03 -0.23282064295E+03 -0.18850198278E+03  0.37678249111E+03  0.00000000000E+00 0.  1.
        -13    1    5    5    0    0 -0.49225177973E+03 -0.38388652821E+03 -0.24722649419E+03  0.67141762013E+03  0.00000000000E+00 0. -1.
          1    1    6    6  503    0  0.28680802969E+02 -0.21605704263E+02 -0.93210233424E+02  0.99887649540E+02  0.00000000000E+00 0. -1.
         -1    1    6    6    0  503 -0.10757631485E+02  0.29068079980E+02 -0.50362642099E+03  0.50457928200E+03  0.00000000000E+00 0.  1.
<mgrwt>
<rscale>  0 0.22676627E+04</rscale>
<asrwt>0</asrwt>
<pdfrwt beam="1">  1        2 0.42974916E+00 0.22676627E+04</pdfrwt>
<pdfrwt beam="2">  1       -1 0.70803574E-01 0.22676627E+04</pdfrwt>
<totfact> 0.48665369E+00</totfact>
</mgrwt>
</event>
<event>
12    7  0.1711607E-007  0.2232043E+04  0.7818608E-02  0.8505208E-01
         -1   -1    0    0    0  501 -0.00000000000E+00  0.00000000000E+00  0.64202590787E+03  0.64202590787E+03  0.00000000000E+00 0.  1.
          2   -1    0    0  501    0  0.00000000000E+00 -0.00000000000E+00 -0.19399599014E+04  0.19399599014E+04  0.00000000000E+00 0. -1.
         24    2    1    2    0    0 -0.48939592412E+03 -0.49063805546E+02  0.37766482029E+03  0.62534054077E+03  0.80650157397E+02 0.  0.
        254    2    1    2    0    0  0.48939592412E+03  0.49063805546E+02 -0.16755988139E+04  0.19566452685E+04  0.88256087287E+03 0.  0.
         23    2    4    4    0    0 -0.13793471047E+03 -0.21779266926E+01 -0.10549320349E+04  0.10677993618E+04  0.91011817815E+02 0.  0.
         23    2    4    4    0    0  0.62733063459E+03  0.51241732239E+02 -0.62066677896E+03  0.88884590679E+03  0.93007286224E+02 0.  0.
          2    1    3    3  502    0 -0.66055120500E+02  0.13557780958E+02  0.76881023657E+02  0.10226330802E+03  0.00000000000E+00 0. -1.
         -1    1    3    3    0  502 -0.42334080362E+03 -0.62621586504E+02  0.30078379663E+03  0.52307723275E+03  0.00000000000E+00 0.  1.
         13    1    5    5    0    0 -0.14750580735E+03  0.10429686300E+02 -0.98899715490E+03  0.99999105694E+03  0.00000000000E+00 0. -1.
        -13    1    5    5    0    0  0.95710968821E+01 -0.12607612993E+02 -0.65934880007E+02  0.67808304819E+02  0.00000000000E+00 0.  1.
          1    1    6    6  503    0  0.39173043281E+03  0.34996379709E+02 -0.44896878959E+03  0.59686719847E+03  0.00000000000E+00 0. -1.
         -1    1    6    6    0  503  0.23560020178E+03  0.16245352529E+02 -0.17169798937E+03  0.29197870832E+03  0.00000000000E+00 0.  1.
<mgrwt>
<rscale>  0 0.22320435E+04</rscale>
<asrwt>0</asrwt>
<pdfrwt beam="1">  1        2 0.29845537E+00 0.22320435E+04</pdfrwt>
<pdfrwt beam="2">  1       -1 0.98773218E-01 0.22320435E+04</pdfrwt>
<totfact> 0.73398677E+00</totfact>
</mgrwt>
</event>
<event>
12    7  0.1711607E-007  0.1863342E+04  0.7818608E-02  0.8673322E-01
          2   -1    0    0  501    0  0.00000000000E+00  0.00000000000E+00  0.73355965662E+03  0.73355965662E+03  0.00000000000E+00 0. -1.
         -1   -1    0    0    0  501 -0.00000000000E+00 -0.00000000000E+00 -0.11832859307E+04  0.11832859307E+04  0.00000000000E+00 0.  1.
         24    2    1    2    0    0  0.64072604544E+03 -0.13663851216E+03 -0.46213024017E+03  0.80579356131E+03  0.80863813008E+02 0.  0.
        254    2    1    2    0    0 -0.64072604544E+03  0.13663851216E+03  0.12403966106E+02  0.11110520260E+04  0.89726406248E+03 0.  0.
         23    2    4    4    0    0 -0.16369487063E+03  0.42776529683E+03 -0.19666103092E+03  0.50704172837E+03  0.92933273838E+02 0.  0.
         23    2    4    4    0    0 -0.47703117480E+03 -0.29112678467E+03  0.20906499703E+03  0.60401029764E+03  0.93844127049E+02 0.  0.
          4    1    3    3  502    0  0.83033337141E+01  0.33568672334E+01 -0.18946237566E+02  0.20956474567E+02  0.00000000000E+00 0. -1.
         -3    1    3    3    0  502  0.63242271172E+03 -0.13999537939E+03 -0.44318400261E+03  0.78483708674E+03  0.00000000000E+00 0.  1.
         13    1    5    5    0    0 -0.44247726371E+02  0.11458353982E+03 -0.96363886244E+01  0.12320758447E+03  0.00000000000E+00 0. -1.
        -13    1    5    5    0    0 -0.11944714426E+03  0.31318175701E+03 -0.18702464230E+03  0.38383414390E+03  0.00000000000E+00 0.  1.
          4    1    6    6  503    0 -0.39921074735E+02 -0.44146725273E+02  0.48870021890E+02  0.77012366538E+02  0.00000000000E+00 0. -1.
         -4    1    6    6    0  503 -0.43711010007E+03 -0.24698005940E+03  0.16019497514E+03  0.52699793110E+03  0.00000000000E+00 0.  1.
<mgrwt>
<rscale>  0 0.18633420E+04</rscale>
<asrwt>0</asrwt>
<pdfrwt beam="1">  1        2 0.11285533E+00 0.18633420E+04</pdfrwt>
<pdfrwt beam="2">  1       -1 0.18204399E+00 0.18633420E+04</pdfrwt>
<totfact> 0.83257672E+00</totfact>
</mgrwt>
</event>
<event>
12    7  0.1711607E-007  0.2836387E+04  0.7818608E-02  0.8292060E-01
          2   -1    0    0  501    0  0.00000000000E+00  0.00000000000E+00  0.18687075827E+04  0.18687075827E+04  0.00000000000E+00 0. -1.
         -1   -1    0    0    0  501 -0.00000000000E+00 -0.00000000000E+00 -0.10762906960E+04  0.10762906960E+04  0.00000000000E+00 0.  1.
         24    2    1    2    0    0  0.18492458766E+03  0.80490164617E+03  0.13609768168E+04  0.15939317026E+04  0.79351204057E+02 0.  0.
        254    2    1    2    0    0 -0.18492458766E+03 -0.80490164617E+03 -0.56855993010E+03  0.13510665762E+04  0.90556984046E+03 0.  0.
         23    2    4    4    0    0 -0.36481772315E+03 -0.91572064029E+03 -0.40752843541E+03  0.10704189801E+04  0.89894966988E+02 0.  0.
         23    2    4    4    0    0  0.17989313548E+03  0.11081899412E+03 -0.16103149470E+03  0.28064759607E+03  0.90496084131E+02 0.  0.
          2    1    3    3  502    0  0.16373583821E+03  0.66978202958E+03  0.10782336338E+04  0.12798457567E+04  0.00000000000E+00 0. -1.
         -1    1    3    3    0  502  0.21188749456E+02  0.13511961659E+03  0.28274318298E+03  0.31408594590E+03  0.00000000000E+00 0.  1.
         13    1    5    5    0    0 -0.32597670749E+03 -0.74492879095E+03 -0.31219563064E+03  0.87100277222E+03  0.00000000000E+00 0. -1.
        -13    1    5    5    0    0 -0.38841015658E+02 -0.17079184933E+03 -0.95332804764E+02  0.19941620787E+03  0.00000000000E+00 0.  1.
          2    1    6    6  503    0  0.45715733971E+02  0.50956940017E+02 -0.10081491073E+03  0.12186133223E+03  0.00000000000E+00 0.  1.
         -2    1    6    6    0  503  0.13417740151E+03  0.59862054102E+02 -0.60216583967E+02  0.15878626383E+03  0.00000000000E+00 0. -1.
<mgrwt>
<rscale>  0 0.28363868E+04</rscale>
<asrwt>0</asrwt>
<pdfrwt beam="1">  1        2 0.28749347E+00 0.28363868E+04</pdfrwt>
<pdfrwt beam="2">  1       -1 0.16558318E+00 0.28363868E+04</pdfrwt>
<totfact> 0.20700954E+00</totfact>
</mgrwt>
</event>
<event>
12    7  0.1711607E-007  0.1442158E+04  0.7818608E-02  0.8923856E-01
         -3   -1    0    0    0  501 -0.00000000000E+00  0.00000000000E+00  0.27964679547E+03  0.27964679547E+03  0.00000000000E+00 0.  1.
          2   -1    0    0  501    0  0.00000000000E+00 -0.00000000000E+00 -0.18593262122E+04  0.18593262122E+04  0.00000000000E+00 0. -1.
         24    2    1    2    0    0  0.37715089572E+03 -0.21780458921E+03 -0.51481748819E+03  0.67894641729E+03  0.79054121852E+02 0.  0.
        254    2    1    2    0    0 -0.37715089572E+03  0.21780458921E+03 -0.10648619286E+04  0.14600265904E+04  0.89892440202E+03 0.  0.
         23    2    4    4    0    0 -0.35844766108E+03  0.54080661460E+03 -0.61490292992E+03  0.89844474864E+03  0.90226564873E+02 0.  0.
         23    2    4    4    0    0 -0.18703234633E+02 -0.32300202539E+03 -0.44995899864E+03  0.56158184176E+03  0.90724556431E+02 0.  0.
          4    1    3    3  502    0  0.23268110148E+03 -0.16969955268E+03 -0.36939091622E+03  0.46838881515E+03  0.00000000000E+00 0. -1.
         -3    1    3    3    0  502  0.14446979423E+03 -0.48105036532E+02 -0.14542657197E+03  0.21055760214E+03  0.00000000000E+00 0.  1.
         13    1    5    5    0    0 -0.26289321185E+03  0.40564368404E+03 -0.40156997509E+03  0.62842508235E+03  0.00000000000E+00 0.  1.
        -13    1    5    5    0    0 -0.95554449234E+02  0.13516293056E+03 -0.21333295483E+03  0.27001966629E+03  0.00000000000E+00 0. -1.
          3    1    6    6  503    0  0.36746598847E+01  0.18886099230E+01  0.19407635426E+01  0.45647054492E+01  0.00000000000E+00 0. -1.
         -3    1    6    6    0  503 -0.22377894518E+02 -0.32489063531E+03 -0.45189976219E+03  0.55701713631E+03  0.00000000000E+00 0.  1.
<mgrwt>
<rscale>  0 0.14421576E+04</rscale>
<asrwt>0</asrwt>
<pdfrwt beam="1">  1        2 0.28605018E+00 0.14421576E+04</pdfrwt>
<pdfrwt beam="2">  1       -3 0.43022585E-01 0.14421576E+04</pdfrwt>
<totfact> 0.26846959E+01</totfact>
</mgrwt>
</event>
<event>
12    7  0.1711607E-007  0.2799840E+04  0.7818608E-02  0.8303318E-01
         -1   -1    0    0    0  501 -0.00000000000E+00  0.00000000000E+00  0.17004384649E+04  0.17004384649E+04  0.00000000000E+00 0.  1.
          2   -1    0    0  501    0  0.00000000000E+00 -0.00000000000E+00 -0.11525119926E+04  0.11525119926E+04  0.00000000000E+00 0. -1.
         24    2    1    2    0    0  0.66784855594E+03  0.83622981831E+03 -0.42553208611E+03  0.11544480315E+04  0.79816655362E+02 0.  0.
        254    2    1    2    0    0 -0.66784855594E+03 -0.83622981831E+03  0.97345855840E+03  0.16985024260E+04  0.88993647154E+03 0.  0.
         23    2    4    4    0    0 -0.32184571340E+03 -0.67432705687E+03  0.12531954122E+03  0.76341275792E+03  0.93767844624E+02 0.  0.
         23    2    4    4    0    0 -0.34600284255E+03 -0.16190276144E+03  0.84813901718E+03  0.93508966804E+03  0.95511379465E+02 0.  0.
          4    1    3    3  502    0  0.47339877810E+03  0.61804381683E+03 -0.34325077500E+03  0.85082645537E+03  0.00000000000E+00 0. -1.
         -3    1    3    3    0  502  0.19444977785E+03  0.21818600148E+03 -0.82281311118E+02  0.30362157615E+03  0.00000000000E+00 0.  1.
         13    1    5    5    0    0 -0.10834079532E+03 -0.17115170934E+03 -0.32091260615E+00  0.20256045647E+03  0.00000000000E+00 0. -1.
        -13    1    5    5    0    0 -0.21350491808E+03 -0.50317534752E+03  0.12564045383E+03  0.56085230145E+03  0.00000000000E+00 0.  1.
          4    1    6    6  503    0 -0.29890876813E+02  0.89271744601E+01  0.40456841034E+02  0.51087326677E+02  0.00000000000E+00 0. -1.
         -4    1    6    6    0  503 -0.31611196573E+03 -0.17082993590E+03  0.80768217614E+03  0.88400234136E+03  0.00000000000E+00 0.  1.
<mgrwt>
<rscale>  0 0.27998398E+04</rscale>
<asrwt>0</asrwt>
<pdfrwt beam="1">  1        2 0.17730954E+00 0.27998398E+04</pdfrwt>
<pdfrwt beam="2">  1       -1 0.26160592E+00 0.27998398E+04</pdfrwt>
<totfact> 0.11750203E+00</totfact>
</mgrwt>
</event>
<event>
12    7  0.1711607E-007  0.1218584E+04  0.7818608E-02  0.9096743E-01
          2   -1    0    0  501    0  0.00000000000E+00  0.00000000000E+00  0.15122605533E+04  0.15122605533E+04  0.00000000000E+00 0. -1.
         -1   -1    0    0    0  501 -0.00000000000E+00 -0.00000000000E+00 -0.24548479068E+03  0.24548479068E+03  0.00000000000E+00 0.  1.
         24    2    1    2    0    0  0.36397540635E+02  0.19369827215E+03  0.39013812987E+02  0.21615553075E+03  0.79732893290E+02 0.  0.
        254    2    1    2    0    0 -0.36397540635E+02 -0.19369827215E+03  0.12277619496E+04  0.15415898132E+04  0.91118381553E+03 0.  0.
         23    2    4    4    0    0 -0.26349945778E+03 -0.40175364465E+03  0.10860836011E+04  0.11906963449E+04  0.85686883179E+02 0.  0.
         23    2    4    4    0    0  0.22710191714E+03  0.20805537250E+03  0.14167834858E+03  0.35089346836E+03  0.90504988190E+02 0.  0.
          4    1    3    3  502    0  0.31221934121E+02  0.20902061518E+02  0.19070191165E+02  0.42135229168E+02  0.00000000000E+00 0. -1.
         -3    1    3    3    0  502  0.51756065131E+01  0.17279621063E+03  0.19943621822E+02  0.17402030158E+03  0.00000000000E+00 0.  1.
         13    1    5    5    0    0 -0.13250326881E+02 -0.61864218745E+01  0.76450279472E+02  0.77836291082E+02  0.00000000000E+00 0. -1.
        -13    1    5    5    0    0 -0.25024913090E+03 -0.39556722278E+03  0.10096333216E+04  0.11128600538E+04  0.00000000000E+00 0.  1.
          3    1    6    6  503    0  0.55351120715E+02  0.79800301868E+02  0.85275290093E+02  0.12924283285E+03  0.00000000000E+00 0. -1.
         -3    1    6    6    0  503  0.17175079643E+03  0.12825507063E+03  0.56403058483E+02  0.22165063551E+03  0.00000000000E+00 0.  1.
<mgrwt>
<rscale>  0 0.12185844E+04</rscale>
<asrwt>0</asrwt>
<pdfrwt beam="1">  1        2 0.23265546E+00 0.12185844E+04</pdfrwt>
<pdfrwt beam="2">  1       -1 0.37766892E-01 0.12185844E+04</pdfrwt>
<totfact> 0.94848682E+01</totfact>
</mgrwt>
</event>
<event>
12    7  0.1711607E-007  0.2852548E+04  0.7818608E-02  0.8287138E-01
         -1   -1    0    0    0  501 -0.00000000000E+00  0.00000000000E+00  0.97227369798E+03  0.97227369798E+03  0.00000000000E+00 0.  1.
          2   -1    0    0  501    0  0.00000000000E+00 -0.00000000000E+00 -0.20922677693E+04  0.20922677693E+04  0.00000000000E+00 0. -1.
         24    2    1    2    0    0  0.22399131284E+02 -0.34537445236E+03 -0.18402211176E+04  0.18742126355E+04  0.80461219369E+02 0.  0.
        254    2    1    2    0    0 -0.22399131284E+02  0.34537445236E+03  0.72022704629E+03  0.11903288318E+04  0.88225307946E+03 0.  0.
         23    2    4    4    0    0 -0.10407108025E+03  0.13738909531E+03 -0.17633078670E+03  0.26232253842E+03  0.89521028640E+02 0.  0.
         23    2    4    4    0    0  0.81671948967E+02  0.20798535705E+03  0.89655783299E+03  0.92800629340E+03  0.86322168069E+02 0.  0.
          4    1    3    3  502    0  0.52036326472E+02 -0.18644434646E+03 -0.98167712679E+03  0.10005794595E+04  0.00000000000E+00 0. -1.
         -3    1    3    3    0  502 -0.29637195188E+02 -0.15893010590E+03 -0.85854399083E+03  0.87363317593E+03  0.00000000000E+00 0.  1.
         13    1    5    5    0    0 -0.86676313042E+02  0.11092102408E+03 -0.18206127453E+03  0.23013596961E+03  0.00000000000E+00 0. -1.
        -13    1    5    5    0    0 -0.17394767209E+02  0.26468071227E+02  0.57304878288E+01  0.32186568806E+02  0.00000000000E+00 0.  1.
          3    1    6    6  503    0  0.15710445270E+02  0.14534133640E+03  0.48703943825E+03  0.50850598479E+03  0.00000000000E+00 0. -1.
         -3    1    6    6    0  503  0.65961503697E+02  0.62644020647E+02  0.40951839474E+03  0.41950030861E+03  0.00000000000E+00 0.  1.
<mgrwt>
<rscale>  0 0.28525476E+04</rscale>
<asrwt>0</asrwt>
<pdfrwt beam="1">  1        2 0.32188735E+00 0.28525476E+04</pdfrwt>
<pdfrwt beam="2">  1       -1 0.14958057E+00 0.28525476E+04</pdfrwt>
<totfact> 0.20559243E+00</totfact>
</mgrwt>
</event>
<event>
12    7  0.1711607E-007  0.2004344E+04  0.7818608E-02  0.8604592E-01
          2   -1    0    0  501    0  0.00000000000E+00  0.00000000000E+00  0.10601028892E+04  0.10601028892E+04  0.00000000000E+00 0. -1.
         -3   -1    0    0    0  501 -0.00000000000E+00 -0.00000000000E+00 -0.94740709648E+03  0.94740709648E+03  0.00000000000E+00 0.  1.
         24    2    1    2    0    0 -0.60833726123E+03  0.22320721409E+03  0.50938227081E+03  0.82802418747E+03  0.79107985648E+02 0.  0.
        254    2    1    2    0    0  0.60833726123E+03 -0.22320721409E+03 -0.39668647808E+03  0.11794857982E+04  0.90218119163E+03 0.  0.
         23    2    4    4    0    0 -0.38999940161E+02  0.17040160341E+02  0.22443596444E+03  0.24632171618E+03  0.92149461934E+02 0.  0.
         23    2    4    4    0    0  0.64733720139E+03 -0.24024737443E+03 -0.62112244251E+03  0.93316408205E+03  0.90762669682E+02 0.  0.
          2    1    3    3  502    0 -0.19397314323E+02 -0.53102083560E+01  0.85272969366E+01  0.21844196226E+02  0.00000000000E+00 0. -1.
         -1    1    3    3    0  502 -0.58893994691E+03  0.22851742244E+03  0.50085497388E+03  0.80617999124E+03  0.00000000000E+00 0.  1.
         13    1    5    5    0    0  0.16666040084E+02  0.28427862231E+02  0.33016509741E+02  0.46647509671E+02  0.00000000000E+00 0. -1.
        -13    1    5    5    0    0 -0.55665980244E+02 -0.11387701890E+02  0.19141945470E+03  0.19967420651E+03  0.00000000000E+00 0.  1.
          1    1    6    6  503    0  0.12167107748E+03 -0.14368619890E+02 -0.13589831112E+03  0.18297174453E+03  0.00000000000E+00 0. -1.
         -1    1    6    6    0  503  0.52566612392E+03 -0.22587875454E+03 -0.48522413140E+03  0.75019233752E+03  0.00000000000E+00 0.  1.
<mgrwt>
<rscale>  0 0.20043443E+04</rscale>
<asrwt>0</asrwt>
<pdfrwt beam="1">  1        2 0.16309275E+00 0.20043443E+04</pdfrwt>
<pdfrwt beam="2">  1       -3 0.14575494E+00 0.20043443E+04</pdfrwt>
<totfact> 0.47036574E+00</totfact>
</mgrwt>
</event>
<event>
12    7  0.1711607E-007  0.1764802E+04  0.7818608E-02  0.8725245E-01
          2   -1    0    0  501    0  0.00000000000E+00  0.00000000000E+00  0.13384269418E+04  0.13384269418E+04  0.00000000000E+00 0. -1.
         -1   -1    0    0    0  501 -0.00000000000E+00 -0.00000000000E+00 -0.58175119959E+03  0.58175119959E+03  0.00000000000E+00 0.  1.
         24    2    1    2    0    0 -0.38326723858E+03  0.49236134848E+03  0.41386953923E+03  0.75326389763E+03  0.82492607755E+02 0.  0.
        254    2    1    2    0    0  0.38326723858E+03 -0.49236134848E+03  0.34280620300E+03  0.11669142438E+04  0.92458600782E+03 0.  0.
         23    2    4    4    0    0  0.20053976040E+03 -0.75256843080E+03  0.22624683876E+03  0.81606425208E+03  0.90541664132E+02 0.  0.
         23    2    4    4    0    0  0.18272747818E+03  0.26020708232E+03  0.11655936424E+03  0.35084999169E+03  0.91720086687E+02 0.  0.
          2    1    3    3  502    0 -0.37723299978E+03  0.47594548064E+03  0.41527332629E+03  0.73571786181E+03  0.00000000000E+00 0. -1.
         -1    1    3    3    0  502 -0.60342388048E+01  0.16415867837E+02 -0.14037870684E+01  0.17546035818E+02  0.00000000000E+00 0.  1.
         13    1    5    5    0    0  0.12570656469E+03 -0.55640540701E+03  0.12975625988E+03  0.58500068746E+03  0.00000000000E+00 0. -1.
        -13    1    5    5    0    0  0.74833195702E+02 -0.19616302379E+03  0.96490578880E+02  0.23106356462E+03  0.00000000000E+00 0.  1.
          1    1    6    6  503    0  0.79352827622E+02  0.46171219323E+02  0.18114844631E+02  0.93577776963E+02  0.00000000000E+00 0. -1.
         -1    1    6    6    0  503  0.10337465056E+03  0.21403586300E+03  0.98444519614E+02  0.25727221473E+03  0.00000000000E+00 0.  1.
<mgrwt>
<rscale>  0 0.17648019E+04</rscale>
<asrwt>0</asrwt>
<pdfrwt beam="1">  1        2 0.20591184E+00 0.17648019E+04</pdfrwt>
<pdfrwt beam="2">  1       -1 0.89500185E-01 0.17648019E+04</pdfrwt>
<totfact> 0.20722799E+01</totfact>
</mgrwt>
</event>
<event>
12    7  0.2024525E-007  0.1850760E+04  0.7818608E-02  0.8679762E-01
          2   -1    0    0  501    0  0.00000000000E+00  0.00000000000E+00  0.14058681347E+04  0.14058681347E+04  0.00000000000E+00 0. -1.
         -1   -1    0    0    0  501 -0.00000000000E+00 -0.00000000000E+00 -0.60911006558E+03  0.60911006558E+03  0.00000000000E+00 0.  1.
         24    2    1    2    0    0 -0.71526213008E+02 -0.20322840310E+02 -0.45634150180E+03  0.46913108614E+03  0.79419095496E+02 0.  0.
        254    2    1    2    0    0  0.71526213008E+02  0.20322840310E+02  0.12530995709E+04  0.15458471141E+04  0.90213953947E+03 0.  0.
         23    2    4    4    0    0  0.98094275313E+02  0.44234719022E+03  0.75569139248E+03  0.88594608694E+03  0.92398402347E+02 0.  0.
         23    2    4    4    0    0 -0.26568062305E+02 -0.42202434991E+03  0.49740817845E+03  0.65990102721E+03  0.96146013241E+02 0.  0.
          4    1    3    3  502    0 -0.43487644468E+02 -0.10311420934E+02 -0.80194911262E+02  0.91808084695E+02  0.00000000000E+00 0. -1.
         -3    1    3    3    0  502 -0.28038568540E+02 -0.10011419375E+02 -0.37614659054E+03  0.37732300144E+03  0.00000000000E+00 0.  1.
         13    1    5    5    0    0  0.10742891433E+03  0.43113182711E+03  0.74643468683E+03  0.86866585387E+03  0.00000000000E+00 0. -1.
        -13    1    5    5    0    0 -0.93346390217E+01  0.11215363118E+02  0.92567056451E+01  0.17280233069E+02  0.00000000000E+00 0.  1.
          1    1    6    6  503    0 -0.20184035343E+02 -0.42571436112E+03  0.48714770745E+03  0.64726578886E+03  0.00000000000E+00 0. -1.
         -1    1    6    6    0  503 -0.63840269621E+01  0.36900112103E+01  0.10260470997E+02  0.12635238346E+02  0.00000000000E+00 0.  1.
<mgrwt>
<rscale>  0 0.18507603E+04</rscale>
<asrwt>0</asrwt>
<pdfrwt beam="1">  1        2 0.21628740E+00 0.18507603E+04</pdfrwt>
<pdfrwt beam="2">  1       -1 0.93709242E-01 0.18507603E+04</pdfrwt>
<totfact> 0.16989858E+01</totfact>
</mgrwt>
</event>
<event>
12    7  0.1711607E-007  0.1861908E+04  0.7818608E-02  0.8674053E-01
         -3   -1    0    0    0  501 -0.00000000000E+00  0.00000000000E+00  0.38319889673E+03  0.38319889673E+03  0.00000000000E+00 0.  1.
          2   -1    0    0  501    0  0.00000000000E+00 -0.00000000000E+00 -0.22616859082E+04  0.22616859082E+04  0.00000000000E+00 0. -1.
         24    2    1    2    0    0 -0.17215686107E+03  0.68695548334E+03 -0.66059310015E+03  0.97180789347E+03  0.80507868857E+02 0.  0.
        254    2    1    2    0    0  0.17215686107E+03 -0.68695548334E+03 -0.12178939113E+04  0.16730769114E+04  0.90242725553E+03 0.  0.
         23    2    4    4    0    0  0.45840200488E+03 -0.69299194551E+03 -0.99187008683E+03  0.12969117630E+04  0.88338084289E+02 0.  0.
         23    2    4    4    0    0 -0.28624514380E+03  0.60364621720E+01 -0.22602382447E+03  0.37616514849E+03  0.91873437299E+02 0.  0.
          2    1    3    3  502    0 -0.18042758533E+03  0.67037707100E+03 -0.64327029670E+03  0.94644397905E+03  0.00000000000E+00 0. -1.
         -1    1    3    3    0  502  0.82707242535E+01  0.16578412337E+02 -0.17322803454E+02  0.25363914422E+02  0.00000000000E+00 0.  1.
         13    1    5    5    0    0  0.29119692090E+03 -0.43324213302E+03 -0.68773051997E+03  0.86340469113E+03  0.00000000000E+00 0.  1.
        -13    1    5    5    0    0  0.16720508398E+03 -0.25974981249E+03 -0.30413956686E+03  0.43350707183E+03  0.00000000000E+00 0. -1.
          4    1    6    6  503    0 -0.13239013344E+03  0.48474650107E+02 -0.11090841987E+03  0.17938120507E+03  0.00000000000E+00 0. -1.
         -4    1    6    6    0  503 -0.15385501037E+03 -0.42438187935E+02 -0.11511540460E+03  0.19678394342E+03  0.00000000000E+00 0.  1.
<mgrwt>
<rscale>  0 0.18619082E+04</rscale>
<asrwt>0</asrwt>
<pdfrwt beam="1">  1        2 0.34795168E+00 0.18619082E+04</pdfrwt>
<pdfrwt beam="2">  1       -3 0.58953677E-01 0.18619082E+04</pdfrwt>
<totfact> 0.81053138E+00</totfact>
</mgrwt>
</event>
<event>
12    7  0.1711607E-007  0.1194777E+04  0.7818608E-02  0.9117440E-01
         -1   -1    0    0    0  501 -0.00000000000E+00  0.00000000000E+00  0.39540386050E+03  0.39540386050E+03  0.00000000000E+00 0.  1.
          2   -1    0    0  501    0  0.00000000000E+00 -0.00000000000E+00 -0.90255394713E+03  0.90255394713E+03  0.00000000000E+00 0. -1.
         24    2    1    2    0    0 -0.20341313171E+01 -0.22469907605E+02 -0.36828589737E+03  0.37702997555E+03  0.77511714118E+02 0.  0.
        254    2    1    2    0    0  0.20341313171E+01  0.22469907605E+02 -0.13886418925E+03  0.92092783208E+03  0.91011854964E+03 0.  0.
         23    2    4    4    0    0  0.31399350601E+03  0.96656173578E+02  0.23932559535E+03  0.41679842122E+03  0.92248824583E+02 0.  0.
         23    2    4    4    0    0 -0.31195937469E+03 -0.74186265973E+02 -0.37818978460E+03  0.50412941086E+03  0.91086202041E+02 0.  0.
          4    1    3    3  502    0 -0.21452138037E+02 -0.35549104925E+02 -0.10820755573E+03  0.11589999225E+03  0.00000000000E+00 0. -1.
         -3    1    3    3    0  502  0.19418006720E+02  0.13079197320E+02 -0.26007834164E+03  0.26112998330E+03  0.00000000000E+00 0.  1.
         13    1    5    5    0    0 -0.55206359864E+00  0.15830997514E+02  0.61374259218E+01  0.16988032654E+02  0.00000000000E+00 0. -1.
        -13    1    5    5    0    0  0.31454556960E+03  0.80825176063E+02  0.23318816943E+03  0.39981038856E+03  0.00000000000E+00 0.  1.
          3    1    6    6  503    0 -0.69618513797E+02 -0.56762089362E+02 -0.89478389111E+02  0.12678743774E+03  0.00000000000E+00 0. -1.
         -3    1    6    6    0  503 -0.24234086089E+03 -0.17424176611E+02 -0.28871139549E+03  0.37734197311E+03  0.00000000000E+00 0.  1.
<mgrwt>
<rscale>  0 0.11947775E+04</rscale>
<asrwt>0</asrwt>
<pdfrwt beam="1">  1        2 0.13885445E+00 0.11947775E+04</pdfrwt>
<pdfrwt beam="2">  1       -1 0.60831363E-01 0.11947775E+04</pdfrwt>
<totfact> 0.90159111E+01</totfact>
</mgrwt>
</event>
<event>
12    7  0.1711607E-007  0.1745149E+04  0.7818608E-02  0.8736025E-01
         -1   -1    0    0    0  501 -0.00000000000E+00  0.00000000000E+00  0.61196567749E+03  0.61196567749E+03  0.00000000000E+00 0.  1.
          2   -1    0    0  501    0  0.00000000000E+00 -0.00000000000E+00 -0.12441649276E+04  0.12441649276E+04  0.00000000000E+00 0. -1.
         24    2    1    2    0    0  0.90711560787E+02 -0.35391550498E+03 -0.76599680383E+03  0.85250861921E+03  0.80839782434E+02 0.  0.
        254    2    1    2    0    0 -0.90711560787E+02  0.35391550498E+03  0.13379755373E+03  0.10036219859E+04  0.92513271114E+03 0.  0.
         23    2    4    4    0    0 -0.12690670797E+03 -0.28320727481E+03 -0.62031490357E+02  0.32973348549E+03  0.92545084280E+02 0.  0.
         23    2    4    4    0    0  0.36195147187E+02  0.63712277979E+03  0.19582904408E+03  0.67388850039E+03  0.92418457235E+02 0.  0.
          4    1    3    3  502    0  0.13575252692E+02 -0.21390484458E+03 -0.44071922711E+03  0.49007449144E+03  0.00000000000E+00 0. -1.
         -3    1    3    3    0  502  0.77136308095E+02 -0.14001066040E+03 -0.32527757673E+03  0.36243412777E+03  0.00000000000E+00 0.  1.
         13    1    5    5    0    0 -0.11302889244E+03 -0.14758032032E+03 -0.19462715653E+02  0.18690713944E+03  0.00000000000E+00 0. -1.
        -13    1    5    5    0    0 -0.13877815538E+02 -0.13562695449E+03 -0.42568774703E+02  0.14282634605E+03  0.00000000000E+00 0.  1.
          1    1    6    6  503    0  0.66081302595E+02  0.41153494615E+03  0.11470819040E+03  0.43230280984E+03  0.00000000000E+00 0. -1.
         -1    1    6    6    0  503 -0.29886155408E+02  0.22558783365E+03  0.81120853681E+02  0.24158569055E+03  0.00000000000E+00 0.  1.
<mgrwt>
<rscale>  0 0.17451490E+04</rscale>
<asrwt>0</asrwt>
<pdfrwt beam="1">  1        2 0.19140999E+00 0.17451490E+04</pdfrwt>
<pdfrwt beam="2">  1       -1 0.94148566E-01 0.17451490E+04</pdfrwt>
<totfact> 0.21061386E+01</totfact>
</mgrwt>
</event>
<event>
12    7  0.1767847E-007  0.1864987E+04  0.7818608E-02  0.8672483E-01
         -1   -1    0    0    0  501 -0.00000000000E+00  0.00000000000E+00  0.65294733656E+03  0.65294733656E+03  0.00000000000E+00 0.  1.
          2   -1    0    0  501    0  0.00000000000E+00 -0.00000000000E+00 -0.13317222505E+04  0.13317222505E+04  0.00000000000E+00 0. -1.
         24    2    1    2    0    0  0.18994564129E+03 -0.36362585966E+03  0.38538792965E+03  0.56840466881E+03  0.79100560978E+02 0.  0.
        254    2    1    2    0    0 -0.18994564129E+03  0.36362585966E+03 -0.10641628436E+04  0.14162649183E+04  0.83967889611E+03 0.  0.
         23    2    4    4    0    0 -0.29058024530E+03  0.57061243181E+03 -0.93400461877E+03  0.11360636008E+04  0.90776929516E+02 0.  0.
         23    2    4    4    0    0  0.10063460400E+03 -0.20698657215E+03 -0.13015822485E+03  0.28020131747E+03  0.92740769046E+02 0.  0.
          2    1    3    3  502    0  0.60030957563E+01 -0.19125996152E+01 -0.27449571966E+01  0.68724075809E+01  0.00000000000E+00 0. -1.
         -1    1    3    3    0  502  0.18394254554E+03 -0.36171326005E+03  0.38813288684E+03  0.56153226123E+03  0.00000000000E+00 0.  1.
         13    1    5    5    0    0 -0.19735036161E+03  0.45823932206E+03 -0.68562810387E+03  0.84794831112E+03  0.00000000000E+00 0. -1.
        -13    1    5    5    0    0 -0.93229883689E+02  0.11237310975E+03 -0.24837651489E+03  0.28811528970E+03  0.00000000000E+00 0.  1.
          3    1    6    6  503    0  0.63702633737E+02 -0.18645330239E+03 -0.75249975440E+02  0.21091566637E+03  0.00000000000E+00 0. -1.
         -3    1    6    6    0  503  0.36931970268E+02 -0.20533269755E+02 -0.54908249408E+02  0.69285651095E+02  0.00000000000E+00 0.  1.
<mgrwt>
<rscale>  0 0.18649874E+04</rscale>
<asrwt>0</asrwt>
<pdfrwt beam="1">  1        2 0.20488034E+00 0.18649874E+04</pdfrwt>
<pdfrwt beam="2">  1       -1 0.10045344E+00 0.18649874E+04</pdfrwt>
<totfact> 0.15999883E+01</totfact>
</mgrwt>
</event>
<event>
12    7  0.1711607E-007  0.1490038E+04  0.7818608E-02  0.8891104E-01
          2   -1    0    0  501    0  0.00000000000E+00  0.00000000000E+00  0.31510261341E+03  0.31510261341E+03  0.00000000000E+00 0. -1.
         -1   -1    0    0    0  501 -0.00000000000E+00 -0.00000000000E+00 -0.17615009565E+04  0.17615009565E+04  0.00000000000E+00 0.  1.
         24    2    1    2    0    0 -0.10234431283E+03 -0.19460951002E+03 -0.10404669006E+04  0.10665561974E+04  0.81385079248E+02 0.  0.
        254    2    1    2    0    0  0.10234431283E+03  0.19460951002E+03 -0.40593144248E+03  0.10100473725E+04  0.89836971177E+03 0.  0.
         23    2    4    4    0    0 -0.30608799940E+02  0.52633027268E+03 -0.13762979111E+03  0.55268704220E+03  0.92523254596E+02 0.  0.
         23    2    4    4    0    0  0.13295311277E+03 -0.33172076266E+03 -0.26830165137E+03  0.45736033034E+03  0.97352457960E+02 0.  0.
          2    1    3    3  502    0 -0.36416113588E+02 -0.12395672072E+02 -0.23368751588E+03  0.23683251697E+03  0.00000000000E+00 0. -1.
         -1    1    3    3    0  502 -0.65928199238E+02 -0.18221383795E+03 -0.80677938475E+03  0.82972368042E+03  0.00000000000E+00 0.  1.
         13    1    5    5    0    0  0.22961654834E+02  0.41002792324E+02 -0.11275647490E+02  0.48328116013E+02  0.00000000000E+00 0. -1.
        -13    1    5    5    0    0 -0.53570454775E+02  0.48532748035E+03 -0.12635414362E+03  0.50435892618E+03  0.00000000000E+00 0.  1.
          2    1    6    6  503    0  0.13202510291E+03 -0.26227808892E+03 -0.24973839338E+03  0.38547333092E+03  0.00000000000E+00 0.  1.
         -2    1    6    6    0  503  0.92800985317E+00 -0.69442673740E+02 -0.18563257993E+02  0.71886999421E+02  0.00000000000E+00 0. -1.
<mgrwt>
<rscale>  0 0.14900383E+04</rscale>
<asrwt>0</asrwt>
<pdfrwt beam="1">  1        2 0.48477326E-01 0.14900383E+04</pdfrwt>
<pdfrwt beam="2">  1       -1 0.27100014E+00 0.14900383E+04</pdfrwt>
<totfact> 0.58647996E+00</totfact>
</mgrwt>
</event>
<event>
12    7  0.1711607E-007  0.1762617E+04  0.7818608E-02  0.8726436E-01
          2   -1    0    0  501    0  0.00000000000E+00  0.00000000000E+00  0.57217940212E+03  0.57217940212E+03  0.00000000000E+00 0. -1.
         -1   -1    0    0    0  501 -0.00000000000E+00 -0.00000000000E+00 -0.13574497360E+04  0.13574497360E+04  0.00000000000E+00 0.  1.
         24    2    1    2    0    0 -0.57960193340E+03 -0.25086360744E+03 -0.10835042414E+03  0.64698528774E+03  0.89326353353E+02 0.  0.
        254    2    1    2    0    0  0.57960193340E+03  0.25086360744E+03 -0.67691990975E+03  0.12826438504E+04  0.88774080225E+03 0.  0.
         23    2    4    4    0    0  0.16338893254E+03  0.12537626745E+03 -0.79201612832E+03  0.82367198780E+03  0.93438986719E+02 0.  0.
         23    2    4    4    0    0  0.41621300086E+03  0.12548733998E+03  0.11509621857E+03  0.45897186259E+03  0.91802486576E+02 0.  0.
          2    1    3    3  502    0 -0.52346394619E+03 -0.19614258467E+03 -0.86999917042E+02  0.56573439178E+03  0.00000000000E+00 0. -1.
         -1    1    3    3    0  502 -0.56137987211E+02 -0.54721022762E+02 -0.21350507094E+02  0.81250895955E+02  0.00000000000E+00 0.  1.
         13    1    5    5    0    0  0.11599877925E+03  0.89910846881E+02 -0.37879700470E+03  0.40623496642E+03  0.00000000000E+00 0. -1.
        -13    1    5    5    0    0  0.47390153288E+02  0.35465420572E+02 -0.41321912363E+03  0.41743702138E+03  0.00000000000E+00 0.  1.
          1    1    6    6  503    0  0.35733246419E+03  0.10365431907E+03  0.13054705261E+03  0.39430095203E+03  0.00000000000E+00 0. -1.
         -1    1    6    6    0  503  0.58880536671E+02  0.21833020908E+02 -0.15450834038E+02  0.64670910563E+02  0.00000000000E+00 0.  1.
<mgrwt>
<rscale>  0 0.17626171E+04</rscale>
<asrwt>0</asrwt>
<pdfrwt beam="1">  1        2 0.88027602E-01 0.17626171E+04</pdfrwt>
<pdfrwt beam="2">  1       -1 0.20883842E+00 0.17626171E+04</pdfrwt>
<totfact> 0.74361505E+00</totfact>
</mgrwt>
</event>
<event>
12    7  0.1711607E-007  0.1430039E+04  0.7818608E-02  0.8932357E-01
         -1   -1    0    0    0  501 -0.00000000000E+00  0.00000000000E+00  0.34405000149E+03  0.34405000149E+03  0.00000000000E+00 0.  1.
          2   -1    0    0  501    0  0.00000000000E+00 -0.00000000000E+00 -0.14859837276E+04  0.14859837276E+04  0.00000000000E+00 0. -1.
         24    2    1    2    0    0 -0.27534402272E+03  0.30351130971E+03 -0.45401063816E+03  0.61699281940E+03  0.81369734308E+02 0.  0.
        254    2    1    2    0    0  0.27534402272E+03 -0.30351130971E+03 -0.68792308799E+03  0.12130409097E+04  0.91120613898E+03 0.  0.
         23    2    4    4    0    0 -0.77667865531E+02  0.28276490386E+03 -0.24688508550E+03  0.39383755139E+03  0.90374129338E+02 0.  0.
         23    2    4    4    0    0  0.35301188825E+03 -0.58627621357E+03 -0.44103800249E+03  0.81920335834E+03  0.90787834107E+02 0.  0.
          2    1    3    3  502    0 -0.23708285460E+03  0.25109828860E+03 -0.41994407011E+03  0.54370180477E+03  0.00000000000E+00 0. -1.
         -1    1    3    3    0  502 -0.38261168124E+02  0.52413021111E+02 -0.34066568049E+02  0.73291014639E+02  0.00000000000E+00 0.  1.
         13    1    5    5    0    0 -0.68528722546E+02  0.26741896462E+03 -0.19237998189E+03  0.33648052824E+03  0.00000000000E+00 0. -1.
        -13    1    5    5    0    0 -0.91391429842E+01  0.15345939244E+02 -0.54505103610E+02  0.57357023156E+02  0.00000000000E+00 0.  1.
          2    1    6    6  503    0  0.15401943585E+03 -0.33622863519E+03 -0.25804244884E+03  0.45095186788E+03  0.00000000000E+00 0. -1.
         -2    1    6    6    0  503  0.19899245240E+03 -0.25004757838E+03 -0.18299555365E+03  0.36825149046E+03  0.00000000000E+00 0.  1.
<mgrwt>
<rscale>  0 0.14300387E+04</rscale>
<asrwt>0</asrwt>
<pdfrwt beam="1">  1        2 0.22861288E+00 0.14300387E+04</pdfrwt>
<pdfrwt beam="2">  1       -1 0.52930770E-01 0.14300387E+04</pdfrwt>
<totfact> 0.51479332E+01</totfact>
</mgrwt>
</event>
<event>
12    7  0.1711607E-007  0.2989217E+04  0.7818608E-02  0.8246817E-01
          2   -1    0    0  501    0  0.00000000000E+00  0.00000000000E+00  0.32446017907E+04  0.32446017907E+04  0.00000000000E+00 0. -1.
         -1   -1    0    0    0  501 -0.00000000000E+00 -0.00000000000E+00 -0.68848354904E+03  0.68848354904E+03  0.00000000000E+00 0.  1.
         24    2    1    2    0    0 -0.73754988201E+03  0.76577600006E+03  0.22722181990E+04  0.25098877733E+04  0.78539035169E+02 0.  0.
        254    2    1    2    0    0  0.73754988201E+03 -0.76577600006E+03  0.28390004270E+03  0.14231975665E+04  0.90249618737E+03 0.  0.
         23    2    4    4    0    0  0.11389921758E+03 -0.44189501779E+03 -0.25732132583E+03  0.53146778514E+03  0.89439942976E+02 0.  0.
         23    2    4    4    0    0  0.62365066443E+03 -0.32388098227E+03  0.54122136854E+03  0.89172978132E+03  0.91773586734E+02 0.  0.
          4    1    3    3  502    0 -0.72606866348E+03  0.76465546355E+03  0.22510812223E+04  0.24858077865E+04  0.00000000000E+00 0. -1.
         -3    1    3    3    0  502 -0.11481218527E+02  0.11205365128E+01  0.21136976631E+02  0.24079986753E+02  0.00000000000E+00 0.  1.
         13    1    5    5    0    0  0.55288458135E+02 -0.11015277948E+03 -0.10431745092E+03  0.16147005604E+03  0.00000000000E+00 0. -1.
        -13    1    5    5    0    0  0.58610759445E+02 -0.33174223831E+03 -0.15300387491E+03  0.36999772910E+03  0.00000000000E+00 0.  1.
          2    1    6    6  503    0  0.26497013768E+03 -0.18783747101E+03  0.23534674560E+03  0.40109871608E+03  0.00000000000E+00 0. -1.
         -2    1    6    6    0  503  0.35868052675E+03 -0.13604351126E+03  0.30587462294E+03  0.49063106525E+03  0.00000000000E+00 0.  1.
<mgrwt>
<rscale>  0 0.29892173E+04</rscale>
<asrwt>0</asrwt>
<pdfrwt beam="1">  1        2 0.49916950E+00 0.29892173E+04</pdfrwt>
<pdfrwt beam="2">  1       -1 0.10592055E+00 0.29892173E+04</pdfrwt>
<totfact> 0.98359380E-01</totfact>
</mgrwt>
</event>
<event>
12    7  0.1711607E-007  0.1482257E+04  0.7818608E-02  0.8896339E-01
         -1   -1    0    0    0  501 -0.00000000000E+00  0.00000000000E+00  0.86908200703E+03  0.86908200703E+03  0.00000000000E+00 0.  1.
          2   -1    0    0  501    0  0.00000000000E+00 -0.00000000000E+00 -0.63201298111E+03  0.63201298111E+03  0.00000000000E+00 0. -1.
         24    2    1    2    0    0  0.25618909561E+02 -0.39502814997E+01  0.54975319622E+03  0.55648300776E+03  0.82297192694E+02 0.  0.
        254    2    1    2    0    0 -0.25618909561E+02  0.39502814997E+01 -0.31268417029E+03  0.94461198038E+03  0.89098174497E+03 0.  0.
         23    2    4    4    0    0 -0.37323487022E+01 -0.38509603488E+03  0.57405570390E+02  0.39963123241E+03  0.89982419907E+02 0.  0.
         23    2    4    4    0    0 -0.21886560859E+02  0.38904631638E+03 -0.37008974068E+03  0.54498074797E+03  0.90562363396E+02 0.  0.
          4    1    3    3  502    0 -0.11491086808E+02  0.17896811632E+02  0.43698749637E+02  0.48599605579E+02  0.00000000000E+00 0. -1.
         -3    1    3    3    0  502  0.37109996369E+02 -0.21847093131E+02  0.50605444658E+03  0.50788340218E+03  0.00000000000E+00 0.  1.
         13    1    5    5    0    0  0.14710607621E+02 -0.37212243514E+03  0.49263542706E+02  0.37565729774E+03  0.00000000000E+00 0. -1.
        -13    1    5    5    0    0 -0.18442956324E+02 -0.12973599747E+02  0.81420276837E+01  0.23973934662E+02  0.00000000000E+00 0.  1.
          3    1    6    6  503    0  0.19365785449E+01  0.31031192627E+03 -0.33162519562E+03  0.45417233765E+03  0.00000000000E+00 0. -1.
         -3    1    6    6    0  503 -0.23823139404E+02  0.78734390111E+02 -0.38464545067E+02  0.90808410318E+02  0.00000000000E+00 0.  1.
<mgrwt>
<rscale>  0 0.14822565E+04</rscale>
<asrwt>0</asrwt>
<pdfrwt beam="1">  1        2 0.97232767E-01 0.14822565E+04</pdfrwt>
<pdfrwt beam="2">  1       -1 0.13370492E+00 0.14822565E+04</pdfrwt>
<totfact> 0.24298531E+01</totfact>
</mgrwt>
</event>
<event>
12    7  0.1711607E-007  0.1605661E+04  0.7818608E-02  0.8817078E-01
          2   -1    0    0  501    0  0.00000000000E+00  0.00000000000E+00  0.14579666720E+04  0.14579666720E+04  0.00000000000E+00 0. -1.
         -1   -1    0    0    0  501 -0.00000000000E+00 -0.00000000000E+00 -0.44207903316E+03  0.44207903316E+03  0.00000000000E+00 0.  1.
         24    2    1    2    0    0 -0.41830924930E+03  0.35616884783E+03  0.39283619945E+03  0.68015286428E+03  0.80304190244E+02 0.  0.
        254    2    1    2    0    0  0.41830924930E+03 -0.35616884783E+03  0.62305143936E+03  0.12198928408E+04  0.89336810490E+03 0.  0.
         23    2    4    4    0    0 -0.88381240092E+02 -0.49229301724E+02  0.60489929971E+03  0.62026704215E+03  0.92699908571E+02 0.  0.
         23    2    4    4    0    0  0.50669048939E+03 -0.30693954610E+03  0.18152139652E+02  0.59962579869E+03  0.90964065850E+02 0.  0.
          4    1    3    3  502    0 -0.38199514982E+03  0.32867821324E+03  0.38445576068E+03  0.63384216826E+03  0.00000000000E+00 0. -1.
         -3    1    3    3    0  502 -0.36314099487E+02  0.27490634590E+02  0.83804387641E+01  0.46310696017E+02  0.00000000000E+00 0.  1.
         13    1    5    5    0    0  0.13789590378E+01 -0.33612275392E+02  0.69999043358E+02  0.77663071379E+02  0.00000000000E+00 0. -1.
        -13    1    5    5    0    0 -0.89760199130E+02 -0.15617026333E+02  0.53490025635E+03  0.54260397077E+03  0.00000000000E+00 0.  1.
          1    1    6    6  503    0  0.32817434340E+02  0.21569340368E+01 -0.55775399464E+01  0.33357837354E+02  0.00000000000E+00 0. -1.
         -1    1    6    6    0  503  0.47387305505E+03 -0.30909648014E+03  0.23729679598E+02  0.56626796134E+03  0.00000000000E+00 0.  1.
<mgrwt>
<rscale>  0 0.16056606E+04</rscale>
<asrwt>0</asrwt>
<pdfrwt beam="1">  1        2 0.22430256E+00 0.16056606E+04</pdfrwt>
<pdfrwt beam="2">  1       -1 0.68012160E-01 0.16056606E+04</pdfrwt>
<totfact> 0.32059365E+01</totfact>
</mgrwt>
</event>
<event>
12    7  0.1711607E-007  0.1339762E+04  0.7818608E-02  0.8998615E-01
          2   -1    0    0  501    0  0.00000000000E+00  0.00000000000E+00  0.54819132599E+03  0.54819132599E+03  0.00000000000E+00 0. -1.
         -1   -1    0    0    0  501 -0.00000000000E+00 -0.00000000000E+00 -0.81858365569E+03  0.81858365569E+03  0.00000000000E+00 0.  1.
         24    2    1    2    0    0  0.75203635538E+02  0.62536702804E+02  0.27960803682E+03  0.30697417269E+03  0.80536094094E+02 0.  0.
        254    2    1    2    0    0 -0.75203635538E+02 -0.62536702804E+02 -0.55000036653E+03  0.10598008090E+04  0.90061696939E+03 0.  0.
         23    2    4    4    0    0 -0.34177402176E+03 -0.15943474890E+03 -0.64101696920E+03  0.74840810193E+03  0.83564413000E+02 0.  0.
         23    2    4    4    0    0  0.26657038622E+03  0.96898046091E+02  0.91016602676E+02  0.31139270706E+03  0.90732540466E+02 0.  0.
          4    1    3    3  502    0  0.25611005226E+02 -0.13648879281E+02  0.31966024249E+02  0.43174555014E+02  0.00000000000E+00 0. -1.
         -3    1    3    3    0  502  0.49592630313E+02  0.76185582086E+02  0.24764201257E+03  0.26379961768E+03  0.00000000000E+00 0.  1.
         13    1    5    5    0    0 -0.25974646097E+03 -0.89732516918E+02 -0.50521108220E+03  0.57511597627E+03  0.00000000000E+00 0.  1.
        -13    1    5    5    0    0 -0.82027560787E+02 -0.69702231977E+02 -0.13580588700E+03  0.17329212566E+03  0.00000000000E+00 0. -1.
          4    1    6    6  503    0  0.19358779088E+03  0.11139349260E+03  0.70394738175E+02  0.23417976457E+03  0.00000000000E+00 0. -1.
         -4    1    6    6    0  503  0.72982595342E+02 -0.14495446507E+02  0.20621864501E+02  0.77212942489E+02  0.00000000000E+00 0.  1.
<mgrwt>
<rscale>  0 0.13397619E+04</rscale>
<asrwt>0</asrwt>
<pdfrwt beam="1">  1        2 0.84337127E-01 0.13397619E+04</pdfrwt>
<pdfrwt beam="2">  1       -1 0.12593595E+00 0.13397619E+04</pdfrwt>
<totfact> 0.33933860E+01</totfact>
</mgrwt>
</event>
<event>
12    7  0.1711607E-007  0.1731707E+04  0.7818608E-02  0.8743484E-01
          2   -1    0    0  501    0  0.00000000000E+00  0.00000000000E+00  0.18037118111E+04  0.18037118111E+04  0.00000000000E+00 0. -1.
         -1   -1    0    0    0  501 -0.00000000000E+00 -0.00000000000E+00 -0.41564419846E+03  0.41564419846E+03  0.00000000000E+00 0.  1.
         24    2    1    2    0    0 -0.22413373792E+03  0.48035581881E+03  0.68582730518E+02  0.54051262800E+03  0.80452874202E+02 0.  0.
        254    2    1    2    0    0  0.22413373792E+03 -0.48035581881E+03  0.13194848821E+04  0.16788433816E+04  0.89246686242E+03 0.  0.
         23    2    4    4    0    0 -0.94700121298E+02 -0.25377482649E+03  0.12362797410E+04  0.12688723305E+04  0.90992403621E+02 0.  0.
         23    2    4    4    0    0  0.31883385922E+03 -0.22658099232E+03  0.83205141107E+02  0.40997105106E+03  0.90328242189E+02 0.  0.
          2    1    3    3  502    0 -0.22347258081E+03  0.45592825373E+03  0.79161927333E+02  0.51388440107E+03  0.00000000000E+00 0. -1.
         -1    1    3    3    0  502 -0.66115711220E+00  0.24427565073E+02 -0.10579196815E+02  0.26628226929E+02  0.00000000000E+00 0.  1.
         13    1    5    5    0    0 -0.57066996604E+02 -0.54861173038E+02  0.25822894102E+03  0.27008994129E+03  0.00000000000E+00 0. -1.
        -13    1    5    5    0    0 -0.37633124694E+02 -0.19891365345E+03  0.97805080002E+03  0.99878238923E+03  0.00000000000E+00 0.  1.
          4    1    6    6  503    0  0.25689233705E+02  0.68095053938E+01  0.26929238140E+01  0.26712505138E+02  0.00000000000E+00 0. -1.
         -4    1    6    6    0  503  0.29314462551E+03 -0.23339049771E+03  0.80512217293E+02  0.38325854592E+03  0.00000000000E+00 0.  1.
<mgrwt>
<rscale>  0 0.17317071E+04</rscale>
<asrwt>0</asrwt>
<pdfrwt beam="1">  1        2 0.27749412E+00 0.17317071E+04</pdfrwt>
<pdfrwt beam="2">  1       -1 0.63945262E-01 0.17317071E+04</pdfrwt>
<totfact> 0.23027265E+01</totfact>
</mgrwt>
</event>
<event>
12    7  0.1711607E-007  0.1430391E+04  0.7818608E-02  0.8932109E-01
          2   -1    0    0  501    0  0.00000000000E+00  0.00000000000E+00  0.21878323933E+04  0.21878323933E+04  0.00000000000E+00 0. -1.
         -1   -1    0    0    0  501 -0.00000000000E+00 -0.00000000000E+00 -0.23379524788E+03  0.23379524788E+03  0.00000000000E+00 0.  1.
         24    2    1    2    0    0  0.13276123103E+03  0.63316379968E+00  0.12811099252E+04  0.12906514432E+04  0.83141818767E+02 0.  0.
        254    2    1    2    0    0 -0.13276123103E+03 -0.63316379968E+00  0.67292722018E+03  0.11309761979E+04  0.89924978248E+03 0.  0.
         23    2    4    4    0    0  0.36467354730E+03 -0.87707377580E+02  0.37244827232E+03  0.53637373950E+03  0.91102649227E+02 0.  0.
         23    2    4    4    0    0 -0.49743477833E+03  0.87074213780E+02  0.30047894787E+03  0.59460245844E+03  0.90781099777E+02 0.  0.
          2    1    3    3  502    0  0.76513850895E+02 -0.41948457813E+01  0.37308095898E+03  0.38086922698E+03  0.00000000000E+00 0. -1.
         -1    1    3    3    0  502  0.56247380138E+02  0.48280095810E+01  0.90802896626E+03  0.90978221626E+03  0.00000000000E+00 0.  1.
         13    1    5    5    0    0  0.14355368829E+03 -0.49908637496E+02  0.93599757139E+02  0.17849215124E+03  0.00000000000E+00 0.  1.
        -13    1    5    5    0    0  0.22111985901E+03 -0.37798740084E+02  0.27884851518E+03  0.35788158826E+03  0.00000000000E+00 0. -1.
          3    1    6    6  503    0 -0.34070427350E+03  0.20195974394E+02  0.17954137099E+03  0.38564541131E+03  0.00000000000E+00 0. -1.
         -3    1    6    6    0  503 -0.15673050483E+03  0.66878239387E+02  0.12093757688E+03  0.20895704714E+03  0.00000000000E+00 0.  1.
<mgrwt>
<rscale>  0 0.14303913E+04</rscale>
<asrwt>0</asrwt>
<pdfrwt beam="1">  1        2 0.33658958E+00 0.14303913E+04</pdfrwt>
<pdfrwt beam="2">  1       -1 0.35968501E-01 0.14303913E+04</pdfrwt>
<totfact> 0.42928415E+01</totfact>
</mgrwt>
</event>
<event>
12    7  0.1711607E-007  0.1942637E+04  0.7818608E-02  0.8633919E-01
         -1   -1    0    0    0  501 -0.00000000000E+00  0.00000000000E+00  0.90804041759E+03  0.90804041759E+03  0.00000000000E+00 0.  1.
          2   -1    0    0  501    0  0.00000000000E+00 -0.00000000000E+00 -0.10390063603E+04  0.10390063603E+04  0.00000000000E+00 0. -1.
         24    2    1    2    0    0 -0.15432899256E+03 -0.34058053097E+03 -0.71468691484E+03  0.81049698584E+03  0.79469753945E+02 0.  0.
        254    2    1    2    0    0  0.15432899256E+03  0.34058053097E+03  0.58372097217E+03  0.11365497920E+04  0.90066793013E+03 0.  0.
         23    2    4    4    0    0  0.46330016465E+03 -0.36762514852E+00  0.14390759099E+03  0.49339299170E+03  0.89889219623E+02 0.  0.
         23    2    4    4    0    0 -0.30897117210E+03  0.34094815612E+03  0.43981338119E+03  0.64315680031E+03  0.92228136537E+02 0.  0.
          4    1    3    3  502    0 -0.36180221093E+02 -0.17305517933E+03 -0.35110957914E+03  0.39310945048E+03  0.00000000000E+00 0. -1.
         -3    1    3    3    0  502 -0.11814877146E+03 -0.16752535164E+03 -0.36357733570E+03  0.41738753536E+03  0.00000000000E+00 0.  1.
         13    1    5    5    0    0  0.20401084800E+03  0.43053352521E+02  0.51996236037E+02  0.21488979926E+03  0.00000000000E+00 0. -1.
        -13    1    5    5    0    0  0.25928931666E+03 -0.43420977670E+02  0.91911354949E+02  0.27850319245E+03  0.00000000000E+00 0.  1.
          3    1    6    6  503    0 -0.64840279178E+02  0.23989752119E+02  0.68380146350E+02  0.97239983677E+02  0.00000000000E+00 0. -1.
         -3    1    6    6    0  503 -0.24413089292E+03  0.31695840400E+03  0.37143323484E+03  0.54591681664E+03  0.00000000000E+00 0.  1.
<mgrwt>
<rscale>  0 0.19426371E+04</rscale>
<asrwt>0</asrwt>
<pdfrwt beam="1">  1        2 0.15984713E+00 0.19426371E+04</pdfrwt>
<pdfrwt beam="2">  1       -1 0.13969853E+00 0.19426371E+04</pdfrwt>
<totfact> 0.10675350E+01</totfact>
</mgrwt>
</event>
<event>
12    7  0.1711607E-007  0.1513123E+04  0.7818608E-02  0.8875773E-01
          2   -1    0    0  501    0  0.00000000000E+00  0.00000000000E+00  0.11054465594E+04  0.11054465594E+04  0.00000000000E+00 0. -1.
         -1   -1    0    0    0  501 -0.00000000000E+00 -0.00000000000E+00 -0.51778651717E+03  0.51778651717E+03  0.00000000000E+00 0.  1.
         24    2    1    2    0    0  0.16005090470E+03 -0.11496334767E+03  0.65520397831E+03  0.68908888028E+03  0.81965653370E+02 0.  0.
        254    2    1    2    0    0 -0.16005090470E+03  0.11496334767E+03 -0.67543936086E+02  0.93414419628E+03  0.91062085016E+03 0.  0.
         23    2    4    4    0    0 -0.19283180757E+03 -0.18636559673E+03 -0.38981112616E+03  0.48144814977E+03  0.89013286532E+02 0.  0.
         23    2    4    4    0    0  0.32780902874E+02  0.30132894440E+03  0.32226719008E+03  0.45269604652E+03  0.95936689569E+02 0.  0.
          4    1    3    3  502    0  0.15162799298E+03 -0.75690246245E+02  0.47111547973E+03  0.50066940876E+03  0.00000000000E+00 0. -1.
         -3    1    3    3    0  502  0.84229117209E+01 -0.39273101425E+02  0.18408849858E+03  0.18841947152E+03  0.00000000000E+00 0.  1.
         13    1    5    5    0    0 -0.16849553638E+03 -0.19124699106E+03 -0.33218646497E+03  0.41870515268E+03  0.00000000000E+00 0.  1.
        -13    1    5    5    0    0 -0.24336271198E+02  0.48813943344E+01 -0.57624661190E+02  0.62742997089E+02  0.00000000000E+00 0. -1.
          3    1    6    6  503    0 -0.11199665541E+02 -0.18997248498E+01  0.89539486463E+01  0.14464254529E+02  0.00000000000E+00 0. -1.
         -3    1    6    6    0  503  0.43980568414E+02  0.30322866925E+03  0.31331324143E+03  0.43823179199E+03  0.00000000000E+00 0.  1.
<mgrwt>
<rscale>  0 0.15131230E+04</rscale>
<asrwt>0</asrwt>
<pdfrwt beam="1">  1        2 0.17006870E+00 0.15131230E+04</pdfrwt>
<pdfrwt beam="2">  1       -1 0.79659464E-01 0.15131230E+04</pdfrwt>
<totfact> 0.37470410E+01</totfact>
</mgrwt>
</event>
<event>
12    7  0.1711607E-007  0.1405952E+04  0.7818608E-02  0.8949521E-01
          2   -1    0    0  501    0  0.00000000000E+00  0.00000000000E+00  0.52455937994E+03  0.52455937994E+03  0.00000000000E+00 0. -1.
         -1   -1    0    0    0  501 -0.00000000000E+00 -0.00000000000E+00 -0.94207697549E+03  0.94207697549E+03  0.00000000000E+00 0.  1.
         24    2    1    2    0    0  0.56903682021E+02  0.21225873950E+03  0.23875762377E+03  0.33473651486E+03  0.82167694077E+02 0.  0.
        254    2    1    2    0    0 -0.56903682021E+02 -0.21225873950E+03 -0.65627521932E+03  0.11318998406E+04  0.89566080860E+03 0.  0.
         23    2    4    4    0    0  0.29701892406E+03 -0.21972614723E+03 -0.11413968643E+00  0.38066055632E+03  0.91665833790E+02 0.  0.
         23    2    4    4    0    0 -0.35392260608E+03  0.74674077371E+01 -0.65616107963E+03  0.75123928425E+03  0.92174435157E+02 0.  0.
          2    1    3    3  502    0  0.43075554662E+02  0.21437662187E+03  0.23321099960E+03  0.31968767531E+03  0.00000000000E+00 0. -1.
         -1    1    3    3    0  502  0.13828127359E+02 -0.21178823701E+01  0.55466241734E+01  0.15048839547E+02  0.00000000000E+00 0.  1.
         13    1    5    5    0    0  0.23339966741E+03 -0.19774243194E+03  0.29096707938E+02  0.30728503470E+03  0.00000000000E+00 0.  1.
        -13    1    5    5    0    0  0.63619256653E+02 -0.21983715295E+02 -0.29210847625E+02  0.73375521628E+02  0.00000000000E+00 0. -1.
          2    1    6    6  503    0 -0.60818434720E+02  0.53601311167E+01 -0.19923767695E+03  0.20838249669E+03  0.00000000000E+00 0.  1.
         -2    1    6    6    0  503 -0.29310417136E+03  0.21072766205E+01 -0.45692340268E+03  0.54285678756E+03  0.00000000000E+00 0. -1.
<mgrwt>
<rscale>  0 0.14059521E+04</rscale>
<asrwt>0</asrwt>
<pdfrwt beam="1">  1        2 0.80701443E-01 0.14059521E+04</pdfrwt>
<pdfrwt beam="2">  1       -1 0.14493492E+00 0.14059521E+04</pdfrwt>
<totfact> 0.24774260E+01</totfact>
</mgrwt>
</event>
<event>
12    7  0.1711607E-007  0.1566439E+04  0.7818608E-02  0.8841435E-01
          2   -1    0    0  501    0  0.00000000000E+00  0.00000000000E+00  0.36474703457E+04  0.36474703457E+04  0.00000000000E+00 0. -1.
         -1   -1    0    0    0  501 -0.00000000000E+00 -0.00000000000E+00 -0.16818031660E+03  0.16818031660E+03  0.00000000000E+00 0.  1.
         24    2    1    2    0    0 -0.42815068417E+03  0.19330706521E+03  0.19810049206E+04  0.20374915098E+04  0.79438826688E+02 0.  0.
        254    2    1    2    0    0  0.42815068417E+03 -0.19330706521E+03  0.14982851084E+04  0.17781591525E+04  0.83445256037E+03 0.  0.
         23    2    4    4    0    0  0.57803632032E+03 -0.29888158725E+03  0.72459271707E+03  0.97814369178E+03  0.90963098722E+02 0.  0.
         23    2    4    4    0    0 -0.14988563614E+03  0.10557452204E+03  0.77369239137E+03  0.80001546069E+03  0.88391952394E+02 0.  0.
          2    1    3    3  502    0 -0.34890523362E+03  0.15451880329E+03  0.17252425075E+04  0.17669387744E+04  0.00000000000E+00 0. -1.
         -1    1    3    3    0  502 -0.79245450555E+02  0.38788261922E+02  0.25576241310E+03  0.27055273544E+03  0.00000000000E+00 0.  1.
         13    1    5    5    0    0  0.10931053848E+03 -0.64145143878E+02  0.92216224772E+02  0.15673935504E+03  0.00000000000E+00 0.  1.
        -13    1    5    5    0    0  0.46872578184E+03 -0.23473644338E+03  0.63237649230E+03  0.82140433674E+03  0.00000000000E+00 0. -1.
          3    1    6    6  503    0 -0.15319818909E+03  0.11232221231E+03  0.68039756389E+03  0.70641829638E+03  0.00000000000E+00 0. -1.
         -3    1    6    6    0  503  0.33125529456E+01 -0.67476902705E+01  0.93294827484E+02  0.93597164307E+02  0.00000000000E+00 0.  1.
<mgrwt>
<rscale>  0 0.15664389E+04</rscale>
<asrwt>0</asrwt>
<pdfrwt beam="1">  1        2 0.56114922E+00 0.15664389E+04</pdfrwt>
<pdfrwt beam="2">  1       -1 0.25873898E-01 0.15664389E+04</pdfrwt>
<totfact> 0.93575019E+00</totfact>
</mgrwt>
</event>
<event>
12    7  0.1711607E-007  0.2470775E+04  0.7818608E-02  0.8413472E-01
         -1   -1    0    0    0  501 -0.00000000000E+00  0.00000000000E+00  0.86679631758E+03  0.86679631758E+03  0.00000000000E+00 0.  1.
          2   -1    0    0  501    0  0.00000000000E+00 -0.00000000000E+00 -0.17607163170E+04  0.17607163170E+04  0.00000000000E+00 0. -1.
         24    2    1    2    0    0  0.34951172393E+03  0.75670963841E+03  0.31653755215E+03  0.89535894573E+03  0.81876112195E+02 0.  0.
        254    2    1    2    0    0 -0.34951172393E+03 -0.75670963841E+03 -0.12104575516E+04  0.17321536889E+04  0.91672296561E+03 0.  0.
         23    2    4    4    0    0  0.18207371076E+03  0.95928000658E+02 -0.24687058972E+03  0.33700882528E+03  0.10137476407E+03 0.  0.
         23    2    4    4    0    0 -0.53158543469E+03 -0.85263763907E+03 -0.96358696190E+03  0.13951448636E+04  0.91407545700E+02 0.  0.
          4    1    3    3  502    0  0.35228134588E+03  0.75094302468E+03  0.31872773316E+03  0.88859717581E+03  0.00000000000E+00 0. -1.
         -3    1    3    3    0  502 -0.27696219488E+01  0.57666137287E+01 -0.21901810041E+01  0.67617699211E+01  0.00000000000E+00 0.  1.
         13    1    5    5    0    0  0.33117445446E+01  0.38816491505E+02 -0.24443517691E+02  0.45991012402E+02  0.00000000000E+00 0. -1.
        -13    1    5    5    0    0  0.17876196621E+03  0.57111509153E+02 -0.22242707202E+03  0.29101781288E+03  0.00000000000E+00 0.  1.
          2    1    6    6  503    0 -0.11217643618E+03 -0.25284498295E+03 -0.24634151190E+03  0.37040286003E+03  0.00000000000E+00 0. -1.
         -2    1    6    6    0  503 -0.41940899851E+03 -0.59979265612E+03 -0.71724545000E+03  0.10247420036E+04  0.00000000000E+00 0.  1.
<mgrwt>
<rscale>  0 0.24707751E+04</rscale>
<asrwt>0</asrwt>
<pdfrwt beam="1">  1        2 0.27087943E+00 0.24707751E+04</pdfrwt>
<pdfrwt beam="2">  1       -1 0.13335328E+00 0.24707751E+04</pdfrwt>
<totfact> 0.43896269E+00</totfact>
</mgrwt>
</event>
<event>
12    7  0.1711607E-007  0.1196657E+04  0.7818608E-02  0.9115788E-01
          2   -1    0    0  501    0  0.00000000000E+00  0.00000000000E+00  0.39938834080E+03  0.39938834080E+03  0.00000000000E+00 0. -1.
         -1   -1    0    0    0  501 -0.00000000000E+00 -0.00000000000E+00 -0.89636290090E+03  0.89636290090E+03  0.00000000000E+00 0.  1.
         24    2    1    2    0    0  0.68580649321E+02  0.19632954005E+03  0.38203796199E+02  0.22644795791E+03  0.81058952850E+02 0.  0.
        254    2    1    2    0    0 -0.68580649321E+02 -0.19632954005E+03 -0.53517835629E+03  0.10693032838E+04  0.90207818171E+03 0.  0.
         23    2    4    4    0    0  0.24194039129E+03  0.12108879042E+03  0.87757929720E+02  0.29904325894E+03  0.92345917010E+02 0.  0.
         23    2    4    4    0    0 -0.31052104061E+03 -0.31741833047E+03 -0.62293628601E+03  0.77026002485E+03  0.89850855729E+02 0.  0.
          4    1    3    3  502    0  0.25847340367E+02  0.14884475437E+03  0.54359219670E+02  0.16055457226E+03  0.00000000000E+00 0. -1.
         -3    1    3    3    0  502  0.42733308954E+02  0.47484785678E+02 -0.16155423471E+02  0.65893385651E+02  0.00000000000E+00 0.  1.
         13    1    5    5    0    0  0.93001521461E+02  0.62360574967E+02 -0.83965513293E+01  0.11228813997E+03  0.00000000000E+00 0. -1.
        -13    1    5    5    0    0  0.14893886983E+03  0.58728215449E+02  0.96154481049E+02  0.18675511897E+03  0.00000000000E+00 0.  1.
          3    1    6    6  503    0 -0.10612092894E+03 -0.15670883808E+03 -0.21423845701E+03  0.28586260328E+03  0.00000000000E+00 0. -1.
         -3    1    6    6    0  503 -0.20440011166E+03 -0.16070949238E+03 -0.40869782901E+03  0.48439742157E+03  0.00000000000E+00 0.  1.
<mgrwt>
<rscale>  0 0.11966568E+04</rscale>
<asrwt>0</asrwt>
<pdfrwt beam="1">  1        2 0.61444361E-01 0.11966568E+04</pdfrwt>
<pdfrwt beam="2">  1       -1 0.13790198E+00 0.11966568E+04</pdfrwt>
<totfact> 0.39240916E+01</totfact>
</mgrwt>
</event>
<event>
12    7  0.1711607E-007  0.1476048E+04  0.7818608E-02  0.8900539E-01
          2   -1    0    0  501    0  0.00000000000E+00  0.00000000000E+00  0.23507086958E+04  0.23507086958E+04  0.00000000000E+00 0. -1.
         -1   -1    0    0    0  501 -0.00000000000E+00 -0.00000000000E+00 -0.23170848502E+03  0.23170848502E+03  0.00000000000E+00 0.  1.
         24    2    1    2    0    0 -0.31178234724E+03  0.34837543678E+03  0.70017686521E+03  0.84674175825E+03  0.90278932146E+02 0.  0.
        254    2    1    2    0    0  0.31178234724E+03 -0.34837543678E+03  0.14188233456E+04  0.17356754226E+04  0.88370572567E+03 0.  0.
         23    2    4    4    0    0  0.35529517878E+03  0.21028496042E+03  0.49127058926E+03  0.64821688720E+03  0.91563706391E+02 0.  0.
         23    2    4    4    0    0 -0.43512831541E+02 -0.55866039720E+03  0.92755275635E+03  0.10874585354E+04  0.90648466646E+02 0.  0.
          4    1    3    3  502    0 -0.23860223189E+03  0.26964117727E+03  0.60037450166E+03  0.70006209137E+03  0.00000000000E+00 0. -1.
         -3    1    3    3    0  502 -0.73180115355E+02  0.78734259515E+02  0.99802363549E+02  0.14667966688E+03  0.00000000000E+00 0.  1.
         13    1    5    5    0    0  0.31207654241E+03  0.14494119088E+03  0.38810979556E+03  0.51867998857E+03  0.00000000000E+00 0. -1.
        -13    1    5    5    0    0  0.43218636371E+02  0.65343769542E+02  0.10316079371E+03  0.12953689863E+03  0.00000000000E+00 0.  1.
          3    1    6    6  503    0  0.68891628016E+01 -0.36315936659E+03  0.64406005425E+03  0.73942243649E+03  0.00000000000E+00 0.  1.
         -3    1    6    6    0  503 -0.50401994343E+02 -0.19550103061E+03  0.28349270210E+03  0.34803609892E+03  0.00000000000E+00 0. -1.
<mgrwt>
<rscale>  0 0.14760476E+04</rscale>
<asrwt>0</asrwt>
<pdfrwt beam="1">  1        2 0.36164747E+00 0.14760476E+04</pdfrwt>
<pdfrwt beam="2">  1       -1 0.35647461E-01 0.14760476E+04</pdfrwt>
<totfact> 0.35182179E+01</totfact>
</mgrwt>
</event>
<event>
12    7  0.1711607E-007  0.1302023E+04  0.7818608E-02  0.9027962E-01
         -1   -1    0    0    0  501 -0.00000000000E+00  0.00000000000E+00  0.10253744922E+04  0.10253744922E+04  0.00000000000E+00 0.  1.
          4   -1    0    0  501    0  0.00000000000E+00 -0.00000000000E+00 -0.41332802126E+03  0.41332802126E+03  0.00000000000E+00 0. -1.
         24    2    1    2    0    0  0.24029869981E+03  0.84957084893E+02  0.40299557599E+03  0.48311459858E+03  0.77673095042E+02 0.  0.
        254    2    1    2    0    0 -0.24029869981E+03 -0.84957084893E+02  0.20905089490E+03  0.95558791483E+03  0.89693077487E+03 0.  0.
         23    2    4    4    0    0  0.12344989494E+03  0.25255771428E+03 -0.15545004918E+03  0.33369196575E+03  0.90334570436E+02 0.  0.
         23    2    4    4    0    0 -0.36374859475E+03 -0.33751479917E+03  0.36450094408E+03  0.62189594908E+03  0.87546292957E+02 0.  0.
          2    1    3    3  502    0  0.77356352423E+02 -0.48435513833E+01  0.87899469525E+02  0.11719121978E+03  0.00000000000E+00 0. -1.
         -1    1    3    3    0  502  0.16294234739E+03  0.89800636277E+02  0.31509610646E+03  0.36592337881E+03  0.00000000000E+00 0.  1.
         13    1    5    5    0    0  0.88873154492E+02  0.95473325625E+02 -0.97023027666E+02  0.16256402244E+03  0.00000000000E+00 0. -1.
        -13    1    5    5    0    0  0.34576740445E+02  0.15708438865E+03 -0.58427021513E+02  0.17112794331E+03  0.00000000000E+00 0.  1.
          4    1    6    6  503    0  0.44547415868E+01 -0.84798442330E+01  0.11117047490E+02  0.14674509386E+02  0.00000000000E+00 0. -1.
         -4    1    6    6    0  503 -0.36820333633E+03 -0.32903495494E+03  0.35338389659E+03  0.60722143969E+03  0.00000000000E+00 0.  1.
<mgrwt>
<rscale>  0 0.13020231E+04</rscale>
<asrwt>0</asrwt>
<pdfrwt beam="1">  1        4 0.63588927E-01 0.13020231E+04</pdfrwt>
<pdfrwt beam="2">  1       -1 0.15774992E+00 0.13020231E+04</pdfrwt>
<totfact> 0.28810674E+00</totfact>
</mgrwt>
</event>
<event>
12    7  0.1711607E-007  0.1857002E+04  0.7818608E-02  0.8676560E-01
         -1   -1    0    0    0  501 -0.00000000000E+00  0.00000000000E+00  0.96574430132E+03  0.96574430132E+03  0.00000000000E+00 0.  1.
          2   -1    0    0  501    0  0.00000000000E+00 -0.00000000000E+00 -0.89269429009E+03  0.89269429009E+03  0.00000000000E+00 0. -1.
         24    2    1    2    0    0  0.48749070320E+03 -0.36056294809E+03 -0.34096265256E+03  0.70027816022E+03  0.80505565001E+02 0.  0.
        254    2    1    2    0    0 -0.48749070320E+03  0.36056294809E+03  0.41401266379E+03  0.11581604312E+04  0.89569876263E+03 0.  0.
         23    2    4    4    0    0 -0.69952669760E+03  0.42489164465E+03  0.22477933667E+03  0.85376454072E+03  0.92291009588E+02 0.  0.
         23    2    4    4    0    0  0.21203599440E+03 -0.64328696557E+02  0.18923332712E+03  0.30439589048E+03  0.88035003966E+02 0.  0.
          4    1    3    3  502    0  0.41684581270E+03 -0.28984980838E+03 -0.25360486009E+03  0.56752864953E+03  0.00000000000E+00 0. -1.
         -3    1    3    3    0  502  0.70644890505E+02 -0.70713139709E+02 -0.87357792467E+02  0.13274951068E+03  0.00000000000E+00 0.  1.
         13    1    5    5    0    0 -0.67847435492E+03  0.39476469154E+03  0.20204726684E+03  0.81054901764E+03  0.00000000000E+00 0. -1.
        -13    1    5    5    0    0 -0.21052342687E+02  0.30126953112E+02  0.22732069830E+02  0.43215523081E+02  0.00000000000E+00 0.  1.
          3    1    6    6  503    0  0.19203171827E+03 -0.80495438296E+02  0.14676530692E+03  0.25474644595E+03  0.00000000000E+00 0. -1.
         -3    1    6    6    0  503  0.20004276128E+02  0.16166741739E+02  0.42468020201E+02  0.49649444525E+02  0.00000000000E+00 0.  1.
<mgrwt>
<rscale>  0 0.18570023E+04</rscale>
<asrwt>0</asrwt>
<pdfrwt beam="1">  1        2 0.13733758E+00 0.18570023E+04</pdfrwt>
<pdfrwt beam="2">  1       -1 0.14857605E+00 0.18570023E+04</pdfrwt>
<totfact> 0.11386928E+01</totfact>
</mgrwt>
</event>
<event>
12    7  0.1711607E-007  0.1913604E+04  0.7818608E-02  0.8648114E-01
         -1   -1    0    0    0  501 -0.00000000000E+00  0.00000000000E+00  0.10481386452E+04  0.10481386452E+04  0.00000000000E+00 0.  1.
          2   -1    0    0  501    0  0.00000000000E+00 -0.00000000000E+00 -0.87342462763E+03  0.87342462763E+03  0.00000000000E+00 0. -1.
         24    2    1    2    0    0 -0.28478278248E+03  0.23232677777E+03  0.71473488095E+03  0.80774100901E+03  0.80762755857E+02 0.  0.
        254    2    1    2    0    0  0.28478278248E+03 -0.23232677777E+03 -0.54002086342E+03  0.11138222638E+04  0.90216436278E+03 0.  0.
         23    2    4    4    0    0  0.53777921862E+03  0.65330308319E+02 -0.18915450669E+03  0.58107079223E+03  0.91593127567E+02 0.  0.
         23    2    4    4    0    0 -0.25299643615E+03 -0.29765708609E+03 -0.35086635674E+03  0.53275147153E+03  0.90055496945E+02 0.  0.
          4    1    3    3  502    0 -0.78966642151E+01  0.35976050604E+02  0.67252440768E+02  0.76678056261E+02  0.00000000000E+00 0. -1.
         -3    1    3    3    0  502 -0.27688611826E+03  0.19635072717E+03  0.64748244018E+03  0.73106295275E+03  0.00000000000E+00 0.  1.
         13    1    5    5    0    0  0.12302465791E+03 -0.18429827373E+00 -0.81570631813E+02  0.14761052942E+03  0.00000000000E+00 0. -1.
        -13    1    5    5    0    0  0.41475456071E+03  0.65514606593E+02 -0.10758387487E+03  0.43346026282E+03  0.00000000000E+00 0.  1.
          4    1    6    6  503    0 -0.32272992858E+02 -0.95741028653E+02 -0.10270809947E+03  0.14407235797E+03  0.00000000000E+00 0. -1.
         -4    1    6    6    0  503 -0.22072344329E+03 -0.20191605744E+03 -0.24815825727E+03  0.38867911356E+03  0.00000000000E+00 0.  1.
<mgrwt>
<rscale>  0 0.19136040E+04</rscale>
<asrwt>0</asrwt>
<pdfrwt beam="1">  1        2 0.13437302E+00 0.19136040E+04</pdfrwt>
<pdfrwt beam="2">  1       -1 0.16125210E+00 0.19136040E+04</pdfrwt>
<totfact> 0.93328638E+00</totfact>
</mgrwt>
</event>
<event>
12    7  0.1711607E-007  0.1592042E+04  0.7818608E-02  0.8825452E-01
          2   -1    0    0  501    0  0.00000000000E+00  0.00000000000E+00  0.14138220302E+04  0.14138220302E+04  0.00000000000E+00 0. -1.
         -3   -1    0    0    0  501 -0.00000000000E+00 -0.00000000000E+00 -0.44818177948E+03  0.44818177948E+03  0.00000000000E+00 0.  1.
         24    2    1    2    0    0 -0.77943834385E+02  0.28597621508E+03 -0.19896619927E+03  0.36534040157E+03  0.77642924093E+02 0.  0.
        254    2    1    2    0    0  0.77943834385E+02 -0.28597621508E+03  0.11646064500E+04  0.14966634081E+04  0.89209614779E+03 0.  0.
         23    2    4    4    0    0  0.43515540727E+03 -0.13125910630E+03  0.32285929566E+03  0.56477043012E+03  0.90212706866E+02 0.  0.
         23    2    4    4    0    0 -0.35721157289E+03 -0.15471710877E+03  0.84174715431E+03  0.93189297798E+03  0.91371544026E+02 0.  0.
          2    1    3    3  502    0  0.13618982408E+02  0.58494977789E+02 -0.27091475401E+02  0.65886926987E+02  0.00000000000E+00 0. -1.
         -3    1    3    3    0  502 -0.91562816792E+02  0.22748123729E+03 -0.17187472387E+03  0.29945347459E+03  0.00000000000E+00 0.  1.
         13    1    5    5    0    0  0.11642541840E+03 -0.35865034917E+02  0.40427551609E+02  0.12835718019E+03  0.00000000000E+00 0.  1.
        -13    1    5    5    0    0  0.31872998887E+03 -0.95394071385E+02  0.28243174405E+03  0.43641324992E+03  0.00000000000E+00 0. -1.
          3    1    6    6  503    0 -0.14713881103E+03 -0.20880310904E+02  0.26887091895E+03  0.30720903006E+03  0.00000000000E+00 0. -1.
         -3    1    6    6    0  503 -0.21007276185E+03 -0.13383679787E+03  0.57287623537E+03  0.62468394792E+03  0.00000000000E+00 0.  1.
<mgrwt>
<rscale>  0 0.15920418E+04</rscale>
<asrwt>0</asrwt>
<pdfrwt beam="1">  1        2 0.21751108E+00 0.15920418E+04</pdfrwt>
<pdfrwt beam="2">  1       -3 0.68951044E-01 0.15920418E+04</pdfrwt>
<totfact> 0.17540237E+01</totfact>
</mgrwt>
</event>
<event>
12    7  0.1711607E-007  0.1706081E+04  0.7818608E-02  0.8757904E-01
          2   -1    0    0  501    0  0.00000000000E+00  0.00000000000E+00  0.13552730897E+04  0.13552730897E+04  0.00000000000E+00 0. -1.
         -1   -1    0    0    0  501 -0.00000000000E+00 -0.00000000000E+00 -0.53692362161E+03  0.53692362161E+03  0.00000000000E+00 0.  1.
         24    2    1    2    0    0  0.35876279619E+03 -0.49399399876E+03  0.34858398350E+03  0.70769599954E+03  0.81129646126E+02 0.  0.
        254    2    1    2    0    0 -0.35876279619E+03  0.49399399876E+03  0.46976548457E+03  0.11845007118E+04  0.89978970372E+03 0.  0.
         23    2    4    4    0    0 -0.62952983171E+03  0.42224235349E+03  0.45757882596E+03  0.89019556435E+03  0.92050783346E+02 0.  0.
         23    2    4    4    0    0  0.27076703552E+03  0.71751645264E+02  0.12186658608E+02  0.29430514741E+03  0.89464624420E+02 0.  0.
          4    1    3    3  502    0  0.31691981085E+03 -0.40449573568E+03  0.31788426904E+03  0.60423950152E+03  0.00000000000E+00 0. -1.
         -3    1    3    3    0  502  0.41842985340E+02 -0.89498263072E+02  0.30699714458E+02  0.10345649802E+03  0.00000000000E+00 0.  1.
         13    1    5    5    0    0 -0.14263853424E+03  0.69116615858E+02  0.13196962084E+03  0.20624945785E+03  0.00000000000E+00 0. -1.
        -13    1    5    5    0    0 -0.48689129747E+03  0.35312573763E+03  0.32560920512E+03  0.68394610650E+03  0.00000000000E+00 0.  1.
          2    1    6    6  503    0  0.20092534567E+01 -0.21125337166E+01 -0.14050419722E+02  0.14349710538E+02  0.00000000000E+00 0. -1.
         -2    1    6    6    0  503  0.26875778206E+03  0.73864178981E+02  0.26237078330E+02  0.27995543687E+03  0.00000000000E+00 0.  1.
<mgrwt>
<rscale>  0 0.17060810E+04</rscale>
<asrwt>0</asrwt>
<pdfrwt beam="1">  1        2 0.20850355E+00 0.17060810E+04</pdfrwt>
<pdfrwt beam="2">  1       -1 0.82603634E-01 0.17060810E+04</pdfrwt>
<totfact> 0.24243534E+01</totfact>
</mgrwt>
</event>
<event>
12    7  0.1711607E-007  0.1570737E+04  0.7818608E-02  0.8838730E-01
         -1   -1    0    0    0  501 -0.00000000000E+00  0.00000000000E+00  0.42022480052E+03  0.42022480052E+03  0.00000000000E+00 0.  1.
          2   -1    0    0  501    0  0.00000000000E+00 -0.00000000000E+00 -0.14677943581E+04  0.14677943581E+04  0.00000000000E+00 0. -1.
         24    2    1    2    0    0  0.52883098597E+02 -0.26243617972E+03  0.18764182242E+03  0.33666840533E+03  0.80416360833E+02 0.  0.
        254    2    1    2    0    0 -0.52883098597E+02  0.26243617972E+03 -0.12352113800E+04  0.15513507533E+04  0.89959581806E+03 0.  0.
         23    2    4    4    0    0 -0.45096657338E+03  0.20537048219E+03 -0.84462549587E+03  0.98348406841E+03  0.91108722297E+02 0.  0.
         23    2    4    4    0    0  0.39808347478E+03  0.57065697527E+02 -0.39058588412E+03  0.56786668486E+03  0.90489182629E+02 0.  0.
          2    1    3    3  502    0  0.41330313568E+02 -0.12188407376E+03  0.45686700108E+02  0.13656938465E+03  0.00000000000E+00 0. -1.
         -1    1    3    3    0  502  0.11552785029E+02 -0.14055210595E+03  0.14195512231E+03  0.20009902069E+03  0.00000000000E+00 0.  1.
         13    1    5    5    0    0 -0.18059007070E+03  0.63155963437E+02 -0.40762311570E+03  0.45028663516E+03  0.00000000000E+00 0.  1.
        -13    1    5    5    0    0 -0.27037650269E+03  0.14221451875E+03 -0.43700238017E+03  0.53319743325E+03  0.00000000000E+00 0. -1.
          2    1    6    6  503    0  0.11536381684E+03 -0.19995753915E+02 -0.13817863198E+03  0.18111315453E+03  0.00000000000E+00 0. -1.
         -2    1    6    6    0  503  0.28271965795E+03  0.77061451442E+02 -0.25240725214E+03  0.38675353033E+03  0.00000000000E+00 0.  1.
<mgrwt>
<rscale>  0 0.15707369E+04</rscale>
<asrwt>0</asrwt>
<pdfrwt beam="1">  1        2 0.22581452E+00 0.15707369E+04</pdfrwt>
<pdfrwt beam="2">  1       -1 0.64649968E-01 0.15707369E+04</pdfrwt>
<totfact> 0.35172700E+01</totfact>
</mgrwt>
</event>
<event>
12    7  0.1711607E-007  0.2451299E+04  0.7818608E-02  0.8420544E-01
          2   -1    0    0  501    0  0.00000000000E+00  0.00000000000E+00  0.17924796290E+04  0.17924796290E+04  0.00000000000E+00 0. -1.
         -1   -1    0    0    0  501 -0.00000000000E+00 -0.00000000000E+00 -0.83806655182E+03  0.83806655182E+03  0.00000000000E+00 0.  1.
         24    2    1    2    0    0  0.96053608521E+01 -0.56269775881E+03 -0.54864644231E+03  0.79009318442E+03  0.80704960690E+02 0.  0.
        254    2    1    2    0    0 -0.96053608521E+01  0.56269775881E+03  0.15030595195E+04  0.18404529964E+04  0.90075428505E+03 0.  0.
         23    2    4    4    0    0  0.18518962488E+03 -0.13576300970E+03  0.75438587308E+03  0.79421345130E+03  0.94605331572E+02 0.  0.
         23    2    4    4    0    0 -0.19479498573E+03  0.69846076852E+03  0.74867364639E+03  0.10462395451E+04  0.91172502619E+02 0.  0.
          4    1    3    3  502    0 -0.82374818148E+00 -0.30837124200E+02 -0.85502844023E+01  0.32011156701E+02  0.00000000000E+00 0. -1.
         -3    1    3    3    0  502  0.10429109034E+02 -0.53186063461E+03 -0.54009615791E+03  0.75808202772E+03  0.00000000000E+00 0.  1.
         13    1    5    5    0    0 -0.23495698326E+01 -0.12724862415E+02  0.13221546624E+03  0.13284717579E+03  0.00000000000E+00 0.  1.
        -13    1    5    5    0    0  0.18753919471E+03 -0.12303814729E+03  0.62217040684E+03  0.66136627552E+03  0.00000000000E+00 0. -1.
          2    1    6    6  503    0 -0.20397535240E+03  0.67673044041E+03  0.73046573958E+03  0.10164399786E+04  0.00000000000E+00 0. -1.
         -2    1    6    6    0  503  0.91803666750E+01  0.21730328109E+02  0.18207906812E+02  0.29799566482E+02  0.00000000000E+00 0.  1.
<mgrwt>
<rscale>  0 0.24512994E+04</rscale>
<asrwt>0</asrwt>
<pdfrwt beam="1">  1        2 0.27576609E+00 0.24512994E+04</pdfrwt>
<pdfrwt beam="2">  1       -1 0.12893332E+00 0.24512994E+04</pdfrwt>
<totfact> 0.45984252E+00</totfact>
</mgrwt>
</event>
<event>
12    7  0.1711607E-007  0.2071180E+04  0.7818608E-02  0.8574046E-01
         -1   -1    0    0    0  501 -0.00000000000E+00  0.00000000000E+00  0.47870897488E+03  0.47870897488E+03  0.00000000000E+00 0.  1.
          2   -1    0    0  501    0  0.00000000000E+00 -0.00000000000E+00 -0.22402884109E+04  0.22402884109E+04  0.00000000000E+00 0. -1.
         24    2    1    2    0    0 -0.39007836458E+03  0.11907125626E+03 -0.16502672776E+04  0.17017983632E+04  0.79978041405E+02 0.  0.
        254    2    1    2    0    0  0.39007836458E+03 -0.11907125626E+03 -0.11131215845E+03  0.10171990225E+04  0.92518341979E+03 0.  0.
         23    2    4    4    0    0  0.45567191768E+03  0.12185277988E+03 -0.39956436103E+03  0.62497226708E+03  0.91943784439E+02 0.  0.
         23    2    4    4    0    0 -0.65593553092E+02 -0.24092403613E+03  0.28825220258E+03  0.39222675545E+03  0.91682004833E+02 0.  0.
          4    1    3    3  502    0 -0.25261231740E+03  0.48195478721E+02 -0.91576954186E+03  0.95119379775E+03  0.00000000000E+00 0. -1.
         -3    1    3    3    0  502 -0.13746604718E+03  0.70875777536E+02 -0.73449773571E+03  0.75060456549E+03  0.00000000000E+00 0.  1.
         13    1    5    5    0    0  0.35541504119E+03  0.10905095473E+03 -0.35660784611E+03  0.51515154871E+03  0.00000000000E+00 0.  1.
        -13    1    5    5    0    0  0.10025687648E+03  0.12801825147E+02 -0.42956514913E+02  0.10982071837E+03  0.00000000000E+00 0. -1.
          1    1    6    6  503    0  0.55779580318E+01 -0.25462273995E+02  0.80352037918E+02  0.84474203224E+02  0.00000000000E+00 0. -1.
         -1    1    6    6    0  503 -0.71171511123E+02 -0.21546176214E+03  0.20790016466E+03  0.30775255223E+03  0.00000000000E+00 0.  1.
<mgrwt>
<rscale>  0 0.20711795E+04</rscale>
<asrwt>0</asrwt>
<pdfrwt beam="1">  1        2 0.34465975E+00 0.20711795E+04</pdfrwt>
<pdfrwt beam="2">  1       -1 0.73647535E-01 0.20711795E+04</pdfrwt>
<totfact> 0.95701060E+00</totfact>
</mgrwt>
</event>
<event>
12    7  0.1711607E-007  0.2474064E+04  0.7818608E-02  0.8412284E-01
         -1   -1    0    0    0  501 -0.00000000000E+00  0.00000000000E+00  0.58587864941E+03  0.58587864941E+03  0.00000000000E+00 0.  1.
          2   -1    0    0  501    0  0.00000000000E+00 -0.00000000000E+00 -0.26118868030E+04  0.26118868030E+04  0.00000000000E+00 0. -1.
         24    2    1    2    0    0  0.84585445872E+02 -0.42105440204E+03  0.38643823055E+03  0.58311621171E+03  0.79047474377E+02 0.  0.
        254    2    1    2    0    0 -0.84585445872E+02  0.42105440204E+03 -0.24124463841E+04  0.26146492407E+04  0.91216861842E+03 0.  0.
         23    2    4    4    0    0  0.21449513816E+03  0.20460699101E+03 -0.21009011110E+04  0.21235746524E+04  0.88947404583E+02 0.  0.
         23    2    4    4    0    0 -0.29908058404E+03  0.21644741102E+03 -0.31154527310E+03  0.49107458832E+03  0.88289957654E+02 0.  0.
          2    1    3    3  502    0  0.19128295708E+02 -0.31509670043E+02  0.61196447194E+02  0.71440577770E+02  0.00000000000E+00 0. -1.
         -1    1    3    3    0  502  0.65457150165E+02 -0.38954473199E+03  0.32524178335E+03  0.51167563394E+03  0.00000000000E+00 0.  1.
         13    1    5    5    0    0  0.18298980454E+03  0.19701984440E+03 -0.19884213533E+04  0.20065197646E+04  0.00000000000E+00 0. -1.
        -13    1    5    5    0    0  0.31505333629E+02  0.75871466138E+01 -0.11247975775E+03  0.11705488774E+03  0.00000000000E+00 0.  1.
          1    1    6    6  503    0 -0.27008878784E+03  0.21809510640E+03 -0.30305372741E+03  0.46081991108E+03  0.00000000000E+00 0. -1.
         -1    1    6    6    0  503 -0.28991796196E+02 -0.16476953819E+01 -0.84915456882E+01  0.30254677241E+02  0.00000000000E+00 0.  1.
<mgrwt>
<rscale>  0 0.24740644E+04</rscale>
<asrwt>0</asrwt>
<pdfrwt beam="1">  1        2 0.40182873E+00 0.24740644E+04</pdfrwt>
<pdfrwt beam="2">  1       -1 0.90135180E-01 0.24740644E+04</pdfrwt>
<totfact> 0.36646185E+00</totfact>
</mgrwt>
</event>
<event>
12    7  0.1711607E-007  0.2650383E+04  0.7818608E-02  0.8351286E-01
         -1   -1    0    0    0  501 -0.00000000000E+00  0.00000000000E+00  0.64101857896E+03  0.64101857896E+03  0.00000000000E+00 0.  1.
          2   -1    0    0  501    0  0.00000000000E+00 -0.00000000000E+00 -0.27395965857E+04  0.27395965857E+04  0.00000000000E+00 0. -1.
         24    2    1    2    0    0  0.18564838100E+03 -0.11097742026E+04 -0.51596324382E+03  0.12406465185E+04  0.83196230220E+02 0.  0.
        254    2    1    2    0    0 -0.18564838100E+03  0.11097742026E+04 -0.15826147629E+04  0.21399686462E+04  0.89929540021E+03 0.  0.
         23    2    4    4    0    0  0.32291365310E+03  0.27970003362E+03 -0.31227474414E+03  0.53680176116E+03  0.90195780373E+02 0.  0.
         23    2    4    4    0    0 -0.50856203410E+03  0.83007416896E+03 -0.12703400188E+04  0.16031668850E+04  0.93390735447E+02 0.  0.
          2    1    3    3  502    0 -0.44156809306E+01 -0.37039914818E+01 -0.45066809788E+01  0.73162807780E+01  0.00000000000E+00 0. -1.
         -1    1    3    3    0  502  0.19006406193E+03 -0.11060702111E+04 -0.51145656284E+03  0.12333302377E+04  0.00000000000E+00 0.  1.
         13    1    5    5    0    0  0.10921031130E+03  0.14939814885E+03 -0.11264769861E+03  0.21664764706E+03  0.00000000000E+00 0. -1.
        -13    1    5    5    0    0  0.21370334180E+03  0.13030188477E+03 -0.19962704553E+03  0.32015411411E+03  0.00000000000E+00 0.  1.
          1    1    6    6  503    0 -0.28365992006E+03  0.40991686954E+03 -0.71094049101E+03  0.86829210058E+03  0.00000000000E+00 0. -1.
         -1    1    6    6    0  503 -0.22490211404E+03  0.42015729942E+03 -0.55939952777E+03  0.73487478446E+03  0.00000000000E+00 0.  1.
<mgrwt>
<rscale>  0 0.26503828E+04</rscale>
<asrwt>0</asrwt>
<pdfrwt beam="1">  1        2 0.42147640E+00 0.26503828E+04</pdfrwt>
<pdfrwt beam="2">  1       -1 0.98618241E-01 0.26503828E+04</pdfrwt>
<totfact> 0.24772219E+00</totfact>
</mgrwt>
</event>
<event>
12    7  0.1711607E-007  0.2534117E+04  0.7818608E-02  0.8390931E-01
         -1   -1    0    0    0  501 -0.00000000000E+00  0.00000000000E+00  0.56416069823E+03  0.56416069823E+03  0.00000000000E+00 0.  1.
          2   -1    0    0  501    0  0.00000000000E+00 -0.00000000000E+00 -0.28457088557E+04  0.28457088557E+04  0.00000000000E+00 0. -1.
         24    2    1    2    0    0  0.33001226323E+02  0.65709449129E+03  0.19233918114E+03  0.69005999605E+03  0.79537325351E+02 0.  0.
        254    2    1    2    0    0 -0.33001226323E+02 -0.65709449129E+03 -0.24738873386E+04  0.27198095579E+04  0.91890326779E+03 0.  0.
         23    2    4    4    0    0  0.24164738113E+03 -0.76103720072E+03 -0.15473243959E+04  0.17435670558E+04  0.90786640920E+02 0.  0.
         23    2    4    4    0    0 -0.27464860745E+03  0.10394270943E+03 -0.92656294273E+03  0.97624250212E+03  0.91074648914E+02 0.  0.
          4    1    3    3  502    0  0.10942554418E+02  0.28458545146E+02  0.24272507402E+02  0.38971565334E+02  0.00000000000E+00 0. -1.
         -3    1    3    3    0  502  0.22058671906E+02  0.62863594614E+03  0.16806667374E+03  0.65108843071E+03  0.00000000000E+00 0.  1.
         13    1    5    5    0    0  0.11971975803E+03 -0.23811943783E+03 -0.52971321252E+03  0.59298378954E+03  0.00000000000E+00 0.  1.
        -13    1    5    5    0    0  0.12192762310E+03 -0.52291776289E+03 -0.10176111834E+04  0.11505832662E+04  0.00000000000E+00 0. -1.
          2    1    6    6  503    0 -0.21547997666E+03  0.11836257870E+03 -0.71484243863E+03  0.75593718816E+03  0.00000000000E+00 0. -1.
         -2    1    6    6    0  503 -0.59168630791E+02 -0.14419869272E+02 -0.21172050411E+03  0.22030531396E+03  0.00000000000E+00 0.  1.
<mgrwt>
<rscale>  0 0.25341169E+04</rscale>
<asrwt>0</asrwt>
<pdfrwt beam="1">  1        2 0.43780136E+00 0.25341169E+04</pdfrwt>
<pdfrwt beam="2">  1       -1 0.86793955E-01 0.25341169E+04</pdfrwt>
<totfact> 0.28696751E+00</totfact>
</mgrwt>
</event>
<event>
12    7  0.1711607E-007  0.1806864E+04  0.7818608E-02  0.8702658E-01
         -1   -1    0    0    0  501 -0.00000000000E+00  0.00000000000E+00  0.25279584278E+03  0.25279584278E+03  0.00000000000E+00 0.  1.
          2   -1    0    0  501    0  0.00000000000E+00 -0.00000000000E+00 -0.32286514676E+04  0.32286514676E+04  0.00000000000E+00 0. -1.
         24    2    1    2    0    0 -0.27755706890E+03 -0.20119701743E+03 -0.23303575080E+04  0.23567558674E+04  0.78828527621E+02 0.  0.
        254    2    1    2    0    0  0.27755706890E+03  0.20119701743E+03 -0.64549811675E+03  0.11246914430E+04  0.85483615792E+03 0.  0.
         23    2    4    4    0    0  0.21203094197E+03  0.39523342275E+03 -0.74975395598E+03  0.87835590568E+03  0.90617458164E+02 0.  0.
         23    2    4    4    0    0  0.65526126931E+02 -0.19403640532E+03  0.10425583923E+03  0.24633553731E+03  0.88702407112E+02 0.  0.
          4    1    3    3  502    0 -0.11771086016E+03 -0.10366498347E+03 -0.13102138747E+04  0.13195691239E+04  0.00000000000E+00 0. -1.
         -3    1    3    3    0  502 -0.15984620874E+03 -0.97532033958E+02 -0.10201436334E+04  0.10371867435E+04  0.00000000000E+00 0.  1.
         13    1    5    5    0    0  0.54492126473E+02  0.10990051997E+03 -0.28916524913E+03  0.31410835303E+03  0.00000000000E+00 0. -1.
        -13    1    5    5    0    0  0.15753881550E+03  0.28533290277E+03 -0.46058870684E+03  0.56424755265E+03  0.00000000000E+00 0.  1.
          1    1    6    6  503    0  0.74044062169E+02 -0.10200386280E+03  0.84710387270E+02  0.15186560137E+03  0.00000000000E+00 0. -1.
         -1    1    6    6    0  503 -0.85179352381E+01 -0.92032542522E+02  0.19545451959E+02  0.94469935937E+02  0.00000000000E+00 0.  1.
<mgrwt>
<rscale>  0 0.18068643E+04</rscale>
<asrwt>0</asrwt>
<pdfrwt beam="1">  1        2 0.49671554E+00 0.18068643E+04</pdfrwt>
<pdfrwt beam="2">  1       -1 0.38891674E-01 0.18068643E+04</pdfrwt>
<totfact> 0.86017204E+00</totfact>
</mgrwt>
</event>
<event>
12    7  0.1711607E-007  0.1722759E+04  0.7818608E-02  0.8748490E-01
         -1   -1    0    0    0  501 -0.00000000000E+00  0.00000000000E+00  0.23328381964E+03  0.23328381964E+03  0.00000000000E+00 0.  1.
          2   -1    0    0  501    0  0.00000000000E+00 -0.00000000000E+00 -0.31805654068E+04  0.31805654068E+04  0.00000000000E+00 0. -1.
         24    2    1    2    0    0 -0.14097054476E+03 -0.46278786284E+03 -0.27096466376E+03  0.55984584806E+03  0.77202487654E+02 0.  0.
        254    2    1    2    0    0  0.14097054476E+03  0.46278786284E+03 -0.26763169234E+04  0.28540033784E+04  0.86522696954E+03 0.  0.
         23    2    4    4    0    0  0.39268378984E+03  0.22606028310E+02 -0.17319765408E+04  0.17783968282E+04  0.90779675223E+02 0.  0.
         23    2    4    4    0    0 -0.25171324507E+03  0.44018183453E+03 -0.94434038262E+03  0.10756065502E+04  0.89616334069E+02 0.  0.
          2    1    3    3  502    0  0.76909510319E+01 -0.46329504441E+02 -0.17237917054E+02  0.50027187547E+02  0.00000000000E+00 0. -1.
         -1    1    3    3    0  502 -0.14866149580E+03 -0.41645835840E+03 -0.25372674670E+03  0.50981866051E+03  0.00000000000E+00 0.  1.
         13    1    5    5    0    0  0.37734118673E+03  0.44843409620E+01 -0.15715545479E+04  0.16162271430E+04  0.00000000000E+00 0. -1.
        -13    1    5    5    0    0  0.15342603109E+02  0.18121687348E+02 -0.16042199284E+03  0.16216968524E+03  0.00000000000E+00 0.  1.
          1    1    6    6  503    0 -0.25415252715E+03  0.43598233996E+03 -0.90691594304E+03  0.10378683132E+04  0.00000000000E+00 0. -1.
         -1    1    6    6    0  503  0.24392820734E+01  0.41994945730E+01 -0.37424439586E+02  0.37738236975E+02  0.00000000000E+00 0.  1.
<mgrwt>
<rscale>  0 0.17227588E+04</rscale>
<asrwt>0</asrwt>
<pdfrwt beam="1">  1        2 0.48931772E+00 0.17227588E+04</pdfrwt>
<pdfrwt beam="2">  1       -1 0.35889821E-01 0.17227588E+04</pdfrwt>
<totfact> 0.10775936E+01</totfact>
</mgrwt>
</event>
<event>
12    7  0.1711607E-007  0.1187835E+04  0.7818608E-02  0.9123571E-01
          2   -1    0    0  501    0  0.00000000000E+00  0.00000000000E+00  0.14326822503E+04  0.14326822503E+04  0.00000000000E+00 0. -1.
         -1   -1    0    0    0  501 -0.00000000000E+00 -0.00000000000E+00 -0.24620822115E+03  0.24620822115E+03  0.00000000000E+00 0.  1.
         24    2    1    2    0    0 -0.16801343070E+03  0.10314238427E+03  0.44028938407E+03  0.48916713669E+03  0.81011613745E+02 0.  0.
        254    2    1    2    0    0  0.16801343070E+03 -0.10314238427E+03  0.74618464510E+03  0.11897233348E+04  0.90541881160E+03 0.  0.
         23    2    4    4    0    0  0.41047261153E+03 -0.35588305813E+03  0.54928068028E+03  0.77774028608E+03  0.89611221302E+02 0.  0.
         23    2    4    4    0    0 -0.24245918084E+03  0.25274067387E+03  0.19690396482E+03  0.41198304870E+03  0.91074466515E+02 0.  0.
          2    1    3    3  502    0 -0.16074819467E+03  0.10653391458E+03  0.35929911556E+03  0.40778096018E+03  0.00000000000E+00 0. -1.
         -1    1    3    3    0  502 -0.72652360234E+01 -0.33915303103E+01  0.80990268510E+02  0.81386176502E+02  0.00000000000E+00 0.  1.
         13    1    5    5    0    0  0.17102507571E+03 -0.15890845521E+03  0.17528830026E+03  0.29193742800E+03  0.00000000000E+00 0.  1.
        -13    1    5    5    0    0  0.23944753582E+03 -0.19697460292E+03  0.37399238003E+03  0.48580285808E+03  0.00000000000E+00 0. -1.
          4    1    6    6  503    0 -0.15005217665E+02  0.14323334685E+02  0.44161893820E+02  0.48791262941E+02  0.00000000000E+00 0. -1.
         -4    1    6    6    0  503 -0.22745396317E+03  0.23841733918E+03  0.15274207100E+03  0.36319178575E+03  0.00000000000E+00 0.  1.
<mgrwt>
<rscale>  0 0.11878353E+04</rscale>
<asrwt>0</asrwt>
<pdfrwt beam="1">  1        2 0.22041265E+00 0.11878353E+04</pdfrwt>
<pdfrwt beam="2">  1       -1 0.37878189E-01 0.11878353E+04</pdfrwt>
<totfact> 0.10487996E+02</totfact>
</mgrwt>
</event>
<event>
12    7  0.1711607E-007  0.2047072E+04  0.7818608E-02  0.8584924E-01
         -1   -1    0    0    0  501 -0.00000000000E+00  0.00000000000E+00  0.33185570523E+03  0.33185570523E+03  0.00000000000E+00 0.  1.
          2   -1    0    0  501    0  0.00000000000E+00 -0.00000000000E+00 -0.31568711599E+04  0.31568711599E+04  0.00000000000E+00 0. -1.
         24    2    1    2    0    0 -0.11231465512E+03  0.75386423572E+03 -0.61713245860E+03  0.98393295136E+03  0.79659987768E+02 0.  0.
        254    2    1    2    0    0  0.11231465512E+03 -0.75386423572E+03 -0.22078829960E+04  0.25047939138E+04  0.90461005881E+03 0.  0.
         23    2    4    4    0    0 -0.26439218771E+03 -0.61044656489E+03 -0.18121396219E+04  0.19325831740E+04  0.92084078483E+02 0.  0.
         23    2    4    4    0    0  0.37670684282E+03 -0.14341767084E+03 -0.39574337413E+03  0.57221073978E+03  0.91299719678E+02 0.  0.
          2    1    3    3  502    0 -0.63582531564E+01  0.70428955094E+02 -0.89380434668E+02  0.11397160699E+03  0.00000000000E+00 0. -1.
         -1    1    3    3    0  502 -0.10595640196E+03  0.68343528063E+03 -0.52775202394E+03  0.86996134437E+03  0.00000000000E+00 0.  1.
         13    1    5    5    0    0 -0.16584258841E+03 -0.29661541288E+03 -0.10090709209E+04  0.10647575267E+04  0.00000000000E+00 0. -1.
        -13    1    5    5    0    0 -0.98549599294E+02 -0.31383115201E+03 -0.80306870102E+03  0.86782564726E+03  0.00000000000E+00 0.  1.
          4    1    6    6  503    0  0.16707558683E+03 -0.10195765417E+03 -0.15030640512E+03  0.24678255687E+03  0.00000000000E+00 0. -1.
         -4    1    6    6    0  503  0.20963125600E+03 -0.41460016669E+02 -0.24543696901E+03  0.32542818290E+03  0.00000000000E+00 0.  1.
<mgrwt>
<rscale>  0 0.20470718E+04</rscale>
<asrwt>0</asrwt>
<pdfrwt beam="1">  1        2 0.48567245E+00 0.20470718E+04</pdfrwt>
<pdfrwt beam="2">  1       -1 0.51054727E-01 0.20470718E+04</pdfrwt>
<totfact> 0.56360933E+00</totfact>
</mgrwt>
</event>
<event>
12    7  0.1711607E-007  0.2820803E+04  0.7818608E-02  0.8296839E-01
          2   -1    0    0  501    0  0.00000000000E+00  0.00000000000E+00  0.10399754399E+04  0.10399754399E+04  0.00000000000E+00 0. -1.
         -1   -1    0    0    0  501 -0.00000000000E+00 -0.00000000000E+00 -0.19127689671E+04  0.19127689671E+04  0.00000000000E+00 0.  1.
         24    2    1    2    0    0 -0.64317760874E+03  0.42981295924E+03 -0.14419316925E+04  0.16384140932E+04  0.82565844440E+02 0.  0.
        254    2    1    2    0    0  0.64317760874E+03 -0.42981295924E+03  0.56913816534E+03  0.13143303138E+04  0.89728997884E+03 0.  0.
         23    2    4    4    0    0 -0.76824115911E+02 -0.30988542522E+03 -0.71013224692E+02  0.33927707060E+03  0.90194961079E+02 0.  0.
         23    2    4    4    0    0  0.72000172465E+03 -0.11992753402E+03  0.64015139003E+03  0.97505324316E+03  0.90276951290E+02 0.  0.
          4    1    3    3  502    0 -0.38240712691E+02  0.12381121237E+02 -0.11058769684E+03  0.11766598048E+03  0.00000000000E+00 0. -1.
         -3    1    3    3    0  502 -0.60493689604E+03  0.41743183801E+03 -0.13313439956E+04  0.15207481127E+04  0.00000000000E+00 0.  1.
         13    1    5    5    0    0 -0.79651707642E+02 -0.25677923256E+03 -0.88903011596E+02  0.28316729026E+03  0.00000000000E+00 0. -1.
        -13    1    5    5    0    0  0.28275917316E+01 -0.53106192664E+02  0.17889786903E+02  0.56109780340E+02  0.00000000000E+00 0.  1.
          3    1    6    6  503    0  0.46261425415E+03 -0.53316837717E+02  0.45506097082E+03  0.65110300298E+03  0.00000000000E+00 0. -1.
         -3    1    6    6    0  503  0.25738747050E+03 -0.66610696305E+02  0.18509041921E+03  0.32395024019E+03  0.00000000000E+00 0.  1.
<mgrwt>
<rscale>  0 0.28208033E+04</rscale>
<asrwt>0</asrwt>
<pdfrwt beam="1">  1        2 0.15999622E+00 0.28208033E+04</pdfrwt>
<pdfrwt beam="2">  1       -1 0.29427215E+00 0.28208033E+04</pdfrwt>
<totfact> 0.84585510E-01</totfact>
</mgrwt>
</event>
<event>
12    7  0.1711607E-007  0.2376644E+04  0.7818608E-02  0.8448300E-01
          2   -1    0    0  501    0  0.00000000000E+00  0.00000000000E+00  0.27778414468E+04  0.27778414468E+04  0.00000000000E+00 0. -1.
         -1   -1    0    0    0  501 -0.00000000000E+00 -0.00000000000E+00 -0.50834760110E+03  0.50834760110E+03  0.00000000000E+00 0.  1.
         24    2    1    2    0    0 -0.24656325062E+03 -0.96721329197E+03  0.71372120504E+03  0.12296650971E+04  0.79895581233E+02 0.  0.
        254    2    1    2    0    0  0.24656325062E+03  0.96721329197E+03  0.15557726406E+04  0.20565239507E+04  0.90142512825E+03 0.  0.
         23    2    4    4    0    0  0.27439421983E+01  0.12737822345E+03 -0.97569356023E+02  0.18394752882E+03  0.89912029754E+02 0.  0.
         23    2    4    4    0    0  0.24381930842E+03  0.83983506852E+03  0.16533419967E+04  0.18725764219E+04  0.90729821475E+02 0.  0.
          4    1    3    3  502    0  0.59155330805E+01 -0.34497568247E+02  0.27319518895E+02  0.44400809218E+02  0.00000000000E+00 0. -1.
         -3    1    3    3    0  502 -0.25247878370E+03 -0.93271572372E+03  0.68640168614E+03  0.11852642879E+04  0.00000000000E+00 0.  1.
         13    1    5    5    0    0  0.28122296468E+02  0.11169238756E+03 -0.45307175604E+02  0.12376911229E+03  0.00000000000E+00 0. -1.
        -13    1    5    5    0    0 -0.25378354270E+02  0.15685835896E+02 -0.52262180419E+02  0.60178416524E+02  0.00000000000E+00 0.  1.
          4    1    6    6  503    0  0.69938706768E+02  0.28274242489E+03  0.64082872789E+03  0.70391488124E+03  0.00000000000E+00 0. -1.
         -4    1    6    6    0  503  0.17388060165E+03  0.55709264363E+03  0.10125132688E+04  0.11686615407E+04  0.00000000000E+00 0.  1.
<mgrwt>
<rscale>  0 0.23766439E+04</rscale>
<asrwt>0</asrwt>
<pdfrwt beam="1">  1        2 0.42736021E+00 0.23766439E+04</pdfrwt>
<pdfrwt beam="2">  1       -1 0.78207325E-01 0.23766439E+04</pdfrwt>
<totfact> 0.40014814E+00</totfact>
</mgrwt>
</event>
<event>
12    7  0.1711607E-007  0.1746255E+04  0.7818608E-02  0.8735415E-01
          2   -1    0    0  501    0  0.00000000000E+00  0.00000000000E+00  0.12588608363E+04  0.12588608363E+04  0.00000000000E+00 0. -1.
         -1   -1    0    0    0  501 -0.00000000000E+00 -0.00000000000E+00 -0.60558836951E+03  0.60558836951E+03  0.00000000000E+00 0.  1.
         24    2    1    2    0    0 -0.41498471112E+02  0.36674985482E+03 -0.30622843299E+03  0.48664431645E+03  0.82578801477E+02 0.  0.
        254    2    1    2    0    0  0.41498471112E+02 -0.36674985482E+03  0.95950089977E+03  0.13778048894E+04  0.91732042240E+03 0.  0.
         23    2    4    4    0    0 -0.34906703870E+01 -0.22816455412E+03 -0.12800850094E+03  0.27684991246E+03  0.90490050170E+02 0.  0.
         23    2    4    4    0    0  0.44989141499E+02 -0.13858530070E+03  0.10875094007E+04  0.11009549769E+04  0.90527653758E+02 0.  0.
          2    1    3    3  502    0  0.22224758765E+02  0.55006210338E+02 -0.59292745108E+02  0.83876413255E+02  0.00000000000E+00 0. -1.
         -1    1    3    3    0  502 -0.63723229877E+02  0.31174364448E+03 -0.24693568788E+03  0.40276790320E+03  0.00000000000E+00 0.  1.
         13    1    5    5    0    0  0.29010543884E+02 -0.99485757161E+02 -0.93837540433E+02  0.13980168643E+03  0.00000000000E+00 0. -1.
        -13    1    5    5    0    0 -0.32501214271E+02 -0.12867879696E+03 -0.34170960507E+02  0.13704822603E+03  0.00000000000E+00 0.  1.
          2    1    6    6  503    0  0.28057023254E+02 -0.14105735732E+03  0.79212785833E+03  0.80507820648E+03  0.00000000000E+00 0. -1.
         -2    1    6    6    0  503  0.16932118245E+02  0.24720566197E+01  0.29538154238E+03  0.29587677041E+03  0.00000000000E+00 0.  1.
<mgrwt>
<rscale>  0 0.17462548E+04</rscale>
<asrwt>0</asrwt>
<pdfrwt beam="1">  1        2 0.19367090E+00 0.17462548E+04</pdfrwt>
<pdfrwt beam="2">  1       -1 0.93167442E-01 0.17462548E+04</pdfrwt>
<totfact> 0.21131882E+01</totfact>
</mgrwt>
</event>
<event>
12    7  0.1711607E-007  0.2231443E+04  0.7818608E-02  0.8505454E-01
          2   -1    0    0  501    0  0.00000000000E+00  0.00000000000E+00  0.11627313416E+04  0.11627313416E+04  0.00000000000E+00 0. -1.
         -1   -1    0    0    0  501 -0.00000000000E+00 -0.00000000000E+00 -0.10706123746E+04  0.10706123746E+04  0.00000000000E+00 0.  1.
         24    2    1    2    0    0  0.74527169531E+03  0.93499635148E+02 -0.48526828814E+03  0.89711640407E+03  0.71836267807E+02 0.  0.
        254    2    1    2    0    0 -0.74527169531E+03 -0.93499635148E+02  0.57738725515E+03  0.13362273121E+04  0.94231380427E+03 0.  0.
         23    2    4    4    0    0 -0.55465807559E+03 -0.11326256158E+03  0.82757512979E+03  0.10069841139E+04  0.93072131206E+02 0.  0.
         23    2    4    4    0    0 -0.19061361972E+03  0.19762926430E+02 -0.25018787464E+03  0.32924319821E+03  0.95304699076E+02 0.  0.
          4    1    3    3  502    0  0.12975097900E+02  0.91935531114E+01 -0.28514427399E+01  0.16155658761E+02  0.00000000000E+00 0. -1.
         -3    1    3    3    0  502  0.73229659741E+03  0.84306082037E+02 -0.48241684540E+03  0.88096074530E+03  0.00000000000E+00 0.  1.
         13    1    5    5    0    0 -0.25318052929E+02  0.10895264872E+01  0.12135192175E+02  0.28097219813E+02  0.00000000000E+00 0.  1.
        -13    1    5    5    0    0 -0.52934002266E+03 -0.11435208807E+03  0.81543993761E+03  0.97888689413E+03  0.00000000000E+00 0. -1.
          3    1    6    6  503    0 -0.17760552972E+03 -0.11063297898E+02 -0.22744942523E+03  0.28878947658E+03  0.00000000000E+00 0. -1.
         -3    1    6    6    0  503 -0.13008089996E+02  0.30826224328E+02 -0.22738449413E+02  0.40453721626E+02  0.00000000000E+00 0.  1.
<mgrwt>
<rscale>  0 0.22314431E+04</rscale>
<asrwt>0</asrwt>
<pdfrwt beam="1">  1        2 0.17888174E+00 0.22314431E+04</pdfrwt>
<pdfrwt beam="2">  1       -1 0.16470960E+00 0.22314431E+04</pdfrwt>
<totfact> 0.55833799E+00</totfact>
</mgrwt>
</event>
<event>
12    7  0.1711607E-007  0.2160610E+04  0.7818608E-02  0.8535004E-01
          2   -1    0    0  501    0  0.00000000000E+00  0.00000000000E+00  0.15844564268E+04  0.15844564268E+04  0.00000000000E+00 0. -1.
         -1   -1    0    0    0  501 -0.00000000000E+00 -0.00000000000E+00 -0.73656708365E+03  0.73656708365E+03  0.00000000000E+00 0.  1.
         24    2    1    2    0    0 -0.68475877465E+03 -0.51365911217E+03  0.97911492042E+02  0.86513658521E+03  0.78322332774E+02 0.  0.
        254    2    1    2    0    0  0.68475877465E+03  0.51365911217E+03  0.74997785114E+03  0.14558869253E+04  0.90796459127E+03 0.  0.
         23    2    4    4    0    0  0.79119144889E+02 -0.15678523355E+03  0.46302201347E+03  0.50355110267E+03  0.91284607123E+02 0.  0.
         23    2    4    4    0    0  0.60563962977E+03  0.67044434572E+03  0.28695583767E+03  0.95233582260E+03  0.91131138381E+02 0.  0.
          2    1    3    3  502    0 -0.41344853226E+03 -0.27696918436E+03  0.85064206002E+02  0.50486387973E+03  0.00000000000E+00 0. -1.
         -1    1    3    3    0  502 -0.27131024240E+03 -0.23668992781E+03  0.12847286039E+02  0.36027270548E+03  0.00000000000E+00 0.  1.
         13    1    5    5    0    0  0.13494712921E+02  0.85439698774E+01  0.75270315802E+02  0.76946261371E+02  0.00000000000E+00 0. -1.
        -13    1    5    5    0    0  0.65624431968E+02 -0.16532920343E+03  0.38775169767E+03  0.42660484130E+03  0.00000000000E+00 0.  1.
          3    1    6    6  503    0  0.21694511870E+03  0.26062905573E+03  0.63984566506E+02  0.34508942895E+03  0.00000000000E+00 0. -1.
         -3    1    6    6    0  503  0.38869451106E+03  0.40981528999E+03  0.22297127116E+03  0.60724639365E+03  0.00000000000E+00 0.  1.
<mgrwt>
<rscale>  0 0.21606096E+04</rscale>
<asrwt>0</asrwt>
<pdfrwt beam="1">  1        2 0.24376253E+00 0.21606096E+04</pdfrwt>
<pdfrwt beam="2">  1       -1 0.11331801E+00 0.21606096E+04</pdfrwt>
<totfact> 0.84506683E+00</totfact>
</mgrwt>
</event>
<event>
12    7  0.1711607E-007  0.2322519E+04  0.7818608E-02  0.8469095E-01
         -1   -1    0    0    0  501 -0.00000000000E+00  0.00000000000E+00  0.80049817715E+03  0.80049817715E+03  0.00000000000E+00 0.  1.
          2   -1    0    0  501    0  0.00000000000E+00 -0.00000000000E+00 -0.16846048015E+04  0.16846048015E+04  0.00000000000E+00 0. -1.
         24    2    1    2    0    0  0.15441551918E+03 -0.90193323805E+03 -0.76371388502E+03  0.11946359091E+04  0.81045287751E+02 0.  0.
        254    2    1    2    0    0 -0.15441551918E+03  0.90193323805E+03 -0.12039273932E+03  0.12904670695E+04  0.90193299498E+03 0.  0.
         23    2    4    4    0    0  0.36347698295E+03  0.47573919760E+03 -0.19030800310E+02  0.60591121255E+03  0.91230065538E+02 0.  0.
         23    2    4    4    0    0 -0.51789250213E+03  0.42619404045E+03 -0.10136193901E+03  0.68455585699E+03  0.92132919150E+02 0.  0.
          2    1    3    3  502    0  0.96875550489E+01 -0.19647099527E+02 -0.61132202825E+01  0.22742662660E+02  0.00000000000E+00 0. -1.
         -1    1    3    3    0  502  0.14472796413E+03 -0.88228613852E+03 -0.75760066474E+03  0.11718932464E+04  0.00000000000E+00 0.  1.
         13    1    5    5    0    0  0.31283250661E+03  0.38591904746E+03 -0.47183363902E+02  0.49902300369E+03  0.00000000000E+00 0. -1.
        -13    1    5    5    0    0  0.50644476346E+02  0.89820150147E+02  0.28152563592E+02  0.10688820886E+03  0.00000000000E+00 0.  1.
          2    1    6    6  503    0 -0.50513096872E+02  0.80643248816E+02 -0.24394509485E+02  0.98234406540E+02  0.00000000000E+00 0.  1.
         -2    1    6    6    0  503 -0.46737940526E+03  0.34555079163E+03 -0.76967429528E+02  0.58632145045E+03  0.00000000000E+00 0. -1.
<mgrwt>
<rscale>  0 0.23225185E+04</rscale>
<asrwt>0</asrwt>
<pdfrwt beam="1">  1        2 0.25916997E+00 0.23225185E+04</pdfrwt>
<pdfrwt beam="2">  1       -1 0.12315357E+00 0.23225185E+04</pdfrwt>
<totfact> 0.59854959E+00</totfact>
</mgrwt>
</event>
<event>
12    7  0.1711607E-007  0.1583583E+04  0.7818608E-02  0.8830697E-01
         -1   -1    0    0    0  501 -0.00000000000E+00  0.00000000000E+00  0.62006601648E+03  0.62006601648E+03  0.00000000000E+00 0.  1.
          2   -1    0    0  501    0  0.00000000000E+00 -0.00000000000E+00 -0.10110761498E+04  0.10110761498E+04  0.00000000000E+00 0. -1.
         24    2    1    2    0    0  0.20846023198E+02  0.73026279016E+02  0.40247534965E+03  0.41726046377E+03  0.79702530950E+02 0.  0.
        254    2    1    2    0    0 -0.20846023198E+02 -0.73026279016E+02 -0.79348548294E+03  0.12138817025E+04  0.91549013204E+03 0.  0.
         23    2    4    4    0    0  0.25088694186E+03 -0.10624086484E+03 -0.87044807590E+03  0.91657138197E+03  0.90508930184E+02 0.  0.
         23    2    4    4    0    0 -0.27173296506E+03  0.33214585825E+02  0.76962592960E+02  0.29731032051E+03  0.86765044554E+02 0.  0.
          4    1    3    3  502    0  0.28109968218E+02 -0.12368956610E+01  0.54055235265E+02  0.60939877614E+02  0.00000000000E+00 0. -1.
         -3    1    3    3    0  502 -0.72639450204E+01  0.74263174677E+02  0.34842011439E+03  0.35632058616E+03  0.00000000000E+00 0.  1.
         13    1    5    5    0    0  0.91861433949E+02 -0.64379415694E+02 -0.23825657781E+03  0.26334279767E+03  0.00000000000E+00 0. -1.
        -13    1    5    5    0    0  0.15902550791E+03 -0.41861449146E+02 -0.63219149809E+03  0.65322858430E+03  0.00000000000E+00 0.  1.
          2    1    6    6  503    0 -0.81775839799E+02 -0.35226656874E+01 -0.14794365807E+02  0.83177944240E+02  0.00000000000E+00 0. -1.
         -2    1    6    6    0  503 -0.18995712526E+03  0.36737251512E+02  0.91756958767E+02  0.21413237627E+03  0.00000000000E+00 0.  1.
<mgrwt>
<rscale>  0 0.15835832E+04</rscale>
<asrwt>0</asrwt>
<pdfrwt beam="1">  1        2 0.15555018E+00 0.15835832E+04</pdfrwt>
<pdfrwt beam="2">  1       -1 0.95394772E-01 0.15835832E+04</pdfrwt>
<totfact> 0.28800498E+01</totfact>
</mgrwt>
</event>
<event>
12    7  0.1711607E-007  0.2407308E+04  0.7818608E-02  0.8436773E-01
          2   -1    0    0  501    0  0.00000000000E+00  0.00000000000E+00  0.20278298220E+04  0.20278298220E+04  0.00000000000E+00 0. -1.
         -1   -1    0    0    0  501 -0.00000000000E+00 -0.00000000000E+00 -0.71445015485E+03  0.71445015485E+03  0.00000000000E+00 0.  1.
         24    2    1    2    0    0  0.40170434811E+03 -0.63188176393E+03 -0.25019246508E+03  0.79354083522E+03  0.80435320015E+02 0.  0.
        254    2    1    2    0    0 -0.40170434811E+03  0.63188176393E+03  0.15635721323E+04  0.19487391417E+04  0.89004802263E+03 0.  0.
         23    2    4    4    0    0 -0.31850519030E+03  0.50924986773E+03  0.16469840913E+04  0.17555101093E+04  0.92076940553E+02 0.  0.
         23    2    4    4    0    0 -0.83199157813E+02  0.12263189620E+03 -0.83411958985E+02  0.19322903237E+03  0.91756319792E+02 0.  0.
          2    1    3    3  502    0  0.43432907092E+02 -0.12254253786E+03 -0.52193452169E+02  0.14009727854E+03  0.00000000000E+00 0. -1.
         -1    1    3    3    0  502  0.35827144102E+03 -0.50933922606E+03 -0.19799901292E+03  0.65344355668E+03  0.00000000000E+00 0.  1.
         13    1    5    5    0    0 -0.12688549623E+03  0.13110227418E+03  0.54942459182E+03  0.57892583078E+03  0.00000000000E+00 0. -1.
        -13    1    5    5    0    0 -0.19161969407E+03  0.37814759355E+03  0.10975594994E+04  0.11765842785E+04  0.00000000000E+00 0.  1.
          3    1    6    6  503    0 -0.46330435638E+02  0.96630588507E+02 -0.98603433987E+02  0.14562491921E+03  0.00000000000E+00 0. -1.
         -3    1    6    6    0  503 -0.36868722174E+02  0.26001307690E+02  0.15191475002E+02  0.47604113153E+02  0.00000000000E+00 0.  1.
<mgrwt>
<rscale>  0 0.24073083E+04</rscale>
<asrwt>0</asrwt>
<pdfrwt beam="1">  1        2 0.31197382E+00 0.24073083E+04</pdfrwt>
<pdfrwt beam="2">  1       -1 0.10991541E+00 0.24073083E+04</pdfrwt>
<totfact> 0.50404962E+00</totfact>
</mgrwt>
</event>
<event>
12    7  0.1711607E-007  0.1844745E+04  0.7818608E-02  0.8682860E-01
         -1   -1    0    0    0  501 -0.00000000000E+00  0.00000000000E+00  0.96813911536E+03  0.96813911536E+03  0.00000000000E+00 0.  1.
          2   -1    0    0  501    0  0.00000000000E+00 -0.00000000000E+00 -0.87876966760E+03  0.87876966760E+03  0.00000000000E+00 0. -1.
         24    2    1    2    0    0 -0.43400543878E+03 -0.17547086189E+03  0.55815729918E+03  0.73294527432E+03  0.80736981992E+02 0.  0.
        254    2    1    2    0    0  0.43400543878E+03  0.17547086189E+03 -0.46878785142E+03  0.11139635086E+04  0.89554559051E+03 0.  0.
         23    2    4    4    0    0  0.38261299570E+03  0.16200911842E+03 -0.72260215824E+03  0.83975836543E+03  0.10198320589E+03 0.  0.
         23    2    4    4    0    0  0.51392443076E+02  0.13461743466E+02  0.25381430682E+03  0.27420514321E+03  0.89131119584E+02 0.  0.
          4    1    3    3  502    0 -0.45695567033E+00  0.42513680579E+01  0.12540746442E+02  0.13249651322E+02  0.00000000000E+00 0. -1.
         -3    1    3    3    0  502 -0.43354848311E+03 -0.17972222995E+03  0.54561655274E+03  0.71969562300E+03  0.00000000000E+00 0.  1.
         13    1    5    5    0    0  0.15843439238E+03  0.33518836484E+02 -0.20501835200E+03  0.26126135142E+03  0.00000000000E+00 0. -1.
        -13    1    5    5    0    0  0.22417860333E+03  0.12849028194E+03 -0.51758380623E+03  0.57849701401E+03  0.00000000000E+00 0.  1.
          3    1    6    6  503    0 -0.14995377969E+02  0.27570910339E+02  0.46804138926E+02  0.56352851551E+02  0.00000000000E+00 0. -1.
         -3    1    6    6    0  503  0.66387821046E+02 -0.14109166873E+02  0.20701016789E+03  0.21785229166E+03  0.00000000000E+00 0.  1.
<mgrwt>
<rscale>  0 0.18447453E+04</rscale>
<asrwt>0</asrwt>
<pdfrwt beam="1">  1        2 0.13519533E+00 0.18447453E+04</pdfrwt>
<pdfrwt beam="2">  1       -1 0.14894448E+00 0.18447453E+04</pdfrwt>
<totfact> 0.11573728E+01</totfact>
</mgrwt>
</event>
<event>
12    7  0.1711607E-007  0.1306654E+04  0.7818608E-02  0.9024305E-01
          2   -1    0    0  501    0  0.00000000000E+00  0.00000000000E+00  0.40753013562E+03  0.40753013562E+03  0.00000000000E+00 0. -1.
         -1   -1    0    0    0  501 -0.00000000000E+00 -0.00000000000E+00 -0.10473739126E+04  0.10473739126E+04  0.00000000000E+00 0.  1.
         24    2    1    2    0    0 -0.13538405411E+03 -0.13495393331E+03  0.13928301192E+03  0.24958089791E+03  0.79683504976E+02 0.  0.
        254    2    1    2    0    0  0.13538405411E+03  0.13495393331E+03 -0.77912678888E+03  0.12053231503E+04  0.89956875072E+03 0.  0.
         23    2    4    4    0    0  0.30565177197E+03 -0.29950177010E+03 -0.44092536657E+03  0.62118766701E+03  0.91294155120E+02 0.  0.
         23    2    4    4    0    0 -0.17026771786E+03  0.43445570342E+03 -0.33820142231E+03  0.58413548328E+03  0.95347820123E+02 0.  0.
          2    1    3    3  502    0 -0.13677243276E+03 -0.13827125849E+03  0.11691269119E+03  0.22692337175E+03  0.00000000000E+00 0. -1.
         -1    1    3    3    0  502  0.13883786478E+01  0.33173251766E+01  0.22370320735E+02  0.22657526153E+02  0.00000000000E+00 0.  1.
         13    1    5    5    0    0  0.77973388241E+02 -0.28640120602E+02 -0.97554918534E+02  0.12812910642E+03  0.00000000000E+00 0. -1.
        -13    1    5    5    0    0  0.22767838373E+03 -0.27086164950E+03 -0.34337044804E+03  0.49305856059E+03  0.00000000000E+00 0.  1.
          2    1    6    6  503    0 -0.10293168391E+03  0.30769944185E+03 -0.18206323469E+03  0.37204959278E+03  0.00000000000E+00 0. -1.
         -2    1    6    6    0  503 -0.67336033953E+02  0.12675626157E+03 -0.15613818762E+03  0.21208589050E+03  0.00000000000E+00 0.  1.
<mgrwt>
<rscale>  0 0.13066544E+04</rscale>
<asrwt>0</asrwt>
<pdfrwt beam="1">  1        2 0.62696945E-01 0.13066544E+04</pdfrwt>
<pdfrwt beam="2">  1       -1 0.16113444E+00 0.13066544E+04</pdfrwt>
<totfact> 0.25009693E+01</totfact>
</mgrwt>
</event>
<event>
12    7  0.1711607E-007  0.1685882E+04  0.7818608E-02  0.8769458E-01
         -1   -1    0    0    0  501 -0.00000000000E+00  0.00000000000E+00  0.70423131631E+03  0.70423131631E+03  0.00000000000E+00 0.  1.
          2   -1    0    0  501    0  0.00000000000E+00 -0.00000000000E+00 -0.10089714339E+04  0.10089714339E+04  0.00000000000E+00 0. -1.
         24    2    1    2    0    0 -0.10778768546E+03 -0.41791047892E+03  0.30577005074E+03  0.53501593282E+03  0.80494539648E+02 0.  0.
        254    2    1    2    0    0  0.10778768546E+03  0.41791047892E+03 -0.61051016831E+03  0.11781868174E+04  0.91056804109E+03 0.  0.
         23    2    4    4    0    0 -0.28379703741E+03  0.50130634917E+03 -0.26505005696E+03  0.64124938476E+03  0.95396156117E+02 0.  0.
         23    2    4    4    0    0  0.39158472287E+03 -0.83395870247E+02 -0.34546011135E+03  0.53693743260E+03  0.93089481834E+02 0.  0.
          4    1    3    3  502    0 -0.10421284022E+02 -0.51556948782E+02  0.73710416001E+02  0.90553561804E+02  0.00000000000E+00 0. -1.
         -3    1    3    3    0  502 -0.97366401440E+02 -0.36635353014E+03  0.23205963474E+03  0.44446237102E+03  0.00000000000E+00 0.  1.
         13    1    5    5    0    0 -0.17779147220E+03  0.21731332775E+03 -0.12694315222E+03  0.30813869264E+03  0.00000000000E+00 0.  1.
        -13    1    5    5    0    0 -0.10600556521E+03  0.28399302142E+03 -0.13810690474E+03  0.33311069212E+03  0.00000000000E+00 0. -1.
          4    1    6    6  503    0  0.39664998029E+03 -0.84702027586E+02 -0.33887875629E+03  0.52853046441E+03  0.00000000000E+00 0. -1.
         -4    1    6    6    0  503 -0.50652574188E+01  0.13061573392E+01 -0.65813550568E+01  0.84069681870E+01  0.00000000000E+00 0.  1.
<mgrwt>
<rscale>  0 0.16858817E+04</rscale>
<asrwt>0</asrwt>
<pdfrwt beam="1">  1        2 0.15522637E+00 0.16858817E+04</pdfrwt>
<pdfrwt beam="2">  1       -1 0.10834328E+00 0.16858817E+04</pdfrwt>
<totfact> 0.21373114E+01</totfact>
</mgrwt>
</event>
<event>
12    7  0.1711607E-007  0.2069293E+04  0.7818608E-02  0.8574892E-01
          2   -1    0    0  501    0  0.00000000000E+00  0.00000000000E+00  0.82187924789E+03  0.82187924789E+03  0.00000000000E+00 0. -1.
         -1   -1    0    0    0  501 -0.00000000000E+00 -0.00000000000E+00 -0.13024944184E+04  0.13024944184E+04  0.00000000000E+00 0.  1.
         24    2    1    2    0    0  0.31967362940E+03 -0.32195982821E+03  0.52391738455E+03  0.69759979502E+03  0.79414657705E+02 0.  0.
        254    2    1    2    0    0 -0.31967362940E+03  0.32195982821E+03 -0.10045325551E+04  0.14267738713E+04  0.90595180074E+03 0.  0.
         23    2    4    4    0    0 -0.52546358837E+03  0.49637508288E+03 -0.69310086478E+03  0.10055370192E+04  0.90640403038E+02 0.  0.
         23    2    4    4    0    0  0.20578995897E+03 -0.17441525467E+03 -0.31143169029E+03  0.42123685206E+03  0.87639029790E+02 0.  0.
          4    1    3    3  502    0  0.31454471971E+03 -0.31013140957E+03  0.48221709638E+03  0.65395198596E+03  0.00000000000E+00 0. -1.
         -3    1    3    3    0  502  0.51289096937E+01 -0.11828418645E+02  0.41700288174E+02  0.43647809064E+02  0.00000000000E+00 0.  1.
         13    1    5    5    0    0 -0.31370429904E+03  0.24385112257E+03 -0.41196410199E+03  0.57235319388E+03  0.00000000000E+00 0.  1.
        -13    1    5    5    0    0 -0.21175928933E+03  0.25252396031E+03 -0.28113676279E+03  0.43318382534E+03  0.00000000000E+00 0. -1.
          1    1    6    6  503    0  0.10456695481E+03 -0.60252178191E+02 -0.19494476151E+03  0.22927719698E+03  0.00000000000E+00 0. -1.
         -1    1    6    6    0  503  0.10122300416E+03 -0.11416307647E+03 -0.11648692878E+03  0.19195965508E+03  0.00000000000E+00 0.  1.
<mgrwt>
<rscale>  0 0.20692928E+04</rscale>
<asrwt>0</asrwt>
<pdfrwt beam="1">  1        2 0.12644296E+00 0.20692928E+04</pdfrwt>
<pdfrwt beam="2">  1       -1 0.20038376E+00 0.20692928E+04</pdfrwt>
<totfact> 0.52386415E+00</totfact>
</mgrwt>
</event>
<event>
12    7  0.1711607E-007  0.1875885E+04  0.7818608E-02  0.8666954E-01
         -1   -1    0    0    0  501 -0.00000000000E+00  0.00000000000E+00  0.81635000148E+03  0.81635000148E+03  0.00000000000E+00 0.  1.
          2   -1    0    0  501    0  0.00000000000E+00 -0.00000000000E+00 -0.10776456714E+04  0.10776456714E+04  0.00000000000E+00 0. -1.
         24    2    1    2    0    0  0.40455818908E+03  0.51467268882E+03 -0.33554310059E+03  0.73968374962E+03  0.77379403768E+02 0.  0.
        254    2    1    2    0    0 -0.40455818908E+03 -0.51467268882E+03  0.74247430630E+02  0.11543119233E+04  0.94782278427E+03 0.  0.
         23    2    4    4    0    0 -0.52711851363E+03 -0.45442734865E+03 -0.28624895847E+03  0.75793159677E+03  0.90353176730E+02 0.  0.
         23    2    4    4    0    0  0.12256032455E+03 -0.60245340171E+02  0.36049638910E+03  0.39638032654E+03  0.92245230493E+02 0.  0.
          2    1    3    3  502    0  0.28914200571E+03  0.37924276006E+03 -0.20548133257E+03  0.51927906617E+03  0.00000000000E+00 0. -1.
         -1    1    3    3    0  502  0.11541618337E+03  0.13542992876E+03 -0.13006176802E+03  0.22040468345E+03  0.00000000000E+00 0.  1.
         13    1    5    5    0    0 -0.22527654776E+03 -0.21071686069E+03 -0.80482058309E+02  0.31879222083E+03  0.00000000000E+00 0. -1.
        -13    1    5    5    0    0 -0.30184196586E+03 -0.24371048795E+03 -0.20576690016E+03  0.43913937594E+03  0.00000000000E+00 0.  1.
          4    1    6    6  503    0 -0.58437086735E+01 -0.17250197113E+02  0.10318568016E+02  0.20933014055E+02  0.00000000000E+00 0.  1.
         -4    1    6    6    0  503  0.12840403322E+03 -0.42995143058E+02  0.35017782109E+03  0.37544731249E+03  0.00000000000E+00 0. -1.
<mgrwt>
<rscale>  0 0.18758849E+04</rscale>
<asrwt>0</asrwt>
<pdfrwt beam="1">  1        2 0.16579164E+00 0.18758849E+04</pdfrwt>
<pdfrwt beam="2">  1       -1 0.12559231E+00 0.18758849E+04</pdfrwt>
<totfact> 0.13316161E+01</totfact>
</mgrwt>
</event>
<event>
12    7  0.1711607E-007  0.1844397E+04  0.7818608E-02  0.8683040E-01
          2   -1    0    0  501    0  0.00000000000E+00  0.00000000000E+00  0.83650783013E+03  0.83650783013E+03  0.00000000000E+00 0. -1.
         -1   -1    0    0    0  501 -0.00000000000E+00 -0.00000000000E+00 -0.10166670143E+04  0.10166670143E+04  0.00000000000E+00 0.  1.
         24    2    1    2    0    0  0.36819774264E+03 -0.60340705058E+03 -0.53807323153E+02  0.71327798797E+03  0.78743975742E+02 0.  0.
        254    2    1    2    0    0 -0.36819774264E+03  0.60340705058E+03 -0.12635186102E+03  0.11398968565E+04  0.88528549306E+03 0.  0.
         23    2    4    4    0    0 -0.11393751942E+03  0.65288361971E+03 -0.37707300553E+03  0.76784283128E+03  0.90331516215E+02 0.  0.
         23    2    4    4    0    0 -0.25426022322E+03 -0.49476569136E+02  0.25072114451E+03  0.37205402518E+03  0.92015832030E+02 0.  0.
          2    1    3    3  502    0  0.72151565222E+02 -0.11306297515E+03 -0.41373785880E+02  0.14035980504E+03  0.00000000000E+00 0. -1.
         -1    1    3    3    0  502  0.29604617742E+03 -0.49034407543E+03 -0.12433537273E+02  0.57291818293E+03  0.00000000000E+00 0.  1.
         13    1    5    5    0    0 -0.64996804143E+02  0.49470884171E+03 -0.24402178777E+03  0.55543501467E+03  0.00000000000E+00 0.  1.
        -13    1    5    5    0    0 -0.48940715280E+02  0.15817477801E+03 -0.13305121776E+03  0.21240781661E+03  0.00000000000E+00 0. -1.
          4    1    6    6  503    0 -0.10703563683E+03 -0.40958239510E+02  0.16679908771E+03  0.20237623525E+03  0.00000000000E+00 0. -1.
         -4    1    6    6    0  503 -0.14722458639E+03 -0.85183296260E+01  0.83922056805E+02  0.16967778993E+03  0.00000000000E+00 0.  1.
<mgrwt>
<rscale>  0 0.18443968E+04</rscale>
<asrwt>0</asrwt>
<pdfrwt beam="1">  1        2 0.12869351E+00 0.18443968E+04</pdfrwt>
<pdfrwt beam="2">  1       -1 0.15641031E+00 0.18443968E+04</pdfrwt>
<totfact> 0.10841006E+01</totfact>
</mgrwt>
</event>
<event>
12    7  0.1711607E-007  0.2013288E+04  0.7818608E-02  0.8600433E-01
          2   -1    0    0  501    0  0.00000000000E+00  0.00000000000E+00  0.86920204216E+03  0.86920204216E+03  0.00000000000E+00 0. -1.
         -1   -1    0    0    0  501 -0.00000000000E+00 -0.00000000000E+00 -0.11658191624E+04  0.11658191624E+04  0.00000000000E+00 0.  1.
         24    2    1    2    0    0 -0.79670357468E+03 -0.17030048090E+02 -0.12933117369E+02  0.80101172224E+03  0.80161743980E+02 0.  0.
        254    2    1    2    0    0  0.79670357468E+03  0.17030048090E+02 -0.28368400283E+03  0.12340094823E+04  0.89848549263E+03 0.  0.
         23    2    4    4    0    0  0.81323703860E+03  0.31365035634E+03 -0.12749608581E+03  0.88633527729E+03  0.97999718849E+02 0.  0.
         23    2    4    4    0    0 -0.16533463920E+02 -0.29662030825E+03 -0.15618791702E+03  0.34767420500E+03  0.90695781055E+02 0.  0.
          2    1    3    3  502    0 -0.60534892679E+03 -0.36287573207E+02  0.15303833680E+02  0.60662864955E+03  0.00000000000E+00 0. -1.
         -1    1    3    3    0  502 -0.19135464789E+03  0.19257525117E+02 -0.28236951049E+02  0.19438307269E+03  0.00000000000E+00 0.  1.
         13    1    5    5    0    0  0.23113928766E+02  0.29374779307E+02 -0.38932988688E+01  0.37580435581E+02  0.00000000000E+00 0.  1.
        -13    1    5    5    0    0  0.79012310983E+03  0.28427557703E+03 -0.12360278694E+03  0.84875484171E+03  0.00000000000E+00 0. -1.
          1    1    6    6  503    0 -0.52107892595E+02 -0.12869302361E+03 -0.74661934242E+02  0.15764368437E+03  0.00000000000E+00 0. -1.
         -1    1    6    6    0  503  0.35574428675E+02 -0.16792728464E+03 -0.81525982782E+02  0.19003052063E+03  0.00000000000E+00 0.  1.
<mgrwt>
<rscale>  0 0.20132883E+04</rscale>
<asrwt>0</asrwt>
<pdfrwt beam="1">  1        2 0.13372339E+00 0.20132883E+04</pdfrwt>
<pdfrwt beam="2">  1       -1 0.17935679E+00 0.20132883E+04</pdfrwt>
<totfact> 0.68554564E+00</totfact>
</mgrwt>
</event>
<event>
12    7  0.1711607E-007  0.1520617E+04  0.7818608E-02  0.8870857E-01
          2   -1    0    0  501    0  0.00000000000E+00  0.00000000000E+00  0.72547263190E+03  0.72547263190E+03  0.00000000000E+00 0. -1.
         -1   -1    0    0    0  501 -0.00000000000E+00 -0.00000000000E+00 -0.79681727190E+03  0.79681727190E+03  0.00000000000E+00 0.  1.
         24    2    1    2    0    0 -0.44578597105E+03  0.16579847872E+03 -0.16673261287E+03  0.51068839036E+03  0.82392962868E+02 0.  0.
        254    2    1    2    0    0  0.44578597105E+03 -0.16579847872E+03  0.95387972865E+02  0.10116015134E+04  0.88770743440E+03 0.  0.
         23    2    4    4    0    0  0.17023095046E+03 -0.74886184859E+02  0.47890619946E+03  0.52170814184E+03  0.90783920354E+02 0.  0.
         23    2    4    4    0    0  0.27555502058E+03 -0.90912293858E+02 -0.38351822660E+03  0.48989337160E+03  0.93347045254E+02 0.  0.
          2    1    3    3  502    0 -0.12944649415E+03  0.44047423954E+02 -0.95825466560E+01  0.13707076860E+03  0.00000000000E+00 0. -1.
         -1    1    3    3    0  502 -0.31633947690E+03  0.12175105476E+03 -0.15715006621E+03  0.37361762176E+03  0.00000000000E+00 0.  1.
         13    1    5    5    0    0  0.16474513845E+03 -0.45949446774E+02  0.35097147566E+03  0.39042705981E+03  0.00000000000E+00 0.  1.
        -13    1    5    5    0    0  0.54858120144E+01 -0.28936738085E+02  0.12793472380E+03  0.13128108203E+03  0.00000000000E+00 0. -1.
          3    1    6    6  503    0  0.74893867246E+02 -0.82965157576E+01 -0.44919525603E+02  0.87725066573E+02  0.00000000000E+00 0. -1.
         -3    1    6    6    0  503  0.20066115334E+03 -0.82615778101E+02 -0.33859870100E+03  0.40216830503E+03  0.00000000000E+00 0.  1.
<mgrwt>
<rscale>  0 0.15206171E+04</rscale>
<asrwt>0</asrwt>
<pdfrwt beam="1">  1        2 0.11161117E+00 0.15206171E+04</pdfrwt>
<pdfrwt beam="2">  1       -1 0.12258727E+00 0.15206171E+04</pdfrwt>
<totfact> 0.25339395E+01</totfact>
</mgrwt>
</event>
<event>
12    7  0.1711607E-007  0.2359620E+04  0.7818608E-02  0.8454778E-01
          2   -1    0    0  501    0  0.00000000000E+00  0.00000000000E+00  0.25001071423E+04  0.25001071423E+04  0.00000000000E+00 0. -1.
         -1   -1    0    0    0  501 -0.00000000000E+00 -0.00000000000E+00 -0.55675686221E+03  0.55675686221E+03  0.00000000000E+00 0.  1.
         24    2    1    2    0    0 -0.11949562466E+03 -0.99506992650E+03  0.92115268619E+03  0.13635777712E+04  0.79866788485E+02 0.  0.
        254    2    1    2    0    0  0.11949562466E+03  0.99506992650E+03  0.10221975939E+04  0.16932862333E+04  0.90437104332E+03 0.  0.
         23    2    4    4    0    0  0.32451047679E+02  0.87871139024E+03  0.11699730944E+04  0.14666936144E+04  0.95740999250E+02 0.  0.
         23    2    4    4    0    0  0.87044576986E+02  0.11635853626E+03 -0.14777550050E+03  0.22659261895E+03  0.91599940347E+02 0.  0.
          2    1    3    3  502    0 -0.23193666471E+02 -0.27500938426E+03  0.20823912951E+03  0.34573348500E+03  0.00000000000E+00 0. -1.
         -1    1    3    3    0  502 -0.96301958194E+02 -0.72006054224E+03  0.71291355668E+03  0.10178442862E+04  0.00000000000E+00 0.  1.
         13    1    5    5    0    0  0.85418446832E+01  0.16183896073E+03  0.28158200325E+03  0.32488957643E+03  0.00000000000E+00 0.  1.
        -13    1    5    5    0    0  0.23909202995E+02  0.71687242951E+03  0.88839109116E+03  0.11418040379E+04  0.00000000000E+00 0. -1.
          4    1    6    6  503    0  0.65099397843E+02  0.14731956001E+02 -0.70245893461E+02  0.96899162407E+02  0.00000000000E+00 0. -1.
         -4    1    6    6    0  503  0.21945179143E+02  0.10162658026E+03 -0.77529607042E+02  0.12969345654E+03  0.00000000000E+00 0.  1.
<mgrwt>
<rscale>  0 0.23596201E+04</rscale>
<asrwt>0</asrwt>
<pdfrwt beam="1">  1        2 0.38463186E+00 0.23596201E+04</pdfrwt>
<pdfrwt beam="2">  1       -1 0.85654903E-01 0.23596201E+04</pdfrwt>
<totfact> 0.48097568E+00</totfact>
</mgrwt>
</event>
<event>
12    7  0.1711607E-007  0.1495384E+04  0.7818608E-02  0.8887528E-01
         -3   -1    0    0    0  501 -0.00000000000E+00  0.00000000000E+00  0.15757931737E+04  0.15757931737E+04  0.00000000000E+00 0.  1.
          4   -1    0    0  501    0  0.00000000000E+00 -0.00000000000E+00 -0.35476936261E+03  0.35476936261E+03  0.00000000000E+00 0. -1.
         24    2    1    2    0    0  0.44170639968E+03  0.15136267399E+03  0.50321072898E+03  0.69222937518E+03  0.89136229984E+02 0.  0.
        254    2    1    2    0    0 -0.44170639968E+03 -0.15136267399E+03  0.71781308207E+03  0.12383331611E+04  0.89453797822E+03 0.  0.
         23    2    4    4    0    0 -0.47267585713E+03 -0.35103322948E+03  0.13071732712E+03  0.61080608445E+03  0.96696737708E+02 0.  0.
         23    2    4    4    0    0  0.30969457449E+02  0.19967055549E+03  0.58709575495E+03  0.62752707664E+03  0.91002024230E+02 0.  0.
          2    1    3    3  502    0  0.21204820287E+03  0.31577985436E+02  0.19692482005E+03  0.29110306466E+03  0.00000000000E+00 0. -1.
         -1    1    3    3    0  502  0.22965819681E+03  0.11978468855E+03  0.30628590894E+03  0.40112631051E+03  0.00000000000E+00 0.  1.
         13    1    5    5    0    0 -0.57440777417E+02 -0.73673621356E+02  0.46689926466E+02  0.10443751542E+03  0.00000000000E+00 0. -1.
        -13    1    5    5    0    0 -0.41523507971E+03 -0.27735960812E+03  0.84027400653E+02  0.50636856903E+03  0.00000000000E+00 0.  1.
          3    1    6    6  503    0  0.38427473539E+02  0.23149615488E+02  0.11288454637E+03  0.12147220352E+03  0.00000000000E+00 0. -1.
         -3    1    6    6    0  503 -0.74580160899E+01  0.17652094000E+03  0.47421120859E+03  0.50605487312E+03  0.00000000000E+00 0.  1.
<mgrwt>
<rscale>  0 0.14953837E+04</rscale>
<asrwt>0</asrwt>
<pdfrwt beam="1">  1        4 0.54579903E-01 0.14953837E+04</pdfrwt>
<pdfrwt beam="2">  1       -3 0.24242972E+00 0.14953837E+04</pdfrwt>
<totfact> 0.57617886E-01</totfact>
</mgrwt>
</event>
<event>
12    7  0.1711607E-007  0.1870176E+04  0.7818608E-02  0.8669846E-01
         -3   -1    0    0    0  501 -0.00000000000E+00  0.00000000000E+00  0.12559555068E+04  0.12559555068E+04  0.00000000000E+00 0.  1.
          4   -1    0    0  501    0  0.00000000000E+00 -0.00000000000E+00 -0.69619448186E+03  0.69619448186E+03  0.00000000000E+00 0. -1.
         24    2    1    2    0    0 -0.50145843584E+02  0.22192404814E+02 -0.53240293146E+03  0.54310095302E+03  0.92188151531E+02 0.  0.
        254    2    1    2    0    0  0.50145843584E+02 -0.22192404814E+02  0.10921639564E+04  0.14090490356E+04  0.88858875117E+03 0.  0.
         23    2    4    4    0    0  0.14357192065E+03 -0.41904636715E+03  0.41442170317E+03  0.61291399410E+03  0.87780760308E+02 0.  0.
         23    2    4    4    0    0 -0.93426077065E+02  0.39685396234E+03  0.67774225320E+03  0.79613504152E+03  0.90966715143E+02 0.  0.
          2    1    3    3  502    0 -0.76501980070E+02  0.19838625717E+02 -0.43735439413E+03  0.44443783602E+03  0.00000000000E+00 0. -1.
         -1    1    3    3    0  502  0.26356136487E+02  0.23537790970E+01 -0.95048537330E+02  0.98663116995E+02  0.00000000000E+00 0.  1.
         13    1    5    5    0    0  0.35448256158E+02 -0.35977380994E+02  0.71443505691E+02  0.87493572983E+02  0.00000000000E+00 0.  1.
        -13    1    5    5    0    0  0.10812366449E+03 -0.38306898616E+03  0.34297819748E+03  0.52542042112E+03  0.00000000000E+00 0. -1.
          4    1    6    6  503    0 -0.10142299329E+01  0.14403502718E+03  0.18279276962E+03  0.23272368669E+03  0.00000000000E+00 0. -1.
         -4    1    6    6    0  503 -0.92411847132E+02  0.25281893515E+03  0.49494948357E+03  0.56341135483E+03  0.00000000000E+00 0.  1.
<mgrwt>
<rscale>  0 0.18701757E+04</rscale>
<asrwt>0</asrwt>
<pdfrwt beam="1">  1        4 0.10710684E+00 0.18701757E+04</pdfrwt>
<pdfrwt beam="2">  1       -3 0.19322392E+00 0.18701757E+04</pdfrwt>
<totfact> 0.24321187E-01</totfact>
</mgrwt>
</event>
<event>
12    7  0.1711607E-007  0.2922693E+04  0.7818608E-02  0.8266158E-01
          2   -1    0    0  501    0  0.00000000000E+00  0.00000000000E+00  0.13053952246E+04  0.13053952246E+04  0.00000000000E+00 0. -1.
         -1   -1    0    0    0  501 -0.00000000000E+00 -0.00000000000E+00 -0.16359284864E+04  0.16359284864E+04  0.00000000000E+00 0.  1.
         24    2    1    2    0    0  0.34437047785E+03 -0.12749926382E+04 -0.23107844904E+03  0.13431663633E+04  0.80631113205E+02 0.  0.
        254    2    1    2    0    0 -0.34437047785E+03  0.12749926382E+04 -0.99454812785E+02  0.15981573477E+04  0.89443747387E+03 0.  0.
         23    2    4    4    0    0 -0.24041223585E+03  0.23041037932E+03 -0.37518390312E+03  0.50894598362E+03  0.85884032493E+02 0.  0.
         23    2    4    4    0    0 -0.10395824200E+03  0.10445822589E+04  0.27572909033E+03  0.10892113641E+04  0.91626702850E+02 0.  0.
          4    1    3    3  502    0  0.13447683864E+03 -0.51762444749E+03 -0.13349289381E+03  0.55121632910E+03  0.00000000000E+00 0. -1.
         -3    1    3    3    0  502  0.20989363921E+03 -0.75736819075E+03 -0.97585555225E+02  0.79195003424E+03  0.00000000000E+00 0.  1.
         13    1    5    5    0    0 -0.17683591830E+03  0.14090297964E+03 -0.30091399639E+03  0.37639583539E+03  0.00000000000E+00 0.  1.
        -13    1    5    5    0    0 -0.63576317549E+02  0.89507399682E+02 -0.74269906727E+02  0.13255014823E+03  0.00000000000E+00 0. -1.
          4    1    6    6  503    0  0.14875174562E+02  0.54814176197E+02  0.12233283421E+02  0.58099207857E+02  0.00000000000E+00 0. -1.
         -4    1    6    6    0  503 -0.11883341656E+03  0.98976808272E+03  0.26349580691E+03  0.10311121562E+04  0.00000000000E+00 0.  1.
<mgrwt>
<rscale>  0 0.29226928E+04</rscale>
<asrwt>0</asrwt>
<pdfrwt beam="1">  1        2 0.20083004E+00 0.29226928E+04</pdfrwt>
<pdfrwt beam="2">  1       -1 0.25168130E+00 0.29226928E+04</pdfrwt>
<totfact> 0.10947452E+00</totfact>
</mgrwt>
</event>
<event>
12    7  0.1711607E-007  0.1322639E+04  0.7818608E-02  0.9011803E-01
         -1   -1    0    0    0  501 -0.00000000000E+00  0.00000000000E+00  0.57691868462E+03  0.57691868462E+03  0.00000000000E+00 0.  1.
          2   -1    0    0  501    0  0.00000000000E+00 -0.00000000000E+00 -0.75806724080E+03  0.75806724080E+03  0.00000000000E+00 0. -1.
         24    2    1    2    0    0  0.23054326607E+03  0.86634419250E+02 -0.28870159386E+03  0.38903978139E+03  0.85718265708E+02 0.  0.
        254    2    1    2    0    0 -0.23054326607E+03 -0.86634419250E+02  0.10755303768E+03  0.94594614404E+03  0.90696787781E+03 0.  0.
         23    2    4    4    0    0 -0.40350078724E+03  0.23028976288E+03 -0.14538975198E+03  0.49558437848E+03  0.92840917809E+02 0.  0.
         23    2    4    4    0    0  0.17295752117E+03 -0.31692418213E+03  0.25294278966E+03  0.45036176556E+03  0.92143495065E+02 0.  0.
          2    1    3    3  502    0  0.21095871580E+03  0.46362882334E+02 -0.23901366424E+03  0.32215000904E+03  0.00000000000E+00 0. -1.
         -1    1    3    3    0  502  0.19584550267E+02  0.40271536916E+02 -0.49687929621E+02  0.66889772348E+02  0.00000000000E+00 0.  1.
         13    1    5    5    0    0 -0.38357553664E+03  0.23621999347E+03 -0.14900909145E+03  0.47448265190E+03  0.00000000000E+00 0.  1.
        -13    1    5    5    0    0 -0.19925250600E+02 -0.59302305825E+01  0.36193394741E+01  0.21101726575E+02  0.00000000000E+00 0. -1.
          4    1    6    6  503    0  0.13635482363E+03 -0.26310846351E+03  0.15965189647E+03  0.33661168955E+03  0.00000000000E+00 0.  1.
         -4    1    6    6    0  503  0.36602697543E+02 -0.53815718625E+02  0.93290893193E+02  0.11375007601E+03  0.00000000000E+00 0. -1.
<mgrwt>
<rscale>  0 0.13226385E+04</rscale>
<asrwt>0</asrwt>
<pdfrwt beam="1">  1        2 0.11662573E+00 0.13226385E+04</pdfrwt>
<pdfrwt beam="2">  1       -1 0.88756721E-01 0.13226385E+04</pdfrwt>
<totfact> 0.51500415E+01</totfact>
</mgrwt>
</event>
<event>
12    7  0.1825891E-007  0.2344236E+04  0.7818608E-02  0.8460681E-01
          2   -1    0    0  501    0  0.00000000000E+00  0.00000000000E+00  0.13833226537E+04  0.13833226537E+04  0.00000000000E+00 0. -1.
         -1   -1    0    0    0  501 -0.00000000000E+00 -0.00000000000E+00 -0.99315988879E+03  0.99315988879E+03  0.00000000000E+00 0.  1.
         24    2    1    2    0    0  0.51474933988E+02  0.87518312728E+03 -0.31844402557E+03  0.93637300048E+03  0.82417373752E+02 0.  0.
        254    2    1    2    0    0 -0.51474933988E+02 -0.87518312728E+03  0.70860679044E+03  0.14401095420E+04  0.89621243815E+03 0.  0.
         23    2    4    4    0    0 -0.27439929722E+03 -0.75934334503E+03  0.81602767989E+03  0.11517529055E+04  0.93468128504E+02 0.  0.
         23    2    4    4    0    0  0.22292436323E+03 -0.11583978225E+03 -0.10742088944E+03  0.28835663646E+03  0.92174700590E+02 0.  0.
          2    1    3    3  502    0  0.16859357201E+02  0.15239265470E+03 -0.88837813478E+02  0.17720021511E+03  0.00000000000E+00 0. -1.
         -1    1    3    3    0  502  0.34615576787E+02  0.72279047258E+03 -0.22960621209E+03  0.75917278537E+03  0.00000000000E+00 0.  1.
         13    1    5    5    0    0 -0.10562308169E+03 -0.38950997666E+03  0.35970502436E+03  0.54061258018E+03  0.00000000000E+00 0.  1.
        -13    1    5    5    0    0 -0.16877621554E+03 -0.36983336837E+03  0.45632265553E+03  0.61114032532E+03  0.00000000000E+00 0. -1.
          4    1    6    6  503    0  0.84212738891E+02 -0.95146335604E+01 -0.69296271547E+02  0.10947276782E+03  0.00000000000E+00 0.  1.
         -4    1    6    6    0  503  0.13871162434E+03 -0.10632514869E+03 -0.38124617897E+02  0.17888386865E+03  0.00000000000E+00 0. -1.
<mgrwt>
<rscale>  0 0.23442360E+04</rscale>
<asrwt>0</asrwt>
<pdfrwt beam="1">  1        2 0.21281887E+00 0.23442360E+04</pdfrwt>
<pdfrwt beam="2">  1       -1 0.15279383E+00 0.23442360E+04</pdfrwt>
<totfact> 0.50533951E+00</totfact>
</mgrwt>
</event>
<event>
12    7  0.1711607E-007  0.1416373E+04  0.7818608E-02  0.8942052E-01
         -1   -1    0    0    0  501 -0.00000000000E+00  0.00000000000E+00  0.41204584277E+03  0.41204584277E+03  0.00000000000E+00 0.  1.
          2   -1    0    0  501    0  0.00000000000E+00 -0.00000000000E+00 -0.12171655550E+04  0.12171655550E+04  0.00000000000E+00 0. -1.
         24    2    1    2    0    0 -0.23778259366E+03 -0.21325970254E+03  0.21611034966E+02  0.32973257611E+03  0.78970072456E+02 0.  0.
        254    2    1    2    0    0  0.23778259366E+03  0.21325970254E+03 -0.82673074724E+03  0.12994788217E+04  0.95033742273E+03 0.  0.
         23    2    4    4    0    0  0.40785512206E+03 -0.25050552024E+03 -0.51117601346E+03  0.70615127596E+03  0.90828913538E+02 0.  0.
         23    2    4    4    0    0 -0.17007252841E+03  0.46376522278E+03 -0.31555473377E+03  0.59332754574E+03  0.91977930773E+02 0.  0.
          4    1    3    3  502    0  0.32498306236E+01  0.34110286176E+01  0.17347559574E+01  0.50205471359E+01  0.00000000000E+00 0. -1.
         -3    1    3    3    0  502 -0.24103242428E+03 -0.21667073115E+03  0.19876279008E+02  0.32471202897E+03  0.00000000000E+00 0.  1.
         13    1    5    5    0    0  0.13532097200E+03 -0.38685031522E+02 -0.17176287529E+03  0.22206031265E+03  0.00000000000E+00 0. -1.
        -13    1    5    5    0    0  0.27253415006E+03 -0.21182048872E+03 -0.33941313817E+03  0.48409096331E+03  0.00000000000E+00 0.  1.
          3    1    6    6  503    0 -0.12209473036E+03  0.20868429560E+03 -0.13237303296E+03  0.27564266409E+03  0.00000000000E+00 0. -1.
         -3    1    6    6    0  503 -0.47977798046E+02  0.25508092717E+03 -0.18318170081E+03  0.31768488165E+03  0.00000000000E+00 0.  1.
<mgrwt>
<rscale>  0 0.14163728E+04</rscale>
<asrwt>0</asrwt>
<pdfrwt beam="1">  1        2 0.18725624E+00 0.14163728E+04</pdfrwt>
<pdfrwt beam="2">  1       -1 0.63391669E-01 0.14163728E+04</pdfrwt>
<totfact> 0.51751879E+01</totfact>
</mgrwt>
</event>
<event>
12    7  0.1711607E-007  0.2543285E+04  0.7818608E-02  0.8387725E-01
          2   -1    0    0  501    0  0.00000000000E+00  0.00000000000E+00  0.17191425081E+04  0.17191425081E+04  0.00000000000E+00 0. -1.
         -1   -1    0    0    0  501 -0.00000000000E+00 -0.00000000000E+00 -0.94062827230E+03  0.94062827230E+03  0.00000000000E+00 0.  1.
         24    2    1    2    0    0 -0.97547206714E+03 -0.41133715086E+03  0.69047815259E+03  0.12664550146E+04  0.80026366403E+02 0.  0.
        254    2    1    2    0    0  0.97547206714E+03  0.41133715086E+03  0.88036083213E+02  0.13933157658E+04  0.90157332807E+03 0.  0.
         23    2    4    4    0    0  0.32776228371E+03  0.21149213639E+03 -0.38911558805E+03  0.55934258378E+03  0.96416527552E+02 0.  0.
         23    2    4    4    0    0  0.64770978342E+03  0.19984501447E+03  0.47715167126E+03  0.83397318204E+03  0.91496216411E+02 0.  0.
          4    1    3    3  502    0 -0.78773113062E+03 -0.36398060186E+03  0.55288826524E+03  0.10289254815E+04  0.00000000000E+00 0. -1.
         -3    1    3    3    0  502 -0.18774093652E+03 -0.47356549000E+02  0.13758988735E+03  0.23752953307E+03  0.00000000000E+00 0.  1.
         13    1    5    5    0    0  0.22467919815E+03  0.10712090734E+03 -0.19592335335E+03  0.31676740877E+03  0.00000000000E+00 0. -1.
        -13    1    5    5    0    0  0.10308308557E+03  0.10437122904E+03 -0.19319223470E+03  0.24257517501E+03  0.00000000000E+00 0.  1.
          4    1    6    6  503    0  0.45789769711E+03  0.12751399169E+03  0.28416373090E+03  0.55378619074E+03  0.00000000000E+00 0.  1.
         -4    1    6    6    0  503  0.18981208632E+03  0.72331022781E+02  0.19298794036E+03  0.28018699130E+03  0.00000000000E+00 0. -1.
<mgrwt>
<rscale>  0 0.25432845E+04</rscale>
<asrwt>0</asrwt>
<pdfrwt beam="1">  1        2 0.26448346E+00 0.25432845E+04</pdfrwt>
<pdfrwt beam="2">  1       -1 0.14471204E+00 0.25432845E+04</pdfrwt>
<totfact> 0.37188256E+00</totfact>
</mgrwt>
</event>
<event>
12    7  0.1803871E-007  0.1476410E+04  0.7818608E-02  0.8900293E-01
         -1   -1    0    0    0  501 -0.00000000000E+00  0.00000000000E+00  0.29161094261E+03  0.29161094261E+03  0.00000000000E+00 0.  1.
          2   -1    0    0  501    0  0.00000000000E+00 -0.00000000000E+00 -0.18687447485E+04  0.18687447485E+04  0.00000000000E+00 0. -1.
         24    2    1    2    0    0 -0.21405768005E+03  0.32438601274E+03 -0.89361791113E+03  0.97783875568E+03  0.81047426689E+02 0.  0.
        254    2    1    2    0    0  0.21405768005E+03 -0.32438601274E+03 -0.68351589478E+03  0.11825169354E+04  0.88323572650E+03 0.  0.
         23    2    4    4    0    0 -0.28956125933E+03  0.63250410723E+02 -0.13814490022E+03  0.34006523061E+03  0.93348863170E+02 0.  0.
         23    2    4    4    0    0  0.50361893938E+03 -0.38763642346E+03 -0.54537099456E+03  0.84245170484E+03  0.91658716860E+02 0.  0.
          2    1    3    3  502    0 -0.19879934370E+03  0.30320317886E+03 -0.76461318404E+03  0.84621904253E+03  0.00000000000E+00 0. -1.
         -1    1    3    3    0  502 -0.15258336347E+02  0.21182833873E+02 -0.12900472709E+03  0.13161971316E+03  0.00000000000E+00 0.  1.
         13    1    5    5    0    0 -0.27759871681E+03  0.72474487614E+02 -0.14719149646E+03  0.32245764925E+03  0.00000000000E+00 0. -1.
        -13    1    5    5    0    0 -0.11962542523E+02 -0.92240768913E+01  0.90465962399E+01  0.17607581368E+02  0.00000000000E+00 0.  1.
          4    1    6    6  503    0  0.40527545429E+03 -0.32431929860E+03 -0.39678206395E+03  0.65335075386E+03  0.00000000000E+00 0. -1.
         -4    1    6    6    0  503  0.98343485089E+02 -0.63317124857E+02 -0.14858893061E+03  0.18910095098E+03  0.00000000000E+00 0.  1.
<mgrwt>
<rscale>  0 0.14764097E+04</rscale>
<asrwt>0</asrwt>
<pdfrwt beam="1">  1        2 0.28749920E+00 0.14764097E+04</pdfrwt>
<pdfrwt beam="2">  1       -1 0.44863221E-01 0.14764097E+04</pdfrwt>
<totfact> 0.42923974E+01</totfact>
</mgrwt>
</event>
<event>
12    7  0.1711607E-007  0.1567701E+04  0.7818608E-02  0.8840640E-01
          2   -1    0    0  501    0  0.00000000000E+00  0.00000000000E+00  0.20992676489E+04  0.20992676489E+04  0.00000000000E+00 0. -1.
         -1   -1    0    0    0  501 -0.00000000000E+00 -0.00000000000E+00 -0.29268377400E+03  0.29268377400E+03  0.00000000000E+00 0.  1.
         24    2    1    2    0    0  0.43792964392E+03  0.92500018714E+02  0.20088757894E+03  0.49709182544E+03  0.80036473340E+02 0.  0.
        254    2    1    2    0    0 -0.43792964392E+03 -0.92500018714E+02  0.16056962959E+04  0.18948595974E+04  0.90105142622E+03 0.  0.
         23    2    4    4    0    0 -0.31602795587E+03  0.29124865679E+03  0.13240262802E+04  0.13949627186E+04  0.90420942168E+02 0.  0.
         23    2    4    4    0    0 -0.12190168804E+03 -0.38374867551E+03  0.28167001574E+03  0.49989687879E+03  0.91846742735E+02 0.  0.
          4    1    3    3  502    0  0.20020154772E+03  0.64880327648E+02  0.13049630093E+03  0.24762754528E+03  0.00000000000E+00 0. -1.
         -3    1    3    3    0  502  0.23772809620E+03  0.27619691066E+02  0.70391278013E+02  0.24946428016E+03  0.00000000000E+00 0.  1.
         13    1    5    5    0    0 -0.27480502939E+02  0.70699226407E+02  0.21567039943E+03  0.22862038371E+03  0.00000000000E+00 0. -1.
        -13    1    5    5    0    0 -0.28854745294E+03  0.22054943038E+03  0.11083558807E+04  0.11663423349E+04  0.00000000000E+00 0.  1.
          1    1    6    6  503    0 -0.15600035512E+02 -0.11846193263E+02 -0.27582446082E+01  0.19781337572E+02  0.00000000000E+00 0. -1.
         -1    1    6    6    0  503 -0.10630165253E+03 -0.37190248224E+03  0.28442826035E+03  0.48011554122E+03  0.00000000000E+00 0.  1.
<mgrwt>
<rscale>  0 0.15677010E+04</rscale>
<asrwt>0</asrwt>
<pdfrwt beam="1">  1        2 0.32296424E+00 0.15677010E+04</pdfrwt>
<pdfrwt beam="2">  1       -1 0.45028274E-01 0.15677010E+04</pdfrwt>
<totfact> 0.31516754E+01</totfact>
</mgrwt>
</event>
<event>
12    7  0.1711607E-007  0.1228503E+04  0.7818608E-02  0.9088267E-01
         -1   -1    0    0    0  501 -0.00000000000E+00  0.00000000000E+00  0.27205473463E+03  0.27205473463E+03  0.00000000000E+00 0.  1.
          2   -1    0    0  501    0  0.00000000000E+00 -0.00000000000E+00 -0.13868710635E+04  0.13868710635E+04  0.00000000000E+00 0. -1.
         24    2    1    2    0    0 -0.20670346900E+03 -0.67376579681E+01 -0.49015817570E+03  0.53798370549E+03  0.79998187713E+02 0.  0.
        254    2    1    2    0    0  0.20670346900E+03  0.67376579681E+01 -0.62465815315E+03  0.11209420926E+04  0.90749195401E+03 0.  0.
         23    2    4    4    0    0  0.30972890576E+03 -0.10421486708E+03 -0.80174617623E+03  0.87120150201E+03  0.96965934393E+02 0.  0.
         23    2    4    4    0    0 -0.10302543676E+03  0.11095252505E+03  0.17708802308E+03  0.24974059061E+03  0.89919359683E+02 0.  0.
          4    1    3    3  502    0 -0.45488922524E+02  0.12420992811E+02 -0.20010974759E+03  0.20559045263E+03  0.00000000000E+00 0. -1.
         -3    1    3    3    0  502 -0.16121454647E+03 -0.19158650779E+02 -0.29004842812E+03  0.33239325286E+03  0.00000000000E+00 0.  1.
         13    1    5    5    0    0  0.18057914888E+03 -0.10237295303E+03 -0.42616742552E+03  0.47403346411E+03  0.00000000000E+00 0.  1.
        -13    1    5    5    0    0  0.12914975688E+03 -0.18419140493E+01 -0.37557875070E+03  0.39716803790E+03  0.00000000000E+00 0. -1.
          2    1    6    6  503    0  0.15210666289E+02  0.66542292748E+01  0.76036007761E+01  0.18260829142E+02  0.00000000000E+00 0. -1.
         -2    1    6    6    0  503 -0.11823610305E+03  0.10429829577E+03  0.16948442230E+03  0.23147976147E+03  0.00000000000E+00 0.  1.
<mgrwt>
<rscale>  0 0.12285029E+04</rscale>
<asrwt>0</asrwt>
<pdfrwt beam="1">  1        2 0.21336478E+00 0.12285029E+04</pdfrwt>
<pdfrwt beam="2">  1       -1 0.41854574E-01 0.12285029E+04</pdfrwt>
<totfact> 0.92561087E+01</totfact>
</mgrwt>
</event>
<event>
12    7  0.1711607E-007  0.1078079E+04  0.7818608E-02  0.9226825E-01
         -1   -1    0    0    0  501 -0.00000000000E+00  0.00000000000E+00  0.23217703247E+03  0.23217703247E+03  0.00000000000E+00 0.  1.
          2   -1    0    0  501    0  0.00000000000E+00 -0.00000000000E+00 -0.12514732698E+04  0.12514732698E+04  0.00000000000E+00 0. -1.
         24    2    1    2    0    0  0.86976403993E+02 -0.48701802217E+02 -0.13559503666E+03  0.19018396941E+03  0.88584241611E+02 0.  0.
        254    2    1    2    0    0 -0.86976403993E+02  0.48701802217E+02 -0.88370120066E+03  0.12934663329E+04  0.93925001027E+03 0.  0.
         23    2    4    4    0    0  0.68248314828E+02  0.11345244474E+02 -0.10428036954E+04  0.10490070751E+04  0.90497234566E+02 0.  0.
         23    2    4    4    0    0 -0.15522471882E+03  0.37356557744E+02  0.15910249477E+03  0.24445925771E+03  0.94638782199E+02 0.  0.
          4    1    3    3  502    0 -0.54295802066E+01  0.14411487589E+02 -0.40513018901E+02  0.43341389182E+02  0.00000000000E+00 0. -1.
         -3    1    3    3    0  502  0.92405984199E+02 -0.63113289806E+02 -0.95082017762E+02  0.14684258023E+03  0.00000000000E+00 0.  1.
         13    1    5    5    0    0  0.82918145418E+02  0.96062657867E+01 -0.10043604612E+04  0.10078232162E+04  0.00000000000E+00 0.  1.
        -13    1    5    5    0    0 -0.14669830591E+02  0.17389786869E+01 -0.38443234274E+02  0.41183858949E+02  0.00000000000E+00 0. -1.
          3    1    6    6  503    0 -0.34326382850E+02 -0.31322923693E+02  0.36693507006E+02  0.59210130591E+02  0.00000000000E+00 0. -1.
         -3    1    6    6    0  503 -0.12089833597E+03  0.68679481437E+02  0.12240898777E+03  0.18524912711E+03  0.00000000000E+00 0.  1.
<mgrwt>
<rscale>  0 0.10780786E+04</rscale>
<asrwt>0</asrwt>
<pdfrwt beam="1">  1        2 0.19253435E+00 0.10780786E+04</pdfrwt>
<pdfrwt beam="2">  1       -1 0.35719543E-01 0.10780786E+04</pdfrwt>
<totfact> 0.14947459E+02</totfact>
</mgrwt>
</event>
<event>
12    7  0.1711607E-007  0.1792775E+04  0.7818608E-02  0.8710151E-01
         -1   -1    0    0    0  501 -0.00000000000E+00  0.00000000000E+00  0.40796135698E+03  0.40796135698E+03  0.00000000000E+00 0.  1.
          2   -1    0    0  501    0  0.00000000000E+00 -0.00000000000E+00 -0.19695748579E+04  0.19695748579E+04  0.00000000000E+00 0. -1.
         24    2    1    2    0    0 -0.31418009337E+03 -0.40289210418E+03 -0.11682303501E+04  0.12777747373E+04  0.83156176745E+02 0.  0.
        254    2    1    2    0    0  0.31418009337E+03  0.40289210418E+03 -0.39338315078E+03  0.10997614775E+04  0.89089495761E+03 0.  0.
         23    2    4    4    0    0 -0.13991478631E+03  0.49344832359E+03 -0.65278655367E+02  0.52502267161E+03  0.91214622593E+02 0.  0.
         23    2    4    4    0    0  0.45409487968E+03 -0.90556219412E+02 -0.32810449541E+03  0.57473880594E+03  0.90937046989E+02 0.  0.
          4    1    3    3  502    0 -0.26493968866E+03 -0.31128062971E+03 -0.99541248140E+03  0.10760737322E+04  0.00000000000E+00 0. -1.
         -3    1    3    3    0  502 -0.49240404706E+02 -0.91611474469E+02 -0.17281786874E+03  0.20170100512E+03  0.00000000000E+00 0.  1.
         13    1    5    5    0    0 -0.48723760098E+02  0.28904195448E+03 -0.69141322053E+02  0.30116403946E+03  0.00000000000E+00 0.  1.
        -13    1    5    5    0    0 -0.91191026211E+02  0.20440636911E+03  0.38626666862E+01  0.22385863215E+03  0.00000000000E+00 0. -1.
          4    1    6    6  503    0  0.45431045767E+03 -0.93967394456E+02 -0.33128648373E+03  0.57006894098E+03  0.00000000000E+00 0. -1.
         -4    1    6    6    0  503 -0.21557798930E+00  0.34111750441E+01  0.31819883187E+01  0.46698649565E+01  0.00000000000E+00 0.  1.
<mgrwt>
<rscale>  0 0.17927749E+04</rscale>
<asrwt>0</asrwt>
<pdfrwt beam="1">  1        2 0.30301152E+00 0.17927749E+04</pdfrwt>
<pdfrwt beam="2">  1       -1 0.62763284E-01 0.17927749E+04</pdfrwt>
<totfact> 0.19242091E+01</totfact>
</mgrwt>
</event>
<event>
12    7  0.1711607E-007  0.1556182E+04  0.7818608E-02  0.8847929E-01
         -1   -1    0    0    0  501 -0.00000000000E+00  0.00000000000E+00  0.81286153139E+03  0.81286153139E+03  0.00000000000E+00 0.  1.
          2   -1    0    0  501    0  0.00000000000E+00 -0.00000000000E+00 -0.74480776548E+03  0.74480776548E+03  0.00000000000E+00 0. -1.
         24    2    1    2    0    0 -0.21032382541E+03 -0.38099769396E+03  0.29885880393E+03  0.53403445626E+03  0.80503797675E+02 0.  0.
        254    2    1    2    0    0  0.21032382541E+03  0.38099769396E+03 -0.23080503802E+03  0.10236348406E+04  0.89730817838E+03 0.  0.
         23    2    4    4    0    0  0.42069189652E+03 -0.46533920094E+02  0.89992753119E+02  0.44190714596E+03  0.89644590000E+02 0.  0.
         23    2    4    4    0    0 -0.21036807111E+03  0.42753161406E+03 -0.32079779114E+03  0.58172769465E+03  0.91966741592E+02 0.  0.
          2    1    3    3  502    0 -0.18579697050E+03 -0.32973517049E+03  0.22313109324E+03  0.43935552992E+03  0.00000000000E+00 0. -1.
         -1    1    3    3    0  502 -0.24526854914E+02 -0.51262523473E+02  0.75727710692E+02  0.94678926332E+02  0.00000000000E+00 0.  1.
         13    1    5    5    0    0  0.32537682611E+03 -0.51098734398E+02  0.33622144614E+02  0.33107643866E+03  0.00000000000E+00 0. -1.
        -13    1    5    5    0    0  0.95315070416E+02  0.45648143041E+01  0.56370608506E+02  0.11083070730E+03  0.00000000000E+00 0.  1.
          4    1    6    6  503    0 -0.18829497975E+03  0.38241130173E+03 -0.24758959061E+03  0.49294422450E+03  0.00000000000E+00 0. -1.
         -4    1    6    6    0  503 -0.22073091361E+02  0.45120312330E+02 -0.73208200532E+02  0.88783470151E+02  0.00000000000E+00 0.  1.
<mgrwt>
<rscale>  0 0.15561820E+04</rscale>
<asrwt>0</asrwt>
<pdfrwt beam="1">  1        2 0.11458581E+00 0.15561820E+04</pdfrwt>
<pdfrwt beam="2">  1       -1 0.12505562E+00 0.15561820E+04</pdfrwt>
<totfact> 0.23245683E+01</totfact>
</mgrwt>
</event>
<event>
12    7  0.1711607E-007  0.1807793E+04  0.7818608E-02  0.8702166E-01
         -1   -1    0    0    0  501 -0.00000000000E+00  0.00000000000E+00  0.51085304194E+03  0.51085304194E+03  0.00000000000E+00 0.  1.
          2   -1    0    0  501    0  0.00000000000E+00 -0.00000000000E+00 -0.15993428217E+04  0.15993428217E+04  0.00000000000E+00 0. -1.
         24    2    1    2    0    0  0.61814549424E+03  0.20700223500E+03 -0.35019926748E+03  0.74443542248E+03  0.81183705029E+02 0.  0.
        254    2    1    2    0    0 -0.61814549424E+03 -0.20700223500E+03 -0.73829051230E+03  0.13657604412E+04  0.94618968754E+03 0.  0.
         23    2    4    4    0    0 -0.57512601494E+03  0.26749778767E+03 -0.55238693394E+03  0.84594229722E+03  0.90344042265E+02 0.  0.
         23    2    4    4    0    0 -0.43019479302E+02 -0.47450002267E+03 -0.18590357837E+03  0.51981814397E+03  0.93004382883E+02 0.  0.
          2    1    3    3  502    0  0.12124689086E+03  0.51379397776E+02 -0.10732092894E+03  0.16987769968E+03  0.00000000000E+00 0. -1.
         -1    1    3    3    0  502  0.49689860337E+03  0.15562283722E+03 -0.24287833854E+03  0.57455772280E+03  0.00000000000E+00 0.  1.
         13    1    5    5    0    0 -0.55185356168E+03  0.23494288928E+03 -0.52801351075E+03  0.79908621706E+03  0.00000000000E+00 0. -1.
        -13    1    5    5    0    0 -0.23272453258E+02  0.32554898394E+02 -0.24373423191E+02  0.46856080163E+02  0.00000000000E+00 0.  1.
          2    1    6    6  503    0 -0.62894146576E+02 -0.30662965118E+03 -0.14957797821E+03  0.34691639947E+03  0.00000000000E+00 0. -1.
         -2    1    6    6    0  503  0.19874667274E+02 -0.16787037149E+03 -0.36325600158E+02  0.17290174450E+03  0.00000000000E+00 0.  1.
<mgrwt>
<rscale>  0 0.18077933E+04</rscale>
<asrwt>0</asrwt>
<pdfrwt beam="1">  1        2 0.24605274E+00 0.18077933E+04</pdfrwt>
<pdfrwt beam="2">  1       -1 0.78592777E-01 0.18077933E+04</pdfrwt>
<totfact> 0.19433754E+01</totfact>
</mgrwt>
</event>
<event>
12    7  0.2061519E-007  0.1288723E+04  0.7818608E-02  0.9038556E-01
         -3   -1    0    0    0  501 -0.00000000000E+00  0.00000000000E+00  0.27218913493E+03  0.27218913493E+03  0.00000000000E+00 0.  1.
          2   -1    0    0  501    0  0.00000000000E+00 -0.00000000000E+00 -0.15254153938E+04  0.15254153938E+04  0.00000000000E+00 0. -1.
         24    2    1    2    0    0  0.72319147010E+02 -0.14942041114E+03 -0.72913794343E+03  0.75201164205E+03  0.79516356467E+02 0.  0.
        254    2    1    2    0    0 -0.72319147010E+02  0.14942041114E+03 -0.52408831542E+03  0.10455928867E+04  0.88940395995E+03 0.  0.
         23    2    4    4    0    0 -0.93993304131E+02 -0.34220343108E+03 -0.77695310001E+02  0.37491702020E+03  0.92672980828E+02 0.  0.
         23    2    4    4    0    0  0.21674157121E+02  0.49162384221E+03 -0.44639300542E+03  0.67067586646E+03  0.91518474893E+02 0.  0.
          2    1    3    3  502    0  0.87659636826E+02 -0.13813733146E+03 -0.61986823102E+03  0.64109496809E+03  0.00000000000E+00 0. -1.
         -1    1    3    3    0  502 -0.15340489816E+02 -0.11283079674E+02 -0.10926971240E+03  0.11091667397E+03  0.00000000000E+00 0.  1.
         13    1    5    5    0    0  0.15167673722E+02 -0.27485375486E+02  0.47602944175E+01  0.31751607750E+02  0.00000000000E+00 0.  1.
        -13    1    5    5    0    0 -0.10916097785E+03 -0.31471805559E+03 -0.82455604419E+02  0.34316541245E+03  0.00000000000E+00 0. -1.
          4    1    6    6  503    0  0.41273952812E+02  0.42499007937E+03 -0.35137024273E+03  0.55297482241E+03  0.00000000000E+00 0. -1.
         -4    1    6    6    0  503 -0.19599795692E+02  0.66633762847E+02 -0.95022762686E+02  0.11770104405E+03  0.00000000000E+00 0.  1.
<mgrwt>
<rscale>  0 0.12887226E+04</rscale>
<asrwt>0</asrwt>
<pdfrwt beam="1">  1        2 0.23467929E+00 0.12887226E+04</pdfrwt>
<pdfrwt beam="2">  1       -3 0.41875251E-01 0.12887226E+04</pdfrwt>
<totfact> 0.43872080E+01</totfact>
</mgrwt>
</event>
<event>
12    7  0.1711607E-007  0.1482899E+04  0.7818608E-02  0.8895905E-01
         -1   -1    0    0    0  501 -0.00000000000E+00  0.00000000000E+00  0.43849586140E+03  0.43849586140E+03  0.00000000000E+00 0.  1.
          2   -1    0    0  501    0  0.00000000000E+00 -0.00000000000E+00 -0.12537113857E+04  0.12537113857E+04  0.00000000000E+00 0. -1.
         24    2    1    2    0    0 -0.33394910410E+03  0.16813061334E+03  0.58853085395E+02  0.38685215657E+03  0.80006237989E+02 0.  0.
        254    2    1    2    0    0  0.33394910410E+03 -0.16813061334E+03 -0.87406860971E+03  0.13053550905E+04  0.89452002249E+03 0.  0.
         23    2    4    4    0    0  0.21327069797E+03 -0.10320549511E+03  0.13191527434E+03  0.28593918700E+03  0.90685248109E+02 0.  0.
         23    2    4    4    0    0  0.12067840613E+03 -0.64925118230E+02 -0.10059838840E+04  0.10194159035E+04  0.91796844905E+02 0.  0.
          4    1    3    3  502    0 -0.18962842160E+03  0.60549162373E+02  0.56139603882E+02  0.20682551696E+03  0.00000000000E+00 0. -1.
         -3    1    3    3    0  502 -0.14432068250E+03  0.10758145097E+03  0.27134815135E+01  0.18002663962E+03  0.00000000000E+00 0.  1.
         13    1    5    5    0    0  0.35973232110E+02 -0.46611019621E+02  0.66131732044E+02  0.88544150353E+02  0.00000000000E+00 0.  1.
        -13    1    5    5    0    0  0.17729746586E+03 -0.56594475491E+02  0.65783542296E+02  0.19739503665E+03  0.00000000000E+00 0. -1.
          3    1    6    6  503    0  0.10810000275E+03 -0.39572087157E+02 -0.51912964903E+03  0.53173974196E+03  0.00000000000E+00 0. -1.
         -3    1    6    6    0  503  0.12578403383E+02 -0.25353031072E+02 -0.48685423502E+03  0.48767616158E+03  0.00000000000E+00 0.  1.
<mgrwt>
<rscale>  0 0.14828989E+04</rscale>
<asrwt>0</asrwt>
<pdfrwt beam="1">  1        2 0.19287867E+00 0.14828989E+04</pdfrwt>
<pdfrwt beam="2">  1       -1 0.67460903E-01 0.14828989E+04</pdfrwt>
<totfact> 0.43197444E+01</totfact>
</mgrwt>
</event>
<event>
12    7  0.1711607E-007  0.1785044E+04  0.7818608E-02  0.8714294E-01
          2   -1    0    0  501    0  0.00000000000E+00  0.00000000000E+00  0.28958427377E+03  0.28958427377E+03  0.00000000000E+00 0. -1.
         -1   -1    0    0    0  501 -0.00000000000E+00 -0.00000000000E+00 -0.27508240138E+04  0.27508240138E+04  0.00000000000E+00 0.  1.
         24    2    1    2    0    0 -0.55442557169E+03  0.35793158625E+03 -0.98179473768E+03  0.11868499227E+04  0.95859778589E+02 0.  0.
        254    2    1    2    0    0  0.55442557169E+03 -0.35793158625E+03 -0.14794450023E+04  0.18535583648E+04  0.90078763420E+03 0.  0.
         23    2    4    4    0    0  0.73717750557E+03 -0.51086824042E+02 -0.10527202178E+04  0.12894428708E+04  0.91665269924E+02 0.  0.
         23    2    4    4    0    0 -0.18275193389E+03 -0.30684476221E+03 -0.42672478456E+03  0.56411549408E+03  0.92629754764E+02 0.  0.
          2    1    3    3  502    0 -0.13493285117E+03  0.13249271685E+03 -0.24394163745E+03  0.30865630857E+03  0.00000000000E+00 0. -1.
         -3    1    3    3    0  502 -0.41949272052E+03  0.22543886940E+03 -0.73785310024E+03  0.87819361415E+03  0.00000000000E+00 0.  1.
         13    1    5    5    0    0  0.98044406288E+02  0.24365128027E+02 -0.14528778818E+03  0.17696018327E+03  0.00000000000E+00 0.  1.
        -13    1    5    5    0    0  0.63913309929E+03 -0.75451952069E+02 -0.90743242960E+03  0.11124826875E+04  0.00000000000E+00 0. -1.
          3    1    6    6  503    0 -0.17871264560E+03 -0.25089564628E+03 -0.39037878024E+03  0.49727500147E+03  0.00000000000E+00 0. -1.
         -3    1    6    6    0  503 -0.40392882854E+01 -0.55949115925E+02 -0.36346004322E+02  0.66840492613E+02  0.00000000000E+00 0.  1.
<mgrwt>
<rscale>  0 0.17850438E+04</rscale>
<asrwt>0</asrwt>
<pdfrwt beam="1">  1        2 0.44551427E-01 0.17850438E+04</pdfrwt>
<pdfrwt beam="2">  1       -1 0.42320369E+00 0.17850438E+04</pdfrwt>
<totfact> 0.61400986E-01</totfact>
</mgrwt>
</event>
<event>
12    7  0.1711607E-007  0.1775597E+04  0.7818608E-02  0.8719386E-01
         -1   -1    0    0    0  501 -0.00000000000E+00  0.00000000000E+00  0.42474802063E+03  0.42474802063E+03  0.00000000000E+00 0.  1.
          2   -1    0    0  501    0  0.00000000000E+00 -0.00000000000E+00 -0.18556550284E+04  0.18556550284E+04  0.00000000000E+00 0. -1.
         24    2    1    2    0    0 -0.15988815632E+03  0.42558169590E+03  0.90821143646E+02  0.47021077272E+03  0.78521896463E+02 0.  0.
        254    2    1    2    0    0  0.15988815632E+03 -0.42558169590E+03 -0.15217281514E+04  0.18101922763E+04  0.86859398340E+03 0.  0.
         23    2    4    4    0    0 -0.16770128076E+03 -0.33584760407E+03 -0.13767076344E+04  0.14298184777E+04  0.90219930741E+02 0.  0.
         23    2    4    4    0    0  0.32758943708E+03 -0.89734091836E+02 -0.14502051704E+03  0.38037379862E+03  0.91028730565E+02 0.  0.
          4    1    3    3  502    0 -0.37762237883E+02  0.13469165600E+03 -0.65542238786E+01  0.14003851848E+03  0.00000000000E+00 0. -1.
         -3    1    3    3    0  502 -0.12212591844E+03  0.29089003990E+03  0.97375367525E+02  0.33017225424E+03  0.00000000000E+00 0.  1.
         13    1    5    5    0    0 -0.76908163804E+02 -0.20507351717E+03 -0.65107934380E+03  0.68693109190E+03  0.00000000000E+00 0. -1.
        -13    1    5    5    0    0 -0.90793116953E+02 -0.13077408689E+03 -0.72562829056E+03  0.74288738578E+03  0.00000000000E+00 0.  1.
          3    1    6    6  503    0  0.27709328216E+03 -0.44659342965E+02 -0.95373548887E+02  0.29643086506E+03  0.00000000000E+00 0. -1.
         -3    1    6    6    0  503  0.50496154915E+02 -0.45074748871E+02 -0.49646968152E+02  0.83942933554E+02  0.00000000000E+00 0.  1.
<mgrwt>
<rscale>  0 0.17755966E+04</rscale>
<asrwt>0</asrwt>
<pdfrwt beam="1">  1        2 0.28548538E+00 0.17755966E+04</pdfrwt>
<pdfrwt beam="2">  1       -1 0.65345851E-01 0.17755966E+04</pdfrwt>
<totfact> 0.20553612E+01</totfact>
</mgrwt>
</event>
<event>
12    7  0.1711607E-007  0.1420975E+04  0.7818608E-02  0.8938774E-01
          2   -1    0    0  501    0  0.00000000000E+00  0.00000000000E+00  0.11369007965E+04  0.11369007965E+04  0.00000000000E+00 0. -1.
         -1   -1    0    0    0  501 -0.00000000000E+00 -0.00000000000E+00 -0.44400749459E+03  0.44400749459E+03  0.00000000000E+00 0.  1.
         24    2    1    2    0    0  0.32221827815E+03  0.26164931684E+03  0.18844696308E+03  0.46280377300E+03  0.79938042458E+02 0.  0.
        254    2    1    2    0    0 -0.32221827815E+03 -0.26164931684E+03  0.50444633884E+03  0.11181045181E+04  0.90741755595E+03 0.  0.
         23    2    4    4    0    0 -0.39515668680E+03 -0.47082183397E+02  0.69672107813E+03  0.80746085131E+03  0.90593744636E+02 0.  0.
         23    2    4    4    0    0  0.72938408642E+02 -0.21456713344E+03 -0.19227473930E+03  0.31064366679E+03  0.90392732769E+02 0.  0.
          2    1    3    3  502    0  0.22395552081E+03  0.19807796525E+03  0.17113398331E+03  0.34449643810E+03  0.00000000000E+00 0. -1.
         -1    1    3    3    0  502  0.98262757341E+02  0.63571351592E+02  0.17312979771E+02  0.11830733490E+03  0.00000000000E+00 0.  1.
         13    1    5    5    0    0 -0.10919209952E+03  0.22616070781E+02  0.15501955086E+03  0.19095932134E+03  0.00000000000E+00 0.  1.
        -13    1    5    5    0    0 -0.28596458727E+03 -0.69698254177E+02  0.54170152727E+03  0.61650152997E+03  0.00000000000E+00 0. -1.
          3    1    6    6  503    0  0.74493629636E+02 -0.18684439495E+03 -0.12241651394E+03  0.23546959818E+03  0.00000000000E+00 0. -1.
         -3    1    6    6    0  503 -0.15552209940E+01 -0.27722738489E+02 -0.69858225358E+02  0.75174068613E+02  0.00000000000E+00 0.  1.
<mgrwt>
<rscale>  0 0.14209750E+04</rscale>
<asrwt>0</asrwt>
<pdfrwt beam="1">  1        2 0.17490781E+00 0.14209750E+04</pdfrwt>
<pdfrwt beam="2">  1       -1 0.68308846E-01 0.14209750E+04</pdfrwt>
<totfact> 0.49722133E+01</totfact>
</mgrwt>
</event>
<event>
12    7  0.1711607E-007  0.3012504E+04  0.7818608E-02  0.8240169E-01
          2   -1    0    0  501    0  0.00000000000E+00  0.00000000000E+00  0.23865648877E+04  0.23865648877E+04  0.00000000000E+00 0. -1.
         -1   -1    0    0    0  501 -0.00000000000E+00 -0.00000000000E+00 -0.95065318601E+03  0.95065318601E+03  0.00000000000E+00 0.  1.
         24    2    1    2    0    0 -0.87592562806E+03  0.90704807991E+03  0.67945562488E+02  0.12669783763E+04  0.10312944018E+03 0.  0.
        254    2    1    2    0    0  0.87592562806E+03 -0.90704807991E+03  0.13679661392E+04  0.20702396974E+04  0.90806339068E+03 0.  0.
         23    2    4    4    0    0  0.11089093528E+03 -0.13998106293E+03 -0.11760478647E+03  0.22938240758E+03  0.83029546564E+02 0.  0.
         23    2    4    4    0    0  0.76503469278E+03 -0.76706701698E+03  0.14855709257E+04  0.18408572898E+04  0.90358710318E+02 0.  0.
          2    1    3    3  502    0 -0.11175854277E+03  0.71238611538E+02  0.12785190668E+02  0.13314793561E+03  0.00000000000E+00 0. -1.
         -1    1    3    3    0  502 -0.76416708529E+03  0.83580946837E+03  0.55160371820E+02  0.11338304407E+04  0.00000000000E+00 0.  1.
         13    1    5    5    0    0  0.77868091191E+02 -0.12767813378E+03 -0.12312375082E+03  0.19371268282E+03  0.00000000000E+00 0. -1.
        -13    1    5    5    0    0  0.33022844086E+02 -0.12302929152E+02  0.55189643449E+01  0.35669724763E+02  0.00000000000E+00 0.  1.
          3    1    6    6  503    0  0.62147883111E+03 -0.62333426117E+03  0.12636543230E+04  0.15400012294E+04  0.00000000000E+00 0. -1.
         -3    1    6    6    0  503  0.14355586167E+03 -0.14373275581E+03  0.22191660269E+03  0.30085606037E+03  0.00000000000E+00 0.  1.
<mgrwt>
<rscale>  0 0.30125043E+04</rscale>
<asrwt>0</asrwt>
<pdfrwt beam="1">  1        2 0.36716383E+00 0.30125043E+04</pdfrwt>
<pdfrwt beam="2">  1       -1 0.14625434E+00 0.30125043E+04</pdfrwt>
<totfact> 0.14686547E+00</totfact>
</mgrwt>
</event>
<event>
12    7  0.1711607E-007  0.1215926E+04  0.7818608E-02  0.9099029E-01
         -1   -1    0    0    0  501 -0.00000000000E+00  0.00000000000E+00  0.31227718749E+03  0.31227718749E+03  0.00000000000E+00 0.  1.
          2   -1    0    0  501    0  0.00000000000E+00 -0.00000000000E+00 -0.11836250936E+04  0.11836250936E+04  0.00000000000E+00 0. -1.
         24    2    1    2    0    0  0.92474100032E+02  0.81594575108E+02 -0.47526282173E+03  0.49814558374E+03  0.84054381330E+02 0.  0.
        254    2    1    2    0    0 -0.92474100032E+02 -0.81594575108E+02 -0.39608508436E+03  0.99775669733E+03  0.90742817851E+03 0.  0.
         23    2    4    4    0    0 -0.44675218089E+03  0.10106120372E+02 -0.41734536078E+03  0.61831791773E+03  0.91925254555E+02 0.  0.
         23    2    4    4    0    0  0.35427808086E+03 -0.91700695480E+02  0.21260276416E+02  0.37943877960E+03  0.97978630232E+02 0.  0.
          4    1    3    3  502    0  0.10834077275E+03  0.68354056202E+02 -0.39430880724E+03  0.41459550830E+03  0.00000000000E+00 0. -1.
         -3    1    3    3    0  502 -0.15866672715E+02  0.13240518906E+02 -0.80954014493E+02  0.83550075442E+02  0.00000000000E+00 0.  1.
         13    1    5    5    0    0 -0.35305894638E+03 -0.23147503271E+02 -0.35358930114E+03  0.50021177556E+03  0.00000000000E+00 0.  1.
        -13    1    5    5    0    0 -0.93693234509E+02  0.33253623642E+02 -0.63756059639E+02  0.11810614217E+03  0.00000000000E+00 0. -1.
          2    1    6    6  503    0  0.23816602678E+03 -0.38168814312E+02 -0.27138409783E+02  0.24272702360E+03  0.00000000000E+00 0. -1.
         -2    1    6    6    0  503  0.11611205408E+03 -0.53531881167E+02  0.48398686199E+02  0.13671175600E+03  0.00000000000E+00 0.  1.
<mgrwt>
<rscale>  0 0.12159262E+04</rscale>
<asrwt>0</asrwt>
<pdfrwt beam="1">  1        2 0.18209616E+00 0.12159262E+04</pdfrwt>
<pdfrwt beam="2">  1       -1 0.48042645E-01 0.12159262E+04</pdfrwt>
<totfact> 0.94246659E+01</totfact>
</mgrwt>
</event>
<event>
12    7  0.1711607E-007  0.2495958E+04  0.7818608E-02  0.8404427E-01
         -1   -1    0    0    0  501 -0.00000000000E+00  0.00000000000E+00  0.13316719812E+04  0.13316719812E+04  0.00000000000E+00 0.  1.
          2   -1    0    0  501    0  0.00000000000E+00 -0.00000000000E+00 -0.11695461688E+04  0.11695461688E+04  0.00000000000E+00 0. -1.
         24    2    1    2    0    0  0.75300361859E+03 -0.48604243537E+03 -0.53576495825E+03  0.10472012314E+04  0.79590388474E+02 0.  0.
        254    2    1    2    0    0 -0.75300361859E+03  0.48604243537E+03  0.69789077062E+03  0.14540169186E+04  0.90766842701E+03 0.  0.
         23    2    4    4    0    0 -0.26764918919E+03  0.60657567551E+03  0.66572483514E+03  0.94476589624E+03  0.99110564371E+02 0.  0.
         23    2    4    4    0    0 -0.48535442940E+03 -0.12053324014E+03  0.32165935478E+02  0.50925102241E+03  0.90580198170E+02 0.  0.
          4    1    3    3  502    0  0.67491391336E+02 -0.54054426167E+02 -0.78614669861E+02  0.11686417419E+03  0.00000000000E+00 0. -1.
         -3    1    3    3    0  502  0.68551222725E+03 -0.43198800921E+03 -0.45715028838E+03  0.93033705719E+03  0.00000000000E+00 0.  1.
         13    1    5    5    0    0 -0.72622850089E+02  0.28550104911E+03  0.28411816214E+03  0.40927748223E+03  0.00000000000E+00 0.  1.
        -13    1    5    5    0    0 -0.19502633910E+03  0.32107462640E+03  0.38160667300E+03  0.53548841401E+03  0.00000000000E+00 0. -1.
          4    1    6    6  503    0 -0.95798188405E+02 -0.34574407372E+02 -0.28448602927E+02  0.10574500251E+03  0.00000000000E+00 0. -1.
         -4    1    6    6    0  503 -0.38955624100E+03 -0.85958832767E+02  0.60614538405E+02  0.40350601990E+03  0.00000000000E+00 0.  1.
<mgrwt>
<rscale>  0 0.24959582E+04</rscale>
<asrwt>0</asrwt>
<pdfrwt beam="1">  1        2 0.17993018E+00 0.24959582E+04</pdfrwt>
<pdfrwt beam="2">  1       -1 0.20487261E+00 0.24959582E+04</pdfrwt>
<totfact> 0.27991203E+00</totfact>
</mgrwt>
</event>
<event>
12    7  0.1711607E-007  0.1696374E+04  0.7818608E-02  0.8763435E-01
          2   -1    0    0  501    0  0.00000000000E+00  0.00000000000E+00  0.11660129085E+04  0.11660129085E+04  0.00000000000E+00 0. -1.
         -1   -1    0    0    0  501 -0.00000000000E+00 -0.00000000000E+00 -0.61699283161E+03  0.61699283161E+03  0.00000000000E+00 0.  1.
         24    2    1    2    0    0 -0.28281076115E+03 -0.53405845625E+03  0.23478073169E+03  0.65333564898E+03  0.80778195870E+02 0.  0.
        254    2    1    2    0    0  0.28281076115E+03  0.53405845625E+03  0.31423934514E+03  0.11296700911E+04  0.90122571387E+03 0.  0.
         23    2    4    4    0    0 -0.81023059480E+02  0.66318664757E+03  0.10544532073E+03  0.68134153977E+03  0.82014099187E+02 0.  0.
         23    2    4    4    0    0  0.36383382063E+03 -0.12912819132E+03  0.20879402441E+03  0.44832855132E+03  0.91402442376E+02 0.  0.
          2    1    3    3  502    0 -0.26911176596E+03 -0.52738049841E+03  0.21868353247E+03  0.63116861460E+03  0.00000000000E+00 0. -1.
         -1    1    3    3    0  502 -0.13698995186E+02 -0.66779578446E+01  0.16097199225E+02  0.22167034375E+02  0.00000000000E+00 0.  1.
         13    1    5    5    0    0 -0.42811766948E+02  0.54571781080E+03  0.64381896595E+02  0.55116767415E+03  0.00000000000E+00 0. -1.
        -13    1    5    5    0    0 -0.38211292532E+02  0.11746883677E+03  0.41063424136E+02  0.13017386562E+03  0.00000000000E+00 0.  1.
          4    1    6    6  503    0  0.32174962466E+03 -0.13379729753E+03  0.20832203242E+03  0.40598350580E+03  0.00000000000E+00 0. -1.
         -4    1    6    6    0  503  0.42084195972E+02  0.46691062140E+01  0.47199199525E+00  0.42345045517E+02  0.00000000000E+00 0.  1.
<mgrwt>
<rscale>  0 0.16963745E+04</rscale>
<asrwt>0</asrwt>
<pdfrwt beam="1">  1        2 0.17938660E+00 0.16963745E+04</pdfrwt>
<pdfrwt beam="2">  1       -1 0.94921974E-01 0.16963745E+04</pdfrwt>
<totfact> 0.23120621E+01</totfact>
</mgrwt>
</event>
<event>
12    7  0.1711607E-007  0.1240619E+04  0.7818608E-02  0.9078027E-01
         -1   -1    0    0    0  501 -0.00000000000E+00  0.00000000000E+00  0.44334903093E+03  0.44334903093E+03  0.00000000000E+00 0.  1.
          2   -1    0    0  501    0  0.00000000000E+00 -0.00000000000E+00 -0.86790275365E+03  0.86790275365E+03  0.00000000000E+00 0. -1.
         24    2    1    2    0    0 -0.29898273941E+03  0.71748159178E+02 -0.97434721875E+02  0.33160979310E+03  0.77026313986E+02 0.  0.
        254    2    1    2    0    0  0.29898273941E+03 -0.71748159178E+02 -0.32711900085E+03  0.97964199147E+03  0.87071988259E+03 0.  0.
         23    2    4    4    0    0 -0.26680403397E+03  0.10536782600E+03 -0.21413499616E+03  0.36930263879E+03  0.90795766113E+02 0.  0.
         23    2    4    4    0    0  0.56578677338E+03 -0.17711598518E+03 -0.11298400469E+03  0.61033935268E+03  0.90906517811E+02 0.  0.
          2    1    3    3  502    0 -0.59631551386E+02 -0.70526291417E+01 -0.42871590294E+02  0.73780991812E+02  0.00000000000E+00 0. -1.
         -1    1    3    3    0  502 -0.23935118802E+03  0.78800788320E+02 -0.54563131580E+02  0.25782880129E+03  0.00000000000E+00 0.  1.
         13    1    5    5    0    0 -0.19677141369E+03  0.80762810488E+02 -0.10471345710E+03  0.23707916168E+03  0.00000000000E+00 0. -1.
        -13    1    5    5    0    0 -0.70032620277E+02  0.24605015509E+02 -0.10942153906E+03  0.13222347712E+03  0.00000000000E+00 0.  1.
          1    1    6    6  503    0  0.56621108196E+03 -0.17413321873E+03 -0.11843970245E+03  0.60410705203E+03  0.00000000000E+00 0. -1.
         -1    1    6    6    0  503 -0.42430857931E+00 -0.29827664411E+01  0.54556977537E+01  0.62323006500E+01  0.00000000000E+00 0.  1.
<mgrwt>
<rscale>  0 0.12406189E+04</rscale>
<asrwt>0</asrwt>
<pdfrwt beam="1">  1        2 0.13352350E+00 0.12406189E+04</pdfrwt>
<pdfrwt beam="2">  1       -1 0.68207543E-01 0.12406189E+04</pdfrwt>
<totfact> 0.75397659E+01</totfact>
</mgrwt>
</event>
<event>
12    7  0.1711607E-007  0.2053418E+04  0.7818608E-02  0.8582046E-01
          2   -1    0    0  501    0  0.00000000000E+00  0.00000000000E+00  0.14274472353E+04  0.14274472353E+04  0.00000000000E+00 0. -1.
         -1   -1    0    0    0  501 -0.00000000000E+00 -0.00000000000E+00 -0.73847278120E+03  0.73847278120E+03  0.00000000000E+00 0.  1.
         24    2    1    2    0    0  0.28642220805E+03 -0.96607024129E+01  0.11162334100E+04  0.11552946769E+04  0.81226561431E+02 0.  0.
        254    2    1    2    0    0 -0.28642220805E+03  0.96607024129E+01 -0.42725895589E+03  0.10106253397E+04  0.86987490560E+03 0.  0.
         23    2    4    4    0    0 -0.37919682806E+03  0.35602032800E+03 -0.34510155542E+03  0.63138545367E+03  0.94930496602E+02 0.  0.
         23    2    4    4    0    0  0.92774620013E+02 -0.34635962559E+03 -0.82157400467E+02  0.37923988601E+03  0.92200500721E+02 0.  0.
          4    1    3    3  502    0  0.19593879318E+03 -0.26783008822E+02  0.87528524753E+03  0.89734809566E+03  0.00000000000E+00 0. -1.
         -3    1    3    3    0  502  0.90483414871E+02  0.17122306409E+02  0.24094816250E+03  0.25794658121E+03  0.00000000000E+00 0.  1.
         13    1    5    5    0    0 -0.49468367566E+02  0.40579986432E+02 -0.89162106714E+01  0.64601497670E+02  0.00000000000E+00 0. -1.
        -13    1    5    5    0    0 -0.32972846050E+03  0.31544034157E+03 -0.33618534475E+03  0.56678395600E+03  0.00000000000E+00 0.  1.
          3    1    6    6  503    0 -0.40929503407E+00 -0.27334369821E+02  0.17263765286E+02  0.32332226769E+02  0.00000000000E+00 0. -1.
         -3    1    6    6    0  503  0.93183915047E+02 -0.31902525577E+03 -0.99421165753E+02  0.34690765924E+03  0.00000000000E+00 0.  1.
<mgrwt>
<rscale>  0 0.20534176E+04</rscale>
<asrwt>0</asrwt>
<pdfrwt beam="1">  1        2 0.21960727E+00 0.20534176E+04</pdfrwt>
<pdfrwt beam="2">  1       -1 0.11361120E+00 0.20534176E+04</pdfrwt>
<totfact> 0.10397485E+01</totfact>
</mgrwt>
</event>
<event>
12    7  0.1711607E-007  0.3640198E+04  0.7818608E-02  0.8081345E-01
         -1   -1    0    0    0  501 -0.00000000000E+00  0.00000000000E+00  0.11945489949E+04  0.11945489949E+04  0.00000000000E+00 0.  1.
          2   -1    0    0  501    0  0.00000000000E+00 -0.00000000000E+00 -0.27732309633E+04  0.27732309633E+04  0.00000000000E+00 0. -1.
         24    2    1    2    0    0 -0.15301295355E+04  0.71328431191E+03 -0.46928275470E+03  0.17540742519E+04  0.80493926552E+02 0.  0.
        254    2    1    2    0    0  0.15301295355E+04 -0.71328431191E+03 -0.11093992137E+04  0.22137057063E+04  0.90534823879E+03 0.  0.
         23    2    4    4    0    0  0.10585575284E+04 -0.27575671321E+03 -0.11140029652E+04  0.15638983459E+04  0.90496540886E+02 0.  0.
         23    2    4    4    0    0  0.47157200707E+03 -0.43752759870E+03  0.46037514847E+01  0.64980736036E+03  0.91748861458E+02 0.  0.
          4    1    3    3  502    0 -0.82970252741E+03  0.35534380009E+03 -0.28010437185E+03  0.94505764871E+03  0.00000000000E+00 0. -1.
         -3    1    3    3    0  502 -0.70042700809E+03  0.35794051182E+03 -0.18917838285E+03  0.80901660317E+03  0.00000000000E+00 0.  1.
         13    1    5    5    0    0  0.13308332783E+03 -0.54183562885E+02 -0.11359332389E+03  0.18316788437E+03  0.00000000000E+00 0. -1.
        -13    1    5    5    0    0  0.92547420060E+03 -0.22157315033E+03 -0.10004096413E+04  0.13807304615E+04  0.00000000000E+00 0.  1.
          4    1    6    6  503    0  0.73734984474E+02 -0.70833958682E+02 -0.33024654462E+02  0.10744731472E+03  0.00000000000E+00 0. -1.
         -4    1    6    6    0  503  0.39783702260E+03 -0.36669364002E+03  0.37628405947E+02  0.54236004564E+03  0.00000000000E+00 0.  1.
<mgrwt>
<rscale>  0 0.36401979E+04</rscale>
<asrwt>0</asrwt>
<pdfrwt beam="1">  1        2 0.42665092E+00 0.36401979E+04</pdfrwt>
<pdfrwt beam="2">  1       -1 0.18377677E+00 0.36401979E+04</pdfrwt>
<totfact> 0.43296600E-01</totfact>
</mgrwt>
</event>
<event>
12    7  0.1711607E-007  0.1996182E+04  0.7818608E-02  0.8608408E-01
         -1   -1    0    0    0  501 -0.00000000000E+00  0.00000000000E+00  0.28715720134E+03  0.28715720134E+03  0.00000000000E+00 0.  1.
          2   -1    0    0  501    0  0.00000000000E+00 -0.00000000000E+00 -0.34691305756E+04  0.34691305756E+04  0.00000000000E+00 0. -1.
         24    2    1    2    0    0 -0.34040454646E+03  0.72214120094E+02 -0.25975171161E+04  0.26221050977E+04  0.85145996196E+02 0.  0.
        254    2    1    2    0    0  0.34040454646E+03 -0.72214120094E+02 -0.58445625815E+03  0.11341826792E+04  0.90757429324E+03 0.  0.
         23    2    4    4    0    0  0.18526857831E+03 -0.43576740750E+03 -0.54220372643E+03  0.72543711137E+03  0.89757685149E+02 0.  0.
         23    2    4    4    0    0  0.15513596815E+03  0.36355328741E+03 -0.42252531721E+02  0.40874556785E+03  0.95128867325E+02 0.  0.
          4    1    3    3  502    0 -0.13963688373E+03  0.61587453219E+02 -0.13325041605E+04  0.13412154232E+04  0.00000000000E+00 0. -1.
         -3    1    3    3    0  502 -0.20076766273E+03  0.10626666875E+02 -0.12650129557E+04  0.12808896746E+04  0.00000000000E+00 0.  1.
         13    1    5    5    0    0  0.15636629705E+02 -0.11488030964E+03 -0.98076790874E+02  0.15185864032E+03  0.00000000000E+00 0.  1.
        -13    1    5    5    0    0  0.16963194861E+03 -0.32088709786E+03 -0.44412693556E+03  0.57357847105E+03  0.00000000000E+00 0. -1.
          2    1    6    6  503    0  0.11077505293E+03  0.25369892222E+03  0.14854498566E+02  0.27722718412E+03  0.00000000000E+00 0. -1.
         -2    1    6    6    0  503  0.44360915214E+02  0.10985436519E+03 -0.57107030287E+02  0.13151838373E+03  0.00000000000E+00 0.  1.
<mgrwt>
<rscale>  0 0.19961822E+04</rscale>
<asrwt>0</asrwt>
<pdfrwt beam="1">  1        2 0.53371239E+00 0.19961822E+04</pdfrwt>
<pdfrwt beam="2">  1       -1 0.44178032E-01 0.19961822E+04</pdfrwt>
<totfact> 0.46057164E+00</totfact>
</mgrwt>
</event>
<event>
12    7  0.1711607E-007  0.2016003E+04  0.7818608E-02  0.8599175E-01
          2   -1    0    0  501    0  0.00000000000E+00  0.00000000000E+00  0.96383929609E+03  0.96383929609E+03  0.00000000000E+00 0. -1.
         -1   -1    0    0    0  501 -0.00000000000E+00 -0.00000000000E+00 -0.10541872943E+04  0.10541872943E+04  0.00000000000E+00 0.  1.
         24    2    1    2    0    0 -0.75659258111E+02 -0.27067292827E+03  0.71562107337E+03  0.77294621678E+03  0.79650335560E+02 0.  0.
        254    2    1    2    0    0  0.75659258111E+02  0.27067292827E+03 -0.80596907162E+03  0.12450803737E+04  0.90644957665E+03 0.  0.
         23    2    4    4    0    0 -0.90754561295E+02  0.52533773317E+03 -0.74853600114E+03  0.92372333646E+03  0.93501513491E+02 0.  0.
         23    2    4    4    0    0  0.16641381941E+03 -0.25466480491E+03 -0.57433070486E+02  0.32135703720E+03  0.86163017715E+02 0.  0.
          2    1    3    3  502    0 -0.27355909296E+02 -0.16759650702E+03  0.51506869937E+03  0.54234002250E+03  0.00000000000E+00 0. -1.
         -1    1    3    3    0  502 -0.48303348815E+02 -0.10307642124E+03  0.20055237400E+03  0.23060619428E+03  0.00000000000E+00 0.  1.
         13    1    5    5    0    0  0.16005505963E+02  0.29001136558E+02 -0.37398094251E+02  0.49958578807E+02  0.00000000000E+00 0.  1.
        -13    1    5    5    0    0 -0.10676006726E+03  0.49633659661E+03 -0.71113790689E+03  0.87376475765E+03  0.00000000000E+00 0. -1.
          1    1    6    6  503    0  0.12929672971E+03 -0.23100786284E+03 -0.73098416496E+02  0.27463731630E+03  0.00000000000E+00 0. -1.
         -1    1    6    6    0  503  0.37117089692E+02 -0.23656942066E+02  0.15665346010E+02  0.46719720897E+02  0.00000000000E+00 0.  1.
<mgrwt>
<rscale>  0 0.20160031E+04</rscale>
<asrwt>0</asrwt>
<pdfrwt beam="1">  1        2 0.14828297E+00 0.20160031E+04</pdfrwt>
<pdfrwt beam="2">  1       -1 0.16218266E+00 0.20160031E+04</pdfrwt>
<totfact> 0.79179404E+00</totfact>
</mgrwt>
</event>
<event>
12    7  0.1711607E-007  0.2301066E+04  0.7818608E-02  0.8477501E-01
         -1   -1    0    0    0  501 -0.00000000000E+00  0.00000000000E+00  0.78241642287E+03  0.78241642287E+03  0.00000000000E+00 0.  1.
          2   -1    0    0  501    0  0.00000000000E+00 -0.00000000000E+00 -0.16918439373E+04  0.16918439373E+04  0.00000000000E+00 0. -1.
         24    2    1    2    0    0 -0.12822839114E+03  0.36227917706E+03 -0.13555069019E+04  0.14112037245E+04  0.80051661141E+02 0.  0.
        254    2    1    2    0    0  0.12822839114E+03 -0.36227917706E+03  0.44607938749E+03  0.10630566357E+04  0.88510669883E+03 0.  0.
         23    2    4    4    0    0  0.71393884948E+02 -0.40409890444E+03 -0.15660403058E+03  0.44921004990E+03  0.94190419692E+02 0.  0.
         23    2    4    4    0    0  0.56834506193E+02  0.41819727383E+02  0.60268341806E+03  0.61384658578E+03  0.92743074015E+02 0.  0.
          2    1    3    3  502    0 -0.49848225365E+02  0.24180041781E+03 -0.78744662643E+03  0.82524207182E+03  0.00000000000E+00 0. -1.
         -1    1    3    3    0  502 -0.78380165776E+02  0.12047875925E+03 -0.56806027547E+03  0.58596165266E+03  0.00000000000E+00 0.  1.
         13    1    5    5    0    0  0.61185651488E+02 -0.27463078299E+03 -0.60882886874E+02  0.28787580104E+03  0.00000000000E+00 0.  1.
        -13    1    5    5    0    0  0.10208233460E+02 -0.12946812146E+03 -0.95721143703E+02  0.16133424886E+03  0.00000000000E+00 0. -1.
          2    1    6    6  503    0  0.45414844162E+02 -0.18755065631E+02  0.36533074121E+03  0.36862014464E+03  0.00000000000E+00 0. -1.
         -2    1    6    6    0  503  0.11419662032E+02  0.60574793014E+02  0.23735267685E+03  0.24522644115E+03  0.00000000000E+00 0.  1.
<mgrwt>
<rscale>  0 0.23010663E+04</rscale>
<asrwt>0</asrwt>
<pdfrwt beam="1">  1        2 0.26028368E+00 0.23010663E+04</pdfrwt>
<pdfrwt beam="2">  1       -1 0.12037176E+00 0.23010663E+04</pdfrwt>
<totfact> 0.62851243E+00</totfact>
</mgrwt>
</event>
<event>
12    7  0.1711607E-007  0.3152403E+04  0.7818608E-02  0.8201502E-01
          2   -1    0    0  501    0  0.00000000000E+00  0.00000000000E+00  0.21609455405E+04  0.21609455405E+04  0.00000000000E+00 0. -1.
         -1   -1    0    0    0  501 -0.00000000000E+00 -0.00000000000E+00 -0.11496871091E+04  0.11496871091E+04  0.00000000000E+00 0.  1.
         24    2    1    2    0    0 -0.78213756426E+03 -0.82582396027E+03  0.14195402935E+04  0.18208231828E+04  0.81105089698E+02 0.  0.
        254    2    1    2    0    0  0.78213756426E+03  0.82582396027E+03 -0.40828186212E+03  0.14898094668E+04  0.87127136159E+03 0.  0.
         23    2    4    4    0    0  0.44455975521E+03  0.84257853086E+02  0.16330654863E+03  0.48969815717E+03  0.91665121824E+02 0.  0.
         23    2    4    4    0    0  0.33757780906E+03  0.74156610719E+03 -0.57158841075E+03  0.10001113096E+04  0.98133846219E+02 0.  0.
          2    1    3    3  502    0 -0.47601488463E+03 -0.51739872318E+03  0.93730151048E+03  0.11716764616E+04  0.00000000000E+00 0. -1.
         -1    1    3    3    0  502 -0.30612267963E+03 -0.30842523710E+03  0.48223878299E+03  0.64914672123E+03  0.00000000000E+00 0.  1.
         13    1    5    5    0    0  0.23379680573E+03  0.69286639345E+02  0.46413502868E+02  0.24822529688E+03  0.00000000000E+00 0. -1.
        -13    1    5    5    0    0  0.21076294947E+03  0.14971213741E+02  0.11689304576E+03  0.24147286029E+03  0.00000000000E+00 0.  1.
          1    1    6    6  503    0  0.95054616458E+02  0.17558525371E+03 -0.19054189701E+03  0.27599234762E+03  0.00000000000E+00 0. -1.
         -1    1    6    6    0  503  0.24252319260E+03  0.56598085347E+03 -0.38104651374E+03  0.72411896197E+03  0.00000000000E+00 0.  1.
<mgrwt>
<rscale>  0 0.31524030E+04</rscale>
<asrwt>0</asrwt>
<pdfrwt beam="1">  1        2 0.33245316E+00 0.31524030E+04</pdfrwt>
<pdfrwt beam="2">  1       -1 0.17687494E+00 0.31524030E+04</pdfrwt>
<totfact> 0.11444989E+00</totfact>
</mgrwt>
</event>
<event>
12    7  0.1711607E-007  0.1461485E+04  0.7818608E-02  0.8910477E-01
         -1   -1    0    0    0  501 -0.00000000000E+00  0.00000000000E+00  0.87793560461E+03  0.87793560461E+03  0.00000000000E+00 0.  1.
          2   -1    0    0  501    0  0.00000000000E+00 -0.00000000000E+00 -0.60822772334E+03  0.60822772334E+03  0.00000000000E+00 0. -1.
         24    2    1    2    0    0 -0.26640544971E+03 -0.28629665387E+03 -0.11269861584E+03  0.41476037059E+03  0.79922145547E+02 0.  0.
        254    2    1    2    0    0  0.26640544971E+03  0.28629665387E+03  0.38240649710E+03  0.10714029574E+04  0.92126648174E+03 0.  0.
         23    2    4    4    0    0  0.56620980715E+03  0.51502801123E+02  0.89496455740E+02  0.58228634089E+03  0.88327136035E+02 0.  0.
         23    2    4    4    0    0 -0.29980435744E+03  0.23479385274E+03  0.29291004136E+03  0.48911661647E+03  0.91803955006E+02 0.  0.
          4    1    3    3  502    0 -0.26311467254E+03 -0.26793781432E+03 -0.91477284940E+02  0.38650756384E+03  0.00000000000E+00 0. -1.
         -3    1    3    3    0  502 -0.32907771672E+01 -0.18358839549E+02 -0.21221330896E+02  0.28252806744E+02  0.00000000000E+00 0.  1.
         13    1    5    5    0    0  0.28483831838E+03  0.69005721126E+02  0.56113096185E+02  0.29840130149E+03  0.00000000000E+00 0.  1.
        -13    1    5    5    0    0  0.28137148877E+03 -0.17502920004E+02  0.33383359555E+02  0.28388503941E+03  0.00000000000E+00 0. -1.
          1    1    6    6  503    0 -0.10310771448E+03  0.13344179098E+03  0.15009670997E+03  0.22575857616E+03  0.00000000000E+00 0. -1.
         -1    1    6    6    0  503 -0.19669664296E+03  0.10135206176E+03  0.14281333139E+03  0.26335804031E+03  0.00000000000E+00 0.  1.
<mgrwt>
<rscale>  0 0.14614852E+04</rscale>
<asrwt>0</asrwt>
<pdfrwt beam="1">  1        2 0.93573496E-01 0.14614852E+04</pdfrwt>
<pdfrwt beam="2">  1       -1 0.13506702E+00 0.14614852E+04</pdfrwt>
<totfact> 0.24853790E+01</totfact>
</mgrwt>
</event>
<event>
12    7  0.1711607E-007  0.2173387E+04  0.7818608E-02  0.8529587E-01
         -1   -1    0    0    0  501 -0.00000000000E+00  0.00000000000E+00  0.51838960150E+03  0.51838960150E+03  0.00000000000E+00 0.  1.
          2   -1    0    0  501    0  0.00000000000E+00 -0.00000000000E+00 -0.22780218710E+04  0.22780218710E+04  0.00000000000E+00 0. -1.
         24    2    1    2    0    0  0.56597137744E+03 -0.37788081498E+03  0.21329212640E+02  0.68614367244E+03  0.84974663885E+02 0.  0.
        254    2    1    2    0    0 -0.56597137744E+03  0.37788081498E+03 -0.17809614821E+04  0.21102678000E+04  0.90459321061E+03 0.  0.
         23    2    4    4    0    0  0.15607112588E+03 -0.14612268316E+03 -0.30933014260E+03  0.38692639490E+03  0.91196837017E+02 0.  0.
         23    2    4    4    0    0 -0.72204250332E+03  0.52400349814E+03 -0.14716313395E+04  0.17233414051E+04  0.91004156728E+02 0.  0.
          4    1    3    3  502    0  0.56486089297E+02 -0.49607625575E+02  0.27439553207E+02  0.80028269252E+02  0.00000000000E+00 0. -1.
         -1    1    3    3    0  502  0.50948528814E+03 -0.32827318940E+03 -0.61103405675E+01  0.60611540318E+03  0.00000000000E+00 0.  1.
         13    1    5    5    0    0  0.72180420297E+00  0.10878787069E+02 -0.90762147554E+01  0.14186144074E+02  0.00000000000E+00 0.  1.
        -13    1    5    5    0    0  0.15534932168E+03 -0.15700147023E+03 -0.30025392784E+03  0.37274025082E+03  0.00000000000E+00 0. -1.
          2    1    6    6  503    0 -0.18452490169E+03  0.17293857295E+03 -0.36707609015E+03  0.44576007596E+03  0.00000000000E+00 0.  1.
         -2    1    6    6    0  503 -0.53751760163E+03  0.35106492519E+03 -0.11045552494E+04  0.12775813292E+04  0.00000000000E+00 0. -1.
<mgrwt>
<rscale>  0 0.21733871E+04</rscale>
<asrwt>0</asrwt>
<pdfrwt beam="1">  1        2 0.35046491E+00 0.21733871E+04</pdfrwt>
<pdfrwt beam="2">  1       -1 0.79752246E-01 0.21733871E+04</pdfrwt>
<totfact> 0.76374340E+00</totfact>
</mgrwt>
</event>
<event>
12    7  0.1711607E-007  0.2245065E+04  0.7818608E-02  0.8499902E-01
          2   -1    0    0  501    0  0.00000000000E+00  0.00000000000E+00  0.52481473123E+03  0.52481473123E+03  0.00000000000E+00 0. -1.
         -1   -1    0    0    0  501 -0.00000000000E+00 -0.00000000000E+00 -0.24009991264E+04  0.24009991264E+04  0.00000000000E+00 0.  1.
         24    2    1    2    0    0 -0.50873074568E+03 -0.31668043827E+03 -0.17349530012E+04  0.18375267666E+04  0.85727650355E+02 0.  0.
        254    2    1    2    0    0  0.50873074568E+03  0.31668043827E+03 -0.14123139400E+03  0.10882870911E+04  0.89740125603E+03 0.  0.
         23    2    4    4    0    0  0.16057556286E+03 -0.29755072180E+03  0.39662346265E+02  0.35282410011E+03  0.92686571168E+02 0.  0.
         23    2    4    4    0    0  0.34815518281E+03  0.61423116008E+03 -0.18089374026E+03  0.73546299094E+03  0.98444484084E+02 0.  0.
          2    1    3    3  502    0 -0.43231973085E+03 -0.25977276067E+03 -0.13554057047E+04  0.14462042945E+04  0.00000000000E+00 0. -1.
         -1    1    3    3    0  502 -0.76411014827E+02 -0.56907677599E+02 -0.37954729645E+03  0.39132247213E+03  0.00000000000E+00 0.  1.
         13    1    5    5    0    0  0.87580737802E+02 -0.10016960724E+03 -0.18871643431E+02  0.13438926584E+03  0.00000000000E+00 0.  1.
        -13    1    5    5    0    0  0.72994825062E+02 -0.19738111456E+03  0.58533989697E+02  0.21843483427E+03  0.00000000000E+00 0. -1.
          4    1    6    6  503    0  0.41292483523E+02  0.11156027821E+03 -0.63856969042E+02  0.13501287851E+03  0.00000000000E+00 0.  1.
         -4    1    6    6    0  503  0.30686269929E+03  0.50267088187E+03 -0.11703677122E+03  0.60045011243E+03  0.00000000000E+00 0. -1.
<mgrwt>
<rscale>  0 0.22450654E+04</rscale>
<asrwt>0</asrwt>
<pdfrwt beam="1">  1        2 0.80740729E-01 0.22450654E+04</pdfrwt>
<pdfrwt beam="2">  1       -1 0.36938448E+00 0.22450654E+04</pdfrwt>
<totfact> 0.69849583E-01</totfact>
</mgrwt>
</event>
<event>
12    7  0.1711607E-007  0.1253887E+04  0.7818608E-02  0.9066955E-01
         -3   -1    0    0    0  501 -0.00000000000E+00  0.00000000000E+00  0.43013612845E+03  0.43013612845E+03  0.00000000000E+00 0.  1.
          2   -1    0    0  501    0  0.00000000000E+00 -0.00000000000E+00 -0.91379884561E+03  0.91379884561E+03  0.00000000000E+00 0. -1.
         24    2    1    2    0    0  0.12405286423E+03 -0.24297241925E+03 -0.22360817118E+03  0.36158443656E+03  0.79485727676E+02 0.  0.
        254    2    1    2    0    0 -0.12405286423E+03  0.24297241925E+03 -0.26005454598E+03  0.98235053750E+03  0.90717115364E+03 0.  0.
         23    2    4    4    0    0 -0.56483485161E+01 -0.20621415138E+03 -0.42382330421E+03  0.47944960252E+03  0.87690068388E+02 0.  0.
         23    2    4    4    0    0 -0.11840451572E+03  0.44918657064E+03  0.16376875823E+03  0.50290093497E+03  0.10149354480E+03 0.  0.
          4    1    3    3  502    0  0.12685748867E+03 -0.18705696026E+03 -0.19598829600E+03  0.29915638215E+03  0.00000000000E+00 0. -1.
         -3    1    3    3    0  502 -0.28046244373E+01 -0.55915458996E+02 -0.27619875185E+02  0.62428054416E+02  0.00000000000E+00 0.  1.
         13    1    5    5    0    0  0.13500708645E+02 -0.20439709253E+03 -0.39086600573E+03  0.44128978575E+03  0.00000000000E+00 0.  1.
        -13    1    5    5    0    0 -0.19149057161E+02 -0.18170588503E+01 -0.32957298482E+02  0.38159816774E+02  0.00000000000E+00 0. -1.
          3    1    6    6  503    0 -0.59196110216E+02  0.17811108178E+03  0.11795453772E+03  0.22167771626E+03  0.00000000000E+00 0. -1.
         -3    1    6    6    0  503 -0.59208405502E+02  0.27107548886E+03  0.45814220518E+02  0.28122321871E+03  0.00000000000E+00 0.  1.
<mgrwt>
<rscale>  0 0.12538866E+04</rscale>
<asrwt>0</asrwt>
<pdfrwt beam="1">  1        2 0.14058444E+00 0.12538866E+04</pdfrwt>
<pdfrwt beam="2">  1       -3 0.66174790E-01 0.12538866E+04</pdfrwt>
<totfact> 0.39513535E+01</totfact>
</mgrwt>
</event>
<event>
12    7  0.1711607E-007  0.2294642E+04  0.7818608E-02  0.8480037E-01
          2   -1    0    0  501    0  0.00000000000E+00  0.00000000000E+00  0.14760468153E+04  0.14760468153E+04  0.00000000000E+00 0. -1.
         -1   -1    0    0    0  501 -0.00000000000E+00 -0.00000000000E+00 -0.89180441213E+03  0.89180441213E+03  0.00000000000E+00 0.  1.
         24    2    1    2    0    0 -0.80550607959E+03 -0.39182706702E+03  0.64120914858E+03  0.11044570149E+04  0.79420594336E+02 0.  0.
        254    2    1    2    0    0  0.80550607959E+03  0.39182706702E+03 -0.56966745373E+02  0.12633942126E+04  0.88912947964E+03 0.  0.
         23    2    4    4    0    0 -0.71241990662E+02 -0.10010066088E+03  0.17095100339E+03  0.22853997000E+03  0.88942165384E+02 0.  0.
         23    2    4    4    0    0  0.87674807026E+03  0.49192772791E+03 -0.22791774877E+03  0.10348542426E+04  0.91086414928E+02 0.  0.
          2    1    3    3  502    0 -0.51616821310E+03 -0.26206608774E+03  0.45864836038E+03  0.73855709125E+03  0.00000000000E+00 0. -1.
         -1    1    3    3    0  502 -0.28933786649E+03 -0.12976097929E+03  0.18256078821E+03  0.36589992364E+03  0.00000000000E+00 0.  1.
         13    1    5    5    0    0 -0.77226537072E+01  0.14382344286E+02  0.48219495402E+01  0.17021821430E+02  0.00000000000E+00 0. -1.
        -13    1    5    5    0    0 -0.63519336955E+02 -0.11448300517E+03  0.16612905385E+03  0.21151814857E+03  0.00000000000E+00 0.  1.
          4    1    6    6  503    0  0.45245584631E+03  0.26596395997E+03 -0.16429440532E+03  0.54995070005E+03  0.00000000000E+00 0. -1.
         -4    1    6    6    0  503  0.42429222395E+03  0.22596376793E+03 -0.63623343447E+02  0.48490354252E+03  0.00000000000E+00 0.  1.
<mgrwt>
<rscale>  0 0.22946416E+04</rscale>
<asrwt>0</asrwt>
<pdfrwt beam="1">  1        2 0.22708413E+00 0.22946416E+04</pdfrwt>
<pdfrwt beam="2">  1       -1 0.13720068E+00 0.22946416E+04</pdfrwt>
<totfact> 0.59791896E+00</totfact>
</mgrwt>
</event>
<event>
12    7  0.1711607E-007  0.1676021E+04  0.7818608E-02  0.8775160E-01
         -1   -1    0    0    0  501 -0.00000000000E+00  0.00000000000E+00  0.88867920055E+03  0.88867920055E+03  0.00000000000E+00 0.  1.
          2   -1    0    0  501    0  0.00000000000E+00 -0.00000000000E+00 -0.79023078039E+03  0.79023078039E+03  0.00000000000E+00 0. -1.
         24    2    1    2    0    0 -0.14558618642E+03  0.49127041955E+03  0.23670877330E+03  0.56988570799E+03  0.78719209950E+02 0.  0.
        254    2    1    2    0    0  0.14558618642E+03 -0.49127041955E+03 -0.13826035314E+03  0.11090242730E+04  0.97379512731E+03 0.  0.
         23    2    4    4    0    0 -0.41356905098E+02 -0.65234393115E+02  0.38494594167E+03  0.40353866235E+03  0.93242449338E+02 0.  0.
         23    2    4    4    0    0  0.18694309151E+03 -0.42603602643E+03 -0.52320629481E+03  0.70548561062E+03  0.86664321268E+02 0.  0.
          2    1    3    3  502    0 -0.73456090970E+01  0.22171795096E+02  0.32255781489E+02  0.39824388385E+02  0.00000000000E+00 0. -1.
         -1    1    3    3    0  502 -0.13824057732E+03  0.46909862445E+03  0.20445299181E+03  0.53006131960E+03  0.00000000000E+00 0.  1.
         13    1    5    5    0    0 -0.52431990327E+02 -0.83383469259E+02  0.33678915524E+03  0.35089720951E+03  0.00000000000E+00 0. -1.
        -13    1    5    5    0    0  0.11075085229E+02  0.18149076144E+02  0.48156786429E+02  0.52641452838E+02  0.00000000000E+00 0.  1.
          2    1    6    6  503    0  0.11166315045E+03 -0.32659174217E+03 -0.41977699033E+03  0.54345519304E+03  0.00000000000E+00 0. -1.
         -2    1    6    6    0  503  0.75279941060E+02 -0.99444284256E+02 -0.10342930447E+03  0.16203041758E+03  0.00000000000E+00 0.  1.
<mgrwt>
<rscale>  0 0.16760211E+04</rscale>
<asrwt>0</asrwt>
<pdfrwt beam="1">  1        2 0.12157397E+00 0.16760211E+04</pdfrwt>
<pdfrwt beam="2">  1       -1 0.13671988E+00 0.16760211E+04</pdfrwt>
<totfact> 0.16993638E+01</totfact>
</mgrwt>
</event>
<event>
12    7  0.1711607E-007  0.9998091E+03  0.7818608E-02  0.9308754E-01
          2   -1    0    0  501    0  0.00000000000E+00  0.00000000000E+00  0.25682938104E+03  0.25682938104E+03  0.00000000000E+00 0. -1.
         -1   -1    0    0    0  501 -0.00000000000E+00 -0.00000000000E+00 -0.97303725423E+03  0.97303725423E+03  0.00000000000E+00 0.  1.
         24    2    1    2    0    0 -0.20322520244E+02 -0.22892409128E+02 -0.15253462655E+03  0.17537353851E+03  0.80944416035E+02 0.  0.
        254    2    1    2    0    0  0.20322520244E+02  0.22892409128E+02 -0.56367324664E+03  0.10544930968E+04  0.89066890307E+03 0.  0.
         23    2    4    4    0    0 -0.28998714844E+03 -0.30502844795E+03 -0.25061006291E+03  0.49766344364E+03  0.87912451833E+02 0.  0.
         23    2    4    4    0    0  0.31030966868E+03  0.32792085708E+03 -0.31306318373E+03  0.55682965311E+03  0.90700201722E+02 0.  0.
          4    1    3    3  502    0  0.27929883418E+02 -0.24158261115E+02 -0.81678045443E+02  0.89638178670E+02  0.00000000000E+00 0. -1.
         -3    1    3    3    0  502 -0.48252403662E+02  0.12658519870E+01 -0.70856581109E+02  0.85735359839E+02  0.00000000000E+00 0.  1.
         13    1    5    5    0    0 -0.33392068292E+02 -0.76378095547E+02 -0.26946755735E+02  0.87605772349E+02  0.00000000000E+00 0. -1.
        -13    1    5    5    0    0 -0.25659508015E+03 -0.22865035240E+03 -0.22366330718E+03  0.41005767129E+03  0.00000000000E+00 0.  1.
          1    1    6    6  503    0  0.18318807380E+03  0.17518223402E+03 -0.12255193878E+03  0.28154158342E+03  0.00000000000E+00 0. -1.
         -1    1    6    6    0  503  0.12712159489E+03  0.15273862306E+03 -0.19051124495E+03  0.27528806969E+03  0.00000000000E+00 0.  1.
<mgrwt>
<rscale>  0 0.99980909E+03</rscale>
<asrwt>0</asrwt>
<pdfrwt beam="1">  1        2 0.39512213E-01 0.99980909E+03</pdfrwt>
<pdfrwt beam="2">  1       -1 0.14969804E+00 0.99980909E+03</pdfrwt>
<totfact> 0.52471602E+01</totfact>
</mgrwt>
</event>
<event>
12    7  0.1711607E-007  0.1214119E+04  0.7818608E-02  0.9100587E-01
          2   -1    0    0  501    0  0.00000000000E+00  0.00000000000E+00  0.55144441042E+03  0.55144441042E+03  0.00000000000E+00 0. -1.
         -1   -1    0    0    0  501 -0.00000000000E+00 -0.00000000000E+00 -0.66828333356E+03  0.66828333356E+03  0.00000000000E+00 0.  1.
         24    2    1    2    0    0 -0.24899003023E+03 -0.58284318904E+02 -0.55973077933E+01  0.26739170412E+03  0.77935207667E+02 0.  0.
        254    2    1    2    0    0  0.24899003023E+03  0.58284318904E+02 -0.11124161535E+03  0.95233603986E+03  0.91059109311E+03 0.  0.
         23    2    4    4    0    0  0.32218244014E+03  0.61689867324E+02  0.34298560832E+03  0.48340252700E+03  0.91824349322E+02 0.  0.
         23    2    4    4    0    0 -0.73192409912E+02 -0.34055484200E+01 -0.45422722367E+03  0.46893351286E+03  0.90595486232E+02 0.  0.
          4    1    3    3  502    0 -0.14616669502E+03 -0.35552540439E+02 -0.41645326237E+02  0.15608657553E+03  0.00000000000E+00 0. -1.
         -1    1    3    3    0  502 -0.10282333521E+03 -0.22731778465E+02  0.36048018444E+02  0.11130512859E+03  0.00000000000E+00 0.  1.
         13    1    5    5    0    0  0.37188443394E+02  0.13652787024E+02  0.70246678910E+01  0.40233380104E+02  0.00000000000E+00 0.  1.
        -13    1    5    5    0    0  0.28499399675E+03  0.48037080300E+02  0.33596094043E+03  0.44316914690E+03  0.00000000000E+00 0. -1.
          4    1    6    6  503    0 -0.91465140465E+02  0.11716190945E+02 -0.37895559551E+03  0.39001344134E+03  0.00000000000E+00 0. -1.
         -4    1    6    6    0  503  0.18272730553E+02 -0.15121739365E+02 -0.75271628160E+02  0.78920071523E+02  0.00000000000E+00 0.  1.
<mgrwt>
<rscale>  0 0.12141188E+04</rscale>
<asrwt>0</asrwt>
<pdfrwt beam="1">  1        2 0.84837601E-01 0.12141188E+04</pdfrwt>
<pdfrwt beam="2">  1       -1 0.10281282E+00 0.12141188E+04</pdfrwt>
<totfact> 0.55327825E+01</totfact>
</mgrwt>
</event>
<event>
12    7  0.1711607E-007  0.1864321E+04  0.7818608E-02  0.8672823E-01
          2   -1    0    0  501    0  0.00000000000E+00  0.00000000000E+00  0.96828334618E+03  0.96828334618E+03  0.00000000000E+00 0. -1.
         -1   -1    0    0    0  501 -0.00000000000E+00 -0.00000000000E+00 -0.89738508627E+03  0.89738508627E+03  0.00000000000E+00 0.  1.
         24    2    1    2    0    0 -0.17195521676E+03  0.18580570946E+03 -0.64114423771E+03  0.69444694529E+03  0.84251219774E+02 0.  0.
        254    2    1    2    0    0  0.17195521676E+03 -0.18580570946E+03  0.71204249762E+03  0.11712214872E+04  0.89479768401E+03 0.  0.
         23    2    4    4    0    0 -0.21026805289E+03 -0.37110592605E+03  0.15112416555E+03  0.46164822338E+03  0.91369066534E+02 0.  0.
         23    2    4    4    0    0  0.38222326965E+03  0.18530021659E+03  0.56091833207E+03  0.70957326378E+03  0.91837047419E+02 0.  0.
          4    1    3    3  502    0 -0.83467684545E+02  0.34910384835E+02 -0.25351275897E+03  0.26917337961E+03  0.00000000000E+00 0. -1.
         -3    1    3    3    0  502 -0.88487532217E+02  0.15089532462E+03 -0.38763147875E+03  0.42527356568E+03  0.00000000000E+00 0.  1.
         13    1    5    5    0    0 -0.17957571033E+02 -0.30611549986E+02  0.43338967759E+02  0.56016135857E+02  0.00000000000E+00 0. -1.
        -13    1    5    5    0    0 -0.19231048186E+03 -0.34049437606E+03  0.10778519779E+03  0.40563208752E+03  0.00000000000E+00 0.  1.
          3    1    6    6  503    0  0.11866052686E+03  0.17735291168E+02  0.18958899453E+03  0.22436320562E+03  0.00000000000E+00 0. -1.
         -3    1    6    6    0  503  0.26356274279E+03  0.16756492542E+03  0.37132933755E+03  0.48521005816E+03  0.00000000000E+00 0.  1.
<mgrwt>
<rscale>  0 0.18643208E+04</rscale>
<asrwt>0</asrwt>
<pdfrwt beam="1">  1        2 0.14896667E+00 0.18643208E+04</pdfrwt>
<pdfrwt beam="2">  1       -1 0.13805924E+00 0.18643208E+04</pdfrwt>
<totfact> 0.12303986E+01</totfact>
</mgrwt>
</event>
<event>
12    7  0.1711607E-007  0.1912522E+04  0.7818608E-02  0.8648649E-01
          2   -1    0    0  501    0  0.00000000000E+00  0.00000000000E+00  0.57807361266E+03  0.57807361266E+03  0.00000000000E+00 0. -1.
         -1   -1    0    0    0  501 -0.00000000000E+00 -0.00000000000E+00 -0.15818653918E+04  0.15818653918E+04  0.00000000000E+00 0.  1.
         24    2    1    2    0    0  0.30515471674E+03  0.29104966423E+03  0.29661307047E+03  0.52150018536E+03  0.78446297254E+02 0.  0.
        254    2    1    2    0    0 -0.30515471674E+03 -0.29104966423E+03 -0.13004048496E+04  0.16384388191E+04  0.90310557679E+03 0.  0.
         23    2    4    4    0    0 -0.34782353669E+03 -0.57639132462E+03 -0.10253925979E+04  0.12297133658E+04  0.86929916585E+02 0.  0.
         23    2    4    4    0    0  0.42668819941E+02  0.28534166039E+03 -0.27501225175E+03  0.40872545334E+03  0.90466934551E+02 0.  0.
          4    1    3    3  502    0  0.23768356105E+03  0.26645563581E+03  0.24370564259E+03  0.43230142410E+03  0.00000000000E+00 0. -1.
         -3    1    3    3    0  502  0.67471155695E+02  0.24594028419E+02  0.52907427881E+02  0.89198761257E+02  0.00000000000E+00 0.  1.
         13    1    5    5    0    0 -0.29530515324E+03 -0.47615356661E+03 -0.90567997818E+03  0.10649805517E+04  0.00000000000E+00 0.  1.
        -13    1    5    5    0    0 -0.52518383444E+02 -0.10023775801E+03 -0.11971261969E+03  0.16473281411E+03  0.00000000000E+00 0. -1.
          3    1    6    6  503    0 -0.99463329453E+01  0.45208331935E+01  0.16135111150E+01  0.11044043188E+02  0.00000000000E+00 0. -1.
         -3    1    6    6    0  503  0.52615152886E+02  0.28082082720E+03 -0.27662576287E+03  0.39768141016E+03  0.00000000000E+00 0.  1.
<mgrwt>
<rscale>  0 0.19125215E+04</rscale>
<asrwt>0</asrwt>
<pdfrwt beam="1">  1        2 0.88934402E-01 0.19125215E+04</pdfrwt>
<pdfrwt beam="2">  1       -1 0.24336391E+00 0.19125215E+04</pdfrwt>
<totfact> 0.42714712E+00</totfact>
</mgrwt>
</event>
<event>
12    7  0.1711607E-007  0.2710229E+04  0.7818608E-02  0.8331694E-01
         -1   -1    0    0    0  501 -0.00000000000E+00  0.00000000000E+00  0.94258671128E+03  0.94258671128E+03  0.00000000000E+00 0.  1.
          2   -1    0    0  501    0  0.00000000000E+00 -0.00000000000E+00 -0.19481874356E+04  0.19481874356E+04  0.00000000000E+00 0. -1.
         24    2    1    2    0    0  0.16422863603E+03 -0.39222267193E+03  0.75122712336E+03  0.86895361939E+03  0.99642021839E+02 0.  0.
        254    2    1    2    0    0 -0.16422863603E+03  0.39222267193E+03 -0.17568278477E+04  0.20218205275E+04  0.90581702882E+03 0.  0.
         23    2    4    4    0    0  0.22651936252E+03 -0.17533029268E+03 -0.60675370444E+03  0.67748236436E+03  0.93704658644E+02 0.  0.
         23    2    4    4    0    0 -0.39074799854E+03  0.56755296460E+03 -0.11500741433E+04  0.13443381631E+04  0.98864532941E+02 0.  0.
          4    1    3    3  502    0  0.97702937457E+02 -0.24308693244E+03  0.36199239006E+03  0.44685077058E+03  0.00000000000E+00 0. -1.
         -3    1    3    3    0  502  0.66525698570E+02 -0.14913573949E+03  0.38923473331E+03  0.42210284881E+03  0.00000000000E+00 0.  1.
         13    1    5    5    0    0  0.17703880172E+03 -0.15439086035E+03 -0.55594352255E+03  0.60353332579E+03  0.00000000000E+00 0. -1.
        -13    1    5    5    0    0  0.49480560792E+02 -0.20939432323E+02 -0.50810181887E+02  0.73949038572E+02  0.00000000000E+00 0.  1.
          2    1    6    6  503    0 -0.38705284946E+03  0.52873892435E+03 -0.10599477331E+04  0.12461396211E+04  0.00000000000E+00 0. -1.
         -2    1    6    6    0  503 -0.36951490826E+01  0.38814040252E+02 -0.90126410163E+02  0.98198542028E+02  0.00000000000E+00 0.  1.
<mgrwt>
<rscale>  0 0.27102292E+04</rscale>
<asrwt>0</asrwt>
<pdfrwt beam="1">  1        2 0.29972114E+00 0.27102292E+04</pdfrwt>
<pdfrwt beam="2">  1       -1 0.14501334E+00 0.27102292E+04</pdfrwt>
<totfact> 0.27199744E+00</totfact>
</mgrwt>
</event>
<event>
12    7  0.1711607E-007  0.1529379E+04  0.7818608E-02  0.8865148E-01
          2   -1    0    0  501    0  0.00000000000E+00  0.00000000000E+00  0.15761462129E+04  0.15761462129E+04  0.00000000000E+00 0. -1.
         -1   -1    0    0    0  501 -0.00000000000E+00 -0.00000000000E+00 -0.37099991209E+03  0.37099991209E+03  0.00000000000E+00 0.  1.
         24    2    1    2    0    0  0.17090904797E+03 -0.10792030029E+03  0.92085436348E+03  0.94609441320E+03  0.79152928242E+02 0.  0.
        254    2    1    2    0    0 -0.17090904797E+03  0.10792030029E+03  0.28429193733E+03  0.10010517118E+04  0.93831014605E+03 0.  0.
         23    2    4    4    0    0  0.13624882766E+03 -0.34043256759E+03  0.24016666187E+03  0.44819745003E+03  0.93503222496E+02 0.  0.
         23    2    4    4    0    0 -0.30715787563E+03  0.44835286788E+03  0.44125275454E+02  0.55285426177E+03  0.91293702562E+02 0.  0.
          4    1    3    3  502    0  0.16032823722E+03 -0.68732240620E+02  0.69065835293E+03  0.71234698358E+03  0.00000000000E+00 0. -1.
         -3    1    3    3    0  502  0.10580810748E+02 -0.39188059665E+02  0.23019601055E+03  0.23374742961E+03  0.00000000000E+00 0.  1.
         13    1    5    5    0    0  0.50058193597E+01 -0.61806672108E+02  0.80374368206E+01  0.62527780507E+02  0.00000000000E+00 0.  1.
        -13    1    5    5    0    0  0.13124300830E+03 -0.27862589549E+03  0.23212922505E+03  0.38566966952E+03  0.00000000000E+00 0. -1.
          3    1    6    6  503    0 -0.27808468596E+03  0.36851676308E+03  0.62636997169E+02  0.46589600841E+03  0.00000000000E+00 0. -1.
         -3    1    6    6    0  503 -0.29073189673E+02  0.79836104803E+02 -0.18511721715E+02  0.86958253368E+02  0.00000000000E+00 0.  1.
<mgrwt>
<rscale>  0 0.15293791E+04</rscale>
<asrwt>0</asrwt>
<pdfrwt beam="1">  1        2 0.24248403E+00 0.15293791E+04</pdfrwt>
<pdfrwt beam="2">  1       -1 0.57076910E-01 0.15293791E+04</pdfrwt>
<totfact> 0.39259430E+01</totfact>
</mgrwt>
</event>
<event>
12    7  0.1711607E-007  0.2447168E+04  0.7818608E-02  0.8422053E-01
         -1   -1    0    0    0  501 -0.00000000000E+00  0.00000000000E+00  0.12910347804E+04  0.12910347804E+04  0.00000000000E+00 0.  1.
          2   -1    0    0  501    0  0.00000000000E+00 -0.00000000000E+00 -0.11596574205E+04  0.11596574205E+04  0.00000000000E+00 0. -1.
         24    2    1    2    0    0  0.90914324568E+03 -0.77199707090E+02  0.58373565678E+03  0.10862322670E+04  0.81559701042E+02 0.  0.
        254    2    1    2    0    0 -0.90914324568E+03  0.77199707090E+02 -0.45235829686E+03  0.13644599339E+04  0.90808680559E+03 0.  0.
         23    2    4    4    0    0  0.28349719569E+01 -0.19094068365E+03  0.12831736940E+03  0.24698385004E+03  0.89829244428E+02 0.  0.
         23    2    4    4    0    0 -0.91197821764E+03  0.26814039074E+03 -0.58067566626E+03  0.11174760838E+04  0.89247016618E+02 0.  0.
          2    1    3    3  502    0  0.10645064313E+03  0.16602808332E+02  0.75297404617E+02  0.13144235166E+03  0.00000000000E+00 0. -1.
         -1    1    3    3    0  502  0.80269260255E+03 -0.93802515421E+02  0.50843825216E+03  0.95478991530E+03  0.00000000000E+00 0.  1.
         13    1    5    5    0    0  0.35168166875E+02 -0.10824947274E+03  0.10577178469E+03  0.15537830848E+03  0.00000000000E+00 0. -1.
        -13    1    5    5    0    0 -0.32333194918E+02 -0.82691210909E+02  0.22545584709E+02  0.91605541563E+02  0.00000000000E+00 0.  1.
          1    1    6    6  503    0 -0.86534799986E+03  0.26392640916E+03 -0.57051471002E+03  0.10695659609E+04  0.00000000000E+00 0. -1.
         -1    1    6    6    0  503 -0.46630217781E+02  0.42139815836E+01 -0.10160956240E+02  0.47910122967E+02  0.00000000000E+00 0.  1.
<mgrwt>
<rscale>  0 0.24471682E+04</rscale>
<asrwt>0</asrwt>
<pdfrwt beam="1">  1        2 0.17840883E+00 0.24471682E+04</pdfrwt>
<pdfrwt beam="2">  1       -1 0.19862074E+00 0.24471682E+04</pdfrwt>
<totfact> 0.31463300E+00</totfact>
</mgrwt>
</event>
<event>
12    7  0.1711607E-007  0.1462206E+04  0.7818608E-02  0.8909982E-01
          2   -1    0    0  501    0  0.00000000000E+00  0.00000000000E+00  0.64538891827E+03  0.64538891827E+03  0.00000000000E+00 0. -1.
         -1   -1    0    0    0  501 -0.00000000000E+00 -0.00000000000E+00 -0.82820084619E+03  0.82820084619E+03  0.00000000000E+00 0.  1.
         24    2    1    2    0    0 -0.42670629989E+03 -0.17550786499E+03 -0.70836640465E+02  0.47354448367E+03  0.79657211501E+02 0.  0.
        254    2    1    2    0    0  0.42670629989E+03  0.17550786499E+03 -0.11197528745E+03  0.10000452808E+04  0.88015386245E+03 0.  0.
         23    2    4    4    0    0  0.58860620147E+03 -0.15290150528E+03 -0.44443686001E+02  0.61654731879E+03  0.91209782162E+02 0.  0.
         23    2    4    4    0    0 -0.16189990158E+03  0.32840937027E+03 -0.67531601452E+02  0.38349796199E+03  0.91901452904E+02 0.  0.
          2    1    3    3  502    0 -0.29100533136E+02 -0.10351495778E+02  0.15302023464E+02  0.34469499790E+02  0.00000000000E+00 0. -1.
         -1    1    3    3    0  502 -0.39760576675E+03 -0.16515636921E+03 -0.86138663929E+02  0.43907498388E+03  0.00000000000E+00 0.  1.
         13    1    5    5    0    0  0.40927889975E+03 -0.11033314443E+03 -0.72714080308E+02  0.43008133884E+03  0.00000000000E+00 0. -1.
        -13    1    5    5    0    0  0.17932730171E+03 -0.42568360853E+02  0.28270394307E+02  0.18646597995E+03  0.00000000000E+00 0.  1.
          4    1    6    6  503    0 -0.80916139938E+02  0.15653794174E+03  0.13953956548E+02  0.17676612178E+03  0.00000000000E+00 0. -1.
         -4    1    6    6    0  503 -0.80983761639E+02  0.17187142853E+03 -0.81485558000E+02  0.20673184021E+03  0.00000000000E+00 0.  1.
<mgrwt>
<rscale>  0 0.14622061E+04</rscale>
<asrwt>0</asrwt>
<pdfrwt beam="1">  1        2 0.99290603E-01 0.14622061E+04</pdfrwt>
<pdfrwt beam="2">  1       -1 0.12741551E+00 0.14622061E+04</pdfrwt>
<totfact> 0.26793662E+01</totfact>
</mgrwt>
</event>
<event>
12    7  0.1711607E-007  0.2108013E+04  0.7818608E-02  0.8557722E-01
         -1   -1    0    0    0  501 -0.00000000000E+00  0.00000000000E+00  0.15885003627E+04  0.15885003627E+04  0.00000000000E+00 0.  1.
          2   -1    0    0  501    0  0.00000000000E+00 -0.00000000000E+00 -0.69935758812E+03  0.69935758812E+03  0.00000000000E+00 0. -1.
         24    2    1    2    0    0  0.82582970482E+03 -0.14533822892E+03  0.33682426337E+03  0.90747867155E+03  0.83360978693E+02 0.  0.
        254    2    1    2    0    0 -0.82582970482E+03  0.14533822892E+03  0.55231851125E+03  0.13803792793E+04  0.94724511863E+03 0.  0.
         23    2    4    4    0    0 -0.37940907443E+03  0.29603053715E+03 -0.16566021568E+03  0.51702870112E+03  0.91049689957E+02 0.  0.
         23    2    4    4    0    0 -0.44642063039E+03 -0.15069230823E+03  0.71797872693E+03  0.86335057820E+03  0.88776221784E+02 0.  0.
          4    1    3    3  502    0  0.72807339441E+03 -0.12857750801E+03  0.26654040153E+03  0.78591782577E+03  0.00000000000E+00 0. -1.
         -3    1    3    3    0  502  0.97756310403E+02 -0.16760720915E+02  0.70283861849E+02  0.12156084578E+03  0.00000000000E+00 0.  1.
         13    1    5    5    0    0 -0.37431366941E+03  0.26921989567E+03 -0.14689572494E+03  0.48390952599E+03  0.00000000000E+00 0. -1.
        -13    1    5    5    0    0 -0.50954050122E+01  0.26810641478E+02 -0.18764490745E+02  0.33119175135E+02  0.00000000000E+00 0.  1.
          1    1    6    6  503    0 -0.29945804836E+03 -0.14272073185E+03  0.51610449325E+03  0.61352113084E+03  0.00000000000E+00 0. -1.
         -1    1    6    6    0  503 -0.14696258203E+03 -0.79715763838E+01  0.20187423368E+03  0.24982944736E+03  0.00000000000E+00 0.  1.
<mgrwt>
<rscale>  0 0.21080131E+04</rscale>
<asrwt>0</asrwt>
<pdfrwt beam="1">  1        2 0.10759348E+00 0.21080131E+04</pdfrwt>
<pdfrwt beam="2">  1       -1 0.24438467E+00 0.21080131E+04</pdfrwt>
<totfact> 0.32715901E+00</totfact>
</mgrwt>
</event>
<event>
12    7  0.1711607E-007  0.1255626E+04  0.7818608E-02  0.9065514E-01
          2   -1    0    0  501    0  0.00000000000E+00  0.00000000000E+00  0.63315110937E+03  0.63315110937E+03  0.00000000000E+00 0. -1.
         -1   -1    0    0    0  501 -0.00000000000E+00 -0.00000000000E+00 -0.62251991153E+03  0.62251991153E+03  0.00000000000E+00 0.  1.
         24    2    1    2    0    0 -0.24774229851E+02  0.19868219626E+03  0.23155149303E+03  0.31771302287E+03  0.85071107928E+02 0.  0.
        254    2    1    2    0    0  0.24774229851E+02 -0.19868219626E+03 -0.22092029518E+03  0.93795799803E+03  0.88930931158E+03 0.  0.
         23    2    4    4    0    0 -0.41700478309E+03 -0.28549264747E+02 -0.66717050466E+02  0.43198060479E+03  0.86301960930E+02 0.  0.
         23    2    4    4    0    0  0.44177901294E+03 -0.17013293151E+03 -0.15420324472E+03  0.50597739323E+03  0.90114211553E+02 0.  0.
          2    1    3    3  502    0 -0.48928327213E+02  0.11085905883E+03  0.96937721855E+02  0.15517936089E+03  0.00000000000E+00 0. -1.
         -1    1    3    3    0  502  0.24154097362E+02  0.87823137434E+02  0.13461377118E+03  0.16253366198E+03  0.00000000000E+00 0.  1.
         13    1    5    5    0    0 -0.28125895061E+02  0.67091957482E+01 -0.26880768412E+02  0.39479804850E+02  0.00000000000E+00 0.  1.
        -13    1    5    5    0    0 -0.38887888803E+03 -0.35258460495E+02 -0.39836282054E+02  0.39250079994E+03  0.00000000000E+00 0. -1.
          4    1    6    6  503    0  0.33451641487E+03 -0.14807178919E+03 -0.15282260448E+03  0.39646088712E+03  0.00000000000E+00 0. -1.
         -4    1    6    6    0  503  0.10726259806E+03 -0.22061142322E+02 -0.13806402345E+01  0.10951650611E+03  0.00000000000E+00 0.  1.
<mgrwt>
<rscale>  0 0.12556260E+04</rscale>
<asrwt>0</asrwt>
<pdfrwt beam="1">  1        2 0.97407863E-01 0.12556260E+04</pdfrwt>
<pdfrwt beam="2">  1       -1 0.95772294E-01 0.12556260E+04</pdfrwt>
<totfact> 0.54884523E+01</totfact>
</mgrwt>
</event>
<event>
12    7  0.1711607E-007  0.3579093E+04  0.7818608E-02  0.8095298E-01
         -1   -1    0    0    0  501 -0.00000000000E+00  0.00000000000E+00  0.65568919058E+03  0.65568919058E+03  0.00000000000E+00 0.  1.
          2   -1    0    0  501    0  0.00000000000E+00 -0.00000000000E+00 -0.48841377563E+04  0.48841377563E+04  0.00000000000E+00 0. -1.
         24    2    1    2    0    0  0.46719980036E+03  0.15333105811E+02 -0.44991336209E+04  0.45240036382E+04  0.76777745433E+02 0.  0.
        254    2    1    2    0    0 -0.46719980036E+03 -0.15333105811E+02  0.27068505518E+03  0.10158233087E+04  0.86029985340E+03 0.  0.
         23    2    4    4    0    0 -0.12463757037E+03 -0.36516197698E+03  0.32591531148E+03  0.51498515964E+03  0.10055411979E+03 0.  0.
         23    2    4    4    0    0 -0.34256223000E+03  0.34982887117E+03 -0.55230256303E+02  0.50083814904E+03  0.89773881503E+02 0.  0.
          2    1    3    3  502    0  0.28083001627E+03 -0.26486369753E+02 -0.25666358384E+04  0.25820895710E+04  0.00000000000E+00 0. -1.
         -1    1    3    3    0  502  0.18636978410E+03  0.41819475564E+02 -0.19324977825E+04  0.19419140672E+04  0.00000000000E+00 0.  1.
         13    1    5    5    0    0 -0.84982100205E+02 -0.10306373964E+03  0.11381785322E+03  0.17549528625E+03  0.00000000000E+00 0. -1.
        -13    1    5    5    0    0 -0.39655470161E+02 -0.26209823734E+03  0.21209745826E+03  0.33948987339E+03  0.00000000000E+00 0.  1.
          2    1    6    6  503    0 -0.78098134692E+02  0.13926009674E+03 -0.13933292492E+02  0.16027111351E+03  0.00000000000E+00 0. -1.
         -2    1    6    6    0  503 -0.26446409530E+03  0.21056877443E+03 -0.41296963811E+02  0.34056703553E+03  0.00000000000E+00 0.  1.
<mgrwt>
<rscale>  0 0.35790928E+04</rscale>
<asrwt>0</asrwt>
<pdfrwt beam="1">  1        2 0.75140583E+00 0.35790928E+04</pdfrwt>
<pdfrwt beam="2">  1       -1 0.10087526E+00 0.35790928E+04</pdfrwt>
<totfact> 0.40869296E-02</totfact>
</mgrwt>
</event>
<event>
12    7  0.1711607E-007  0.1398541E+04  0.7818608E-02  0.8954875E-01
          2   -1    0    0  501    0  0.00000000000E+00  0.00000000000E+00  0.23260558416E+04  0.23260558416E+04  0.00000000000E+00 0. -1.
         -1   -1    0    0    0  501 -0.00000000000E+00 -0.00000000000E+00 -0.21021812265E+03  0.21021812265E+03  0.00000000000E+00 0.  1.
         24    2    1    2    0    0  0.77767625722E+02 -0.33378510746E+03  0.99408481682E+03  0.10545106126E+04  0.79546888464E+02 0.  0.
        254    2    1    2    0    0 -0.77767625722E+02  0.33378510746E+03  0.11217529021E+04  0.14817633517E+04  0.90544616366E+03 0.  0.
         23    2    4    4    0    0  0.18918544343E+03 -0.24554079988E+03  0.40400428005E+03  0.51757640562E+03  0.92652366084E+02 0.  0.
         23    2    4    4    0    0 -0.26695306916E+03  0.57932590734E+03  0.71774862209E+03  0.96418694604E+03  0.87240669216E+02 0.  0.
          4    1    3    3  502    0  0.70835408009E+02 -0.26310023775E+03  0.86845377132E+03  0.91019302516E+03  0.00000000000E+00 0. -1.
         -3    1    3    3    0  502  0.69322177122E+01 -0.70684869713E+02  0.12563104550E+03  0.14431758743E+03  0.00000000000E+00 0.  1.
         13    1    5    5    0    0  0.35779986911E+02 -0.38685483280E+01  0.31770161860E+02  0.48005377971E+02  0.00000000000E+00 0. -1.
        -13    1    5    5    0    0  0.15340545652E+03 -0.24167225155E+03  0.37223411819E+03  0.46957102764E+03  0.00000000000E+00 0.  1.
          1    1    6    6  503    0 -0.14832104357E+03  0.22014756865E+03  0.30429104276E+03  0.40380332175E+03  0.00000000000E+00 0. -1.
         -1    1    6    6    0  503 -0.11863202558E+03  0.35917833869E+03  0.41345757933E+03  0.56038362429E+03  0.00000000000E+00 0.  1.
<mgrwt>
<rscale>  0 0.13985408E+04</rscale>
<asrwt>0</asrwt>
<pdfrwt beam="1">  1        2 0.35785473E+00 0.13985408E+04</pdfrwt>
<pdfrwt beam="2">  1       -1 0.32341251E-01 0.13985408E+04</pdfrwt>
<totfact> 0.43507458E+01</totfact>
</mgrwt>
</event>
<event>
12    7  0.1711607E-007  0.1406048E+04  0.7818608E-02  0.8949452E-01
          2   -1    0    0  501    0  0.00000000000E+00  0.00000000000E+00  0.99802077695E+03  0.99802077695E+03  0.00000000000E+00 0. -1.
         -1   -1    0    0    0  501 -0.00000000000E+00 -0.00000000000E+00 -0.49522282581E+03  0.49522282581E+03  0.00000000000E+00 0.  1.
         24    2    1    2    0    0 -0.36565304702E+03  0.18160318855E+03  0.81950905179E+02  0.42385105249E+03  0.79068925341E+02 0.  0.
        254    2    1    2    0    0  0.36565304702E+03 -0.18160318855E+03  0.42084704596E+03  0.10693925503E+04  0.89431891492E+03 0.  0.
         23    2    4    4    0    0 -0.16167609656E+02  0.32671542503E+03  0.16942684110E+03  0.37963362011E+03  0.91716249820E+02 0.  0.
         23    2    4    4    0    0  0.38182065667E+03 -0.50831861358E+03  0.25142020486E+03  0.68975893016E+03  0.91544718826E+02 0.  0.
          2    1    3    3  502    0 -0.10140911903E+03  0.80381622046E+02  0.53454542057E+00  0.12940363335E+03  0.00000000000E+00 0. -1.
         -1    1    3    3    0  502 -0.26424392799E+03  0.10122156651E+03  0.81416359759E+02  0.29444741915E+03  0.00000000000E+00 0.  1.
         13    1    5    5    0    0 -0.34797440111E+02  0.29564706757E+03  0.17112432918E+03  0.34336800439E+03  0.00000000000E+00 0.  1.
        -13    1    5    5    0    0  0.18629830455E+02  0.31068357457E+02 -0.16974880809E+01  0.36265615721E+02  0.00000000000E+00 0. -1.
          1    1    6    6  503    0  0.15189317803E+03 -0.23211131982E+03  0.65025585442E+02  0.28491319570E+03  0.00000000000E+00 0. -1.
         -1    1    6    6    0  503  0.22992747865E+03 -0.27620729376E+03  0.18639461942E+03  0.40484573446E+03  0.00000000000E+00 0.  1.
<mgrwt>
<rscale>  0 0.14060479E+04</rscale>
<asrwt>0</asrwt>
<pdfrwt beam="1">  1        2 0.15354166E+00 0.14060479E+04</pdfrwt>
<pdfrwt beam="2">  1       -1 0.76188127E-01 0.14060479E+04</pdfrwt>
<totfact> 0.48517045E+01</totfact>
</mgrwt>
</event>
<event>
12    7  0.1711607E-007  0.2023604E+04  0.7818608E-02  0.8595664E-01
          2   -1    0    0  501    0  0.00000000000E+00  0.00000000000E+00  0.10935834747E+04  0.10935834747E+04  0.00000000000E+00 0. -1.
         -1   -1    0    0    0  501 -0.00000000000E+00 -0.00000000000E+00 -0.93613611591E+03  0.93613611591E+03  0.00000000000E+00 0.  1.
         24    2    1    2    0    0  0.34093657815E+03 -0.38038793516E+02 -0.67518754959E+03  0.76157682582E+03  0.80226768415E+02 0.  0.
        254    2    1    2    0    0 -0.34093657815E+03  0.38038793516E+02  0.83263490838E+03  0.12681427648E+04  0.89287204072E+03 0.  0.
         23    2    4    4    0    0 -0.29753761752E+03  0.23682408997E+03  0.94189053128E+03  0.10198964578E+04  0.91742728600E+02 0.  0.
         23    2    4    4    0    0 -0.43398960627E+02 -0.19878529646E+03 -0.10925562290E+03  0.24824630701E+03  0.91051490590E+02 0.  0.
          4    1    3    3  502    0  0.23979503898E+02 -0.12126872199E+02 -0.20706506050E+02  0.33923988995E+02  0.00000000000E+00 0. -1.
         -3    1    3    3    0  502  0.31695707425E+03 -0.25911921316E+02 -0.65448104354E+03  0.72765283682E+03  0.00000000000E+00 0.  1.
         13    1    5    5    0    0 -0.12482876644E+02 -0.26537870323E+01  0.94525478049E+01  0.15881292609E+02  0.00000000000E+00 0.  1.
        -13    1    5    5    0    0 -0.28505474087E+03  0.23947787700E+03  0.93243798347E+03  0.10040151652E+04  0.00000000000E+00 0. -1.
          2    1    6    6  503    0 -0.17442745560E+01 -0.17362576177E+03 -0.92789805260E+02  0.19687279041E+03  0.00000000000E+00 0. -1.
         -2    1    6    6    0  503 -0.41654686071E+02 -0.25159534686E+02 -0.16465817637E+02  0.51373516599E+02  0.00000000000E+00 0.  1.
<mgrwt>
<rscale>  0 0.20236037E+04</rscale>
<asrwt>0</asrwt>
<pdfrwt beam="1">  1        2 0.16824361E+00 0.20236037E+04</pdfrwt>
<pdfrwt beam="2">  1       -1 0.14402094E+00 0.20236037E+04</pdfrwt>
<totfact> 0.90455242E+00</totfact>
</mgrwt>
</event>
<event>
12    7  0.1711607E-007  0.1883241E+04  0.7818608E-02  0.8663244E-01
          2   -1    0    0  501    0  0.00000000000E+00  0.00000000000E+00  0.15307171718E+04  0.15307171718E+04  0.00000000000E+00 0. -1.
         -1   -1    0    0    0  501 -0.00000000000E+00 -0.00000000000E+00 -0.57923792620E+03  0.57923792620E+03  0.00000000000E+00 0.  1.
         24    2    1    2    0    0 -0.22809652225E+03  0.31630587808E+03  0.10457726901E+04  0.11188192926E+04  0.77708803519E+02 0.  0.
        254    2    1    2    0    0  0.22809652225E+03 -0.31630587808E+03 -0.94293444446E+02  0.99113580546E+03  0.90630099814E+03 0.  0.
         23    2    4    4    0    0  0.25874646264E+02 -0.36515038811E+03  0.33457832827E+03  0.50572741885E+03  0.99061905747E+02 0.  0.
         23    2    4    4    0    0  0.20222187598E+03  0.48844510026E+02 -0.42887177272E+03  0.48540838662E+03  0.91710583228E+02 0.  0.
          4    1    3    3  502    0 -0.22223536211E+03  0.26495395729E+03  0.89968004404E+03  0.96385337956E+03  0.00000000000E+00 0. -1.
         -3    1    3    3    0  502 -0.58611601398E+01  0.51351920794E+02  0.14609264606E+03  0.15496591302E+03  0.00000000000E+00 0.  1.
         13    1    5    5    0    0  0.54859126227E+00 -0.18908002164E+03  0.10829692858E+03  0.21789855501E+03  0.00000000000E+00 0. -1.
        -13    1    5    5    0    0  0.25326055002E+02 -0.17607036647E+03  0.22628139970E+03  0.28782886384E+03  0.00000000000E+00 0.  1.
          4    1    6    6  503    0  0.21636462449E+02  0.20062020521E+02 -0.15354478964E+02  0.33262308984E+02  0.00000000000E+00 0. -1.
         -4    1    6    6    0  503  0.18058541353E+03  0.28782489506E+02 -0.41351729375E+03  0.45214607763E+03  0.00000000000E+00 0.  1.
<mgrwt>
<rscale>  0 0.18832413E+04</rscale>
<asrwt>0</asrwt>
<pdfrwt beam="1">  1        2 0.23549495E+00 0.18832413E+04</pdfrwt>
<pdfrwt beam="2">  1       -1 0.89113528E-01 0.18832413E+04</pdfrwt>
<totfact> 0.16090607E+01</totfact>
</mgrwt>
</event>
<event>
12    7  0.1711607E-007  0.1441953E+04  0.7818608E-02  0.8923998E-01
          2   -1    0    0  501    0  0.00000000000E+00  0.00000000000E+00  0.43162695394E+03  0.43162695394E+03  0.00000000000E+00 0. -1.
         -3   -1    0    0    0  501 -0.00000000000E+00 -0.00000000000E+00 -0.12042971704E+04  0.12042971704E+04  0.00000000000E+00 0.  1.
         24    2    1    2    0    0 -0.65722453376E+00  0.44740430056E+03 -0.10430814416E+03  0.46625591583E+03  0.79645150542E+02 0.  0.
        254    2    1    2    0    0  0.65722453376E+00 -0.44740430056E+03 -0.66836207229E+03  0.11696682085E+04  0.84926133680E+03 0.  0.
         23    2    4    4    0    0  0.30697942601E+02  0.19398508164E+03 -0.42483101358E+03  0.47680396464E+03  0.91038755582E+02 0.  0.
         23    2    4    4    0    0 -0.30040718067E+02 -0.64138938221E+03 -0.24353105871E+03  0.69286424386E+03  0.92036403180E+02 0.  0.
          2    1    3    3  502    0  0.16081331950E+02  0.42996330667E+03 -0.98969056418E+02  0.44149963584E+03  0.00000000000E+00 0. -1.
         -1    1    3    3    0  502 -0.16738556484E+02  0.17440993895E+02 -0.53390877370E+01  0.24756279993E+02  0.00000000000E+00 0.  1.
         13    1    5    5    0    0  0.26864996983E+02  0.56698686257E+02 -0.23018721320E+03  0.23858462274E+03  0.00000000000E+00 0. -1.
        -13    1    5    5    0    0  0.38329456184E+01  0.13728639539E+03 -0.19464380038E+03  0.23821934190E+03  0.00000000000E+00 0.  1.
          1    1    6    6  503    0 -0.27590558772E+02 -0.64332299667E+03 -0.24555241937E+03  0.68914563601E+03  0.00000000000E+00 0. -1.
         -1    1    6    6    0  503 -0.24501592956E+01  0.19336144609E+01  0.20213606509E+01  0.37186078495E+01  0.00000000000E+00 0.  1.
<mgrwt>
<rscale>  0 0.14419530E+04</rscale>
<asrwt>0</asrwt>
<pdfrwt beam="1">  1        2 0.66404148E-01 0.14419530E+04</pdfrwt>
<pdfrwt beam="2">  1       -3 0.18527649E+00 0.14419530E+04</pdfrwt>
<totfact> 0.80696169E+00</totfact>
</mgrwt>
</event>
<event>
12    7  0.1711607E-007  0.1888660E+04  0.7818608E-02  0.8660522E-01
          2   -1    0    0  501    0  0.00000000000E+00  0.00000000000E+00  0.21270635814E+04  0.21270635814E+04  0.00000000000E+00 0. -1.
         -1   -1    0    0    0  501 -0.00000000000E+00 -0.00000000000E+00 -0.41924404396E+03  0.41924404396E+03  0.00000000000E+00 0.  1.
         24    2    1    2    0    0  0.23497714236E+03  0.28391920447E+03 -0.18113055499E+03  0.41824057074E+03  0.79325437018E+02 0.  0.
        254    2    1    2    0    0 -0.23497714236E+03 -0.28391920447E+03  0.18889500924E+04  0.21280670546E+04  0.90813686478E+03 0.  0.
         23    2    4    4    0    0 -0.32184389404E+03 -0.56406515854E+03  0.10882673373E+04  0.12704103494E+04  0.88677297084E+02 0.  0.
         23    2    4    4    0    0  0.86866751678E+02  0.28014595407E+03  0.80068275507E+03  0.85765670525E+03  0.91948690362E+02 0.  0.
          4    1    3    3  502    0  0.68089765653E+02  0.14359035959E+03 -0.78627139653E+02  0.17730379196E+03  0.00000000000E+00 0. -1.
         -3    1    3    3    0  502  0.16688737671E+03  0.14032884488E+03 -0.10250341534E+03  0.24093677878E+03  0.00000000000E+00 0.  1.
         13    1    5    5    0    0 -0.29900689239E+03 -0.55110552773E+03  0.10203787861E+04  0.11976206793E+04  0.00000000000E+00 0. -1.
        -13    1    5    5    0    0 -0.22837001647E+02 -0.12959630810E+02  0.67888551289E+02  0.72789670085E+02  0.00000000000E+00 0.  1.
          3    1    6    6  503    0  0.87792479484E+01  0.76672543485E+02  0.33091709264E+03  0.33979681623E+03  0.00000000000E+00 0. -1.
         -3    1    6    6    0  503  0.78087503730E+02  0.20347341059E+03  0.46976566243E+03  0.51785988902E+03  0.00000000000E+00 0.  1.
<mgrwt>
<rscale>  0 0.18886596E+04</rscale>
<asrwt>0</asrwt>
<pdfrwt beam="1">  1        2 0.32724055E+00 0.18886596E+04</pdfrwt>
<pdfrwt beam="2">  1       -1 0.64499085E-01 0.18886596E+04</pdfrwt>
<totfact> 0.14764159E+01</totfact>
</mgrwt>
</event>
<event>
12    7  0.1711607E-007  0.2938349E+04  0.7818608E-02  0.8261558E-01
         -1   -1    0    0    0  501 -0.00000000000E+00  0.00000000000E+00  0.22132191215E+04  0.22132191215E+04  0.00000000000E+00 0.  1.
          2   -1    0    0  501    0  0.00000000000E+00 -0.00000000000E+00 -0.97526428604E+03  0.97526428604E+03  0.00000000000E+00 0. -1.
         24    2    1    2    0    0 -0.12094226348E+04 -0.45496022037E+03  0.90474342032E+03  0.15795288427E+04  0.81601448720E+02 0.  0.
        254    2    1    2    0    0  0.12094226348E+04  0.45496022037E+03  0.33321141519E+03  0.16089545649E+04  0.89889545163E+03 0.  0.
         23    2    4    4    0    0  0.11854383411E+04  0.10512849442E+03  0.35718571061E+03  0.12459036004E+04  0.91531900016E+02 0.  0.
         23    2    4    4    0    0  0.23984293779E+02  0.34983172595E+03 -0.23974295421E+02  0.36305096456E+03  0.90960173678E+02 0.  0.
          2    1    3    3  502    0 -0.86073738204E+03 -0.31828991823E+03  0.59704397788E+03  0.10948236499E+04  0.00000000000E+00 0. -1.
         -1    1    3    3    0  502 -0.34868525280E+03 -0.13667030214E+03  0.30769944244E+03  0.48470519276E+03  0.00000000000E+00 0.  1.
         13    1    5    5    0    0  0.37195748327E+02  0.13857001034E+02  0.25712819679E+02  0.47293649331E+02  0.00000000000E+00 0.  1.
        -13    1    5    5    0    0  0.11482425927E+04  0.91271493385E+02  0.33147289093E+03  0.11986099510E+04  0.00000000000E+00 0. -1.
          4    1    6    6  503    0  0.28075160520E+01  0.33744837246E+03 -0.18825223959E+02  0.33798472640E+03  0.00000000000E+00 0. -1.
         -4    1    6    6    0  503  0.21176777727E+02  0.12383353495E+02 -0.51490714629E+01  0.25066238163E+02  0.00000000000E+00 0.  1.
<mgrwt>
<rscale>  0 0.29383489E+04</rscale>
<asrwt>0</asrwt>
<pdfrwt beam="1">  1        2 0.15004066E+00 0.29383489E+04</pdfrwt>
<pdfrwt beam="2">  1       -1 0.34049525E+00 0.29383489E+04</pdfrwt>
<totfact> 0.46012445E-01</totfact>
</mgrwt>
</event>
<event>
12    7  0.1711607E-007  0.2674178E+04  0.7818608E-02  0.8343432E-01
          2   -1    0    0  501    0  0.00000000000E+00  0.00000000000E+00  0.31427483815E+04  0.31427483815E+04  0.00000000000E+00 0. -1.
         -1   -1    0    0    0  501 -0.00000000000E+00 -0.00000000000E+00 -0.56886755035E+03  0.56886755035E+03  0.00000000000E+00 0.  1.
         24    2    1    2    0    0 -0.63068128275E+02  0.54934345991E+03  0.26263669884E+04  0.26851386974E+04  0.80065230373E+02 0.  0.
        254    2    1    2    0    0  0.63068128275E+02 -0.54934345991E+03 -0.52486157219E+02  0.10264772344E+04  0.86321775372E+03 0.  0.
         23    2    4    4    0    0  0.24573026945E+03 -0.43051847244E+03 -0.37423970481E+03  0.62634153075E+03  0.80739309186E+02 0.  0.
         23    2    4    4    0    0 -0.18266214118E+03 -0.11882498746E+03  0.32175354760E+03  0.40013570367E+03  0.95385536073E+02 0.  0.
          2    1    3    3  502    0 -0.45563277810E+02  0.53202835606E+03  0.24986117394E+04  0.25550324476E+04  0.00000000000E+00 0. -1.
         -1    1    3    3    0  502 -0.17504850464E+02  0.17315103849E+02  0.12775524896E+03  0.13010624984E+03  0.00000000000E+00 0.  1.
         13    1    5    5    0    0  0.58644323238E+02 -0.12160218272E+03 -0.14728946314E+03  0.19980098459E+03  0.00000000000E+00 0. -1.
        -13    1    5    5    0    0  0.18708594621E+03 -0.30891628972E+03 -0.22695024167E+03  0.42654054616E+03  0.00000000000E+00 0.  1.
          2    1    6    6  503    0 -0.11413810256E+03 -0.41621266440E+02  0.23796113410E+03  0.26718034662E+03  0.00000000000E+00 0.  1.
         -2    1    6    6    0  503 -0.68524038619E+02 -0.77203721025E+02  0.83792413496E+02  0.13295535705E+03  0.00000000000E+00 0. -1.
<mgrwt>
<rscale>  0 0.26741784E+04</rscale>
<asrwt>0</asrwt>
<pdfrwt beam="1">  1        2 0.48349974E+00 0.26741784E+04</pdfrwt>
<pdfrwt beam="2">  1       -1 0.87518087E-01 0.26741784E+04</pdfrwt>
<totfact> 0.18133873E+00</totfact>
</mgrwt>
</event>
<event>
12    7  0.1711607E-007  0.2035039E+04  0.7818608E-02  0.8590412E-01
         -1   -1    0    0    0  501 -0.00000000000E+00  0.00000000000E+00  0.29587419666E+03  0.29587419666E+03  0.00000000000E+00 0.  1.
          2   -1    0    0  501    0  0.00000000000E+00 -0.00000000000E+00 -0.34992762282E+04  0.34992762282E+04  0.00000000000E+00 0. -1.
         24    2    1    2    0    0 -0.53179957355E+02  0.81123804525E+03 -0.11708021396E+04  0.14276986783E+04  0.81305547829E+02 0.  0.
        254    2    1    2    0    0  0.53179957355E+02 -0.81123804525E+03 -0.20325998920E+04  0.23674517466E+04  0.90134908746E+03 0.  0.
         23    2    4    4    0    0  0.61724116246E+02 -0.98479301299E+03 -0.14989136291E+04  0.17968504149E+04  0.91116416043E+02 0.  0.
         23    2    4    4    0    0 -0.85441588909E+01  0.17355496774E+03 -0.53368626295E+03  0.57060133166E+03  0.10281304852E+03 0.  0.
          4    1    3    3  502    0  0.15973815705E+02  0.15367412196E+03 -0.19086948751E+03  0.24556477722E+03  0.00000000000E+00 0. -1.
         -3    1    3    3    0  502 -0.69153773060E+02  0.65756392329E+03 -0.97993265205E+03  0.11821339011E+04  0.00000000000E+00 0.  1.
         13    1    5    5    0    0  0.85595253140E+02 -0.75363447305E+03 -0.11554193175E+04  0.13821306977E+04  0.00000000000E+00 0.  1.
        -13    1    5    5    0    0 -0.23871136894E+02 -0.23115853994E+03 -0.34349431159E+03  0.41471971723E+03  0.00000000000E+00 0. -1.
          4    1    6    6  503    0  0.34914313355E+02  0.73746682186E+02 -0.32669515060E+03  0.33673031322E+03  0.00000000000E+00 0. -1.
         -4    1    6    6    0  503 -0.43458472245E+02  0.99808285558E+02 -0.20699111235E+03  0.23387101844E+03  0.00000000000E+00 0.  1.
<mgrwt>
<rscale>  0 0.20350386E+04</rscale>
<asrwt>0</asrwt>
<pdfrwt beam="1">  1        2 0.53835020E+00 0.20350386E+04</pdfrwt>
<pdfrwt beam="2">  1       -1 0.45519106E-01 0.20350386E+04</pdfrwt>
<totfact> 0.41353121E+00</totfact>
</mgrwt>
</event>
<event>
12    7  0.1711607E-007  0.1616724E+04  0.7818608E-02  0.8810339E-01
          2   -1    0    0  501    0  0.00000000000E+00  0.00000000000E+00  0.20502509808E+04  0.20502509808E+04  0.00000000000E+00 0. -1.
         -1   -1    0    0    0  501 -0.00000000000E+00 -0.00000000000E+00 -0.31871653921E+03  0.31871653921E+03  0.00000000000E+00 0.  1.
         24    2    1    2    0    0  0.65716148164E+02 -0.51528743584E+03  0.92182057049E+03  0.10609182055E+04  0.77165542389E+02 0.  0.
        254    2    1    2    0    0 -0.65716148164E+02  0.51528743584E+03  0.80971387107E+03  0.13080493145E+04  0.88629380140E+03 0.  0.
         23    2    4    4    0    0 -0.37544846088E+03  0.46233259612E+03  0.23485066824E+03  0.64665799338E+03  0.91097463244E+02 0.  0.
         23    2    4    4    0    0  0.30973231272E+03  0.52954839721E+02  0.57486320283E+03  0.66139132109E+03  0.90732888483E+02 0.  0.
          4    1    3    3  502    0  0.53500886263E+02 -0.39697852063E+03  0.63988833756E+03  0.75492474805E+03  0.00000000000E+00 0. -1.
         -3    1    3    3    0  502  0.12215261901E+02 -0.11830891521E+03  0.28193223293E+03  0.30599345746E+03  0.00000000000E+00 0.  1.
         13    1    5    5    0    0 -0.20180732083E+03  0.17947026026E+03  0.91881291108E+02  0.28526819086E+03  0.00000000000E+00 0. -1.
        -13    1    5    5    0    0 -0.17364114005E+03  0.28286233586E+03  0.14296937713E+03  0.36138980252E+03  0.00000000000E+00 0.  1.
          4    1    6    6  503    0  0.19529952538E+03  0.26491565752E+02  0.44264205720E+03  0.48453658115E+03  0.00000000000E+00 0.  1.
         -4    1    6    6    0  503  0.11443278734E+03  0.26463273969E+02  0.13222114563E+03  0.17685473994E+03  0.00000000000E+00 0. -1.
<mgrwt>
<rscale>  0 0.16167237E+04</rscale>
<asrwt>0</asrwt>
<pdfrwt beam="1">  1        2 0.31542322E+00 0.16167237E+04</pdfrwt>
<pdfrwt beam="2">  1       -1 0.49033315E-01 0.16167237E+04</pdfrwt>
<totfact> 0.28473818E+01</totfact>
</mgrwt>
</event>
<event>
12    7  0.1711607E-007  0.1583971E+04  0.7818608E-02  0.8830456E-01
          2   -1    0    0  501    0  0.00000000000E+00  0.00000000000E+00  0.25025837268E+04  0.25025837268E+04  0.00000000000E+00 0. -1.
         -1   -1    0    0    0  501 -0.00000000000E+00 -0.00000000000E+00 -0.25063740561E+03  0.25063740561E+03  0.00000000000E+00 0.  1.
         24    2    1    2    0    0  0.25981782507E+03  0.37243038791E+03  0.12614471177E+04  0.13431262593E+04  0.80806075070E+02 0.  0.
        254    2    1    2    0    0 -0.25981782507E+03 -0.37243038791E+03  0.99049920349E+03  0.14100948731E+04  0.89502468280E+03 0.  0.
         23    2    4    4    0    0  0.36755693716E+02 -0.25083392096E+02 -0.14843669334E+03  0.17929210665E+03  0.90177879769E+02 0.  0.
         23    2    4    4    0    0 -0.29657351879E+03 -0.34734699582E+03  0.11389358968E+04  0.12308027664E+04  0.95366058603E+02 0.  0.
          4    1    3    3  502    0  0.12763154388E+03  0.20441657349E+03  0.77928060453E+03  0.81569247092E+03  0.00000000000E+00 0. -1.
         -3    1    3    3    0  502  0.13218628119E+03  0.16801381442E+03  0.48216651314E+03  0.52743378842E+03  0.00000000000E+00 0.  1.
         13    1    5    5    0    0  0.38676276557E+02  0.22600402229E+02 -0.10734317867E+03  0.11631504871E+03  0.00000000000E+00 0. -1.
        -13    1    5    5    0    0 -0.19205828415E+01 -0.47683794325E+02 -0.41093514674E+02  0.62977057949E+02  0.00000000000E+00 0.  1.
          3    1    6    6  503    0 -0.28166921183E+03 -0.33846708398E+03  0.11263645596E+04  0.12093777875E+04  0.00000000000E+00 0. -1.
         -3    1    6    6    0  503 -0.14904306956E+02 -0.88799118431E+01  0.12571337238E+02  0.21424978883E+02  0.00000000000E+00 0.  1.
<mgrwt>
<rscale>  0 0.15839711E+04</rscale>
<asrwt>0</asrwt>
<pdfrwt beam="1">  1        2 0.38501286E+00 0.15839711E+04</pdfrwt>
<pdfrwt beam="2">  1       -1 0.38559603E-01 0.15839711E+04</pdfrwt>
<totfact> 0.24760313E+01</totfact>
</mgrwt>
</event>
<event>
12    7  0.1711607E-007  0.1296601E+04  0.7818608E-02  0.9032265E-01
          4   -1    0    0  501    0  0.00000000000E+00  0.00000000000E+00  0.15392385592E+03  0.15392385592E+03  0.00000000000E+00 0. -1.
         -3   -1    0    0    0  501 -0.00000000000E+00 -0.00000000000E+00 -0.27305280024E+04  0.27305280024E+04  0.00000000000E+00 0.  1.
         24    2    1    2    0    0 -0.29927593334E+02 -0.32280816863E+03 -0.79970039800E+03  0.86607234982E+03  0.73890554105E+02 0.  0.
        254    2    1    2    0    0  0.29927593334E+02  0.32280816863E+03 -0.17769037485E+04  0.20183795085E+04  0.90075975397E+03 0.  0.
         23    2    4    4    0    0  0.17347879557E+03  0.31959706129E+02 -0.16440201701E+04  0.16560601504E+04  0.92825570426E+02 0.  0.
         23    2    4    4    0    0 -0.14355120223E+03  0.29084846250E+03 -0.13288357838E+03  0.36231935815E+03  0.91746913206E+02 0.  0.
          4    1    3    3  502    0 -0.30678068803E+01 -0.26731509224E+03 -0.59517614684E+03  0.65245798006E+03  0.00000000000E+00 0. -1.
         -3    1    3    3    0  502 -0.26859786454E+02 -0.55493076394E+02 -0.20452425115E+03  0.21361436975E+03  0.00000000000E+00 0.  1.
         13    1    5    5    0    0  0.59566770261E+02  0.55627407255E+02 -0.77869799871E+03  0.78295158328E+03  0.00000000000E+00 0. -1.
        -13    1    5    5    0    0  0.11391202531E+03 -0.23667701125E+02 -0.86532217144E+03  0.87310856711E+03  0.00000000000E+00 0.  1.
          3    1    6    6  503    0 -0.57039918111E+02  0.12691172175E+03 -0.91261811758E+01  0.13943968072E+03  0.00000000000E+00 0. -1.
         -3    1    6    6    0  503 -0.86511284124E+02  0.16393674075E+03 -0.12375739720E+03  0.22287967743E+03  0.00000000000E+00 0.  1.
<mgrwt>
<rscale>  0 0.12966008E+04</rscale>
<asrwt>0</asrwt>
<pdfrwt beam="1">  1        4 0.23680596E-01 0.12966008E+04</pdfrwt>
<pdfrwt beam="2">  1       -3 0.42008119E+00 0.12966008E+04</pdfrwt>
<totfact> 0.31695536E-01</totfact>
</mgrwt>
</event>
<event>
12    7  0.1711607E-007  0.2745911E+04  0.7818608E-02  0.8320260E-01
         -1   -1    0    0    0  501 -0.00000000000E+00  0.00000000000E+00  0.27293325803E+04  0.27293325803E+04  0.00000000000E+00 0.  1.
          2   -1    0    0  501    0  0.00000000000E+00 -0.00000000000E+00 -0.69064766345E+03  0.69064766345E+03  0.00000000000E+00 0. -1.
         24    2    1    2    0    0  0.10603011196E+04  0.40767760105E+03  0.34370787745E+03  0.11894612483E+04  0.79015603022E+02 0.  0.
        254    2    1    2    0    0 -0.10603011196E+04 -0.40767760105E+03  0.16949770394E+04  0.22305189954E+04  0.90101516869E+03 0.  0.
         23    2    4    4    0    0 -0.18643210470E+02 -0.35128468763E+03  0.23298513796E+03  0.43220340475E+03  0.93644046872E+02 0.  0.
         23    2    4    4    0    0 -0.10416579092E+04 -0.56392913421E+02  0.14619919014E+04  0.17983155906E+04  0.91034517634E+02 0.  0.
          4    1    3    3  502    0  0.23973746431E+03  0.71031000490E+02  0.48599722007E+02  0.25471825180E+03  0.00000000000E+00 0. -1.
         -3    1    3    3    0  502  0.82056365532E+03  0.33664660056E+03  0.29510815544E+03  0.93474299650E+03  0.00000000000E+00 0.  1.
         13    1    5    5    0    0  0.33329550483E+02 -0.20266387626E+03  0.14914374049E+03  0.25382545382E+03  0.00000000000E+00 0. -1.
        -13    1    5    5    0    0 -0.51972760953E+02 -0.14862081137E+03  0.83841397462E+02  0.17837795094E+03  0.00000000000E+00 0.  1.
          3    1    6    6  503    0 -0.81857092675E+03 -0.58629771980E+02  0.10875083514E+04  0.13624133832E+04  0.00000000000E+00 0. -1.
         -3    1    6    6    0  503 -0.22308698240E+03  0.22368585596E+01  0.37448355004E+03  0.43590220750E+03  0.00000000000E+00 0.  1.
<mgrwt>
<rscale>  0 0.27459113E+04</rscale>
<asrwt>0</asrwt>
<pdfrwt beam="1">  1        2 0.10625349E+00 0.27459113E+04</pdfrwt>
<pdfrwt beam="2">  1       -1 0.41989732E+00 0.27459113E+04</pdfrwt>
<totfact> 0.21680719E-01</totfact>
</mgrwt>
</event>
<event>
12    7  0.1711607E-007  0.1680840E+04  0.7818608E-02  0.8772368E-01
          2   -1    0    0  501    0  0.00000000000E+00  0.00000000000E+00  0.12509292392E+04  0.12509292392E+04  0.00000000000E+00 0. -1.
         -1   -1    0    0    0  501 -0.00000000000E+00 -0.00000000000E+00 -0.56462504406E+03  0.56462504406E+03  0.00000000000E+00 0.  1.
         24    2    1    2    0    0  0.45014288340E+03 -0.35421334549E+03  0.52640995600E+02  0.58073949004E+03  0.79947303061E+02 0.  0.
        254    2    1    2    0    0 -0.45014288340E+03  0.35421334549E+03  0.63366319955E+03  0.12348147932E+04  0.89170780727E+03 0.  0.
         23    2    4    4    0    0 -0.21832841617E+03  0.14004337401E+03  0.81449424030E+03  0.85971280695E+03  0.91792151279E+02 0.  0.
         23    2    4    4    0    0 -0.23181446723E+03  0.21416997148E+03 -0.18083104075E+03  0.37510198630E+03  0.91623746518E+02 0.  0.
          4    1    3    3  502    0  0.30777882117E+03 -0.21793215244E+03  0.14730305432E+01  0.37712649821E+03  0.00000000000E+00 0. -1.
         -3    1    3    3    0  502  0.14236406223E+03 -0.13628119305E+03  0.51167965057E+02  0.20361299183E+03  0.00000000000E+00 0.  1.
         13    1    5    5    0    0 -0.14066632389E+03  0.10409342305E+03  0.66313083967E+03  0.68583158714E+03  0.00000000000E+00 0.  1.
        -13    1    5    5    0    0 -0.77662092279E+02  0.35949950958E+02  0.15136340063E+03  0.17388121981E+03  0.00000000000E+00 0. -1.
          4    1    6    6  503    0 -0.15033614411E+03  0.14387469472E+03 -0.16657944922E+03  0.26655130259E+03  0.00000000000E+00 0. -1.
         -4    1    6    6    0  503 -0.81478323122E+02  0.70295276757E+02 -0.14251591521E+02  0.10855068371E+03  0.00000000000E+00 0.  1.
<mgrwt>
<rscale>  0 0.16808402E+04</rscale>
<asrwt>0</asrwt>
<pdfrwt beam="1">  1        2 0.19245065E+00 0.16808402E+04</pdfrwt>
<pdfrwt beam="2">  1       -1 0.86865392E-01 0.16808402E+04</pdfrwt>
<totfact> 0.25066146E+01</totfact>
</mgrwt>
</event>
<event>
12    7  0.2066505E-007  0.2974363E+04  0.7818608E-02  0.8251090E-01
         -1   -1    0    0    0  501 -0.00000000000E+00  0.00000000000E+00  0.16192616190E+04  0.16192616190E+04  0.00000000000E+00 0.  1.
          2   -1    0    0  501    0  0.00000000000E+00 -0.00000000000E+00 -0.13658750816E+04  0.13658750816E+04  0.00000000000E+00 0. -1.
         24    2    1    2    0    0 -0.60407124233E+03 -0.55503825451E+03 -0.97119785865E+03  0.12739807259E+04  0.82656394332E+02 0.  0.
        254    2    1    2    0    0  0.60407124233E+03  0.55503825451E+03  0.12245843961E+04  0.17111559748E+04  0.86918254537E+03 0.  0.
         23    2    4    4    0    0  0.57467168317E+03  0.46098063415E+03  0.13439496834E+04  0.15352560705E+04  0.89776176057E+02 0.  0.
         23    2    4    4    0    0  0.29399559157E+02  0.94057620357E+02 -0.11936528735E+03  0.17589990434E+03  0.83555577279E+02 0.  0.
          4    1    3    3  502    0 -0.58368166388E+03 -0.53254445132E+03 -0.95529496255E+03  0.12397081684E+04  0.00000000000E+00 0. -1.
         -3    1    3    3    0  502 -0.20389578443E+02 -0.22493803190E+02 -0.15902896101E+02  0.34272557468E+02  0.00000000000E+00 0.  1.
         13    1    5    5    0    0  0.26575993349E+02  0.10618601147E+01  0.52299274936E+02  0.58673887959E+02  0.00000000000E+00 0. -1.
        -13    1    5    5    0    0  0.54809568982E+03  0.45991877403E+03  0.12916504085E+04  0.14765821825E+04  0.00000000000E+00 0.  1.
          1    1    6    6  503    0  0.17861048339E+02 -0.18795745031E+01  0.47765910352E+01  0.18584016519E+02  0.00000000000E+00 0. -1.
         -1    1    6    6    0  503  0.11538510818E+02  0.95937194860E+02 -0.12414187839E+03  0.15731588782E+03  0.00000000000E+00 0.  1.
<mgrwt>
<rscale>  0 0.29743632E+04</rscale>
<asrwt>0</asrwt>
<pdfrwt beam="1">  1        2 0.21013463E+00 0.29743632E+04</pdfrwt>
<pdfrwt beam="2">  1       -1 0.24911717E+00 0.29743632E+04</pdfrwt>
<totfact> 0.10449895E+00</totfact>
</mgrwt>
</event>
<event>
12    7  0.1711607E-007  0.1676397E+04  0.7818608E-02  0.8774942E-01
          2   -1    0    0  501    0  0.00000000000E+00  0.00000000000E+00  0.19921715187E+04  0.19921715187E+04  0.00000000000E+00 0. -1.
         -1   -1    0    0    0  501 -0.00000000000E+00 -0.00000000000E+00 -0.35266875073E+03  0.35266875073E+03  0.00000000000E+00 0.  1.
         24    2    1    2    0    0  0.54208590179E+03 -0.25275638192E+03  0.53496495818E+03  0.80639607814E+03  0.79650579619E+02 0.  0.
        254    2    1    2    0    0 -0.54208590179E+03  0.25275638192E+03  0.11045378098E+04  0.15384441913E+04  0.88829265615E+03 0.  0.
         23    2    4    4    0    0 -0.16355933008E+03 -0.31609652815E+03  0.51579812542E+03  0.63250544700E+03  0.85713270407E+02 0.  0.
         23    2    4    4    0    0 -0.37852657171E+03  0.56885291007E+03  0.58873968441E+03  0.90593874434E+03  0.85056414832E+02 0.  0.
          2    1    3    3  502    0  0.32267835326E+03 -0.12906016756E+03  0.35532037718E+03  0.49702154576E+03  0.00000000000E+00 0. -1.
         -1    1    3    3    0  502  0.21940754854E+03 -0.12369621436E+03  0.17964458100E+03  0.30937453238E+03  0.00000000000E+00 0.  1.
         13    1    5    5    0    0 -0.88909555699E+02 -0.96803468034E+02  0.22669340923E+03  0.26204145150E+03  0.00000000000E+00 0. -1.
        -13    1    5    5    0    0 -0.74649774382E+02 -0.21929306012E+03  0.28910471619E+03  0.37046399549E+03  0.00000000000E+00 0.  1.
          3    1    6    6  503    0 -0.20588063513E+03  0.35139579022E+03  0.30385315860E+03  0.50812653867E+03  0.00000000000E+00 0. -1.
         -3    1    6    6    0  503 -0.17264593658E+03  0.21745711984E+03  0.28488652581E+03  0.39781220567E+03  0.00000000000E+00 0.  1.
<mgrwt>
<rscale>  0 0.16763969E+04</rscale>
<asrwt>0</asrwt>
<pdfrwt beam="1">  1        2 0.30648792E+00 0.16763969E+04</pdfrwt>
<pdfrwt beam="2">  1       -1 0.54256732E-01 0.16763969E+04</pdfrwt>
<totfact> 0.25140198E+01</totfact>
</mgrwt>
</event>
<event>
12    7  0.1711607E-007  0.1340032E+04  0.7818608E-02  0.8998408E-01
         -1   -1    0    0    0  501 -0.00000000000E+00  0.00000000000E+00  0.92358817549E+03  0.92358817549E+03  0.00000000000E+00 0.  1.
          2   -1    0    0  501    0  0.00000000000E+00 -0.00000000000E+00 -0.48606210622E+03  0.48606210622E+03  0.00000000000E+00 0. -1.
         24    2    1    2    0    0 -0.14292052293E+03 -0.33196070287E+03  0.11841052950E+03  0.38858914624E+03  0.79726325359E+02 0.  0.
        254    2    1    2    0    0  0.14292052293E+03  0.33196070287E+03  0.31911553977E+03  0.10210611355E+04  0.90005940388E+03 0.  0.
         23    2    4    4    0    0 -0.28840659862E+03  0.38376100210E+02 -0.12607829185E+03  0.32915738565E+03  0.88304912982E+02 0.  0.
         23    2    4    4    0    0  0.43132712155E+03  0.29358460266E+03  0.44519383162E+03  0.69190374981E+03  0.91094712159E+02 0.  0.
          4    1    3    3  502    0 -0.39874450611E+02 -0.62316274621E+02  0.57179775722E+02  0.93503030142E+02  0.00000000000E+00 0. -1.
         -3    1    3    3    0  502 -0.10304607232E+03 -0.26964442825E+03  0.61230753781E+02  0.29508611610E+03  0.00000000000E+00 0.  1.
         13    1    5    5    0    0 -0.11907798169E+03 -0.23518690323E+02 -0.30719677243E+02  0.12520540359E+03  0.00000000000E+00 0. -1.
        -13    1    5    5    0    0 -0.16932861693E+03  0.61894790533E+02 -0.95358614608E+02  0.20395198206E+03  0.00000000000E+00 0.  1.
          1    1    6    6  503    0  0.45240875985E+02  0.69989486863E+02  0.76300094466E+02  0.11299101534E+03  0.00000000000E+00 0. -1.
         -1    1    6    6    0  503  0.38608624557E+03  0.22359511580E+03  0.36889373716E+03  0.57891273448E+03  0.00000000000E+00 0.  1.
<mgrwt>
<rscale>  0 0.13400317E+04</rscale>
<asrwt>0</asrwt>
<pdfrwt beam="1">  1        2 0.74778785E-01 0.13400317E+04</pdfrwt>
<pdfrwt beam="2">  1       -1 0.14209049E+00 0.13400317E+04</pdfrwt>
<totfact> 0.28682269E+01</totfact>
</mgrwt>
</event>
<event>
12    7  0.1711607E-007  0.3951732E+04  0.7818608E-02  0.8014355E-01
          2   -1    0    0  501    0  0.00000000000E+00  0.00000000000E+00  0.21011464595E+04  0.21011464595E+04  0.00000000000E+00 0. -1.
         -1   -1    0    0    0  501 -0.00000000000E+00 -0.00000000000E+00 -0.18580554933E+04  0.18580554933E+04  0.00000000000E+00 0.  1.
         24    2    1    2    0    0 -0.11766757627E+04 -0.12626058088E+04 -0.62482947990E+03  0.18372491085E+04  0.79580957373E+02 0.  0.
        254    2    1    2    0    0  0.11766757627E+04  0.12626058088E+04  0.86792044614E+03  0.21219528443E+04  0.87787168391E+03 0.  0.
         23    2    4    4    0    0  0.54869827724E+02  0.36308273761E+02 -0.13715397386E+03  0.17754703457E+03  0.91557349255E+02 0.  0.
         23    2    4    4    0    0  0.11218059350E+04  0.12262975350E+04  0.10050744200E+04  0.19444058097E+04  0.91022869284E+02 0.  0.
          4    1    3    3  502    0 -0.12337306268E+03 -0.99981729352E+02 -0.64091683205E+02  0.17124544565E+03  0.00000000000E+00 0. -1.
         -1    1    3    3    0  502 -0.10533027001E+04 -0.11626240794E+04 -0.56073779670E+03  0.16660036629E+04  0.00000000000E+00 0.  1.
         13    1    5    5    0    0  0.71247509398E+02  0.29177312917E+02 -0.13969328673E+03  0.15950466307E+03  0.00000000000E+00 0. -1.
        -13    1    5    5    0    0 -0.16377681674E+02  0.71309608437E+01  0.25393128701E+01  0.18042371502E+02  0.00000000000E+00 0.  1.
          1    1    6    6  503    0  0.10607584006E+04  0.11850355901E+04  0.96874340671E+03  0.18622517344E+04  0.00000000000E+00 0. -1.
         -1    1    6    6    0  503  0.61047534440E+02  0.41261944938E+02  0.36331013288E+02  0.82154075296E+02  0.00000000000E+00 0.  1.
<mgrwt>
<rscale>  0 0.39517321E+04</rscale>
<asrwt>0</asrwt>
<pdfrwt beam="1">  1        2 0.32325330E+00 0.39517321E+04</pdfrwt>
<pdfrwt beam="2">  1       -1 0.28585469E+00 0.39517321E+04</pdfrwt>
<totfact> 0.21557289E-01</totfact>
</mgrwt>
</event>
<event>
12    7  0.1711607E-007  0.1567419E+04  0.7818608E-02  0.8840818E-01
          2   -1    0    0  501    0  0.00000000000E+00  0.00000000000E+00  0.13400770884E+04  0.13400770884E+04  0.00000000000E+00 0. -1.
         -1   -1    0    0    0  501 -0.00000000000E+00 -0.00000000000E+00 -0.45833209683E+03  0.45833209683E+03  0.00000000000E+00 0.  1.
         24    2    1    2    0    0 -0.22916975462E+03  0.26295521168E+03  0.74317501067E+03  0.82487623813E+03  0.80296276121E+02 0.  0.
        254    2    1    2    0    0  0.22916975462E+03 -0.26295521168E+03  0.13856998089E+03  0.97353294709E+03  0.89827642722E+03 0.  0.
         23    2    4    4    0    0 -0.26529804752E+03  0.13167006486E+03 -0.32348459460E+02  0.31166412178E+03  0.91477002440E+02 0.  0.
         23    2    4    4    0    0  0.49446780214E+03 -0.39462527654E+03  0.17091844035E+03  0.66186882531E+03  0.92896245524E+02 0.  0.
          2    1    3    3  502    0 -0.22797716980E+03  0.26020620286E+03  0.74497394348E+03  0.82138117486E+03  0.00000000000E+00 0. -1.
         -1    1    3    3    0  502 -0.11925848146E+01  0.27490088172E+01 -0.17989328018E+01  0.34950632674E+01  0.00000000000E+00 0.  1.
         13    1    5    5    0    0 -0.67124077356E+02  0.77745830942E+02  0.53529791502E+01  0.10285285789E+03  0.00000000000E+00 0. -1.
        -13    1    5    5    0    0 -0.19817397017E+03  0.53924233922E+02 -0.37701438610E+02  0.20881126389E+03  0.00000000000E+00 0.  1.
          4    1    6    6  503    0  0.24454368493E+03 -0.13627442167E+03  0.72600483565E+02  0.28921127581E+03  0.00000000000E+00 0.  1.
         -4    1    6    6    0  503  0.24992411720E+03 -0.25835085488E+03  0.98317956783E+02  0.37265754950E+03  0.00000000000E+00 0. -1.
<mgrwt>
<rscale>  0 0.15674187E+04</rscale>
<asrwt>0</asrwt>
<pdfrwt beam="1">  1        2 0.20616571E+00 0.15674187E+04</pdfrwt>
<pdfrwt beam="2">  1       -1 0.70512631E-01 0.15674187E+04</pdfrwt>
<totfact> 0.34894562E+01</totfact>
</mgrwt>
</event>
<event>
12    7  0.1711607E-007  0.1884406E+04  0.7818608E-02  0.8662658E-01
          2   -1    0    0  501    0  0.00000000000E+00  0.00000000000E+00  0.33635545697E+04  0.33635545697E+04  0.00000000000E+00 0. -1.
         -1   -1    0    0    0  501 -0.00000000000E+00 -0.00000000000E+00 -0.26393097725E+03  0.26393097725E+03  0.00000000000E+00 0.  1.
         24    2    1    2    0    0 -0.32590628947E+03 -0.15721370453E+03 -0.10473150831E+02  0.36896848337E+03  0.71393251943E+02 0.  0.
        254    2    1    2    0    0  0.32590628947E+03  0.15721370453E+03  0.31100967433E+04  0.32585170636E+04  0.90238608294E+03 0.  0.
         23    2    4    4    0    0 -0.22687286133E+02  0.45131176335E+03  0.10643610324E+04  0.11605970835E+04  0.99620089614E+02 0.  0.
         23    2    4    4    0    0  0.34859357560E+03 -0.29409805882E+03  0.20457357109E+04  0.20979199801E+04  0.90677973482E+02 0.  0.
          2    1    3    3  502    0 -0.33417896880E+02 -0.42370653724E+02 -0.91842831252E+01  0.54739192407E+02  0.00000000000E+00 0. -1.
         -1    1    3    3    0  502 -0.29248839259E+03 -0.11484305081E+03 -0.12888677062E+01  0.31422929096E+03  0.00000000000E+00 0.  1.
         13    1    5    5    0    0 -0.23711195841E+02  0.67606380922E+02  0.10277924177E+03  0.12528533868E+03  0.00000000000E+00 0. -1.
        -13    1    5    5    0    0  0.10239097082E+01  0.38370538243E+03  0.96158179064E+03  0.10353117448E+04  0.00000000000E+00 0.  1.
          1    1    6    6  503    0  0.88148809321E+01 -0.25418122930E+02  0.64550326007E+02  0.69932307889E+02  0.00000000000E+00 0. -1.
         -1    1    6    6    0  503  0.33977869467E+03 -0.26867993589E+03  0.19811853849E+04  0.20279876722E+04  0.00000000000E+00 0.  1.
<mgrwt>
<rscale>  0 0.18844057E+04</rscale>
<asrwt>0</asrwt>
<pdfrwt beam="1">  1        2 0.51746990E+00 0.18844057E+04</pdfrwt>
<pdfrwt beam="2">  1       -1 0.40604768E-01 0.18844057E+04</pdfrwt>
<totfact> 0.64221173E+00</totfact>
</mgrwt>
</event>
<event>
12    7  0.1711607E-007  0.1224913E+04  0.7818608E-02  0.9091325E-01
          2   -1    0    0  501    0  0.00000000000E+00  0.00000000000E+00  0.22616062572E+04  0.22616062572E+04  0.00000000000E+00 0. -1.
         -1   -1    0    0    0  501 -0.00000000000E+00 -0.00000000000E+00 -0.16585687276E+03  0.16585687276E+03  0.00000000000E+00 0.  1.
         24    2    1    2    0    0  0.22475548979E+03  0.14034423430E+03  0.37013785714E+03  0.46199094850E+03  0.78880092008E+02 0.  0.
        254    2    1    2    0    0 -0.22475548979E+03 -0.14034423430E+03  0.17256115273E+04  0.19654721815E+04  0.90284783806E+03 0.  0.
         23    2    4    4    0    0  0.29370974641E+03  0.78048124359E+02  0.32779941237E+03  0.45599482234E+03  0.90121575629E+02 0.  0.
         23    2    4    4    0    0 -0.51846523620E+03 -0.21839235866E+03  0.13978121149E+04  0.15094773591E+04  0.90231732859E+02 0.  0.
          4    1    3    3  502    0  0.39081352923E+01  0.10468522942E+02 -0.76742008039E+00  0.11200554792E+02  0.00000000000E+00 0. -1.
         -3    1    3    3    0  502  0.22084735450E+03  0.12987571136E+03  0.37090527722E+03  0.45079039371E+03  0.00000000000E+00 0.  1.
         13    1    5    5    0    0  0.26192554113E+03  0.73591409804E+02  0.24102288591E+03  0.36347312999E+03  0.00000000000E+00 0.  1.
        -13    1    5    5    0    0  0.31784205286E+02  0.44567145554E+01  0.86776526463E+02  0.92521692349E+02  0.00000000000E+00 0. -1.
          2    1    6    6  503    0 -0.13123234414E+03 -0.84314379562E+02  0.30980780367E+03  0.34685979583E+03  0.00000000000E+00 0. -1.
         -2    1    6    6    0  503 -0.38723289207E+03 -0.13407797910E+03  0.10880043113E+04  0.11626175633E+04  0.00000000000E+00 0.  1.
<mgrwt>
<rscale>  0 0.12249130E+04</rscale>
<asrwt>0</asrwt>
<pdfrwt beam="1">  1        2 0.34793940E+00 0.12249130E+04</pdfrwt>
<pdfrwt beam="2">  1       -1 0.25516444E-01 0.12249130E+04</pdfrwt>
<totfact> 0.72569369E+01</totfact>
</mgrwt>
</event>
<event>
12    7  0.1711607E-007  0.1000297E+04  0.7818608E-02  0.9308219E-01
         -1   -1    0    0    0  501 -0.00000000000E+00  0.00000000000E+00  0.41014690394E+03  0.41014690394E+03  0.00000000000E+00 0.  1.
          2   -1    0    0  501    0  0.00000000000E+00 -0.00000000000E+00 -0.60989954220E+03  0.60989954220E+03  0.00000000000E+00 0. -1.
         24    2    1    2    0    0  0.12141575584E+02  0.15075993434E+02  0.66558614286E+02  0.10253498042E+03  0.75555738616E+02 0.  0.
        254    2    1    2    0    0 -0.12141575584E+02 -0.15075993434E+02 -0.26631125254E+03  0.91751146572E+03  0.87779889671E+03 0.  0.
         23    2    4    4    0    0  0.14389333836E+03  0.94855633734E+02  0.27493013530E+03  0.33705365428E+03  0.91190473681E+02 0.  0.
         23    2    4    4    0    0 -0.15603491395E+03 -0.10993162717E+03 -0.54124138784E+03  0.58045781144E+03  0.86932007489E+02 0.  0.
          4    1    3    3  502    0  0.20231091798E+02 -0.55915901870E+01 -0.96925445360E+01  0.23119437184E+02  0.00000000000E+00 0. -1.
         -3    1    3    3    0  502 -0.80895162136E+01  0.20667583621E+02  0.76251158822E+02  0.79415543233E+02  0.00000000000E+00 0.  1.
         13    1    5    5    0    0  0.87332699100E+02  0.12747171262E+02  0.17442665697E+03  0.19548439674E+03  0.00000000000E+00 0.  1.
        -13    1    5    5    0    0  0.56560639262E+02  0.82108462471E+02  0.10050347833E+03  0.14156925754E+03  0.00000000000E+00 0. -1.
          4    1    6    6  503    0 -0.29526380388E+02 -0.18009070060E+02 -0.29830841165E+02  0.45672889419E+02  0.00000000000E+00 0. -1.
         -4    1    6    6    0  503 -0.12650853356E+03 -0.91922557107E+02 -0.51141054668E+03  0.53478492202E+03  0.00000000000E+00 0.  1.
<mgrwt>
<rscale>  0 0.10002968E+04</rscale>
<asrwt>0</asrwt>
<pdfrwt beam="1">  1        2 0.93830698E-01 0.10002968E+04</pdfrwt>
<pdfrwt beam="2">  1       -1 0.63099524E-01 0.10002968E+04</pdfrwt>
<totfact> 0.14131694E+02</totfact>
</mgrwt>
</event>
<event>
12    7  0.1711607E-007  0.1121315E+04  0.7818608E-02  0.9184662E-01
          2   -1    0    0  501    0  0.00000000000E+00  0.00000000000E+00  0.10226895556E+04  0.10226895556E+04  0.00000000000E+00 0. -1.
         -1   -1    0    0    0  501 -0.00000000000E+00 -0.00000000000E+00 -0.30736311916E+03  0.30736311916E+03  0.00000000000E+00 0.  1.
         24    2    1    2    0    0  0.39768260215E+02  0.53702767903E+00  0.36002521129E+03  0.37051807004E+03  0.77997977804E+02 0.  0.
        254    2    1    2    0    0 -0.39768260215E+02 -0.53702767903E+00  0.35530122512E+03  0.95953460470E+03  0.89044140409E+03 0.  0.
         23    2    4    4    0    0  0.69703093819E+02  0.73527403989E+02 -0.27621118944E+03  0.30846205381E+03  0.92689897205E+02 0.  0.
         23    2    4    4    0    0 -0.10947135403E+03 -0.74064431668E+02  0.63151241456E+03  0.65107255089E+03  0.87281265982E+02 0.  0.
          2    1    3    3  502    0  0.50091158055E+01 -0.20189984461E+02  0.28066350505E+03  0.28143334874E+03  0.00000000000E+00 0. -1.
         -1    1    3    3    0  502  0.34759144410E+02  0.20727012140E+02  0.79361706241E+02  0.89084721304E+02  0.00000000000E+00 0.  1.
         13    1    5    5    0    0  0.49415384116E+02 -0.53380137167E+01 -0.15214735040E+03  0.16005996005E+03  0.00000000000E+00 0. -1.
        -13    1    5    5    0    0  0.20287709703E+02  0.78865417706E+02 -0.12406383904E+03  0.14840209376E+03  0.00000000000E+00 0.  1.
          4    1    6    6  503    0 -0.13437058026E+02  0.17955817858E+01  0.25095810282E+03  0.25132399013E+03  0.00000000000E+00 0. -1.
         -4    1    6    6    0  503 -0.96034296008E+02 -0.75860013454E+02  0.38055431173E+03  0.39974856076E+03  0.00000000000E+00 0.  1.
<mgrwt>
<rscale>  0 0.11213154E+04</rscale>
<asrwt>0</asrwt>
<pdfrwt beam="1">  1        2 0.15733685E+00 0.11213154E+04</pdfrwt>
<pdfrwt beam="2">  1       -1 0.47286634E-01 0.11213154E+04</pdfrwt>
<totfact> 0.12286267E+02</totfact>
</mgrwt>
</event>
<event>
12    7  0.1711607E-007  0.3930338E+04  0.7818608E-02  0.8018749E-01
         -1   -1    0    0    0  501 -0.00000000000E+00  0.00000000000E+00  0.11377842846E+04  0.11377842846E+04  0.00000000000E+00 0.  1.
          2   -1    0    0  501    0  0.00000000000E+00 -0.00000000000E+00 -0.33942196123E+04  0.33942196123E+04  0.00000000000E+00 0. -1.
         24    2    1    2    0    0  0.10490354544E+04 -0.14049790141E+04 -0.17882090478E+04  0.25056441307E+04  0.78227210030E+02 0.  0.
        254    2    1    2    0    0 -0.10490354544E+04  0.14049790141E+04 -0.46822627988E+03  0.20263597661E+04  0.90136376551E+03 0.  0.
         23    2    4    4    0    0 -0.11139618745E+04  0.97400337703E+03 -0.17336695667E+03  0.14926134534E+04  0.90802991039E+02 0.  0.
         23    2    4    4    0    0  0.64926420085E+02  0.43097563709E+03 -0.29485932321E+03  0.53374631274E+03  0.89373743839E+02 0.  0.
          2    1    3    3  502    0  0.66164014927E+03 -0.88503736260E+03 -0.10725768596E+04  0.15399610190E+04  0.00000000000E+00 0. -1.
         -1    1    3    3    0  502  0.38739530515E+03 -0.51994165152E+03 -0.71563218819E+03  0.96568311170E+03  0.00000000000E+00 0.  1.
         13    1    5    5    0    0 -0.88650525774E+03  0.72700055638E+03 -0.14556950124E+03  0.11556867485E+04  0.00000000000E+00 0. -1.
        -13    1    5    5    0    0 -0.22745661677E+03  0.24700282065E+03 -0.27797455431E+02  0.33692670486E+03  0.00000000000E+00 0.  1.
          1    1    6    6  503    0  0.47064643842E+02  0.39362546147E+03 -0.23462980662E+03  0.46065956060E+03  0.00000000000E+00 0. -1.
         -1    1    6    6    0  503  0.17861776243E+02  0.37350175622E+02 -0.60229516594E+02  0.73086752142E+02  0.00000000000E+00 0.  1.
<mgrwt>
<rscale>  0 0.39303383E+04</rscale>
<asrwt>0</asrwt>
<pdfrwt beam="1">  1        2 0.52218762E+00 0.39303383E+04</pdfrwt>
<pdfrwt beam="2">  1       -1 0.17504374E+00 0.39303383E+04</pdfrwt>
<totfact> 0.19551188E-01</totfact>
</mgrwt>
</event>
<event>
12    7  0.1711607E-007  0.1948140E+04  0.7818608E-02  0.8631258E-01
         -1   -1    0    0    0  501 -0.00000000000E+00  0.00000000000E+00  0.79637795493E+03  0.79637795493E+03  0.00000000000E+00 0.  1.
          2   -1    0    0  501    0  0.00000000000E+00 -0.00000000000E+00 -0.11914091583E+04  0.11914091583E+04  0.00000000000E+00 0. -1.
         24    2    1    2    0    0 -0.52256426562E+03 -0.48949090332E+03 -0.43749913370E+03  0.84290572946E+03  0.80061355396E+02 0.  0.
        254    2    1    2    0    0  0.52256426562E+03  0.48949090332E+03  0.42467930291E+02  0.11448813838E+04  0.89234248008E+03 0.  0.
         23    2    4    4    0    0  0.41691750115E+03  0.73318203702E+03 -0.48685650332E+02  0.84977399957E+03  0.91484728916E+02 0.  0.
         23    2    4    4    0    0  0.10564676447E+03 -0.24369113370E+03  0.91153580623E+02  0.29510738424E+03  0.90734698331E+02 0.  0.
          2    1    3    3  502    0 -0.22768834181E+03 -0.22341806718E+03 -0.14941075889E+03  0.35225159845E+03  0.00000000000E+00 0. -1.
         -1    1    3    3    0  502 -0.29487592381E+03 -0.26607283614E+03 -0.28808837481E+03  0.49065413101E+03  0.00000000000E+00 0.  1.
         13    1    5    5    0    0  0.37633887979E+03  0.59510092567E+03 -0.49500466215E+02  0.70585151437E+03  0.00000000000E+00 0. -1.
        -13    1    5    5    0    0  0.40578621359E+02  0.13808111135E+03  0.81481588290E+00  0.14392248521E+03  0.00000000000E+00 0.  1.
          1    1    6    6  503    0  0.90393310240E+02 -0.23737432567E+03  0.61774106589E+02  0.26140688833E+03  0.00000000000E+00 0. -1.
         -1    1    6    6    0  503  0.15253454229E+02 -0.63168080374E+01  0.29379474034E+02  0.33700495905E+02  0.00000000000E+00 0.  1.
<mgrwt>
<rscale>  0 0.19481396E+04</rscale>
<asrwt>0</asrwt>
<pdfrwt beam="1">  1        2 0.18329372E+00 0.19481396E+04</pdfrwt>
<pdfrwt beam="2">  1       -1 0.12251969E+00 0.19481396E+04</pdfrwt>
<totfact> 0.11993545E+01</totfact>
</mgrwt>
</event>
<event>
12    7  0.1711607E-007  0.1436463E+04  0.7818608E-02  0.8927840E-01
         -1   -1    0    0    0  501 -0.00000000000E+00  0.00000000000E+00  0.13914257060E+03  0.13914257060E+03  0.00000000000E+00 0.  1.
          2   -1    0    0  501    0  0.00000000000E+00 -0.00000000000E+00 -0.37073937652E+04  0.37073937652E+04  0.00000000000E+00 0. -1.
         24    2    1    2    0    0 -0.20042251327E+03  0.30988922414E+03 -0.16569534506E+04  0.16993941152E+04  0.79025984741E+02 0.  0.
        254    2    1    2    0    0  0.20042251327E+03 -0.30988922414E+03 -0.19112977441E+04  0.21471422207E+04  0.90606850416E+03 0.  0.
         23    2    4    4    0    0 -0.19227333070E+03 -0.31327175323E+03 -0.15819703238E+04  0.16266370906E+04  0.90608465155E+02 0.  0.
         23    2    4    4    0    0  0.39269584397E+03  0.33825290948E+01 -0.32932742026E+03  0.52050513009E+03  0.90816151351E+02 0.  0.
          4    1    3    3  502    0 -0.10189812023E+03  0.20917473936E+03 -0.91041265622E+03  0.93967467939E+03  0.00000000000E+00 0. -1.
         -1    1    3    3    0  502 -0.98524393040E+02  0.10071448478E+03 -0.74654079434E+03  0.75971943577E+03  0.00000000000E+00 0.  1.
         13    1    5    5    0    0 -0.15557804139E+03 -0.23650724251E+03 -0.10319722080E+04  0.10700966503E+04  0.00000000000E+00 0. -1.
        -13    1    5    5    0    0 -0.36695289311E+02 -0.76764510725E+02 -0.54999811576E+03  0.55654044031E+03  0.00000000000E+00 0.  1.
          2    1    6    6  503    0  0.16742957851E+03  0.46148459473E+02 -0.13588473558E+03  0.22051531792E+03  0.00000000000E+00 0. -1.
         -2    1    6    6    0  503  0.22526626545E+03 -0.42765930378E+02 -0.19344268468E+03  0.29998981217E+03  0.00000000000E+00 0.  1.
<mgrwt>
<rscale>  0 0.14364627E+04</rscale>
<asrwt>0</asrwt>
<pdfrwt beam="1">  1        2 0.57036828E+00 0.14364627E+04</pdfrwt>
<pdfrwt beam="2">  1       -1 0.21406549E-01 0.14364627E+04</pdfrwt>
<totfact> 0.11860105E+01</totfact>
</mgrwt>
</event>
<event>
12    7  0.1711607E-007  0.1877168E+04  0.7818608E-02  0.8666305E-01
         -1   -1    0    0    0  501 -0.00000000000E+00  0.00000000000E+00  0.12228092500E+04  0.12228092500E+04  0.00000000000E+00 0.  1.
          2   -1    0    0  501    0  0.00000000000E+00 -0.00000000000E+00 -0.72042309871E+03  0.72042309871E+03  0.00000000000E+00 0. -1.
         24    2    1    2    0    0  0.17229734432E+03 -0.56405143811E+02 -0.53411359649E+03  0.56979063115E+03  0.80722452138E+02 0.  0.
        254    2    1    2    0    0 -0.17229734432E+03  0.56405143811E+02  0.10364997478E+04  0.13734417176E+04  0.88269049464E+03 0.  0.
         23    2    4    4    0    0  0.20916084379E+03 -0.25184142657E+03  0.67905826274E+03  0.75926139825E+03  0.90473111879E+02 0.  0.
         23    2    4    4    0    0 -0.38145818811E+03  0.30824657038E+03  0.35744148508E+03  0.61418031935E+03  0.94481490233E+02 0.  0.
          4    1    3    3  502    0  0.13022639933E+03 -0.32372600585E+02 -0.47374549184E+03  0.49238368310E+03  0.00000000000E+00 0. -1.
         -3    1    3    3    0  502  0.42070944984E+02 -0.24032543226E+02 -0.60368104657E+02  0.77406948045E+02  0.00000000000E+00 0.  1.
         13    1    5    5    0    0  0.18314742429E+03 -0.24941805252E+03  0.65169708249E+03  0.72143012917E+03  0.00000000000E+00 0.  1.
        -13    1    5    5    0    0  0.26013419498E+02 -0.24233740455E+01  0.27361180244E+02  0.37831269079E+02  0.00000000000E+00 0. -1.
          2    1    6    6  503    0 -0.15768632631E+03  0.16694588751E+03  0.12240509781E+03  0.26022858189E+03  0.00000000000E+00 0. -1.
         -2    1    6    6    0  503 -0.22377186180E+03  0.14130068287E+03  0.23503638727E+03  0.35395173746E+03  0.00000000000E+00 0.  1.
<mgrwt>
<rscale>  0 0.18771681E+04</rscale>
<asrwt>0</asrwt>
<pdfrwt beam="1">  1        2 0.11083432E+00 0.18771681E+04</pdfrwt>
<pdfrwt beam="2">  1       -1 0.18812450E+00 0.18771681E+04</pdfrwt>
<totfact> 0.77061395E+00</totfact>
</mgrwt>
</event>
<event>
12    7  0.1711607E-007  0.2056724E+04  0.7818608E-02  0.8580550E-01
          2   -1    0    0  501    0  0.00000000000E+00  0.00000000000E+00  0.80730872262E+03  0.80730872262E+03  0.00000000000E+00 0. -1.
         -1   -1    0    0    0  501 -0.00000000000E+00 -0.00000000000E+00 -0.13099425905E+04  0.13099425905E+04  0.00000000000E+00 0.  1.
         24    2    1    2    0    0  0.36115760895E+03 -0.19176178061E+03  0.54014571692E+03  0.68190536468E+03  0.77653923746E+02 0.  0.
        254    2    1    2    0    0 -0.36115760895E+03  0.19176178061E+03 -0.10427795848E+04  0.14353459484E+04  0.89756410923E+03 0.  0.
         23    2    4    4    0    0  0.24758426622E+03 -0.70663786370E+02 -0.51469971002E+03  0.58273069595E+03  0.91476406425E+02 0.  0.
         23    2    4    4    0    0 -0.60874187517E+03  0.26242556698E+03 -0.52807987475E+03  0.85261525245E+03  0.93008417898E+02 0.  0.
          2    1    3    3  502    0  0.31164742352E+03 -0.16337446210E+03  0.50281815110E+03  0.61371118983E+03  0.00000000000E+00 0. -1.
         -3    1    3    3    0  502  0.49510185432E+02 -0.28387318506E+02  0.37327565824E+02  0.68194174853E+02  0.00000000000E+00 0.  1.
         13    1    5    5    0    0  0.18147078991E+03 -0.62578661686E+02 -0.28536803519E+03  0.34392245055E+03  0.00000000000E+00 0.  1.
        -13    1    5    5    0    0  0.66113476311E+02 -0.80851246841E+01 -0.22933167483E+03  0.23880824540E+03  0.00000000000E+00 0. -1.
          3    1    6    6  503    0 -0.47847458569E+03  0.23538976247E+03 -0.45404935221E+03  0.70036210896E+03  0.00000000000E+00 0. -1.
         -3    1    6    6    0  503 -0.13026728948E+03  0.27035804514E+02 -0.74030522542E+02  0.15225314349E+03  0.00000000000E+00 0.  1.
<mgrwt>
<rscale>  0 0.20567237E+04</rscale>
<asrwt>0</asrwt>
<pdfrwt beam="1">  1        2 0.12420134E+00 0.20567237E+04</pdfrwt>
<pdfrwt beam="2">  1       -1 0.20152963E+00 0.20567237E+04</pdfrwt>
<totfact> 0.52749500E+00</totfact>
</mgrwt>
</event>
<event>
12    7  0.1711607E-007  0.2388919E+04  0.7818608E-02  0.8443664E-01
         -1   -1    0    0    0  501 -0.00000000000E+00  0.00000000000E+00  0.17062381116E+04  0.17062381116E+04  0.00000000000E+00 0.  1.
          2   -1    0    0  501    0  0.00000000000E+00 -0.00000000000E+00 -0.83618647025E+03  0.83618647025E+03  0.00000000000E+00 0. -1.
         24    2    1    2    0    0  0.14062900260E+03  0.26245726898E+03 -0.66886370548E+03  0.73652791935E+03  0.80214618716E+02 0.  0.
        254    2    1    2    0    0 -0.14062900260E+03 -0.26245726898E+03  0.15389153468E+04  0.18058966625E+04  0.89685114513E+03 0.  0.
         23    2    4    4    0    0 -0.26842767706E+03  0.21778180194E+03  0.10235431600E+04  0.10841523459E+04  0.90903122798E+02 0.  0.
         23    2    4    4    0    0  0.12779867445E+03 -0.48023907093E+03  0.51537218684E+03  0.72174431658E+03  0.91347146151E+02 0.  0.
          2    1    3    3  502    0  0.13099817872E+03  0.25193658974E+03 -0.57184467707E+03  0.63846605452E+03  0.00000000000E+00 0. -1.
         -1    1    3    3    0  502  0.96308238786E+01  0.10520679243E+02 -0.97019028407E+02  0.98061864827E+02  0.00000000000E+00 0.  1.
         13    1    5    5    0    0 -0.20991620245E+03  0.17536662379E+03  0.67729589607E+03  0.73044369777E+03  0.00000000000E+00 0.  1.
        -13    1    5    5    0    0 -0.58511474613E+02  0.42415178153E+02  0.34624726394E+03  0.35370864816E+03  0.00000000000E+00 0. -1.
          3    1    6    6  503    0 -0.15655888701E+01 -0.15528535275E+03  0.14854831587E+03  0.21490135876E+03  0.00000000000E+00 0. -1.
         -3    1    6    6    0  503  0.12936426332E+03 -0.32495371818E+03  0.36682387097E+03  0.50684295782E+03  0.00000000000E+00 0.  1.
<mgrwt>
<rscale>  0 0.23889188E+04</rscale>
<asrwt>0</asrwt>
<pdfrwt beam="1">  1        2 0.12864407E+00 0.23889188E+04</pdfrwt>
<pdfrwt beam="2">  1       -1 0.26249817E+00 0.23889188E+04</pdfrwt>
<totfact> 0.19258221E+00</totfact>
</mgrwt>
</event>
<event>
12    7  0.1711607E-007  0.1157705E+04  0.7818608E-02  0.9150705E-01
         -1   -1    0    0    0  501 -0.00000000000E+00  0.00000000000E+00  0.49276369217E+03  0.49276369217E+03  0.00000000000E+00 0.  1.
          2   -1    0    0  501    0  0.00000000000E+00 -0.00000000000E+00 -0.67998132348E+03  0.67998132348E+03  0.00000000000E+00 0. -1.
         24    2    1    2    0    0  0.58791221769E+02 -0.21196068314E+03  0.38752000197E+02  0.23719240633E+03  0.79842226598E+02 0.  0.
        254    2    1    2    0    0 -0.58791221769E+02  0.21196068314E+03 -0.22596963150E+03  0.93555260932E+03  0.88080228853E+03 0.  0.
         23    2    4    4    0    0 -0.17767721306E+02  0.10385963337E+03  0.33140828655E+03  0.35889840036E+03  0.88736091967E+02 0.  0.
         23    2    4    4    0    0 -0.41023500462E+02  0.10810104976E+03 -0.55737791805E+03  0.57665420896E+03  0.92147537276E+02 0.  0.
          2    1    3    3  502    0  0.28414623929E+02 -0.13379767975E+03 -0.14975625460E+02  0.13759898007E+03  0.00000000000E+00 0. -1.
         -1    1    3    3    0  502  0.30376597840E+02 -0.78163003395E+02  0.53727625657E+02  0.99593426263E+02  0.00000000000E+00 0.  1.
         13    1    5    5    0    0  0.55197820222E+01  0.93631306634E+02  0.15883603028E+03  0.18446184996E+03  0.00000000000E+00 0.  1.
        -13    1    5    5    0    0 -0.23287503328E+02  0.10228326741E+02  0.17257225627E+03  0.17443655040E+03  0.00000000000E+00 0. -1.
          2    1    6    6  503    0 -0.73914670384E+01  0.60494394308E+02 -0.45319292974E+03  0.45727238829E+03  0.00000000000E+00 0.  1.
         -2    1    6    6    0  503 -0.33632033424E+02  0.47606655457E+02 -0.10418498832E+03  0.11938182067E+03  0.00000000000E+00 0. -1.
<mgrwt>
<rscale>  0 0.11577048E+04</rscale>
<asrwt>0</asrwt>
<pdfrwt beam="1">  1        2 0.10461251E+00 0.11577048E+04</pdfrwt>
<pdfrwt beam="2">  1       -1 0.75809799E-01 0.11577048E+04</pdfrwt>
<totfact> 0.84006516E+01</totfact>
</mgrwt>
</event>
<event>
12    7  0.1711607E-007  0.1739640E+04  0.7818608E-02  0.8739074E-01
         -3   -1    0    0    0  501 -0.00000000000E+00  0.00000000000E+00  0.21072750635E+04  0.21072750635E+04  0.00000000000E+00 0.  1.
          4   -1    0    0  501    0  0.00000000000E+00 -0.00000000000E+00 -0.35903571302E+03  0.35903571302E+03  0.00000000000E+00 0. -1.
         24    2    1    2    0    0 -0.17486745541E+02  0.19147631951E+03  0.15063015923E+04  0.15207448126E+04  0.82166483594E+02 0.  0.
        254    2    1    2    0    0  0.17486745541E+02 -0.19147631951E+03  0.24193775813E+03  0.94556596383E+03  0.89363983010E+03 0.  0.
         23    2    4    4    0    0 -0.33123090453E+02 -0.42666282299E+03 -0.16192025133E+03  0.46684578660E+03  0.92674252270E+02 0.  0.
         23    2    4    4    0    0  0.50609835995E+02  0.23518650348E+03  0.40385800946E+03  0.47872017723E+03  0.90540981686E+02 0.  0.
          2    1    3    3  502    0 -0.39678057515E+02  0.11250534621E+03  0.68036792500E+03  0.69074764896E+03  0.00000000000E+00 0. -1.
         -1    1    3    3    0  502  0.22191311974E+02  0.78970973302E+02  0.82593366730E+03  0.82999716369E+03  0.00000000000E+00 0.  1.
         13    1    5    5    0    0  0.23200707533E+02 -0.22895660357E+03 -0.10862222638E+03  0.25447629990E+03  0.00000000000E+00 0. -1.
        -13    1    5    5    0    0 -0.56323797987E+02 -0.19770621942E+03 -0.53298024947E+02  0.21236948670E+03  0.00000000000E+00 0.  1.
          3    1    6    6  503    0  0.47102281590E+02  0.10805866184E+03  0.26716881327E+03  0.29201793458E+03  0.00000000000E+00 0. -1.
         -3    1    6    6    0  503  0.35075544047E+01  0.12712784164E+03  0.13668919619E+03  0.18670224266E+03  0.00000000000E+00 0.  1.
<mgrwt>
<rscale>  0 0.17396402E+04</rscale>
<asrwt>0</asrwt>
<pdfrwt beam="1">  1        4 0.55236265E-01 0.17396402E+04</pdfrwt>
<pdfrwt beam="2">  1       -3 0.32419616E+00 0.17396402E+04</pdfrwt>
<totfact> 0.19008460E-01</totfact>
</mgrwt>
</event>
<event>
12    7  0.1711607E-007  0.1833501E+04  0.7818608E-02  0.8688684E-01
          2   -1    0    0  501    0  0.00000000000E+00  0.00000000000E+00  0.74687696801E+03  0.74687696801E+03  0.00000000000E+00 0. -1.
         -1   -1    0    0    0  501 -0.00000000000E+00 -0.00000000000E+00 -0.11252604066E+04  0.11252604066E+04  0.00000000000E+00 0.  1.
         24    2    1    2    0    0  0.45020306627E+03  0.46071049880E+03  0.83108866705E+02  0.65441657391E+03  0.80106203880E+02 0.  0.
        254    2    1    2    0    0 -0.45020306627E+03 -0.46071049880E+03 -0.46149230534E+03  0.12177208007E+04  0.92462524089E+03 0.  0.
         23    2    4    4    0    0 -0.40382864654E+03  0.18662609901E+03 -0.29383835398E+03  0.54100332961E+03  0.91851770694E+02 0.  0.
         23    2    4    4    0    0 -0.46374419735E+02 -0.64733659780E+03 -0.16765395136E+03  0.67671747114E+03  0.92970052590E+02 0.  0.
          4    1    3    3  502    0  0.22274981344E+03  0.26534906836E+03  0.74982417514E+02  0.35447139575E+03  0.00000000000E+00 0. -1.
         -3    1    3    3    0  502  0.22745325283E+03  0.19536143044E+03  0.81264491906E+01  0.29994517816E+03  0.00000000000E+00 0.  1.
         13    1    5    5    0    0 -0.40756358242E+03  0.18938154827E+03 -0.29232058295E+03  0.53612010571E+03  0.00000000000E+00 0. -1.
        -13    1    5    5    0    0  0.37349358785E+01 -0.27554492640E+01 -0.15177710358E+01  0.48832238921E+01  0.00000000000E+00 0.  1.
          3    1    6    6  503    0 -0.73999782980E+02 -0.50748887161E+03 -0.12400761761E+03  0.52763511248E+03  0.00000000000E+00 0. -1.
         -3    1    6    6    0  503  0.27625363245E+02 -0.13984772619E+03 -0.43646333756E+02  0.14908235866E+03  0.00000000000E+00 0.  1.
<mgrwt>
<rscale>  0 0.18335006E+04</rscale>
<asrwt>0</asrwt>
<pdfrwt beam="1">  1        2 0.11490415E+00 0.18335006E+04</pdfrwt>
<pdfrwt beam="2">  1       -1 0.17311698E+00 0.18335006E+04</pdfrwt>
<totfact> 0.94609471E+00</totfact>
</mgrwt>
</event>
<event>
12    7  0.1711607E-007  0.1439034E+04  0.7818608E-02  0.8926039E-01
         -1   -1    0    0    0  501 -0.00000000000E+00  0.00000000000E+00  0.65949359557E+03  0.65949359557E+03  0.00000000000E+00 0.  1.
          2   -1    0    0  501    0  0.00000000000E+00 -0.00000000000E+00 -0.78500291365E+03  0.78500291365E+03  0.00000000000E+00 0. -1.
         24    2    1    2    0    0 -0.42108456443E+03 -0.40158182598E+02 -0.12589767252E+03  0.44898896555E+03  0.82558931778E+02 0.  0.
        254    2    1    2    0    0  0.42108456443E+03  0.40158182598E+02  0.38835444837E+00  0.99550754367E+03  0.90117158669E+03 0.  0.
         23    2    4    4    0    0  0.55846048289E+03 -0.17185203485E+03  0.23753933666E+03  0.63693694776E+03  0.88614367486E+02 0.  0.
         23    2    4    4    0    0 -0.13737591846E+03  0.21201021745E+03 -0.23715098221E+03  0.35857059591E+03  0.92259463538E+02 0.  0.
          4    1    3    3  502    0 -0.69552262805E+02 -0.22814155344E+02 -0.50820393278E+02  0.89110691381E+02  0.00000000000E+00 0. -1.
         -3    1    3    3    0  502 -0.35153230162E+03 -0.17344027254E+02 -0.75077279245E+02  0.35987827417E+03  0.00000000000E+00 0.  1.
         13    1    5    5    0    0  0.53419924066E+03 -0.14389682519E+03  0.23009011645E+03  0.59917992850E+03  0.00000000000E+00 0. -1.
        -13    1    5    5    0    0  0.24261242227E+02 -0.27955209664E+02  0.74492202087E+01  0.37757019261E+02  0.00000000000E+00 0.  1.
          1    1    6    6  503    0 -0.24626231078E+02  0.17185941250E+02 -0.76045724068E+02  0.81760381499E+02  0.00000000000E+00 0. -1.
         -1    1    6    6    0  503 -0.11274968738E+03  0.19482427620E+03 -0.16110525814E+03  0.27681021441E+03  0.00000000000E+00 0.  1.
<mgrwt>
<rscale>  0 0.14390336E+04</rscale>
<asrwt>0</asrwt>
<pdfrwt beam="1">  1        2 0.12076968E+00 0.14390336E+04</pdfrwt>
<pdfrwt beam="2">  1       -1 0.10146055E+00 0.14390336E+04</pdfrwt>
<totfact> 0.36099042E+01</totfact>
</mgrwt>
</event>
<event>
12    7  0.1711607E-007  0.1421127E+04  0.7818608E-02  0.8938666E-01
          2   -1    0    0  501    0  0.00000000000E+00  0.00000000000E+00  0.50642140554E+03  0.50642140554E+03  0.00000000000E+00 0. -1.
         -1   -1    0    0    0  501 -0.00000000000E+00 -0.00000000000E+00 -0.99699740681E+03  0.99699740681E+03  0.00000000000E+00 0.  1.
         24    2    1    2    0    0  0.29153193917E+03  0.34477656925E+03 -0.16056235658E+03  0.48562015752E+03  0.78644216452E+02 0.  0.
        254    2    1    2    0    0 -0.29153193917E+03 -0.34477656925E+03 -0.33001364469E+03  0.10177986548E+04  0.85037835217E+03 0.  0.
         23    2    4    4    0    0  0.15733550803E+03  0.17780337421E+03 -0.15808417798E+02  0.25465860755E+03  0.90733667175E+02 0.  0.
         23    2    4    4    0    0 -0.44886744721E+03 -0.52257994346E+03 -0.31420522690E+03  0.76314004728E+03  0.95320641477E+02 0.  0.
          4    1    3    3  502    0  0.70909699471E+02  0.13163237547E+03 -0.31431901203E+02  0.15278492126E+03  0.00000000000E+00 0. -1.
         -3    1    3    3    0  502  0.22062223970E+03  0.21314419378E+03 -0.12913045537E+03  0.33283523626E+03  0.00000000000E+00 0.  1.
         13    1    5    5    0    0  0.22836856847E+02  0.64826557658E+02 -0.36448904991E+02  0.77797990228E+02  0.00000000000E+00 0.  1.
        -13    1    5    5    0    0  0.13449865118E+03  0.11297681655E+03  0.20640487193E+02  0.17686061732E+03  0.00000000000E+00 0. -1.
          4    1    6    6  503    0 -0.16583185299E+03 -0.23331476800E+03 -0.87771804701E+02  0.29939918860E+03  0.00000000000E+00 0. -1.
         -4    1    6    6    0  503 -0.28303559421E+03 -0.28926517546E+03 -0.22643342220E+03  0.46374085868E+03  0.00000000000E+00 0.  1.
<mgrwt>
<rscale>  0 0.14211275E+04</rscale>
<asrwt>0</asrwt>
<pdfrwt beam="1">  1        2 0.77910986E-01 0.14211275E+04</pdfrwt>
<pdfrwt beam="2">  1       -1 0.15338421E+00 0.14211275E+04</pdfrwt>
<totfact> 0.22139511E+01</totfact>
</mgrwt>
</event>
<event>
12    7  0.1711607E-007  0.2766363E+04  0.7818608E-02  0.8313788E-01
         -1   -1    0    0    0  501 -0.00000000000E+00  0.00000000000E+00  0.17325127436E+04  0.17325127436E+04  0.00000000000E+00 0.  1.
          2   -1    0    0  501    0  0.00000000000E+00 -0.00000000000E+00 -0.11042870723E+04  0.11042870723E+04  0.00000000000E+00 0. -1.
         24    2    1    2    0    0  0.14449913480E+03  0.94362094967E+03 -0.52386034439E+03  0.10925582492E+04  0.89181673125E+02 0.  0.
        254    2    1    2    0    0 -0.14449913480E+03 -0.94362094967E+03  0.11520860157E+04  0.17442415667E+04  0.89653553122E+03 0.  0.
         23    2    4    4    0    0 -0.35595515339E+03 -0.60934588361E+03  0.11320429557E+04  0.13369580466E+04  0.89045425521E+02 0.  0.
         23    2    4    4    0    0  0.21145601860E+03 -0.33427506606E+03  0.20043060054E+02  0.40728352008E+03  0.94998283601E+02 0.  0.
          2    1    3    3  502    0  0.10874085134E+03  0.58874697044E+03 -0.37230234981E+03  0.70502241640E+03  0.00000000000E+00 0. -1.
         -1    1    3    3    0  502  0.35758283460E+02  0.35487397922E+03 -0.15155799458E+03  0.38753583277E+03  0.00000000000E+00 0.  1.
         13    1    5    5    0    0 -0.24542359648E+03 -0.34094621951E+03  0.70282249127E+03  0.81880188113E+03  0.00000000000E+00 0. -1.
        -13    1    5    5    0    0 -0.11053155692E+03 -0.26839966410E+03  0.42922046441E+03  0.51815616548E+03  0.00000000000E+00 0.  1.
          2    1    6    6  503    0  0.16432688764E+03 -0.31388841637E+03  0.72991808608E+01  0.35437627174E+03  0.00000000000E+00 0. -1.
         -2    1    6    6    0  503  0.47129130960E+02 -0.20386649691E+02  0.12743879193E+02  0.52907248346E+02  0.00000000000E+00 0.  1.
<mgrwt>
<rscale>  0 0.27663633E+04</rscale>
<asrwt>0</asrwt>
<pdfrwt beam="1">  1        2 0.16989032E+00 0.27663633E+04</pdfrwt>
<pdfrwt beam="2">  1       -1 0.26654042E+00 0.27663633E+04</pdfrwt>
<totfact> 0.11715208E+00</totfact>
</mgrwt>
</event>
<event>
12    7  0.1711607E-007  0.1595891E+04  0.7818608E-02  0.8823076E-01
         -1   -1    0    0    0  501 -0.00000000000E+00  0.00000000000E+00  0.56508116167E+03  0.56508116167E+03  0.00000000000E+00 0.  1.
          2   -1    0    0  501    0  0.00000000000E+00 -0.00000000000E+00 -0.11267714145E+04  0.11267714145E+04  0.00000000000E+00 0. -1.
         24    2    1    2    0    0 -0.51022934305E+02 -0.18932366387E+03  0.33959341829E+03  0.39918215639E+03  0.74672047700E+02 0.  0.
        254    2    1    2    0    0  0.51022934305E+02  0.18932366387E+03 -0.90128367108E+03  0.12926704197E+04  0.90566979015E+03 0.  0.
         23    2    4    4    0    0  0.25779975768E+03 -0.11106376451E+03  0.21924600746E+02  0.29584531429E+03  0.90817878315E+02 0.  0.
         23    2    4    4    0    0 -0.20677682338E+03  0.30038742838E+03 -0.92320827183E+03  0.99682510546E+03  0.91419450232E+02 0.  0.
          4    1    3    3  502    0  0.11958875371E+02 -0.82088930429E+02  0.16678995840E+03  0.18628069525E+03  0.00000000000E+00 0. -1.
         -3    1    3    3    0  502 -0.62981809675E+02 -0.10723473344E+03  0.17280345989E+03  0.21290146114E+03  0.00000000000E+00 0.  1.
         13    1    5    5    0    0  0.13971332643E+03 -0.40670231627E+02  0.53065351055E+02  0.15488645133E+03  0.00000000000E+00 0. -1.
        -13    1    5    5    0    0  0.11808643125E+03 -0.70393532881E+02 -0.31140750309E+02  0.14095886296E+03  0.00000000000E+00 0.  1.
          4    1    6    6  503    0 -0.21253282617E+03  0.30190812764E+03 -0.91501611257E+03  0.98669813316E+03  0.00000000000E+00 0. -1.
         -4    1    6    6    0  503  0.57560027933E+01 -0.15206992626E+01 -0.81921592644E+01  0.10126972293E+02  0.00000000000E+00 0.  1.
<mgrwt>
<rscale>  0 0.15958913E+04</rscale>
<asrwt>0</asrwt>
<pdfrwt beam="1">  1        2 0.17334945E+00 0.15958913E+04</pdfrwt>
<pdfrwt beam="2">  1       -1 0.86935564E-01 0.15958913E+04</pdfrwt>
<totfact> 0.29917533E+01</totfact>
</mgrwt>
</event>
<event>
12    7  0.1711607E-007  0.1393230E+04  0.7818608E-02  0.8958734E-01
         -1   -1    0    0    0  501 -0.00000000000E+00  0.00000000000E+00  0.28174432105E+03  0.28174432105E+03  0.00000000000E+00 0.  1.
          2   -1    0    0  501    0  0.00000000000E+00 -0.00000000000E+00 -0.17223863614E+04  0.17223863614E+04  0.00000000000E+00 0. -1.
         24    2    1    2    0    0 -0.20901170026E+03  0.19600469644E+03 -0.17147086208E+02  0.29828723086E+03  0.81101896733E+02 0.  0.
        254    2    1    2    0    0  0.20901170026E+03 -0.19600469644E+03 -0.14234949542E+04  0.17058434516E+04  0.89524313178E+03 0.  0.
         23    2    4    4    0    0 -0.40931664932E+02 -0.55287874563E+02 -0.13993457724E+04  0.14040978878E+04  0.92682995887E+02 0.  0.
         23    2    4    4    0    0  0.24994336519E+03 -0.14071682188E+03 -0.24149181829E+02  0.30174556380E+03  0.90522331639E+02 0.  0.
          2    1    3    3  502    0 -0.47166016357E+02  0.13244380392E+02  0.16855802149E+02  0.51808925650E+02  0.00000000000E+00 0. -1.
         -1    1    3    3    0  502 -0.16184568391E+03  0.18276031605E+03 -0.34002888357E+02  0.24647830521E+03  0.00000000000E+00 0.  1.
         13    1    5    5    0    0 -0.64288958611E+02 -0.56666880214E+02 -0.86366328717E+03  0.86790464863E+03  0.00000000000E+00 0. -1.
        -13    1    5    5    0    0  0.23357293680E+02  0.13790056513E+01 -0.53568248519E+03  0.53619323920E+03  0.00000000000E+00 0.  1.
          3    1    6    6  503    0  0.22404696720E+03 -0.87524081115E+02 -0.91384882081E+01  0.24070941040E+03  0.00000000000E+00 0. -1.
         -3    1    6    6    0  503  0.25896397990E+02 -0.53192740763E+02 -0.15010693621E+02  0.61036153399E+02  0.00000000000E+00 0.  1.
<mgrwt>
<rscale>  0 0.13932302E+04</rscale>
<asrwt>0</asrwt>
<pdfrwt beam="1">  1        2 0.26498252E+00 0.13932302E+04</pdfrwt>
<pdfrwt beam="2">  1       -1 0.43345279E-01 0.13932302E+04</pdfrwt>
<totfact> 0.55519459E+01</totfact>
</mgrwt>
</event>
<event>
12    7  0.1711607E-007  0.1414417E+04  0.7818608E-02  0.8943449E-01
          2   -1    0    0  501    0  0.00000000000E+00  0.00000000000E+00  0.92028562268E+03  0.92028562268E+03  0.00000000000E+00 0. -1.
         -1   -1    0    0    0  501 -0.00000000000E+00 -0.00000000000E+00 -0.54346564186E+03  0.54346564186E+03  0.00000000000E+00 0.  1.
         24    2    1    2    0    0  0.24729845980E+03  0.66894005457E+01 -0.23025320831E+03  0.34725764712E+03  0.79812638395E+02 0.  0.
        254    2    1    2    0    0 -0.24729845980E+03 -0.66894005457E+01  0.60707318913E+03  0.11164936174E+04  0.90378031870E+03 0.  0.
         23    2    4    4    0    0 -0.51626916573E+03 -0.23162251405E+03  0.34311642637E+03  0.66793965010E+03  0.90728460995E+02 0.  0.
         23    2    4    4    0    0  0.26897070593E+03  0.22493311350E+03  0.26395676276E+03  0.44855396732E+03  0.92667916717E+02 0.  0.
          2    1    3    3  502    0  0.66654077618E+02  0.33394385415E+02 -0.90839123283E+02  0.11751466870E+03  0.00000000000E+00 0. -1.
         -1    1    3    3    0  502  0.18064438218E+03 -0.26704984869E+02 -0.13941408503E+03  0.22974297842E+03  0.00000000000E+00 0.  1.
         13    1    5    5    0    0 -0.42343680001E+03 -0.18803161921E+03  0.31922575892E+03  0.56263638220E+03  0.00000000000E+00 0.  1.
        -13    1    5    5    0    0 -0.92832365723E+02 -0.43590894841E+02  0.23890667454E+02  0.10530326790E+03  0.00000000000E+00 0. -1.
          4    1    6    6  503    0  0.61320579377E+02  0.56010622009E+02  0.11611533869E+03  0.14275915071E+03  0.00000000000E+00 0. -1.
         -4    1    6    6    0  503  0.20765012656E+03  0.16892249149E+03  0.14784142407E+03  0.30579481660E+03  0.00000000000E+00 0.  1.
<mgrwt>
<rscale>  0 0.14144167E+04</rscale>
<asrwt>0</asrwt>
<pdfrwt beam="1">  1        2 0.14158240E+00 0.14144167E+04</pdfrwt>
<pdfrwt beam="2">  1       -1 0.83610099E-01 0.14144167E+04</pdfrwt>
<totfact> 0.44746682E+01</totfact>
</mgrwt>
</event>
<event>
12    7  0.1711607E-007  0.1637735E+04  0.7818608E-02  0.8797696E-01
         -1   -1    0    0    0  501 -0.00000000000E+00  0.00000000000E+00  0.61851454503E+03  0.61851454503E+03  0.00000000000E+00 0.  1.
          2   -1    0    0  501    0  0.00000000000E+00 -0.00000000000E+00 -0.10841193408E+04  0.10841193408E+04  0.00000000000E+00 0. -1.
         24    2    1    2    0    0  0.42486039749E+03  0.36592227141E+01 -0.55084692998E+03  0.70005891544E+03  0.78296855266E+02 0.  0.
        254    2    1    2    0    0 -0.42486039749E+03 -0.36592227141E+01  0.85242134245E+02  0.10025749704E+04  0.90408550617E+03 0.  0.
         23    2    4    4    0    0 -0.63085751751E+03 -0.22702033078E+03  0.91071461571E+02  0.68295998354E+03  0.92848748107E+02 0.  0.
         23    2    4    4    0    0  0.20599712001E+03  0.22336110807E+03 -0.58293273258E+01  0.31961498682E+03  0.98968483318E+02 0.  0.
          4    1    3    3  502    0  0.38771479780E+03  0.25779084490E+02 -0.48865492125E+03  0.62431639230E+03  0.00000000000E+00 0. -1.
         -1    1    3    3    0  502  0.37145599696E+02 -0.22119861775E+02 -0.62192008729E+02  0.75742523139E+02  0.00000000000E+00 0.  1.
         13    1    5    5    0    0 -0.98221114612E+02 -0.10314247949E+01  0.10644638031E+02  0.98801616948E+02  0.00000000000E+00 0. -1.
        -13    1    5    5    0    0 -0.53263640289E+03 -0.22598890599E+03  0.80426823539E+02  0.58415836659E+03  0.00000000000E+00 0.  1.
          1    1    6    6  503    0  0.67769531681E+02  0.11925601923E+03  0.35533925182E+02  0.14169462723E+03  0.00000000000E+00 0. -1.
         -1    1    6    6    0  503  0.13822758833E+03  0.10410508884E+03 -0.41363252508E+02  0.17792035959E+03  0.00000000000E+00 0.  1.
<mgrwt>
<rscale>  0 0.16377345E+04</rscale>
<asrwt>0</asrwt>
<pdfrwt beam="1">  1        2 0.16678759E+00 0.16377345E+04</pdfrwt>
<pdfrwt beam="2">  1       -1 0.95156084E-01 0.16377345E+04</pdfrwt>
<totfact> 0.25933927E+01</totfact>
</mgrwt>
</event>
<event>
12    7  0.1711607E-007  0.1971098E+04  0.7818608E-02  0.8620254E-01
         -1   -1    0    0    0  501 -0.00000000000E+00  0.00000000000E+00  0.84417075711E+03  0.84417075711E+03  0.00000000000E+00 0.  1.
          2   -1    0    0  501    0  0.00000000000E+00 -0.00000000000E+00 -0.11506043557E+04  0.11506043557E+04  0.00000000000E+00 0. -1.
         24    2    1    2    0    0 -0.20784134528E+02 -0.13552293427E+03 -0.88985945311E+03  0.90385193087E+03  0.79372669624E+02 0.  0.
        254    2    1    2    0    0  0.20784134528E+02  0.13552293427E+03  0.58342585448E+03  0.10909231820E+04  0.91155318845E+03 0.  0.
         23    2    4    4    0    0 -0.41470936305E+03 -0.40000649102E+02  0.17137718421E+03  0.45961078409E+03  0.91038595392E+02 0.  0.
         23    2    4    4    0    0  0.43549349758E+03  0.17552358337E+03  0.41204867026E+03  0.63131239790E+03  0.91148901936E+02 0.  0.
          4    1    3    3  502    0 -0.39539493757E+02 -0.90502061758E+02 -0.41941822185E+03  0.43088935885E+03  0.00000000000E+00 0. -1.
         -3    1    3    3    0  502  0.18755359230E+02 -0.45020872508E+02 -0.47044123126E+03  0.47296257202E+03  0.00000000000E+00 0.  1.
         13    1    5    5    0    0 -0.10306287742E+03  0.18518026282E+02  0.14107928388E+02  0.10565939448E+03  0.00000000000E+00 0.  1.
        -13    1    5    5    0    0 -0.31164648564E+03 -0.58518675384E+02  0.15726925583E+03  0.35395138961E+03  0.00000000000E+00 0. -1.
          3    1    6    6  503    0  0.12384128102E+03  0.11774349665E+02  0.13272445261E+03  0.18190953388E+03  0.00000000000E+00 0.  1.
         -3    1    6    6    0  503  0.31165221656E+03  0.16374923370E+03  0.27932421766E+03  0.44940286402E+03  0.00000000000E+00 0. -1.
<mgrwt>
<rscale>  0 0.19710977E+04</rscale>
<asrwt>0</asrwt>
<pdfrwt beam="1">  1        2 0.17701606E+00 0.19710977E+04</pdfrwt>
<pdfrwt beam="2">  1       -1 0.12987242E+00 0.19710977E+04</pdfrwt>
<totfact> 0.10952454E+01</totfact>
</mgrwt>
</event>
<event>
12    7  0.1711607E-007  0.2105421E+04  0.7818608E-02  0.8558859E-01
          2   -1    0    0  501    0  0.00000000000E+00  0.00000000000E+00  0.45261148764E+03  0.45261148764E+03  0.00000000000E+00 0. -1.
         -1   -1    0    0    0  501 -0.00000000000E+00 -0.00000000000E+00 -0.24484558815E+04  0.24484558815E+04  0.00000000000E+00 0.  1.
         24    2    1    2    0    0 -0.94132315176E+02  0.46310535853E+03 -0.17931207799E+04  0.18559734273E+04  0.77638686735E+02 0.  0.
        254    2    1    2    0    0  0.94132315176E+02 -0.46310535853E+03 -0.20272361392E+03  0.10450939418E+04  0.90983351096E+03 0.  0.
         23    2    4    4    0    0 -0.31288209587E+03 -0.27612053299E+03 -0.36307921387E+03  0.56051768742E+03  0.90641092885E+02 0.  0.
         23    2    4    4    0    0  0.40701441105E+03 -0.18698482554E+03  0.16035559995E+03  0.48457625437E+03  0.92066128831E+02 0.  0.
          4    1    3    3  502    0  0.17857725246E+01  0.24364351159E+02 -0.17456309897E+03  0.17626425080E+03  0.00000000000E+00 0. -1.
         -3    1    3    3    0  502 -0.95918087701E+02  0.43874100737E+03 -0.16185576810E+04  0.16797091765E+04  0.00000000000E+00 0.  1.
         13    1    5    5    0    0 -0.30846364978E+03 -0.28262023998E+03 -0.36047693295E+03  0.55223875495E+03  0.00000000000E+00 0.  1.
        -13    1    5    5    0    0 -0.44184460886E+01  0.64997069963E+01 -0.26022809205E+01  0.82789324713E+01  0.00000000000E+00 0. -1.
          3    1    6    6  503    0  0.12060672859E+03 -0.62470360923E+02  0.53720056449E+01  0.13593155418E+03  0.00000000000E+00 0. -1.
         -3    1    6    6    0  503  0.28640768245E+03 -0.12451446462E+03  0.15498359431E+03  0.34864470019E+03  0.00000000000E+00 0.  1.
<mgrwt>
<rscale>  0 0.21054209E+04</rscale>
<asrwt>0</asrwt>
<pdfrwt beam="1">  1        2 0.69632536E-01 0.21054209E+04</pdfrwt>
<pdfrwt beam="2">  1       -1 0.37668552E+00 0.21054209E+04</pdfrwt>
<totfact> 0.74997144E-01</totfact>
</mgrwt>
</event>
<event>
12    7  0.1711607E-007  0.1180086E+04  0.7818608E-02  0.9130468E-01
         -1   -1    0    0    0  501 -0.00000000000E+00  0.00000000000E+00  0.47577769219E+03  0.47577769219E+03  0.00000000000E+00 0.  1.
          2   -1    0    0  501    0  0.00000000000E+00 -0.00000000000E+00 -0.73175044503E+03  0.73175044503E+03  0.00000000000E+00 0. -1.
         24    2    1    2    0    0 -0.22937487366E+03  0.62177441104E+02 -0.10509507199E+03  0.27187992301E+03  0.79967815559E+02 0.  0.
        254    2    1    2    0    0  0.22937487366E+03 -0.62177441104E+02 -0.15087768085E+03  0.93564821422E+03  0.89229739400E+03 0.  0.
         23    2    4    4    0    0  0.43460250983E+02 -0.12243897847E+03  0.35291061029E+03  0.38692287196E+03  0.91012708614E+02 0.  0.
         23    2    4    4    0    0  0.18591462268E+03  0.60261537362E+02 -0.50378829114E+03  0.54872534226E+03  0.95399995457E+02 0.  0.
          4    1    3    3  502    0 -0.13723172299E+03  0.37100725746E+02 -0.10441236807E+03  0.17638297041E+03  0.00000000000E+00 0. -1.
         -3    1    3    3    0  502 -0.92143150675E+02  0.25076715358E+02 -0.68270391899E+00  0.95496952590E+02  0.00000000000E+00 0.  1.
         13    1    5    5    0    0  0.54077974663E+02 -0.42998335817E+02  0.99456689401E+02  0.12109879146E+03  0.00000000000E+00 0.  1.
        -13    1    5    5    0    0 -0.10617723680E+02 -0.79440642649E+02  0.25345392089E+03  0.26582408050E+03  0.00000000000E+00 0. -1.
          1    1    6    6  503    0  0.19326502800E+03  0.67881317035E+02 -0.45785853037E+03  0.50159114633E+03  0.00000000000E+00 0. -1.
         -1    1    6    6    0  503 -0.73504053198E+01 -0.76197796731E+01 -0.45929760774E+02  0.47134195924E+02  0.00000000000E+00 0.  1.
<mgrwt>
<rscale>  0 0.11800857E+04</rscale>
<asrwt>0</asrwt>
<pdfrwt beam="1">  1        2 0.11257699E+00 0.11800857E+04</pdfrwt>
<pdfrwt beam="2">  1       -1 0.73196568E-01 0.11800857E+04</pdfrwt>
<totfact> 0.82202214E+01</totfact>
</mgrwt>
</event>
<event>
12    7  0.1711607E-007  0.1544952E+04  0.7818608E-02  0.8855098E-01
          2   -1    0    0  501    0  0.00000000000E+00  0.00000000000E+00  0.20182993074E+04  0.20182993074E+04  0.00000000000E+00 0. -1.
         -1   -1    0    0    0  501 -0.00000000000E+00 -0.00000000000E+00 -0.29565461361E+03  0.29565461361E+03  0.00000000000E+00 0.  1.
         24    2    1    2    0    0 -0.37579634088E+03 -0.14570526519E+03  0.10312571473E+04  0.11099561683E+04  0.77836222030E+02 0.  0.
        254    2    1    2    0    0  0.37579634088E+03  0.14570526519E+03  0.69138754646E+03  0.12039977527E+04  0.89952261508E+03 0.  0.
         23    2    4    4    0    0  0.54546871117E+03  0.38423845324E+03  0.41242133401E+03  0.78907972826E+03  0.85907840063E+02 0.  0.
         23    2    4    4    0    0 -0.16967237029E+03 -0.23853318806E+03  0.27896621245E+03  0.41491802447E+03  0.92994754145E+02 0.  0.
          2    1    3    3  502    0 -0.26022983632E+03 -0.61636214891E+02  0.65712215612E+03  0.70945621342E+03  0.00000000000E+00 0. -1.
         -1    1    3    3    0  502 -0.11556650456E+03 -0.84069050296E+02  0.37413499121E+03  0.40049995485E+03  0.00000000000E+00 0.  1.
         13    1    5    5    0    0  0.17434476859E+03  0.91019248333E+02  0.87583204066E+02  0.21529379819E+03  0.00000000000E+00 0.  1.
        -13    1    5    5    0    0  0.37112394257E+03  0.29321920491E+03  0.32483812995E+03  0.57378593007E+03  0.00000000000E+00 0. -1.
          3    1    6    6  503    0 -0.15200142073E+03 -0.20118788373E+03  0.27547848692E+03  0.37345601242E+03  0.00000000000E+00 0. -1.
         -3    1    6    6    0  503 -0.17670949563E+02 -0.37345304326E+02  0.34877255366E+01  0.41462012049E+02  0.00000000000E+00 0.  1.
<mgrwt>
<rscale>  0 0.15449524E+04</rscale>
<asrwt>0</asrwt>
<pdfrwt beam="1">  1        2 0.31050758E+00 0.15449524E+04</pdfrwt>
<pdfrwt beam="2">  1       -1 0.45485326E-01 0.15449524E+04</pdfrwt>
<totfact> 0.34371998E+01</totfact>
</mgrwt>
</event>
<event>
12    7  0.1711607E-007  0.1407128E+04  0.7818608E-02  0.8948675E-01
         -1   -1    0    0    0  501 -0.00000000000E+00  0.00000000000E+00  0.25352581604E+03  0.25352581604E+03  0.00000000000E+00 0.  1.
          2   -1    0    0  501    0  0.00000000000E+00 -0.00000000000E+00 -0.19524725415E+04  0.19524725415E+04  0.00000000000E+00 0. -1.
         24    2    1    2    0    0  0.18469056711E+03  0.36744520572E+03 -0.56897751819E+03  0.70663762364E+03  0.80465707909E+02 0.  0.
        254    2    1    2    0    0 -0.18469056711E+03 -0.36744520572E+03 -0.11299692072E+04  0.14993607339E+04  0.89561465832E+03 0.  0.
         23    2    4    4    0    0 -0.19946612523E+03 -0.46240373730E+03 -0.12302458129E+04  0.13323731662E+04  0.90052998311E+02 0.  0.
         23    2    4    4    0    0  0.14775558112E+02  0.94958531581E+02  0.10027660564E+03  0.16698756768E+03  0.92703884941E+02 0.  0.
          4    1    3    3  502    0  0.13367633005E+03  0.24216456640E+03 -0.31753986239E+03  0.42112302554E+03  0.00000000000E+00 0. -1.
         -3    1    3    3    0  502  0.51014237063E+02  0.12528063932E+03 -0.25143765580E+03  0.28551459810E+03  0.00000000000E+00 0.  1.
         13    1    5    5    0    0 -0.20710887517E+03 -0.45740693042E+03 -0.12139543533E+04  0.13136972094E+04  0.00000000000E+00 0. -1.
        -13    1    5    5    0    0  0.76427499484E+01 -0.49968068790E+01 -0.16291459584E+02  0.18675956766E+02  0.00000000000E+00 0.  1.
          2    1    6    6  503    0  0.41402622488E+02  0.82090534584E+02  0.10205372332E+03  0.13736082214E+03  0.00000000000E+00 0. -1.
         -2    1    6    6    0  503 -0.26627064375E+02  0.12867996997E+02 -0.17771176723E+01  0.29626745538E+02  0.00000000000E+00 0.  1.
<mgrwt>
<rscale>  0 0.14071278E+04</rscale>
<asrwt>0</asrwt>
<pdfrwt beam="1">  1        2 0.30038039E+00 0.14071278E+04</pdfrwt>
<pdfrwt beam="2">  1       -1 0.39003972E-01 0.14071278E+04</pdfrwt>
<totfact> 0.50210997E+01</totfact>
</mgrwt>
</event>
<event>
12    7  0.1711607E-007  0.1492028E+04  0.7818608E-02  0.8889772E-01
          2   -1    0    0  501    0  0.00000000000E+00  0.00000000000E+00  0.24636574654E+04  0.24636574654E+04  0.00000000000E+00 0. -1.
         -1   -1    0    0    0  501 -0.00000000000E+00 -0.00000000000E+00 -0.22589850608E+03  0.22589850608E+03  0.00000000000E+00 0.  1.
         24    2    1    2    0    0 -0.89349005441E+02  0.14671971668E+03 -0.74672823584E+02  0.20175797621E+03  0.74968862512E+02 0.  0.
        254    2    1    2    0    0  0.89349005441E+02 -0.14671971668E+03  0.23124317829E+04  0.24877979953E+04  0.90127032276E+03 0.  0.
         23    2    4    4    0    0 -0.36717830610E+03 -0.23005210746E+03  0.10349655695E+04  0.11256333723E+04  0.90293290345E+02 0.  0.
         23    2    4    4    0    0  0.45652731154E+03  0.83332390771E+02  0.12774662135E+04  0.13621646230E+04  0.90614899625E+02 0.  0.
          2    1    3    3  502    0  0.11314370559E+02  0.35931608947E+01 -0.88465584865E+01  0.14804978332E+02  0.00000000000E+00 0. -1.
         -1    1    3    3    0  502 -0.10066337600E+03  0.14312655579E+03 -0.65826265098E+02  0.18695299788E+03  0.00000000000E+00 0.  1.
         13    1    5    5    0    0 -0.34111660907E+03 -0.20171158482E+03  0.99038064931E+03  0.10667248638E+04  0.00000000000E+00 0.  1.
        -13    1    5    5    0    0 -0.26061697032E+02 -0.28340522631E+02  0.44584920148E+02  0.58908508552E+02  0.00000000000E+00 0. -1.
          1    1    6    6  503    0  0.13607412980E+02  0.79700649516E+01  0.11187085907E+03  0.11297686813E+03  0.00000000000E+00 0. -1.
         -1    1    6    6    0  503  0.44291989856E+03  0.75362325819E+02  0.11655953544E+04  0.12491877549E+04  0.00000000000E+00 0.  1.
<mgrwt>
<rscale>  0 0.14920275E+04</rscale>
<asrwt>0</asrwt>
<pdfrwt beam="1">  1        2 0.37902421E+00 0.14920275E+04</pdfrwt>
<pdfrwt beam="2">  1       -1 0.34753618E-01 0.14920275E+04</pdfrwt>
<totfact> 0.31698724E+01</totfact>
</mgrwt>
</event>
<event>
12    7  0.1711607E-007  0.2304854E+04  0.7818608E-02  0.8476010E-01
          2   -1    0    0  501    0  0.00000000000E+00  0.00000000000E+00  0.12550181145E+04  0.12550181145E+04  0.00000000000E+00 0. -1.
         -1   -1    0    0    0  501 -0.00000000000E+00 -0.00000000000E+00 -0.10582225378E+04  0.10582225378E+04  0.00000000000E+00 0.  1.
         24    2    1    2    0    0  0.49142385333E+03 -0.55334030067E+03 -0.50845857177E+03  0.90223921749E+03  0.88445431807E+02 0.  0.
        254    2    1    2    0    0 -0.49142385333E+03  0.55334030067E+03  0.70525414848E+03  0.14110014348E+04  0.97255269419E+03 0.  0.
         23    2    4    4    0    0 -0.70789075928E+03  0.41448084859E+03  0.77217641136E+03  0.11298582168E+04  0.86136397453E+02 0.  0.
         23    2    4    4    0    0  0.21646690595E+03  0.13885945208E+03 -0.66922262886E+02  0.28114321792E+03  0.91777180785E+02 0.  0.
          2    1    3    3  502    0  0.93127347162E+02 -0.14463319493E+03 -0.15062667874E+03  0.22864789572E+03  0.00000000000E+00 0. -1.
         -1    1    3    3    0  502  0.39829650617E+03 -0.40870710573E+03 -0.35783189302E+03  0.67359132177E+03  0.00000000000E+00 0.  1.
         13    1    5    5    0    0 -0.64487056988E+03  0.40260854803E+03  0.70165988997E+03  0.10345425540E+04  0.00000000000E+00 0. -1.
        -13    1    5    5    0    0 -0.63020189398E+02  0.11872300558E+02  0.70516521389E+02  0.95315662832E+02  0.00000000000E+00 0.  1.
          1    1    6    6  503    0  0.16592671385E+03  0.61920597218E+02 -0.66242213722E+02  0.18908692606E+03  0.00000000000E+00 0. -1.
         -1    1    6    6    0  503  0.50540192096E+02  0.76938854858E+02 -0.68004916377E+00  0.92056291859E+02  0.00000000000E+00 0.  1.
<mgrwt>
<rscale>  0 0.23048544E+04</rscale>
<asrwt>0</asrwt>
<pdfrwt beam="1">  1        2 0.19307971E+00 0.23048544E+04</pdfrwt>
<pdfrwt beam="2">  1       -1 0.16280347E+00 0.23048544E+04</pdfrwt>
<totfact> 0.50508184E+00</totfact>
</mgrwt>
</event>
<event>
12    7  0.1711607E-007  0.1807209E+04  0.7818608E-02  0.8702475E-01
          2   -1    0    0  501    0  0.00000000000E+00  0.00000000000E+00  0.10247759636E+04  0.10247759636E+04  0.00000000000E+00 0. -1.
         -1   -1    0    0    0  501 -0.00000000000E+00 -0.00000000000E+00 -0.79676069301E+03  0.79676069301E+03  0.00000000000E+00 0.  1.
         24    2    1    2    0    0 -0.29620225238E+02 -0.43268616288E+03  0.60498785335E+03  0.74870556091E+03  0.80343269424E+02 0.  0.
        254    2    1    2    0    0  0.29620225238E+02  0.43268616288E+03 -0.37697258275E+03  0.10728310957E+04  0.90596002036E+03 0.  0.
         23    2    4    4    0    0  0.28483275865E+03  0.16747151797E+03 -0.55626046264E+03  0.65326198241E+03  0.90272396801E+02 0.  0.
         23    2    4    4    0    0 -0.25521253342E+03  0.26521464491E+03  0.17928787989E+03  0.41956911331E+03  0.91770648255E+02 0.  0.
          2    1    3    3  502    0 -0.39767356274E+02 -0.42475774329E+03  0.59620898673E+03  0.73312054873E+03  0.00000000000E+00 0. -1.
         -3    1    3    3    0  502  0.10147131036E+02 -0.79284195895E+01  0.87788666146E+01  0.15585012175E+02  0.00000000000E+00 0.  1.
         13    1    5    5    0    0  0.18607955162E+03  0.15387115040E+03 -0.36607249486E+03  0.43853278321E+03  0.00000000000E+00 0. -1.
        -13    1    5    5    0    0  0.98753207029E+02  0.13600367563E+02 -0.19018796779E+03  0.21472919920E+03  0.00000000000E+00 0.  1.
          3    1    6    6  503    0 -0.24534351770E+03  0.21985897776E+03  0.17478049964E+03  0.37293382098E+03  0.00000000000E+00 0. -1.
         -3    1    6    6    0  503 -0.98690157195E+01  0.45355667150E+02  0.45073802503E+01  0.46635292329E+02  0.00000000000E+00 0.  1.
<mgrwt>
<rscale>  0 0.18072091E+04</rscale>
<asrwt>0</asrwt>
<pdfrwt beam="1">  1        2 0.15765784E+00 0.18072091E+04</pdfrwt>
<pdfrwt beam="2">  1       -1 0.12257857E+00 0.18072091E+04</pdfrwt>
<totfact> 0.15358614E+01</totfact>
</mgrwt>
</event>
<event>
12    7  0.1711607E-007  0.3035377E+04  0.7818608E-02  0.8233700E-01
          2   -1    0    0  501    0  0.00000000000E+00  0.00000000000E+00  0.27326513950E+04  0.27326513950E+04  0.00000000000E+00 0. -1.
         -1   -1    0    0    0  501 -0.00000000000E+00 -0.00000000000E+00 -0.84290952928E+03  0.84290952928E+03  0.00000000000E+00 0.  1.
         24    2    1    2    0    0  0.56987142793E+03  0.35700181149E+03  0.22733397668E+04  0.23719812819E+04  0.77574276661E+02 0.  0.
        254    2    1    2    0    0 -0.56987142793E+03 -0.35700181149E+03 -0.38359790108E+03  0.12035796424E+04  0.92154916753E+03 0.  0.
         23    2    4    4    0    0 -0.75067974269E+03 -0.33095356041E+03 -0.50294404591E+03  0.96705717248E+03  0.95898520881E+02 0.  0.
         23    2    4    4    0    0  0.18080831475E+03 -0.26048251080E+02  0.11934614483E+03  0.23652246994E+03  0.91264551901E+02 0.  0.
          2    1    3    3  502    0  0.48430122673E+03  0.30729263191E+03  0.18322304250E+04  0.19199074900E+04  0.00000000000E+00 0. -1.
         -1    1    3    3    0  502  0.85570201201E+02  0.49709179584E+02  0.44110934185E+03  0.45207379192E+03  0.00000000000E+00 0.  1.
         13    1    5    5    0    0 -0.71732836737E+03 -0.31364206418E+03 -0.50089854923E+03  0.92942492310E+03  0.00000000000E+00 0. -1.
        -13    1    5    5    0    0 -0.33351375311E+02 -0.17311496231E+02 -0.20454966834E+01  0.37632249382E+02  0.00000000000E+00 0.  1.
          1    1    6    6  503    0  0.54640303419E+02 -0.17713310094E+02  0.89920550677E+02  0.10670065392E+03  0.00000000000E+00 0. -1.
         -1    1    6    6    0  503  0.12616801133E+03 -0.83349409868E+01  0.29425594156E+02  0.12982181603E+03  0.00000000000E+00 0.  1.
<mgrwt>
<rscale>  0 0.30353767E+04</rscale>
<asrwt>0</asrwt>
<pdfrwt beam="1">  1        2 0.42040790E+00 0.30353767E+04</pdfrwt>
<pdfrwt beam="2">  1       -1 0.12967839E+00 0.30353767E+04</pdfrwt>
<totfact> 0.12561169E+00</totfact>
</mgrwt>
</event>
<event>
12    7  0.1711607E-007  0.1060972E+04  0.7818608E-02  0.9244089E-01
         -1   -1    0    0    0  501 -0.00000000000E+00  0.00000000000E+00  0.20342978913E+03  0.20342978913E+03  0.00000000000E+00 0.  1.
          2   -1    0    0  501    0  0.00000000000E+00 -0.00000000000E+00 -0.13833534688E+04  0.13833534688E+04  0.00000000000E+00 0. -1.
         24    2    1    2    0    0  0.64089768521E+02  0.68193231130E+02 -0.39291577232E+02  0.12910988216E+03  0.79797985120E+02 0.  0.
        254    2    1    2    0    0 -0.64089768521E+02 -0.68193231130E+02 -0.11406321024E+04  0.14576733758E+04  0.90278029560E+03 0.  0.
         23    2    4    4    0    0 -0.19129860716E+03 -0.41658440364E+03 -0.87498402332E+03  0.99206729142E+03  0.91993190923E+02 0.  0.
         23    2    4    4    0    0  0.12720883864E+03  0.34839117251E+03 -0.26564807910E+03  0.46560608434E+03  0.93067857670E+02 0.  0.
          2    1    3    3  502    0  0.27987710991E+01  0.31702537495E+02 -0.47638929272E+02  0.57291810806E+02  0.00000000000E+00 0. -1.
         -1    1    3    3    0  502  0.61290997422E+02  0.36490693636E+02  0.83473520405E+01  0.71818071355E+02  0.00000000000E+00 0.  1.
         13    1    5    5    0    0 -0.19123120394E+03 -0.34406204801E+03 -0.76485365469E+03  0.86020298728E+03  0.00000000000E+00 0.  1.
        -13    1    5    5    0    0 -0.67403218681E-01 -0.72522355636E+02 -0.11013036863E+03  0.13186430413E+03  0.00000000000E+00 0. -1.
          1    1    6    6  503    0  0.76587125849E+02  0.30733889575E+03 -0.22882574322E+03  0.39074800760E+03  0.00000000000E+00 0. -1.
         -1    1    6    6    0  503  0.50621712788E+02  0.41052276769E+02 -0.36822335887E+02  0.74858076743E+02  0.00000000000E+00 0.  1.
<mgrwt>
<rscale>  0 0.10609718E+04</rscale>
<asrwt>0</asrwt>
<pdfrwt beam="1">  1        2 0.21282361E+00 0.10609718E+04</pdfrwt>
<pdfrwt beam="2">  1       -1 0.31296891E-01 0.10609718E+04</pdfrwt>
<totfact> 0.15868453E+02</totfact>
</mgrwt>
</event>
<event>
12    7  0.1711607E-007  0.1205439E+04  0.7818608E-02  0.9108109E-01
         -1   -1    0    0    0  501 -0.00000000000E+00  0.00000000000E+00  0.22146048453E+03  0.22146048453E+03  0.00000000000E+00 0.  1.
          2   -1    0    0  501    0  0.00000000000E+00 -0.00000000000E+00 -0.16403421565E+04  0.16403421565E+04  0.00000000000E+00 0. -1.
         24    2    1    2    0    0 -0.17034471382E+03  0.26956050123E+01 -0.61160515622E+03  0.64015032418E+03  0.81896169736E+02 0.  0.
        254    2    1    2    0    0  0.17034471382E+03 -0.26956050123E+01 -0.80727651579E+03  0.12216523169E+04  0.90095195355E+03 0.  0.
         23    2    4    4    0    0  0.20203986419E+02 -0.15747109805E+03  0.14936657169E+03  0.23682270116E+03  0.92570358429E+02 0.  0.
         23    2    4    4    0    0  0.15014072740E+03  0.15477549303E+03 -0.95664308749E+03  0.98482961573E+03  0.90695556153E+02 0.  0.
          4    1    3    3  502    0 -0.17017077303E+03  0.16800860901E+02 -0.51816276623E+03  0.54564916680E+03  0.00000000000E+00 0. -1.
         -3    1    3    3    0  502 -0.17394079155E+00 -0.14105255889E+02 -0.93442389991E+02  0.94501157381E+02  0.00000000000E+00 0.  1.
         13    1    5    5    0    0 -0.28447184645E+02 -0.92420574646E+02  0.11029741908E+03  0.14668444221E+03  0.00000000000E+00 0. -1.
        -13    1    5    5    0    0  0.48651171065E+02 -0.65050523401E+02  0.39069152618E+02  0.90138258952E+02  0.00000000000E+00 0.  1.
          1    1    6    6  503    0  0.16064910242E+03  0.13241645351E+03 -0.82310031612E+03  0.84902083701E+03  0.00000000000E+00 0. -1.
         -1    1    6    6    0  503 -0.10508375017E+02  0.22359039523E+02 -0.13354277136E+03  0.13580877872E+03  0.00000000000E+00 0.  1.
<mgrwt>
<rscale>  0 0.12054393E+04</rscale>
<asrwt>0</asrwt>
<pdfrwt beam="1">  1        2 0.25236033E+00 0.12054393E+04</pdfrwt>
<pdfrwt beam="2">  1       -1 0.34070844E-01 0.12054393E+04</pdfrwt>
<totfact> 0.96862876E+01</totfact>
</mgrwt>
</event>
<event>
12    7  0.1711607E-007  0.2272584E+04  0.7818608E-02  0.8488810E-01
         -1   -1    0    0    0  501 -0.00000000000E+00  0.00000000000E+00  0.56887568225E+03  0.56887568225E+03  0.00000000000E+00 0.  1.
          2   -1    0    0  501    0  0.00000000000E+00 -0.00000000000E+00 -0.22696692699E+04  0.22696692699E+04  0.00000000000E+00 0. -1.
         24    2    1    2    0    0 -0.52341714611E+03 -0.67718894836E+03 -0.18812416462E+03  0.87984303034E+03  0.78629995011E+02 0.  0.
        254    2    1    2    0    0  0.52341714611E+03  0.67718894836E+03 -0.15126694230E+04  0.19587019218E+04  0.90321318327E+03 0.  0.
         23    2    4    4    0    0  0.23145908706E+02  0.61704245788E+03 -0.12177474961E+04  0.13680074743E+04  0.85195994892E+02 0.  0.
         23    2    4    4    0    0  0.50027123740E+03  0.60146490473E+02 -0.29492192691E+03  0.59069444748E+03  0.89733360719E+02 0.  0.
          4    1    3    3  502    0 -0.29236284259E+03 -0.31539405035E+03 -0.85713382666E+02  0.43851593208E+03  0.00000000000E+00 0. -1.
         -3    1    3    3    0  502 -0.23105430352E+03 -0.36179489801E+03 -0.10241078195E+03  0.44132709826E+03  0.00000000000E+00 0.  1.
         13    1    5    5    0    0  0.47812514143E+02  0.54475396699E+03 -0.10762731001E+04  0.12072310082E+04  0.00000000000E+00 0. -1.
        -13    1    5    5    0    0 -0.24666605437E+02  0.72288490898E+02 -0.14147439597E+03  0.16077646611E+03  0.00000000000E+00 0.  1.
          2    1    6    6  503    0  0.45517882727E+03  0.51235721702E+02 -0.29481828185E+03  0.54472991775E+03  0.00000000000E+00 0. -1.
         -2    1    6    6    0  503  0.45092410125E+02  0.89107687705E+01 -0.10364505646E+00  0.45964529730E+02  0.00000000000E+00 0.  1.
<mgrwt>
<rscale>  0 0.22725841E+04</rscale>
<asrwt>0</asrwt>
<pdfrwt beam="1">  1        2 0.34917989E+00 0.22725841E+04</pdfrwt>
<pdfrwt beam="2">  1       -1 0.87519335E-01 0.22725841E+04</pdfrwt>
<totfact> 0.62640521E+00</totfact>
</mgrwt>
</event>
<event>
12    7  0.1711607E-007  0.2813063E+04  0.7818608E-02  0.8299224E-01
         -1   -1    0    0    0  501 -0.00000000000E+00  0.00000000000E+00  0.25608826930E+04  0.25608826930E+04  0.00000000000E+00 0.  1.
          2   -1    0    0  501    0  0.00000000000E+00 -0.00000000000E+00 -0.77251914342E+03  0.77251914342E+03  0.00000000000E+00 0. -1.
         24    2    1    2    0    0  0.97921998486E+03  0.49019157519E+03  0.40015253378E+02  0.10986265308E+04  0.78863645099E+02 0.  0.
        254    2    1    2    0    0 -0.97921998486E+03 -0.49019157519E+03  0.17483482962E+04  0.22347753056E+04  0.85926674709E+03 0.  0.
         23    2    4    4    0    0  0.12691384533E+03 -0.27644197604E+02  0.38770312926E+03  0.41882353460E+03  0.90708935054E+02 0.  0.
         23    2    4    4    0    0 -0.11061338302E+04 -0.46254737759E+03  0.13606451669E+04  0.18159517710E+04  0.94039553024E+02 0.  0.
          2    1    3    3  502    0  0.52853927574E+03  0.30807280783E+03  0.26997308564E+02  0.61236547551E+03  0.00000000000E+00 0. -1.
         -1    1    3    3    0  502  0.45068070912E+03  0.18211876736E+03  0.13017944814E+02  0.48626105528E+03  0.00000000000E+00 0.  1.
         13    1    5    5    0    0  0.39758723115E+02  0.31662146420E+02  0.16049269716E+03  0.16834830983E+03  0.00000000000E+00 0. -1.
        -13    1    5    5    0    0  0.87155122219E+02 -0.59306344024E+02  0.22721043210E+03  0.25047522477E+03  0.00000000000E+00 0.  1.
          4    1    6    6  503    0 -0.76784395599E+03 -0.36027825264E+03  0.92527203627E+03  0.12551944476E+04  0.00000000000E+00 0. -1.
         -4    1    6    6    0  503 -0.33828987421E+03 -0.10226912495E+03  0.43537313064E+03  0.56075732344E+03  0.00000000000E+00 0.  1.
<mgrwt>
<rscale>  0 0.28130630E+04</rscale>
<asrwt>0</asrwt>
<pdfrwt beam="1">  1        2 0.11884910E+00 0.28130630E+04</pdfrwt>
<pdfrwt beam="2">  1       -1 0.39398195E+00 0.28130630E+04</pdfrwt>
<totfact> 0.28106044E-01</totfact>
</mgrwt>
</event>
<event>
12    7  0.1711607E-007  0.1567405E+04  0.7818608E-02  0.8840826E-01
          2   -1    0    0  501    0  0.00000000000E+00  0.00000000000E+00  0.14050422099E+04  0.14050422099E+04  0.00000000000E+00 0. -1.
         -3   -1    0    0    0  501 -0.00000000000E+00 -0.00000000000E+00 -0.43713250657E+03  0.43713250657E+03  0.00000000000E+00 0.  1.
         24    2    1    2    0    0  0.42528890554E+03  0.19118161322E+03  0.47761860032E+02  0.47544900051E+03  0.79683714795E+02 0.  0.
        254    2    1    2    0    0 -0.42528890554E+03 -0.19118161322E+03  0.92014784331E+03  0.13667257160E+04  0.89657462976E+03 0.  0.
         23    2    4    4    0    0  0.23672448960E+03 -0.19368700341E+03  0.17178680481E+03  0.36332542781E+03  0.94559615696E+02 0.  0.
         23    2    4    4    0    0 -0.66201339514E+03  0.25053901849E+01  0.74836103851E+03  0.10034002882E+04  0.92194804667E+02 0.  0.
          2    1    3    3  502    0  0.12636069085E+02 -0.73810605276E+01  0.52187934259E+01  0.15536605204E+02  0.00000000000E+00 0. -1.
         -1    1    3    3    0  502  0.41265283645E+03  0.19856267375E+03  0.42543066606E+02  0.45991239530E+03  0.00000000000E+00 0.  1.
         13    1    5    5    0    0  0.18598290498E+03 -0.11845702804E+03  0.80849599004E+02  0.23485818294E+03  0.00000000000E+00 0. -1.
        -13    1    5    5    0    0  0.50741584620E+02 -0.75229975370E+02  0.90937205802E+02  0.12846724486E+03  0.00000000000E+00 0.  1.
          1    1    6    6  503    0 -0.59914090685E+03 -0.20334796942E+02  0.69502549796E+03  0.91784735825E+03  0.00000000000E+00 0. -1.
         -1    1    6    6    0  503 -0.62872488286E+02  0.22840187127E+02  0.53335540541E+02  0.85552929909E+02  0.00000000000E+00 0.  1.
<mgrwt>
<rscale>  0 0.15674050E+04</rscale>
<asrwt>0</asrwt>
<pdfrwt beam="1">  1        2 0.21616034E+00 0.15674050E+04</pdfrwt>
<pdfrwt beam="2">  1       -3 0.67251155E-01 0.15674050E+04</pdfrwt>
<totfact> 0.18766805E+01</totfact>
</mgrwt>
</event>
<event>
12    7  0.1711607E-007  0.1754080E+04  0.7818608E-02  0.8731108E-01
          2   -1    0    0  501    0  0.00000000000E+00  0.00000000000E+00  0.13051395072E+04  0.13051395072E+04  0.00000000000E+00 0. -1.
         -1   -1    0    0    0  501 -0.00000000000E+00 -0.00000000000E+00 -0.58936160034E+03  0.58936160034E+03  0.00000000000E+00 0.  1.
         24    2    1    2    0    0 -0.46179701121E+03 -0.78397073834E+02 -0.20887023378E+03  0.51898630331E+03  0.79482247831E+02 0.  0.
        254    2    1    2    0    0  0.46179701121E+03  0.78397073834E+02  0.92464814067E+03  0.13755148043E+04  0.90424787086E+03 0.  0.
         23    2    4    4    0    0  0.41429831388E+03  0.30755676492E+03  0.12630078858E+03  0.53921593720E+03  0.92561769648E+02 0.  0.
         23    2    4    4    0    0  0.47498697321E+02 -0.22915969109E+03  0.79834735209E+03  0.83629886706E+03  0.85246760584E+02 0.  0.
          2    1    3    3  502    0 -0.10828726882E+02 -0.15571027477E+02 -0.14671575443E+02  0.23978601889E+02  0.00000000000E+00 0. -1.
         -3    1    3    3    0  502 -0.45096828432E+03 -0.62826046356E+02 -0.19419865834E+03  0.49500770142E+03  0.00000000000E+00 0.  1.
         13    1    5    5    0    0  0.21106446033E+03  0.18488769367E+03  0.10962347919E+03  0.30124570184E+03  0.00000000000E+00 0. -1.
        -13    1    5    5    0    0  0.20323385355E+03  0.12266907125E+03  0.16677309393E+02  0.23797023537E+03  0.00000000000E+00 0.  1.
          3    1    6    6  503    0  0.20687905000E+02 -0.35628740004E+02  0.26718138591E+03  0.27033921193E+03  0.00000000000E+00 0. -1.
         -3    1    6    6    0  503  0.26810792321E+02 -0.19353095108E+03  0.53116596618E+03  0.56595965513E+03  0.00000000000E+00 0.  1.
<mgrwt>
<rscale>  0 0.17540799E+04</rscale>
<asrwt>0</asrwt>
<pdfrwt beam="1">  1        2 0.20079069E+00 0.17540799E+04</pdfrwt>
<pdfrwt beam="2">  1       -1 0.90671016E-01 0.17540799E+04</pdfrwt>
<totfact> 0.21073052E+01</totfact>
</mgrwt>
</event>
<event>
12    7  0.1711607E-007  0.1924269E+04  0.7818608E-02  0.8642869E-01
         -1   -1    0    0    0  501 -0.00000000000E+00  0.00000000000E+00  0.12037332268E+04  0.12037332268E+04  0.00000000000E+00 0.  1.
          2   -1    0    0  501    0  0.00000000000E+00 -0.00000000000E+00 -0.76902687439E+03  0.76902687439E+03  0.00000000000E+00 0. -1.
         24    2    1    2    0    0  0.23794873077E+03  0.70591656133E+03  0.26215312327E+03  0.79397516299E+03  0.82064056586E+02 0.  0.
        254    2    1    2    0    0 -0.23794873077E+03 -0.70591656133E+03  0.17255322913E+03  0.11787849382E+04  0.89711845572E+03 0.  0.
         23    2    4    4    0    0  0.28416704660E+03 -0.31694351204E+02 -0.15423382937E+02  0.30042355998E+03  0.90890001528E+02 0.  0.
         23    2    4    4    0    0 -0.52211577736E+03 -0.67422221012E+03  0.18797661207E+03  0.87836137822E+03  0.94884300400E+02 0.  0.
          2    1    3    3  502    0  0.20559055520E+03  0.56689144795E+03  0.24221917672E+03  0.64984884374E+03  0.00000000000E+00 0. -1.
         -1    1    3    3    0  502  0.32358175568E+02  0.13902511337E+03  0.19933946549E+02  0.14412631925E+03  0.00000000000E+00 0.  1.
         13    1    5    5    0    0  0.19536515115E+03 -0.31306403472E+02 -0.51694061216E+02  0.20449916662E+03  0.00000000000E+00 0. -1.
        -13    1    5    5    0    0  0.88801895444E+02 -0.38794773234E+00  0.36270678279E+02  0.95924393356E+02  0.00000000000E+00 0.  1.
          2    1    6    6  503    0 -0.37122488896E+03 -0.41512722833E+03  0.14498618693E+03  0.57546461949E+03  0.00000000000E+00 0. -1.
         -2    1    6    6    0  503 -0.15089088841E+03 -0.25909498179E+03  0.42990425140E+02  0.30289675873E+03  0.00000000000E+00 0.  1.
<mgrwt>
<rscale>  0 0.19242694E+04</rscale>
<asrwt>0</asrwt>
<pdfrwt beam="1">  1        2 0.11831183E+00 0.19242694E+04</pdfrwt>
<pdfrwt beam="2">  1       -1 0.18518973E+00 0.19242694E+04</pdfrwt>
<totfact> 0.73985733E+00</totfact>
</mgrwt>
</event>
<event>
12    7  0.2377583E-007  0.2538128E+04  0.7818608E-02  0.8389527E-01
          2   -1    0    0  501    0  0.00000000000E+00  0.00000000000E+00  0.22199663669E+04  0.22199663669E+04  0.00000000000E+00 0. -1.
         -1   -1    0    0    0  501 -0.00000000000E+00 -0.00000000000E+00 -0.72547224385E+03  0.72547224385E+03  0.00000000000E+00 0.  1.
         24    2    1    2    0    0  0.53110127484E+02  0.13910344290E+03  0.19262571493E+04  0.19336829336E+04  0.80576850470E+02 0.  0.
        254    2    1    2    0    0 -0.53110127484E+02 -0.13910344290E+03 -0.43176302629E+03  0.10117556772E+04  0.90280661601E+03 0.  0.
         23    2    4    4    0    0 -0.46614693311E+03 -0.55016020632E+02 -0.28258433329E+03  0.55546188409E+03  0.91456402069E+02 0.  0.
         23    2    4    4    0    0  0.41303680563E+03 -0.84087422266E+02 -0.14917869300E+03  0.45629379306E+03  0.90992558768E+02 0.  0.
          2    1    3    3  502    0  0.35643347522E+02  0.12167157112E+03  0.18273797638E+04  0.18317726990E+04  0.00000000000E+00 0. -1.
         -1    1    3    3    0  502  0.17466779961E+02  0.17431871774E+02  0.98877385461E+02  0.10191023458E+03  0.00000000000E+00 0.  1.
         13    1    5    5    0    0 -0.90790517143E+02 -0.29628438862E+02 -0.22554161062E+02  0.98129774144E+02  0.00000000000E+00 0.  1.
        -13    1    5    5    0    0 -0.37535641597E+03 -0.25387581770E+02 -0.26003017223E+03  0.45733210995E+03  0.00000000000E+00 0. -1.
          4    1    6    6  503    0  0.27417947569E+03 -0.87368519155E+02 -0.69011585532E+02  0.29592269593E+03  0.00000000000E+00 0. -1.
         -4    1    6    6    0  503  0.13885732994E+03  0.32810968892E+01 -0.80167107464E+02  0.16037109713E+03  0.00000000000E+00 0.  1.
<mgrwt>
<rscale>  0 0.25381284E+04</rscale>
<asrwt>0</asrwt>
<pdfrwt beam="1">  1        2 0.34153328E+00 0.25381284E+04</pdfrwt>
<pdfrwt beam="2">  1       -1 0.11161112E+00 0.25381284E+04</pdfrwt>
<totfact> 0.37514738E+00</totfact>
</mgrwt>
</event>
<event>
12    7  0.1711607E-007  0.1563657E+04  0.7818608E-02  0.8843191E-01
         -1   -1    0    0    0  501 -0.00000000000E+00  0.00000000000E+00  0.67088304841E+03  0.67088304841E+03  0.00000000000E+00 0.  1.
          2   -1    0    0  501    0  0.00000000000E+00 -0.00000000000E+00 -0.91112096101E+03  0.91112096101E+03  0.00000000000E+00 0. -1.
         24    2    1    2    0    0  0.35596461576E+03 -0.35908121249E+03  0.63538778408E+02  0.51615896200E+03  0.82053475621E+02 0.  0.
        254    2    1    2    0    0 -0.35596461576E+03  0.35908121249E+03 -0.30377669101E+03  0.10658450474E+04  0.88774729641E+03 0.  0.
         23    2    4    4    0    0 -0.57291276423E+03  0.44526157737E+03 -0.35101404115E+03  0.81078360751E+03  0.87591628668E+02 0.  0.
         23    2    4    4    0    0  0.21694814848E+03 -0.86180364885E+02  0.47237350138E+02  0.25506143992E+03  0.91276593188E+02 0.  0.
          4    1    3    3  502    0  0.25649840202E+01 -0.13665645219E+02  0.13638707826E+02  0.19476738778E+02  0.00000000000E+00 0. -1.
         -3    1    3    3    0  502  0.35339963174E+03 -0.34541556727E+03  0.49900070583E+02  0.49668222322E+03  0.00000000000E+00 0.  1.
         13    1    5    5    0    0 -0.54202348091E+03  0.42268889877E+03 -0.30796681064E+03  0.75319248234E+03  0.00000000000E+00 0. -1.
        -13    1    5    5    0    0 -0.30889283322E+02  0.22572678604E+02 -0.43047230502E+02  0.57591125162E+02  0.00000000000E+00 0.  1.
          3    1    6    6  503    0  0.22466785174E+03 -0.86558674568E+02  0.39244700400E+02  0.24394301437E+03  0.00000000000E+00 0. -1.
         -3    1    6    6    0  503 -0.77197032674E+01  0.37830968367E+00  0.79926497381E+01  0.11118425545E+02  0.00000000000E+00 0.  1.
<mgrwt>
<rscale>  0 0.15636567E+04</rscale>
<asrwt>0</asrwt>
<pdfrwt beam="1">  1        2 0.14017246E+00 0.15636567E+04</pdfrwt>
<pdfrwt beam="2">  1       -1 0.10321278E+00 0.15636567E+04</pdfrwt>
<totfact> 0.28029817E+01</totfact>
</mgrwt>
</event>
<event>
12    7  0.1711607E-007  0.2327912E+04  0.7818608E-02  0.8466996E-01
          2   -1    0    0  501    0  0.00000000000E+00  0.00000000000E+00  0.26666722270E+04  0.26666722270E+04  0.00000000000E+00 0. -1.
         -1   -1    0    0    0  501 -0.00000000000E+00 -0.00000000000E+00 -0.50804668771E+03  0.50804668771E+03  0.00000000000E+00 0.  1.
         24    2    1    2    0    0 -0.52343708702E+03 -0.24408063696E+02 -0.22493933676E+03  0.57766073397E+03  0.92260938128E+02 0.  0.
        254    2    1    2    0    0  0.52343708702E+03  0.24408063696E+02  0.23835648761E+04  0.25970581808E+04  0.88811459745E+03 0.  0.
         23    2    4    4    0    0 -0.19559766454E+03  0.19055233430E+03  0.67511780204E+03  0.73380178210E+03  0.90068697709E+02 0.  0.
         23    2    4    4    0    0  0.71903475155E+03 -0.16614427061E+03  0.17084470740E+04  0.18632563987E+04  0.91203672060E+02 0.  0.
          2    1    3    3  502    0 -0.36158936403E+03 -0.35627045788E+02 -0.19609843395E+03  0.41288103658E+03  0.00000000000E+00 0. -1.
         -1    1    3    3    0  502 -0.16184772299E+03  0.11218982092E+02 -0.28840902817E+02  0.16477969738E+03  0.00000000000E+00 0.  1.
         13    1    5    5    0    0 -0.31782691523E+02  0.66648704771E+02  0.26543967069E+03  0.27551843514E+03  0.00000000000E+00 0.  1.
        -13    1    5    5    0    0 -0.16381497301E+03  0.12390362953E+03  0.40967813135E+03  0.45828334696E+03  0.00000000000E+00 0. -1.
          3    1    6    6  503    0  0.66536208562E+03 -0.12819530474E+03  0.15709251113E+04  0.17108320919E+04  0.00000000000E+00 0. -1.
         -3    1    6    6    0  503  0.53672665936E+02 -0.37948965865E+02  0.13752196269E+03  0.15242430680E+03  0.00000000000E+00 0.  1.
<mgrwt>
<rscale>  0 0.23279124E+04</rscale>
<asrwt>0</asrwt>
<pdfrwt beam="1">  1        2 0.41025726E+00 0.23279124E+04</pdfrwt>
<pdfrwt beam="2">  1       -1 0.78161030E-01 0.23279124E+04</pdfrwt>
<totfact> 0.46884560E+00</totfact>
</mgrwt>
</event>
<event>
12    7  0.1711607E-007  0.1265602E+04  0.7818608E-02  0.9057297E-01
          2   -1    0    0  501    0  0.00000000000E+00  0.00000000000E+00  0.79831681326E+03  0.79831681326E+03  0.00000000000E+00 0. -1.
         -1   -1    0    0    0  501 -0.00000000000E+00 -0.00000000000E+00 -0.50160185244E+03  0.50160185244E+03  0.00000000000E+00 0.  1.
         24    2    1    2    0    0 -0.19302886881E+02 -0.24046866291E+03 -0.11325209653E+03  0.27819956312E+03  0.79819673461E+02 0.  0.
        254    2    1    2    0    0  0.19302886881E+02  0.24046866291E+03  0.40996705736E+03  0.10217191026E+04  0.90423401682E+03 0.  0.
         23    2    4    4    0    0 -0.19332449940E+02  0.27390129923E+03 -0.23190781844E+03  0.37114626993E+03  0.92588617496E+02 0.  0.
         23    2    4    4    0    0  0.38635336821E+02 -0.33432636323E+02  0.64187487580E+03  0.65057283264E+03  0.92904380810E+02 0.  0.
          2    1    3    3  502    0  0.15481898064E+01 -0.12224881507E+03 -0.15200068024E+02  0.12319988533E+03  0.00000000000E+00 0. -1.
         -1    1    3    3    0  502 -0.20851076687E+02 -0.11821984784E+03 -0.98052028505E+02  0.15499967779E+03  0.00000000000E+00 0.  1.
         13    1    5    5    0    0 -0.47647026748E+02  0.22656985357E+03 -0.16432068097E+03  0.28391094360E+03  0.00000000000E+00 0.  1.
        -13    1    5    5    0    0  0.28314576808E+02  0.47331445665E+02 -0.67587137468E+02  0.87235326329E+02  0.00000000000E+00 0. -1.
          1    1    6    6  503    0 -0.19431385081E+02 -0.23606266922E+02  0.41682645355E+03  0.41794632064E+03  0.00000000000E+00 0. -1.
         -1    1    6    6    0  503  0.58066721902E+02 -0.98263694008E+01  0.22504842225E+03  0.23262651200E+03  0.00000000000E+00 0.  1.
<mgrwt>
<rscale>  0 0.12656021E+04</rscale>
<asrwt>0</asrwt>
<pdfrwt beam="1">  1        2 0.12281797E+00 0.12656021E+04</pdfrwt>
<pdfrwt beam="2">  1       -1 0.77169516E-01 0.12656021E+04</pdfrwt>
<totfact> 0.65266675E+01</totfact>
</mgrwt>
</event>
<event>
12    7  0.1711607E-007  0.1802752E+04  0.7818608E-02  0.8704838E-01
         -1   -1    0    0    0  501 -0.00000000000E+00  0.00000000000E+00  0.51910633518E+03  0.51910633518E+03  0.00000000000E+00 0.  1.
          2   -1    0    0  501    0  0.00000000000E+00 -0.00000000000E+00 -0.15651480235E+04  0.15651480235E+04  0.00000000000E+00 0. -1.
         24    2    1    2    0    0 -0.36796855502E+03  0.58847766259E+03 -0.27054664481E+03  0.74902917321E+03  0.78373455049E+02 0.  0.
        254    2    1    2    0    0  0.36796855502E+03 -0.58847766259E+03 -0.77549504355E+03  0.13352251855E+04  0.83649681207E+03 0.  0.
         23    2    4    4    0    0 -0.18613040136E+03 -0.45235827361E+03 -0.45664274242E+03  0.67538547192E+03  0.91380563879E+02 0.  0.
         23    2    4    4    0    0  0.55409895638E+03 -0.13611938898E+03 -0.31885230113E+03  0.65983971359E+03  0.90374311475E+02 0.  0.
          4    1    3    3  502    0 -0.34416466770E+03  0.54055861929E+03 -0.27036929516E+03  0.69552318088E+03  0.00000000000E+00 0. -1.
         -3    1    3    3    0  502 -0.23803887318E+02  0.47919043300E+02 -0.17734965149E+00  0.53505992329E+02  0.00000000000E+00 0.  1.
         13    1    5    5    0    0 -0.13593479644E+03 -0.27691599394E+03 -0.33860706099E+03  0.45805619561E+03  0.00000000000E+00 0. -1.
        -13    1    5    5    0    0 -0.50195604927E+02 -0.17544227967E+03 -0.11803568142E+03  0.21732927630E+03  0.00000000000E+00 0.  1.
          3    1    6    6  503    0  0.22037952053E+03 -0.31193885336E+02 -0.81200531084E+02  0.23692555328E+03  0.00000000000E+00 0. -1.
         -3    1    6    6    0  503  0.33371943585E+03 -0.10492550364E+03 -0.23765177004E+03  0.42291416030E+03  0.00000000000E+00 0.  1.
<mgrwt>
<rscale>  0 0.18027515E+04</rscale>
<asrwt>0</asrwt>
<pdfrwt beam="1">  1        2 0.24079200E+00 0.18027515E+04</pdfrwt>
<pdfrwt beam="2">  1       -1 0.79862515E-01 0.18027515E+04</pdfrwt>
<totfact> 0.19639516E+01</totfact>
</mgrwt>
</event>
<event>
12    7  0.1711607E-007  0.2232941E+04  0.7818608E-02  0.8504841E-01
          2   -1    0    0  501    0  0.00000000000E+00  0.00000000000E+00  0.11706995568E+04  0.11706995568E+04  0.00000000000E+00 0. -1.
         -1   -1    0    0    0  501 -0.00000000000E+00 -0.00000000000E+00 -0.10647530668E+04  0.10647530668E+04  0.00000000000E+00 0.  1.
         24    2    1    2    0    0 -0.43295520017E+03  0.11252848320E+03  0.86561852494E+03  0.97764228020E+03  0.79850688440E+02 0.  0.
        254    2    1    2    0    0  0.43295520017E+03 -0.11252848320E+03 -0.75967203496E+03  0.12578103434E+04  0.89714680764E+03 0.  0.
         23    2    4    4    0    0  0.56400158109E+03  0.11977446025E+03 -0.78081351840E+03  0.97481191313E+03  0.90248604707E+02 0.  0.
         23    2    4    4    0    0 -0.13104638092E+03 -0.23230294345E+03  0.21141483448E+02  0.28299843030E+03  0.92213544253E+02 0.  0.
          4    1    3    3  502    0 -0.20108298708E+03  0.62022082016E+02  0.49088850918E+03  0.53409047436E+03  0.00000000000E+00 0. -1.
         -3    1    3    3    0  502 -0.23187221309E+03  0.50506401182E+02  0.37473001575E+03  0.44355180585E+03  0.00000000000E+00 0.  1.
         13    1    5    5    0    0  0.53179151869E+03  0.10252367172E+03 -0.69171160823E+03  0.87850911866E+03  0.00000000000E+00 0. -1.
        -13    1    5    5    0    0  0.32210062398E+02  0.17250788538E+02 -0.89101910176E+02  0.96302794465E+02  0.00000000000E+00 0.  1.
          3    1    6    6  503    0 -0.10849542848E+03 -0.18595220589E+03  0.53887500603E+02  0.22193094331E+03  0.00000000000E+00 0. -1.
         -3    1    6    6    0  503 -0.22550952439E+02 -0.46350737561E+02 -0.32746017155E+02  0.61067486995E+02  0.00000000000E+00 0.  1.
<mgrwt>
<rscale>  0 0.22329406E+04</rscale>
<asrwt>0</asrwt>
<pdfrwt beam="1">  1        2 0.18010762E+00 0.22329406E+04</pdfrwt>
<pdfrwt beam="2">  1       -1 0.16380816E+00 0.22329406E+04</pdfrwt>
<totfact> 0.56074834E+00</totfact>
</mgrwt>
</event>
<event>
12    7  0.1711607E-007  0.1318641E+04  0.7818608E-02  0.9014912E-01
          2   -1    0    0  501    0  0.00000000000E+00  0.00000000000E+00  0.69495955859E+03  0.69495955859E+03  0.00000000000E+00 0. -1.
         -1   -1    0    0    0  501 -0.00000000000E+00 -0.00000000000E+00 -0.62550870414E+03  0.62550870414E+03  0.00000000000E+00 0.  1.
         24    2    1    2    0    0  0.26478440406E+03  0.13800491548E+03 -0.15412120249E+03  0.34503759525E+03  0.78367466161E+02 0.  0.
        254    2    1    2    0    0 -0.26478440406E+03 -0.13800491548E+03  0.22357205694E+03  0.97543066748E+03  0.90129039997E+03 0.  0.
         23    2    4    4    0    0 -0.24791124815E+03  0.12213595601E+03 -0.27865134251E+03  0.40295817766E+03  0.91386779957E+02 0.  0.
         23    2    4    4    0    0 -0.16873155907E+02 -0.26014087149E+03  0.50222339944E+03  0.57247248982E+03  0.86824145518E+02 0.  0.
          2    1    3    3  502    0  0.42999085800E+02  0.13123272074E+02  0.44167843964E+01  0.45173550159E+02  0.00000000000E+00 0. -1.
         -1    1    3    3    0  502  0.22178531826E+03  0.12488164341E+03 -0.15853798688E+03  0.29986404509E+03  0.00000000000E+00 0.  1.
         13    1    5    5    0    0 -0.21068400250E+03  0.12013964272E+03 -0.19439542499E+03  0.31082288191E+03  0.00000000000E+00 0. -1.
        -13    1    5    5    0    0 -0.37227245650E+02  0.19963132855E+01 -0.84255917519E+02  0.92135295747E+02  0.00000000000E+00 0.  1.
          4    1    6    6  503    0 -0.21302971157E+02 -0.23122352934E+03  0.36827927165E+03  0.43537082933E+03  0.00000000000E+00 0. -1.
         -4    1    6    6    0  503  0.44298152502E+01 -0.28917342144E+02  0.13394412779E+03  0.13710166049E+03  0.00000000000E+00 0.  1.
<mgrwt>
<rscale>  0 0.13186406E+04</rscale>
<asrwt>0</asrwt>
<pdfrwt beam="1">  1        2 0.10691685E+00 0.13186406E+04</pdfrwt>
<pdfrwt beam="2">  1       -1 0.96232109E-01 0.13186406E+04</pdfrwt>
<totfact> 0.48114294E+01</totfact>
</mgrwt>
</event>
<event>
12    7  0.1711607E-007  0.1600375E+04  0.7818608E-02  0.8820318E-01
         -3   -1    0    0    0  501 -0.00000000000E+00  0.00000000000E+00  0.22962068467E+03  0.22962068467E+03  0.00000000000E+00 0.  1.
          2   -1    0    0  501    0  0.00000000000E+00 -0.00000000000E+00 -0.27885111852E+04  0.27885111852E+04  0.00000000000E+00 0. -1.
         24    2    1    2    0    0 -0.25910490367E+03 -0.23740663700E+03 -0.95946263371E+02  0.37290085825E+03  0.79700076764E+02 0.  0.
        254    2    1    2    0    0  0.25910490367E+03  0.23740663700E+03 -0.24629442371E+04  0.26452310116E+04  0.89869657118E+03 0.  0.
         23    2    4    4    0    0  0.42711660451E+03  0.46108704577E+03 -0.19830934597E+04  0.20825057159E+04  0.95606113944E+02 0.  0.
         23    2    4    4    0    0 -0.16801170084E+03 -0.22368040877E+03 -0.47985077740E+03  0.56272529571E+03  0.90233768446E+02 0.  0.
          2    1    3    3  502    0  0.49202054476E+01 -0.75325587470E+01  0.23311580263E+01  0.92942003780E+01  0.00000000000E+00 0. -1.
         -1    1    3    3    0  502 -0.26402510912E+03 -0.22987407825E+03 -0.98277421397E+02  0.36360665788E+03  0.00000000000E+00 0.  1.
         13    1    5    5    0    0  0.36349016520E+02  0.12612907327E+02 -0.83087405563E+02  0.91563384583E+02  0.00000000000E+00 0.  1.
        -13    1    5    5    0    0  0.39076758799E+03  0.44847413845E+03 -0.19000060542E+04  0.19909423313E+04  0.00000000000E+00 0. -1.
          3    1    6    6  503    0 -0.48852473261E+02 -0.12322051899E+03 -0.27544193096E+03  0.30567649202E+03  0.00000000000E+00 0. -1.
         -3    1    6    6    0  503 -0.11915922758E+03 -0.10045988978E+03 -0.20440884644E+03  0.25704880368E+03  0.00000000000E+00 0.  1.
<mgrwt>
<rscale>  0 0.16003748E+04</rscale>
<asrwt>0</asrwt>
<pdfrwt beam="1">  1        2 0.42900171E+00 0.16003748E+04</pdfrwt>
<pdfrwt beam="2">  1       -3 0.35326260E-01 0.16003748E+04</pdfrwt>
<totfact> 0.11617968E+01</totfact>
</mgrwt>
</event>
<event>
12    7  0.1711607E-007  0.1290764E+04  0.7818608E-02  0.9036922E-01
         -1   -1    0    0    0  501 -0.00000000000E+00  0.00000000000E+00  0.15975555698E+03  0.15975555698E+03  0.00000000000E+00 0.  1.
          2   -1    0    0  501    0  0.00000000000E+00 -0.00000000000E+00 -0.26072183813E+04  0.26072183813E+04  0.00000000000E+00 0. -1.
         24    2    1    2    0    0 -0.20240104498E+03  0.18044154960E+03 -0.95526840199E+03  0.99637268429E+03  0.81825853636E+02 0.  0.
        254    2    1    2    0    0  0.20240104498E+03 -0.18044154960E+03 -0.14921944223E+04  0.17706012540E+04  0.91370633727E+03 0.  0.
         23    2    4    4    0    0 -0.20612904245E+03 -0.82256705944E+02 -0.12587678173E+04  0.12812606769E+04  0.88753346425E+02 0.  0.
         23    2    4    4    0    0  0.40853008742E+03 -0.98184843658E+02 -0.23342660501E+03  0.48934057706E+03  0.91810264023E+02 0.  0.
          2    1    3    3  502    0 -0.36859620456E+02  0.47444171622E+02 -0.34555820203E+03  0.35074214465E+03  0.00000000000E+00 0. -1.
         -1    1    3    3    0  502 -0.16554142452E+03  0.13299737798E+03 -0.60971019996E+03  0.64563053964E+03  0.00000000000E+00 0.  1.
         13    1    5    5    0    0 -0.52385938907E+02  0.17776287187E+02 -0.26618496157E+03  0.27187261125E+03  0.00000000000E+00 0.  1.
        -13    1    5    5    0    0 -0.15374310354E+03 -0.10003299313E+03 -0.99258285576E+03  0.10093880657E+04  0.00000000000E+00 0. -1.
          3    1    6    6  503    0  0.38996373878E+03 -0.86942331879E+02 -0.19357522122E+03  0.44396176964E+03  0.00000000000E+00 0. -1.
         -3    1    6    6    0  503  0.18566348646E+02 -0.11242511779E+02 -0.39851383785E+02  0.45378807418E+02  0.00000000000E+00 0.  1.
<mgrwt>
<rscale>  0 0.12907635E+04</rscale>
<asrwt>0</asrwt>
<pdfrwt beam="1">  1        2 0.40111052E+00 0.12907635E+04</pdfrwt>
<pdfrwt beam="2">  1       -1 0.24577778E-01 0.12907635E+04</pdfrwt>
<totfact> 0.48851611E+01</totfact>
</mgrwt>
</event>
<event>
12    7  0.1711607E-007  0.2429219E+04  0.7818608E-02  0.8428645E-01
         -1   -1    0    0    0  501 -0.00000000000E+00  0.00000000000E+00  0.39940641241E+03  0.39940641241E+03  0.00000000000E+00 0.  1.
          2   -1    0    0  501    0  0.00000000000E+00 -0.00000000000E+00 -0.36936721193E+04  0.36936721193E+04  0.00000000000E+00 0. -1.
         24    2    1    2    0    0  0.75921422028E+03 -0.20385541535E+03 -0.25738595087E+03  0.83099398214E+03  0.79625423170E+02 0.  0.
        254    2    1    2    0    0 -0.75921422028E+03  0.20385541535E+03 -0.30368797560E+04  0.32620845496E+04  0.89475901410E+03 0.  0.
         23    2    4    4    0    0 -0.41718438265E+03 -0.20145694844E+03 -0.58399884286E+03  0.75088415689E+03  0.90247755632E+02 0.  0.
         23    2    4    4    0    0 -0.34202983762E+03  0.40531236380E+03 -0.24528809132E+04  0.25112003927E+04  0.90775084328E+02 0.  0.
          4    1    3    3  502    0  0.23789827091E+03 -0.60358763448E+02 -0.42170390093E+02  0.24903234614E+03  0.00000000000E+00 0. -1.
         -3    1    3    3    0  502  0.52131594937E+03 -0.14349665190E+03 -0.21521556077E+03  0.58196163600E+03  0.00000000000E+00 0.  1.
         13    1    5    5    0    0 -0.40078518516E+03 -0.18364201179E+03 -0.51588521952E+03  0.67859466020E+03  0.00000000000E+00 0.  1.
        -13    1    5    5    0    0 -0.16399197496E+02 -0.17814936653E+02 -0.68113623340E+02  0.72289496685E+02  0.00000000000E+00 0. -1.
          3    1    6    6  503    0 -0.93540138375E+02  0.59144148231E+02 -0.43942850349E+03  0.45315030336E+03  0.00000000000E+00 0. -1.
         -3    1    6    6    0  503 -0.24848969925E+03  0.34616821557E+03 -0.20134524097E+04  0.20580500893E+04  0.00000000000E+00 0.  1.
<mgrwt>
<rscale>  0 0.24292191E+04</rscale>
<asrwt>0</asrwt>
<pdfrwt beam="1">  1        2 0.56825723E+00 0.24292191E+04</pdfrwt>
<pdfrwt beam="2">  1       -1 0.61447142E-01 0.24292191E+04</pdfrwt>
<totfact> 0.16213333E+00</totfact>
</mgrwt>
</event>
<event>
12    7  0.1711607E-007  0.2730130E+04  0.7818608E-02  0.8325295E-01
          2   -1    0    0  501    0  0.00000000000E+00  0.00000000000E+00  0.28057745594E+04  0.28057745594E+04  0.00000000000E+00 0. -1.
         -1   -1    0    0    0  501 -0.00000000000E+00 -0.00000000000E+00 -0.66413124479E+03  0.66413124479E+03  0.00000000000E+00 0.  1.
         24    2    1    2    0    0  0.21801556793E+03 -0.54150422396E+03 -0.39809473023E+03  0.71125017527E+03  0.81484876885E+02 0.  0.
        254    2    1    2    0    0 -0.21801556793E+03  0.54150422396E+03  0.25397380449E+04  0.27586556289E+04  0.90507122930E+03 0.  0.
         23    2    4    4    0    0  0.11212418462E+03  0.50873337333E+03  0.65238829793E+03  0.83965722898E+03  0.89623060565E+02 0.  0.
         23    2    4    4    0    0 -0.33013975255E+03  0.32770850629E+02  0.18873497469E+04  0.19189984000E+04  0.10197846303E+03 0.  0.
          2    1    3    3  502    0  0.12729654562E+03 -0.23363895758E+03 -0.21240241967E+03  0.34045023265E+03  0.00000000000E+00 0. -1.
         -1    1    3    3    0  502  0.90719022312E+02 -0.30786526637E+03 -0.18569231056E+03  0.37079994263E+03  0.00000000000E+00 0.  1.
         13    1    5    5    0    0  0.66889143863E+01 -0.19515904892E+01  0.11273762162E+02  0.13253225811E+02  0.00000000000E+00 0. -1.
        -13    1    5    5    0    0  0.10543527023E+03  0.51068496382E+03  0.64111453577E+03  0.82640400317E+03  0.00000000000E+00 0.  1.
          1    1    6    6  503    0 -0.26061473374E+03  0.50745768318E+02  0.16430033402E+04  0.16643182233E+04  0.00000000000E+00 0.  1.
         -1    1    6    6    0  503 -0.69525018814E+02 -0.17974917690E+02  0.24434640673E+03  0.25468017667E+03  0.00000000000E+00 0. -1.
<mgrwt>
<rscale>  0 0.27301301E+04</rscale>
<asrwt>0</asrwt>
<pdfrwt beam="1">  1        2 0.43165762E+00 0.27301301E+04</pdfrwt>
<pdfrwt beam="2">  1       -1 0.10217404E+00 0.27301301E+04</pdfrwt>
<totfact> 0.20691937E+00</totfact>
</mgrwt>
</event>
<event>
12    7  0.1711607E-007  0.2543315E+04  0.7818608E-02  0.8387715E-01
         -1   -1    0    0    0  501 -0.00000000000E+00  0.00000000000E+00  0.81575295865E+03  0.81575295865E+03  0.00000000000E+00 0.  1.
          2   -1    0    0  501    0  0.00000000000E+00 -0.00000000000E+00 -0.19823565746E+04  0.19823565746E+04  0.00000000000E+00 0. -1.
         24    2    1    2    0    0 -0.59031942731E+03 -0.19898380238E+03 -0.15160428963E+04  0.16410122706E+04  0.80396698419E+02 0.  0.
        254    2    1    2    0    0  0.59031942731E+03  0.19898380238E+03  0.34943928036E+03  0.11570972626E+04  0.91032669113E+03 0.  0.
         23    2    4    4    0    0 -0.22514118592E+03  0.80747481090E+02 -0.24309700052E+01  0.25652257299E+03  0.92677999212E+02 0.  0.
         23    2    4    4    0    0  0.81546061323E+03  0.11823632129E+03  0.35187025037E+03  0.90057468961E+03  0.90918969818E+02 0.  0.
          4    1    3    3  502    0 -0.24741140786E+03 -0.54705064604E+02 -0.69021375299E+03  0.73525510787E+03  0.00000000000E+00 0. -1.
         -3    1    3    3    0  502 -0.34290801945E+03 -0.14427873778E+03 -0.82582914330E+03  0.90575716276E+03  0.00000000000E+00 0.  1.
         13    1    5    5    0    0 -0.11374523736E+03  0.23753670607E+02 -0.44621192351E+02  0.12447195145E+03  0.00000000000E+00 0.  1.
        -13    1    5    5    0    0 -0.11139594855E+03  0.56993810483E+02  0.42190222345E+02  0.13205062154E+03  0.00000000000E+00 0. -1.
          4    1    6    6  503    0  0.35603867280E+03  0.81824760450E+02  0.11895716316E+03  0.38419999299E+03  0.00000000000E+00 0. -1.
         -4    1    6    6    0  503  0.45942194043E+03  0.36411560842E+02  0.23291308720E+03  0.51637469661E+03  0.00000000000E+00 0.  1.
<mgrwt>
<rscale>  0 0.25433153E+04</rscale>
<asrwt>0</asrwt>
<pdfrwt beam="1">  1        2 0.30497793E+00 0.25433153E+04</pdfrwt>
<pdfrwt beam="2">  1       -1 0.12550046E+00 0.25433153E+04</pdfrwt>
<totfact> 0.38289275E+00</totfact>
</mgrwt>
</event>
<event>
12    7  0.1711607E-007  0.3017070E+04  0.7818608E-02  0.8238873E-01
          2   -1    0    0  501    0  0.00000000000E+00  0.00000000000E+00  0.17592222555E+04  0.17592222555E+04  0.00000000000E+00 0. -1.
         -1   -1    0    0    0  501 -0.00000000000E+00 -0.00000000000E+00 -0.12935703593E+04  0.12935703593E+04  0.00000000000E+00 0.  1.
         24    2    1    2    0    0 -0.35806439822E+03 -0.11297623679E+04  0.94133627750E+03  0.15156647422E+04  0.80947528220E+02 0.  0.
        254    2    1    2    0    0  0.35806439822E+03  0.11297623679E+04 -0.47568438127E+03  0.15371278725E+04  0.85551934212E+03 0.  0.
         23    2    4    4    0    0 -0.47004661036E+01  0.10088027916E+04 -0.14226827355E+03  0.10227029919E+04  0.89308350162E+02 0.  0.
         23    2    4    4    0    0  0.36276486433E+03  0.12095957634E+03 -0.33341610771E+03  0.51442488060E+03  0.85071093776E+02 0.  0.
          4    1    3    3  502    0 -0.31198341179E+03 -0.10538440194E+04  0.86747880219E+03  0.14001572550E+04  0.00000000000E+00 0. -1.
         -3    1    3    3    0  502 -0.46080986436E+02 -0.75918348463E+02  0.73857475308E+02  0.11550748722E+03  0.00000000000E+00 0.  1.
         13    1    5    5    0    0 -0.29391543936E+02  0.89971236479E+03 -0.11438883446E+03  0.90743099333E+03  0.00000000000E+00 0.  1.
        -13    1    5    5    0    0  0.24691077832E+02  0.10909042678E+03 -0.27879439095E+02  0.11527199861E+03  0.00000000000E+00 0. -1.
          1    1    6    6  503    0  0.59790877776E+02 -0.40058913797E+01 -0.80984549881E+02  0.10074469490E+03  0.00000000000E+00 0. -1.
         -1    1    6    6    0  503  0.30297398655E+03  0.12496546772E+03 -0.25243155783E+03  0.41368018570E+03  0.00000000000E+00 0.  1.
<mgrwt>
<rscale>  0 0.30170699E+04</rscale>
<asrwt>0</asrwt>
<pdfrwt beam="1">  1        2 0.27064958E+00 0.30170699E+04</pdfrwt>
<pdfrwt beam="2">  1       -1 0.19901082E+00 0.30170699E+04</pdfrwt>
<totfact> 0.13521939E+00</totfact>
</mgrwt>
</event>
<event>
12    7  0.1711607E-007  0.1497930E+04  0.7818608E-02  0.8885831E-01
         -1   -1    0    0    0  501 -0.00000000000E+00  0.00000000000E+00  0.16420770322E+03  0.16420770322E+03  0.00000000000E+00 0.  1.
          2   -1    0    0  501    0  0.00000000000E+00 -0.00000000000E+00 -0.34160923522E+04  0.34160923522E+04  0.00000000000E+00 0. -1.
         24    2    1    2    0    0 -0.39408108841E+03  0.23667037869E+02 -0.16960915421E+04  0.17432362903E+04  0.79285634810E+02 0.  0.
        254    2    1    2    0    0  0.39408108841E+03 -0.23667037869E+02 -0.15557931069E+04  0.18370637651E+04  0.89356088356E+03 0.  0.
         23    2    4    4    0    0  0.45880947610E+03 -0.31661092606E+03 -0.13478216177E+04  0.14613780624E+04  0.90852156714E+02 0.  0.
         23    2    4    4    0    0 -0.64728387685E+02  0.29294388819E+03 -0.20797148925E+03  0.37568570270E+03  0.88779057607E+02 0.  0.
          4    1    3    3  502    0 -0.33774708510E+03  0.29302468962E+02 -0.15480891550E+04  0.15847749872E+04  0.00000000000E+00 0. -1.
         -3    1    3    3    0  502 -0.56334003310E+02 -0.56354310935E+01 -0.14800238704E+03  0.15846130311E+03  0.00000000000E+00 0.  1.
         13    1    5    5    0    0  0.30407156893E+03 -0.24525567377E+03 -0.10123986804E+04  0.10851548058E+04  0.00000000000E+00 0. -1.
        -13    1    5    5    0    0  0.15473790716E+03 -0.71355252295E+02 -0.33542293729E+03  0.37622325659E+03  0.00000000000E+00 0.  1.
          2    1    6    6  503    0 -0.27565055540E+02  0.25143551550E+03 -0.19250560320E+03  0.31786484236E+03  0.00000000000E+00 0. -1.
         -2    1    6    6    0  503 -0.37163332145E+02  0.41508372692E+02 -0.15465886052E+02  0.57820860345E+02  0.00000000000E+00 0.  1.
<mgrwt>
<rscale>  0 0.14979301E+04</rscale>
<asrwt>0</asrwt>
<pdfrwt beam="1">  1        2 0.52555262E+00 0.14979301E+04</pdfrwt>
<pdfrwt beam="2">  1       -1 0.25262726E-01 0.14979301E+04</pdfrwt>
<totfact> 0.14255147E+01</totfact>
</mgrwt>
</event>
<event>
12    7  0.1711607E-007  0.1878567E+04  0.7818608E-02  0.8665599E-01
         -1   -1    0    0    0  501 -0.00000000000E+00  0.00000000000E+00  0.34741945975E+03  0.34741945975E+03  0.00000000000E+00 0.  1.
          2   -1    0    0  501    0  0.00000000000E+00 -0.00000000000E+00 -0.25394466690E+04  0.25394466690E+04  0.00000000000E+00 0. -1.
         24    2    1    2    0    0 -0.95878011446E+01  0.69763775325E+03 -0.10896798323E+04  0.12963494226E+04  0.79557072346E+02 0.  0.
        254    2    1    2    0    0  0.95878011446E+01 -0.69763775325E+03 -0.11023473769E+04  0.15905167061E+04  0.90982596823E+03 0.  0.
         23    2    4    4    0    0 -0.21592340968E+03 -0.81666633067E+03 -0.96825961030E+03  0.12882481145E+04  0.92139661371E+02 0.  0.
         23    2    4    4    0    0  0.22551121082E+03  0.11902857742E+03 -0.13408776660E+03  0.30226859159E+03  0.91453069188E+02 0.  0.
          2    1    3    3  502    0  0.47451503986E+01  0.41942599980E+03 -0.72276137261E+03  0.83565823606E+03  0.00000000000E+00 0. -1.
         -1    1    3    3    0  502 -0.14332951543E+02  0.27821175345E+03 -0.36691845973E+03  0.46069118654E+03  0.00000000000E+00 0.  1.
         13    1    5    5    0    0 -0.77440493479E+02 -0.38584946635E+03 -0.39102863745E+03  0.55477944809E+03  0.00000000000E+00 0.  1.
        -13    1    5    5    0    0 -0.13848291620E+03 -0.43081686432E+03 -0.57723097285E+03  0.73346866646E+03  0.00000000000E+00 0. -1.
          1    1    6    6  503    0  0.56969512613E+02  0.91975587047E+01  0.46547337154E+01  0.57894619780E+02  0.00000000000E+00 0. -1.
         -1    1    6    6    0  503  0.16854169821E+03  0.10983101871E+03 -0.13874250031E+03  0.24437397181E+03  0.00000000000E+00 0.  1.
<mgrwt>
<rscale>  0 0.18785667E+04</rscale>
<asrwt>0</asrwt>
<pdfrwt beam="1">  1        2 0.39068412E+00 0.18785667E+04</pdfrwt>
<pdfrwt beam="2">  1       -1 0.53449145E-01 0.18785667E+04</pdfrwt>
<totfact> 0.12467858E+01</totfact>
</mgrwt>
</event>
<event>
12    7  0.1711607E-007  0.2198202E+04  0.7818608E-02  0.8519177E-01
          2   -1    0    0  501    0  0.00000000000E+00  0.00000000000E+00  0.59178382041E+03  0.59178382041E+03  0.00000000000E+00 0. -1.
         -1   -1    0    0    0  501 -0.00000000000E+00 -0.00000000000E+00 -0.20413244110E+04  0.20413244110E+04  0.00000000000E+00 0.  1.
         24    2    1    2    0    0  0.45432957833E+02  0.90213132097E+03 -0.41775337521E+03  0.99852825255E+03  0.81459896329E+02 0.  0.
        254    2    1    2    0    0 -0.45432957833E+02 -0.90213132097E+03 -0.10317872154E+04  0.16345799789E+04  0.88958517050E+03 0.  0.
         23    2    4    4    0    0 -0.35111170101E+03 -0.66266294612E+02 -0.36346745719E+03  0.51774350248E+03  0.90989524346E+02 0.  0.
         23    2    4    4    0    0  0.30567874317E+03 -0.83586502636E+03 -0.66831975824E+03  0.11168364764E+04  0.92534207136E+02 0.  0.
          2    1    3    3  502    0 -0.44044633878E+01  0.61487942476E+03 -0.26778913691E+03  0.67067661964E+03  0.00000000000E+00 0. -1.
         -1    1    3    3    0  502  0.49837421221E+02  0.28725189621E+03 -0.14996423830E+03  0.32785163291E+03  0.00000000000E+00 0.  1.
         13    1    5    5    0    0 -0.20552711485E+03 -0.51128952689E+02 -0.27357153687E+03  0.34597247076E+03  0.00000000000E+00 0.  1.
        -13    1    5    5    0    0 -0.14558458616E+03 -0.15137341923E+02 -0.89895920321E+02  0.17177103172E+03  0.00000000000E+00 0. -1.
          4    1    6    6  503    0  0.20230284631E+02 -0.36932739611E+02 -0.58209508468E+02  0.71844544312E+02  0.00000000000E+00 0. -1.
         -4    1    6    6    0  503  0.28544845854E+03 -0.79893228675E+03 -0.61011024977E+03  0.10449919321E+04  0.00000000000E+00 0.  1.
<mgrwt>
<rscale>  0 0.21982018E+04</rscale>
<asrwt>0</asrwt>
<pdfrwt beam="1">  1        2 0.91043663E-01 0.21982018E+04</pdfrwt>
<pdfrwt beam="2">  1       -1 0.31404991E+00 0.21982018E+04</pdfrwt>
<totfact> 0.14092497E+00</totfact>
</mgrwt>
</event>
<event>
12    7  0.1711607E-007  0.2923533E+04  0.7818608E-02  0.8265910E-01
          2   -1    0    0  501    0  0.00000000000E+00  0.00000000000E+00  0.27132892346E+04  0.27132892346E+04  0.00000000000E+00 0. -1.
         -1   -1    0    0    0  501 -0.00000000000E+00 -0.00000000000E+00 -0.78751718025E+03  0.78751718025E+03  0.00000000000E+00 0.  1.
         24    2    1    2    0    0 -0.19097434333E+03  0.17200782820E+03 -0.68113851944E+03  0.73220631922E+03  0.78220959219E+02 0.  0.
        254    2    1    2    0    0  0.19097434333E+03 -0.17200782820E+03  0.26069105738E+04  0.27686000956E+04  0.89616173597E+03 0.  0.
         23    2    4    4    0    0  0.29981857198E+03 -0.32798385080E+03  0.24828064251E+04  0.25239105084E+04  0.91279393840E+02 0.  0.
         23    2    4    4    0    0 -0.10884422864E+03  0.15597602260E+03  0.12410414871E+03  0.24468958719E+03  0.91080012152E+02 0.  0.
          2    1    3    3  502    0 -0.13046245271E+02  0.25551232291E+02 -0.30091507953E+02  0.41576060878E+02  0.00000000000E+00 0. -1.
         -1    1    3    3    0  502 -0.17792809806E+03  0.14645659591E+03 -0.65104701149E+03  0.69063025834E+03  0.00000000000E+00 0.  1.
         13    1    5    5    0    0  0.90859959904E+02 -0.60888254874E+02  0.45633002129E+03  0.46925472851E+03  0.00000000000E+00 0.  1.
        -13    1    5    5    0    0  0.20895861207E+03 -0.26709559593E+03  0.20264764038E+04  0.20546557799E+04  0.00000000000E+00 0. -1.
          1    1    6    6  503    0 -0.68347032841E+02  0.14293596896E+03  0.63600497837E+02  0.17072501705E+03  0.00000000000E+00 0. -1.
         -1    1    6    6    0  503 -0.40497195801E+02  0.13040053646E+02  0.60503650873E+02  0.73964570139E+02  0.00000000000E+00 0.  1.
<mgrwt>
<rscale>  0 0.29235334E+04</rscale>
<asrwt>0</asrwt>
<pdfrwt beam="1">  1        2 0.41742911E+00 0.29235334E+04</pdfrwt>
<pdfrwt beam="2">  1       -1 0.12115649E+00 0.29235334E+04</pdfrwt>
<totfact> 0.15428873E+00</totfact>
</mgrwt>
</event>
<event>
12    7  0.1711607E-007  0.1737736E+04  0.7818608E-02  0.8740130E-01
          2   -1    0    0  501    0  0.00000000000E+00  0.00000000000E+00  0.80682301185E+03  0.80682301185E+03  0.00000000000E+00 0. -1.
         -1   -1    0    0    0  501 -0.00000000000E+00 -0.00000000000E+00 -0.93568440447E+03  0.93568440447E+03  0.00000000000E+00 0.  1.
         24    2    1    2    0    0 -0.30315787258E+01  0.19582745761E+03  0.55861064953E+03  0.59686226484E+03  0.76427232055E+02 0.  0.
        254    2    1    2    0    0  0.30315787258E+01 -0.19582745761E+03 -0.68747204214E+03  0.11456451515E+04  0.89528063799E+03 0.  0.
         23    2    4    4    0    0  0.18733527351E+03  0.22541748794E+03 -0.59283581863E+03  0.66720035561E+03  0.88286228266E+02 0.  0.
         23    2    4    4    0    0 -0.18430369478E+03 -0.42124494555E+03 -0.94636223510E+02  0.47844479587E+03  0.92402661382E+02 0.  0.
          4    1    3    3  502    0 -0.39300659597E+01  0.17010433634E+03  0.53681389112E+03  0.56313416195E+03  0.00000000000E+00 0. -1.
         -3    1    3    3    0  502  0.89848723382E+00  0.25723121273E+02  0.21796758413E+02  0.33728102891E+02  0.00000000000E+00 0.  1.
         13    1    5    5    0    0  0.98360024624E+02  0.18232414811E+03 -0.40850625032E+03  0.45803290927E+03  0.00000000000E+00 0.  1.
        -13    1    5    5    0    0  0.88975248886E+02  0.43093339832E+02 -0.18432956832E+03  0.20916744634E+03  0.00000000000E+00 0. -1.
          1    1    6    6  503    0 -0.15911178177E+03 -0.25396874909E+03 -0.54970069936E+02  0.30469393364E+03  0.00000000000E+00 0. -1.
         -1    1    6    6    0  503 -0.25191913016E+02 -0.16727619646E+03 -0.39666153574E+02  0.17375086223E+03  0.00000000000E+00 0.  1.
<mgrwt>
<rscale>  0 0.17377361E+04</rscale>
<asrwt>0</asrwt>
<pdfrwt beam="1">  1        2 0.12412662E+00 0.17377361E+04</pdfrwt>
<pdfrwt beam="2">  1       -1 0.14395145E+00 0.17377361E+04</pdfrwt>
<totfact> 0.14368705E+01</totfact>
</mgrwt>
</event>
<event>
12    7  0.1711607E-007  0.1054999E+04  0.7818608E-02  0.9250198E-01
         -1   -1    0    0    0  501 -0.00000000000E+00  0.00000000000E+00  0.28804245044E+03  0.28804245044E+03  0.00000000000E+00 0.  1.
          2   -1    0    0  501    0  0.00000000000E+00 -0.00000000000E+00 -0.96602420050E+03  0.96602420050E+03  0.00000000000E+00 0. -1.
         24    2    1    2    0    0 -0.10697194551E+03 -0.37455737379E+02 -0.15723811541E+03  0.21003451840E+03  0.80899595736E+02 0.  0.
        254    2    1    2    0    0  0.10697194551E+03  0.37455737379E+02 -0.52074363465E+03  0.10440321325E+04  0.89776568846E+03 0.  0.
         23    2    4    4    0    0  0.29385434048E+03 -0.33818591254E+03 -0.37816542438E+03  0.59231847776E+03  0.84332710358E+02 0.  0.
         23    2    4    4    0    0 -0.18688239496E+03  0.37564164992E+03 -0.14257821027E+03  0.45171365479E+03  0.87664138499E+02 0.  0.
          2    1    3    3  502    0 -0.86153330159E+02  0.10597306008E+02 -0.94626579046E+02  0.12840906765E+03  0.00000000000E+00 0. -1.
         -1    1    3    3    0  502 -0.20818615356E+02 -0.48053043386E+02 -0.62611536364E+02  0.81625450748E+02  0.00000000000E+00 0.  1.
         13    1    5    5    0    0  0.18771926974E+03 -0.15258077541E+03 -0.20880576140E+03  0.31956104777E+03  0.00000000000E+00 0. -1.
        -13    1    5    5    0    0  0.10613507074E+03 -0.18560513713E+03 -0.16935966298E+03  0.27275742999E+03  0.00000000000E+00 0.  1.
          3    1    6    6  503    0 -0.15642574854E+03  0.32964359560E+03 -0.90686296062E+02  0.37597595564E+03  0.00000000000E+00 0. -1.
         -3    1    6    6    0  503 -0.30456646428E+02  0.45998054320E+02 -0.51891914204E+02  0.75737699151E+02  0.00000000000E+00 0.  1.
<mgrwt>
<rscale>  0 0.10549995E+04</rscale>
<asrwt>0</asrwt>
<pdfrwt beam="1">  1        2 0.14861911E+00 0.10549995E+04</pdfrwt>
<pdfrwt beam="2">  1       -1 0.44314223E-01 0.10549995E+04</pdfrwt>
<totfact> 0.15153120E+02</totfact>
</mgrwt>
</event>
<event>
12    7  0.1711607E-007  0.1340872E+04  0.7818608E-02  0.8997767E-01
         -1   -1    0    0    0  501 -0.00000000000E+00  0.00000000000E+00  0.28283304185E+03  0.28283304185E+03  0.00000000000E+00 0.  1.
          2   -1    0    0  501    0  0.00000000000E+00 -0.00000000000E+00 -0.15892213334E+04  0.15892213334E+04  0.00000000000E+00 0. -1.
         24    2    1    2    0    0  0.17600178193E+02 -0.24265225600E+03 -0.71704931018E+03  0.76116743342E+03  0.77629020657E+02 0.  0.
        254    2    1    2    0    0 -0.17600178193E+02  0.24265225600E+03 -0.58933898138E+03  0.11108869418E+04  0.90970296193E+03 0.  0.
         23    2    4    4    0    0 -0.27269292481E+03 -0.22898829400E+03 -0.38108058485E+03  0.52955591368E+03  0.91705962378E+02 0.  0.
         23    2    4    4    0    0  0.25509274662E+03  0.47164055001E+03 -0.20825839653E+03  0.58133102816E+03  0.84006468711E+02 0.  0.
          2    1    3    3  502    0  0.73515868073E+01 -0.17924049196E+03 -0.61460572812E+03  0.64025104515E+03  0.00000000000E+00 0. -1.
         -1    1    3    3    0  502  0.10248591386E+02 -0.63411764045E+02 -0.10244358207E+03  0.12091638827E+03  0.00000000000E+00 0.  1.
         13    1    5    5    0    0 -0.13636693232E+03 -0.88991665104E+02 -0.11464969669E+03  0.19914821024E+03  0.00000000000E+00 0. -1.
        -13    1    5    5    0    0 -0.13632599248E+03 -0.13999662890E+03 -0.26643088816E+03  0.33040770345E+03  0.00000000000E+00 0.  1.
          1    1    6    6  503    0  0.16658024121E+03  0.34069170012E+03 -0.10860231282E+03  0.39447975061E+03  0.00000000000E+00 0. -1.
         -1    1    6    6    0  503  0.88512505408E+02  0.13094884989E+03 -0.99656083712E+02  0.18685127755E+03  0.00000000000E+00 0.  1.
<mgrwt>
<rscale>  0 0.13408718E+04</rscale>
<asrwt>0</asrwt>
<pdfrwt beam="1">  1        2 0.24449560E+00 0.13408718E+04</pdfrwt>
<pdfrwt beam="2">  1       -1 0.43512775E-01 0.13408718E+04</pdfrwt>
<totfact> 0.65649591E+01</totfact>
</mgrwt>
</event>
<event>
12    7  0.1711607E-007  0.1120157E+04  0.7818608E-02  0.9185765E-01
          2   -1    0    0  501    0  0.00000000000E+00  0.00000000000E+00  0.30843870525E+04  0.30843870525E+04  0.00000000000E+00 0. -1.
         -1   -1    0    0    0  501 -0.00000000000E+00 -0.00000000000E+00 -0.10170186481E+03  0.10170186481E+03  0.00000000000E+00 0.  1.
         24    2    1    2    0    0  0.11643987219E+03  0.15305309507E+03  0.53797666070E+03  0.57692834357E+03  0.80274108005E+02 0.  0.
        254    2    1    2    0    0 -0.11643987219E+03 -0.15305309507E+03  0.24447085270E+04  0.26091605737E+04  0.89114287513E+03 0.  0.
         23    2    4    4    0    0 -0.34437126684E+03 -0.41391741551E+03  0.13292073086E+04  0.14374740854E+04  0.98084049659E+02 0.  0.
         23    2    4    4    0    0  0.22793139465E+03  0.26086432044E+03  0.11155012184E+04  0.11716864883E+04  0.92213579753E+02 0.  0.
          4    1    3    3  502    0  0.63281643440E+02  0.93614823875E+02  0.41697341722E+03  0.43201288443E+03  0.00000000000E+00 0. -1.
         -3    1    3    3    0  502  0.53158228746E+02  0.59438271192E+02  0.12100324347E+03  0.14491545914E+03  0.00000000000E+00 0.  1.
         13    1    5    5    0    0 -0.28674720692E+03 -0.38439127140E+03  0.12145227877E+04  0.13057741811E+04  0.00000000000E+00 0.  1.
        -13    1    5    5    0    0 -0.57624059917E+02 -0.29526144103E+02  0.11468452088E+03  0.13169990431E+03  0.00000000000E+00 0. -1.
          4    1    6    6  503    0  0.18701878768E+02  0.31083336515E+01  0.22728249492E+02  0.29597218324E+02  0.00000000000E+00 0. -1.
         -4    1    6    6    0  503  0.20922951588E+03  0.25775598679E+03  0.10927729689E+04  0.11420892700E+04  0.00000000000E+00 0.  1.
<mgrwt>
<rscale>  0 0.11201570E+04</rscale>
<asrwt>0</asrwt>
<pdfrwt beam="1">  1        2 0.47452101E+00 0.11201570E+04</pdfrwt>
<pdfrwt beam="2">  1       -1 0.15646443E-01 0.11201570E+04</pdfrwt>
<totfact> 0.54481916E+01</totfact>
</mgrwt>
</event>
<event>
12    7  0.1711607E-007  0.1434519E+04  0.7818608E-02  0.8929204E-01
          2   -1    0    0  501    0  0.00000000000E+00  0.00000000000E+00  0.16634736543E+04  0.16634736543E+04  0.00000000000E+00 0. -1.
         -1   -1    0    0    0  501 -0.00000000000E+00 -0.00000000000E+00 -0.30926920747E+03  0.30926920747E+03  0.00000000000E+00 0.  1.
         24    2    1    2    0    0 -0.27995419063E+03  0.21558105727E+03  0.74482875259E+03  0.82821501912E+03  0.79502868475E+02 0.  0.
        254    2    1    2    0    0  0.27995419063E+03 -0.21558105727E+03  0.60937569422E+03  0.11445278426E+04  0.90208408962E+03 0.  0.
         23    2    4    4    0    0  0.43084667778E+03 -0.35763640959E+03  0.85690977660E+02  0.57355160142E+03  0.89921268976E+02 0.  0.
         23    2    4    4    0    0 -0.15089248715E+03  0.14205535232E+03  0.52368471656E+03  0.57097624121E+03  0.93914428424E+02 0.  0.
          2    1    3    3  502    0 -0.24373193682E+03  0.20437883738E+03  0.60732541487E+03  0.68558013809E+03  0.00000000000E+00 0. -1.
         -1    1    3    3    0  502 -0.36222253818E+02  0.11202219897E+02  0.13750333772E+03  0.14263488103E+03  0.00000000000E+00 0.  1.
         13    1    5    5    0    0  0.30050357357E+02 -0.11652807756E+02 -0.13364986117E+02  0.34891757763E+02  0.00000000000E+00 0. -1.
        -13    1    5    5    0    0  0.40079632042E+03 -0.34598360184E+03  0.99055963777E+02  0.53865984365E+03  0.00000000000E+00 0.  1.
          3    1    6    6  503    0 -0.12139252524E+02  0.14299243795E+02  0.16185708375E+03  0.16294031234E+03  0.00000000000E+00 0.  1.
         -3    1    6    6    0  503 -0.13875323462E+03  0.12775610853E+03  0.36182763281E+03  0.40803592887E+03  0.00000000000E+00 0. -1.
<mgrwt>
<rscale>  0 0.14345190E+04</rscale>
<asrwt>0</asrwt>
<pdfrwt beam="1">  1        2 0.25591902E+00 0.14345190E+04</pdfrwt>
<pdfrwt beam="2">  1       -1 0.47579879E-01 0.14345190E+04</pdfrwt>
<totfact> 0.50131824E+01</totfact>
</mgrwt>
</event>
<event>
12    7  0.1711607E-007  0.2003443E+04  0.7818608E-02  0.8605013E-01
         -1   -1    0    0    0  501 -0.00000000000E+00  0.00000000000E+00  0.40868677567E+03  0.40868677567E+03  0.00000000000E+00 0.  1.
          2   -1    0    0  501    0  0.00000000000E+00 -0.00000000000E+00 -0.24552926548E+04  0.24552926548E+04  0.00000000000E+00 0. -1.
         24    2    1    2    0    0 -0.28566521396E+03 -0.40606368400E+03 -0.17127249586E+04  0.17850173492E+04  0.79798642568E+02 0.  0.
        254    2    1    2    0    0  0.28566521396E+03  0.40606368400E+03 -0.33388092054E+03  0.10789620812E+04  0.89788104653E+03 0.  0.
         23    2    4    4    0    0  0.52143669975E+03  0.34235334340E+03  0.30211713480E+02  0.63102501398E+03  0.90431062489E+02 0.  0.
         23    2    4    4    0    0 -0.23577148579E+03  0.63710340601E+02 -0.36409263402E+03  0.44793706725E+03  0.91852975246E+02 0.  0.
          4    1    3    3  502    0 -0.18301099092E+03 -0.24923212351E+03 -0.11967719805E+04  0.12360715382E+04  0.00000000000E+00 0. -1.
         -3    1    3    3    0  502 -0.10265422304E+03 -0.15683156049E+03 -0.51595297809E+03  0.54894581105E+03  0.00000000000E+00 0.  1.
         13    1    5    5    0    0  0.10016524123E+03  0.88796870420E+02 -0.25239139025E+02  0.13621664320E+03  0.00000000000E+00 0. -1.
        -13    1    5    5    0    0  0.42127145852E+03  0.25355647298E+03  0.55450852504E+02  0.49480837078E+03  0.00000000000E+00 0.  1.
          3    1    6    6  503    0 -0.11005222648E+03  0.72179417494E+02 -0.22148537566E+03  0.25763759915E+03  0.00000000000E+00 0. -1.
         -3    1    6    6    0  503 -0.12571925931E+03 -0.84690768930E+01 -0.14260725835E+03  0.19029946810E+03  0.00000000000E+00 0.  1.
<mgrwt>
<rscale>  0 0.20034427E+04</rscale>
<asrwt>0</asrwt>
<pdfrwt beam="1">  1        2 0.37773733E+00 0.20034427E+04</pdfrwt>
<pdfrwt beam="2">  1       -1 0.62874889E-01 0.20034427E+04</pdfrwt>
<totfact> 0.10026934E+01</totfact>
</mgrwt>
</event>
<event>
12    7  0.1711607E-007  0.1875544E+04  0.7818608E-02  0.8667126E-01
         -1   -1    0    0    0  501 -0.00000000000E+00  0.00000000000E+00  0.45800158402E+03  0.45800158402E+03  0.00000000000E+00 0.  1.
          2   -1    0    0  501    0  0.00000000000E+00 -0.00000000000E+00 -0.19201170069E+04  0.19201170069E+04  0.00000000000E+00 0. -1.
         24    2    1    2    0    0 -0.31424885435E+03 -0.39735168872E+03 -0.12088115828E+04  0.13131262294E+04  0.80214366740E+02 0.  0.
        254    2    1    2    0    0  0.31424885435E+03  0.39735168872E+03 -0.25330384007E+03  0.10649923615E+04  0.90188978688E+03 0.  0.
         23    2    4    4    0    0  0.59219142628E+03  0.33687247791E+03 -0.32082781527E+03  0.75857237751E+03  0.91256852536E+02 0.  0.
         23    2    4    4    0    0 -0.27794257193E+03  0.60479210814E+02  0.67523975203E+02  0.30641998400E+03  0.91781867136E+02 0.  0.
          4    1    3    3  502    0 -0.19354648363E+03 -0.25621908189E+03 -0.66472019320E+03  0.73821500560E+03  0.00000000000E+00 0. -1.
         -1    1    3    3    0  502 -0.12070237073E+03 -0.14113260683E+03 -0.54409138959E+03  0.57491122379E+03  0.00000000000E+00 0.  1.
         13    1    5    5    0    0  0.32515355975E+03  0.17941285508E+03 -0.12473983980E+03  0.39175737085E+03  0.00000000000E+00 0.  1.
        -13    1    5    5    0    0  0.26703786653E+03  0.15745962283E+03 -0.19608797547E+03  0.36681500665E+03  0.00000000000E+00 0. -1.
          1    1    6    6  503    0 -0.45305159805E+02  0.25634000234E+02  0.47274612205E+02  0.70317483118E+02  0.00000000000E+00 0. -1.
         -1    1    6    6    0  503 -0.23263741212E+03  0.34845210580E+02  0.20249362998E+02  0.23610250088E+03  0.00000000000E+00 0.  1.
<mgrwt>
<rscale>  0 0.18755443E+04</rscale>
<asrwt>0</asrwt>
<pdfrwt beam="1">  1        2 0.29540261E+00 0.18755443E+04</pdfrwt>
<pdfrwt beam="2">  1       -1 0.70461784E-01 0.18755443E+04</pdfrwt>
<totfact> 0.16096950E+01</totfact>
</mgrwt>
</event>
<event>
12    7  0.1711607E-007  0.2745821E+04  0.7818608E-02  0.8320289E-01
         -1   -1    0    0    0  501 -0.00000000000E+00  0.00000000000E+00  0.11985464968E+04  0.11985464968E+04  0.00000000000E+00 0.  1.
          2   -1    0    0  501    0  0.00000000000E+00 -0.00000000000E+00 -0.15726411565E+04  0.15726411565E+04  0.00000000000E+00 0. -1.
         24    2    1    2    0    0  0.67867919958E+01 -0.30325850506E+03 -0.13655509822E+04  0.14011051356E+04  0.79714080380E+02 0.  0.
        254    2    1    2    0    0 -0.67867919958E+01  0.30325850506E+03  0.99145632255E+03  0.13700825177E+04  0.89561637121E+03 0.  0.
         23    2    4    4    0    0 -0.22767690790E+03 -0.83222551849E+02  0.85839406662E+03  0.89641434950E+03  0.89193861156E+02 0.  0.
         23    2    4    4    0    0  0.22089011590E+03  0.38648105691E+03  0.13306225593E+03  0.47366816821E+03  0.92173309409E+02 0.  0.
          4    1    3    3  502    0 -0.32306102087E+02 -0.17349317042E+03 -0.84222777555E+03  0.86051797792E+03  0.00000000000E+00 0. -1.
         -3    1    3    3    0  502  0.39092894083E+02 -0.12976533465E+03 -0.52332320661E+03  0.54058715766E+03  0.00000000000E+00 0.  1.
         13    1    5    5    0    0 -0.37400280233E+02 -0.37812532820E+02  0.10077866959E+03  0.11395134420E+03  0.00000000000E+00 0. -1.
        -13    1    5    5    0    0 -0.19027662766E+03 -0.45410019029E+02  0.75761539702E+03  0.78246300530E+03  0.00000000000E+00 0.  1.
          3    1    6    6  503    0  0.12472790672E+03  0.28629345689E+03  0.11860532129E+03  0.33404822468E+03  0.00000000000E+00 0. -1.
         -3    1    6    6    0  503  0.96162209181E+02  0.10018760002E+03  0.14456934647E+02  0.13961994353E+03  0.00000000000E+00 0.  1.
<mgrwt>
<rscale>  0 0.27458212E+04</rscale>
<asrwt>0</asrwt>
<pdfrwt beam="1">  1        2 0.24194479E+00 0.27458212E+04</pdfrwt>
<pdfrwt beam="2">  1       -1 0.18439177E+00 0.27458212E+04</pdfrwt>
<totfact> 0.22258465E+00</totfact>
</mgrwt>
</event>
<event>
12    7  0.1711607E-007  0.2057974E+04  0.7818608E-02  0.8579986E-01
          2   -1    0    0  501    0  0.00000000000E+00  0.00000000000E+00  0.51247065086E+04  0.51247065086E+04  0.00000000000E+00 0. -1.
         -1   -1    0    0    0  501 -0.00000000000E+00 -0.00000000000E+00 -0.20660971318E+03  0.20660971318E+03  0.00000000000E+00 0.  1.
         24    2    1    2    0    0  0.28951566258E+03  0.52600397876E+03  0.34841995679E+04  0.35364683913E+04  0.80389979145E+02 0.  0.
        254    2    1    2    0    0 -0.28951566258E+03 -0.52600397876E+03  0.14338972275E+04  0.17948478305E+04  0.89717220818E+03 0.  0.
         23    2    4    4    0    0 -0.31728715209E+03 -0.75796733523E+03  0.11277571647E+04  0.13983206556E+04  0.90987995126E+02 0.  0.
         23    2    4    4    0    0  0.27771489510E+02  0.23196335646E+03  0.30614006285E+03  0.39652717493E+03  0.94518823570E+02 0.  0.
          2    1    3    3  502    0  0.20571318403E+03  0.35383281226E+03  0.25749358823E+04  0.26072610861E+04  0.00000000000E+00 0. -1.
         -1    1    3    3    0  502  0.83802478544E+02  0.17217116651E+03  0.90926368564E+03  0.92920730518E+03  0.00000000000E+00 0.  1.
         13    1    5    5    0    0 -0.42359220522E+01 -0.22202434496E+02  0.11871492406E+02  0.25530833616E+02  0.00000000000E+00 0.  1.
        -13    1    5    5    0    0 -0.31305123004E+03 -0.73576490073E+03  0.11158856723E+04  0.13727898220E+04  0.00000000000E+00 0. -1.
          3    1    6    6  503    0  0.25615607866E+02  0.38341636138E+02  0.11737873418E+03  0.12611109256E+03  0.00000000000E+00 0. -1.
         -3    1    6    6    0  503  0.21558816439E+01  0.19362172033E+03  0.18876132867E+03  0.27041608238E+03  0.00000000000E+00 0.  1.
<mgrwt>
<rscale>  0 0.20579739E+04</rscale>
<asrwt>0</asrwt>
<pdfrwt beam="1">  1        2 0.78841629E+00 0.20579739E+04</pdfrwt>
<pdfrwt beam="2">  1       -1 0.31786114E-01 0.20579739E+04</pdfrwt>
<totfact> 0.23409597E-01</totfact>
</mgrwt>
</event>
<event>
12    7  0.1711607E-007  0.2451586E+04  0.7818608E-02  0.8420439E-01
         -1   -1    0    0    0  501 -0.00000000000E+00  0.00000000000E+00  0.12459385540E+04  0.12459385540E+04  0.00000000000E+00 0.  1.
          2   -1    0    0  501    0  0.00000000000E+00 -0.00000000000E+00 -0.12059731929E+04  0.12059731929E+04  0.00000000000E+00 0. -1.
         24    2    1    2    0    0  0.73676867561E+03  0.70339097379E+03  0.30097212187E+03  0.10653323875E+04  0.82230981220E+02 0.  0.
        254    2    1    2    0    0 -0.73676867561E+03 -0.70339097379E+03 -0.26100676078E+03  0.13865793594E+04  0.90382014105E+03 0.  0.
         23    2    4    4    0    0 -0.36209729015E+03  0.36016902918E+02 -0.39181094640E+03  0.54250775928E+03  0.91581582899E+02 0.  0.
         23    2    4    4    0    0 -0.37467138545E+03 -0.73940787671E+03  0.13080418562E+03  0.84407160012E+03  0.90799096574E+02 0.  0.
          2    1    3    3  502    0  0.15286253997E+03  0.13360537489E+03  0.27504443774E+02  0.20487519800E+03  0.00000000000E+00 0. -1.
         -1    1    3    3    0  502  0.58390613564E+03  0.56978559890E+03  0.27346767810E+03  0.86045718947E+03  0.00000000000E+00 0.  1.
         13    1    5    5    0    0 -0.66369449057E+02  0.66734814591E+01 -0.26971109927E+02  0.71950537827E+02  0.00000000000E+00 0.  1.
        -13    1    5    5    0    0 -0.29572784110E+03  0.29343421459E+02 -0.36483983647E+03  0.47055722145E+03  0.00000000000E+00 0. -1.
          1    1    6    6  503    0 -0.32631902858E+03 -0.67814962388E+03  0.14000812956E+03  0.76548892684E+03  0.00000000000E+00 0. -1.
         -1    1    6    6    0  503 -0.48352356877E+02 -0.61258252832E+02 -0.92039439404E+01  0.78582673278E+02  0.00000000000E+00 0.  1.
<mgrwt>
<rscale>  0 0.24515860E+04</rscale>
<asrwt>0</asrwt>
<pdfrwt beam="1">  1        2 0.18553434E+00 0.24515860E+04</pdfrwt>
<pdfrwt beam="2">  1       -1 0.19168286E+00 0.24515860E+04</pdfrwt>
<totfact> 0.32968420E+00</totfact>
</mgrwt>
</event>
<event>
12    7  0.1711607E-007  0.1481529E+04  0.7818608E-02  0.8896830E-01
         -1   -1    0    0    0  501 -0.00000000000E+00  0.00000000000E+00  0.19197771020E+03  0.19197771020E+03  0.00000000000E+00 0.  1.
          2   -1    0    0  501    0  0.00000000000E+00 -0.00000000000E+00 -0.28583120301E+04  0.28583120301E+04  0.00000000000E+00 0. -1.
         24    2    1    2    0    0  0.43549792951E+02  0.87692604171E+02 -0.19554004063E+04  0.19594628838E+04  0.79482493286E+02 0.  0.
        254    2    1    2    0    0 -0.43549792951E+02 -0.87692604171E+02 -0.71093391353E+03  0.10908268564E+04  0.82151666083E+03 0.  0.
         23    2    4    4    0    0  0.15368739862E+03 -0.26025551296E+03  0.13085824943E+02  0.31556387881E+03  0.89758421755E+02 0.  0.
         23    2    4    4    0    0 -0.19723719157E+03  0.17256290879E+03 -0.72401973848E+03  0.77526297763E+03  0.90264253979E+02 0.  0.
          2    1    3    3  502    0  0.57657000262E+02  0.93649559903E+02 -0.17806130039E+04  0.17840059527E+04  0.00000000000E+00 0. -1.
         -1    1    3    3    0  502 -0.14107207312E+02 -0.59569557317E+01 -0.17478740246E+03  0.17545693112E+03  0.00000000000E+00 0.  1.
         13    1    5    5    0    0  0.70204290745E+02 -0.50569764813E+02 -0.16050384186E+02  0.87997490787E+02  0.00000000000E+00 0.  1.
        -13    1    5    5    0    0  0.83483107870E+02 -0.20968574815E+03  0.29136209129E+02  0.22756638802E+03  0.00000000000E+00 0. -1.
          1    1    6    6  503    0 -0.52570640042E+02  0.77920971559E+02 -0.36322137891E+03  0.37518678029E+03  0.00000000000E+00 0. -1.
         -1    1    6    6    0  503 -0.14466655152E+03  0.94641937230E+02 -0.36079835957E+03  0.40007619734E+03  0.00000000000E+00 0.  1.
<mgrwt>
<rscale>  0 0.14815292E+04</rscale>
<asrwt>0</asrwt>
<pdfrwt beam="1">  1        2 0.43974030E+00 0.14815292E+04</pdfrwt>
<pdfrwt beam="2">  1       -1 0.29535033E-01 0.14815292E+04</pdfrwt>
<totfact> 0.24774686E+01</totfact>
</mgrwt>
</event>
<event>
12    7  0.1711607E-007  0.4060827E+04  0.7818608E-02  0.7992387E-01
         -1   -1    0    0    0  501 -0.00000000000E+00  0.00000000000E+00  0.23978734001E+04  0.23978734001E+04  0.00000000000E+00 0.  1.
          2   -1    0    0  501    0  0.00000000000E+00 -0.00000000000E+00 -0.17192646053E+04  0.17192646053E+04  0.00000000000E+00 0. -1.
         24    2    1    2    0    0  0.10595654799E+04 -0.39684686533E+02  0.19521439673E+04  0.22228801116E+04  0.77948962626E+02 0.  0.
        254    2    1    2    0    0 -0.10595654799E+04  0.39684686533E+02 -0.12735351725E+04  0.18942578938E+04  0.91764222446E+03 0.  0.
         23    2    4    4    0    0  0.56125358345E+02 -0.20261347908E+03 -0.86959357934E+02  0.24509101410E+03  0.91133953636E+02 0.  0.
         23    2    4    4    0    0 -0.11156908383E+04  0.24229816562E+03 -0.11865758146E+04  0.16491668797E+04  0.91185447152E+02 0.  0.
          4    1    3    3  502    0  0.26317003360E+03 -0.39477363890E+02  0.45560273487E+03  0.52762750200E+03  0.00000000000E+00 0. -1.
         -3    1    3    3    0  502  0.79639544635E+03 -0.20732264307E+00  0.14965412325E+04  0.16952526096E+04  0.00000000000E+00 0.  1.
         13    1    5    5    0    0  0.56248444486E+02 -0.12751432966E+03 -0.13473070249E+02  0.14001898227E+03  0.00000000000E+00 0.  1.
        -13    1    5    5    0    0 -0.12308614073E+00 -0.75099149426E+02 -0.73486287685E+02  0.10507203183E+03  0.00000000000E+00 0. -1.
          3    1    6    6  503    0 -0.42685101826E+03  0.13820808425E+03 -0.46730740841E+03  0.64782673632E+03  0.00000000000E+00 0. -1.
         -3    1    6    6    0  503 -0.68883982003E+03  0.10409008137E+03 -0.71926840614E+03  0.10013401434E+04  0.00000000000E+00 0.  1.
<mgrwt>
<rscale>  0 0.40608269E+04</rscale>
<asrwt>0</asrwt>
<pdfrwt beam="1">  1        2 0.26450225E+00 0.40608269E+04</pdfrwt>
<pdfrwt beam="2">  1       -1 0.36890360E+00 0.40608269E+04</pdfrwt>
<totfact> 0.99330316E-02</totfact>
</mgrwt>
</event>
<event>
12    7  0.1711607E-007  0.1551713E+04  0.7818608E-02  0.8850774E-01
          4   -1    0    0  501    0  0.00000000000E+00  0.00000000000E+00  0.11009161640E+04  0.11009161640E+04  0.00000000000E+00 0. -1.
         -3   -1    0    0    0  501 -0.00000000000E+00 -0.00000000000E+00 -0.54677520098E+03  0.54677520098E+03  0.00000000000E+00 0.  1.
         24    2    1    2    0    0 -0.90721922505E+02 -0.19692272020E+03  0.68735013509E+03  0.72506283576E+03  0.79100459180E+02 0.  0.
        254    2    1    2    0    0  0.90721922505E+02  0.19692272020E+03 -0.13320917211E+03  0.92262852918E+03  0.88684254203E+03 0.  0.
         23    2    4    4    0    0 -0.21942634742E+02  0.52918556815E+03 -0.43904521205E+01  0.53766845013E+03  0.92462108129E+02 0.  0.
         23    2    4    4    0    0  0.11266455725E+03 -0.33226284795E+03 -0.12881871999E+03  0.38496007904E+03  0.92239347608E+02 0.  0.
          4    1    3    3  502    0 -0.54762356311E+02 -0.17334741932E+03  0.61061153366E+03  0.63709864895E+03  0.00000000000E+00 0. -1.
         -3    1    3    3    0  502 -0.35959566194E+02 -0.23575300880E+02  0.76738601428E+02  0.87964186813E+02  0.00000000000E+00 0.  1.
         13    1    5    5    0    0 -0.34744838065E+02  0.52119071681E+03 -0.67527182514E+01  0.52239120041E+03  0.00000000000E+00 0. -1.
        -13    1    5    5    0    0  0.12802203323E+02  0.79948513442E+01  0.23622661309E+01  0.15277249727E+02  0.00000000000E+00 0.  1.
          3    1    6    6  503    0  0.12373686643E+03 -0.26526949846E+03 -0.87642438543E+02  0.30554854927E+03  0.00000000000E+00 0. -1.
         -3    1    6    6    0  503 -0.11072309184E+02 -0.66993349496E+02 -0.41176281450E+02  0.79411529776E+02  0.00000000000E+00 0.  1.
<mgrwt>
<rscale>  0 0.15517134E+04</rscale>
<asrwt>0</asrwt>
<pdfrwt beam="1">  1        4 0.16937172E+00 0.15517134E+04</pdfrwt>
<pdfrwt beam="2">  1       -3 0.84119262E-01 0.15517134E+04</pdfrwt>
<totfact> 0.61089972E-01</totfact>
</mgrwt>
</event>
<event>
12    7  0.1711607E-007  0.1322529E+04  0.7818608E-02  0.9011888E-01
          2   -1    0    0  501    0  0.00000000000E+00  0.00000000000E+00  0.35247368780E+03  0.35247368780E+03  0.00000000000E+00 0. -1.
         -1   -1    0    0    0  501 -0.00000000000E+00 -0.00000000000E+00 -0.12405762081E+04  0.12405762081E+04  0.00000000000E+00 0.  1.
         24    2    1    2    0    0 -0.68863742101E+02 -0.18553046936E+03 -0.61588969957E+03  0.65202830581E+03  0.81590560185E+02 0.  0.
        254    2    1    2    0    0  0.68863742101E+02  0.18553046936E+03 -0.27221282073E+03  0.94102159008E+03  0.87878213636E+03 0.  0.
         23    2    4    4    0    0  0.25341033356E+03 -0.78888593624E+02  0.21231034028E+03  0.35217688660E+03  0.92264139901E+02 0.  0.
         23    2    4    4    0    0 -0.18454659146E+03  0.26441906298E+03 -0.48452316101E+03  0.58884470348E+03  0.89445547551E+02 0.  0.
          2    1    3    3  502    0  0.92017301542E+01 -0.17115613139E+02 -0.19960962147E+02  0.27857782769E+02  0.00000000000E+00 0. -1.
         -1    1    3    3    0  502 -0.78065472255E+02 -0.16841485622E+03 -0.59592873742E+03  0.62417052304E+03  0.00000000000E+00 0.  1.
         13    1    5    5    0    0  0.77024781451E+02 -0.17636147863E+02  0.12052525044E+03  0.14411865480E+03  0.00000000000E+00 0.  1.
        -13    1    5    5    0    0  0.17638555211E+03 -0.61252445761E+02  0.91785089839E+02  0.20805823180E+03  0.00000000000E+00 0. -1.
          3    1    6    6  503    0 -0.64276723868E+02  0.15211256394E+03 -0.19227873886E+03  0.25345777312E+03  0.00000000000E+00 0. -1.
         -3    1    6    6    0  503 -0.12026986759E+03  0.11230649904E+03 -0.29224442215E+03  0.33538693035E+03  0.00000000000E+00 0.  1.
<mgrwt>
<rscale>  0 0.13225286E+04</rscale>
<asrwt>0</asrwt>
<pdfrwt beam="1">  1        2 0.54226720E-01 0.13225286E+04</pdfrwt>
<pdfrwt beam="2">  1       -1 0.19085788E+00 0.13225286E+04</pdfrwt>
<totfact> 0.17900434E+01</totfact>
</mgrwt>
</event>
<event>
12    7  0.1711607E-007  0.1497856E+04  0.7818608E-02  0.8885880E-01
         -1   -1    0    0    0  501 -0.00000000000E+00  0.00000000000E+00  0.77904659223E+03  0.77904659223E+03  0.00000000000E+00 0.  1.
          2   -1    0    0  501    0  0.00000000000E+00 -0.00000000000E+00 -0.71997366637E+03  0.71997366637E+03  0.00000000000E+00 0. -1.
         24    2    1    2    0    0  0.47597101181E+03 -0.80125921227E+02 -0.80477605850E+02  0.49576245951E+03  0.79593994011E+02 0.  0.
        254    2    1    2    0    0 -0.47597101181E+03  0.80125921227E+02  0.13955053171E+03  0.10032577991E+04  0.86837969415E+03 0.  0.
         23    2    4    4    0    0 -0.55394301148E+03 -0.26667439076E+03  0.13308617174E+03  0.63635500124E+03  0.96268727218E+02 0.  0.
         23    2    4    4    0    0  0.77971999675E+02  0.34680031199E+03  0.64643599685E+01  0.36690279785E+03  0.90696118945E+02 0.  0.
          2    1    3    3  502    0  0.11598675805E+03 -0.39654731203E+02 -0.49474654980E+02  0.13218610832E+03  0.00000000000E+00 0. -1.
         -1    1    3    3    0  502  0.35998425376E+03 -0.40471190025E+02 -0.31002950870E+02  0.36357635118E+03  0.00000000000E+00 0.  1.
         13    1    5    5    0    0 -0.28229628478E+03 -0.86765422709E+02  0.44123782860E+02  0.29860733279E+03  0.00000000000E+00 0.  1.
        -13    1    5    5    0    0 -0.27164672670E+03 -0.17990896805E+03  0.88962388884E+02  0.33774766846E+03  0.00000000000E+00 0. -1.
          1    1    6    6  503    0  0.75255294839E+02  0.35123508199E+03  0.11868412485E+02  0.35940270093E+03  0.00000000000E+00 0. -1.
         -1    1    6    6    0  503  0.27167048356E+01 -0.44347700040E+01 -0.54040525164E+01  0.75000969162E+01  0.00000000000E+00 0.  1.
<mgrwt>
<rscale>  0 0.14978558E+04</rscale>
<asrwt>0</asrwt>
<pdfrwt beam="1">  1        2 0.11076518E+00 0.14978558E+04</pdfrwt>
<pdfrwt beam="2">  1       -1 0.11985332E+00 0.14978558E+04</pdfrwt>
<totfact> 0.27097741E+01</totfact>
</mgrwt>
</event>
<event>
12    7  0.1711607E-007  0.1896848E+04  0.7818608E-02  0.8656427E-01
          2   -1    0    0  501    0  0.00000000000E+00  0.00000000000E+00  0.57103263108E+03  0.57103263108E+03  0.00000000000E+00 0. -1.
         -1   -1    0    0    0  501 -0.00000000000E+00 -0.00000000000E+00 -0.15752312807E+04  0.15752312807E+04  0.00000000000E+00 0.  1.
         24    2    1    2    0    0  0.64583939080E+03  0.27116393296E+03 -0.63374968652E+03  0.94794853378E+03  0.79557276733E+02 0.  0.
        254    2    1    2    0    0 -0.64583939080E+03 -0.27116393296E+03 -0.37044896306E+03  0.11983153780E+04  0.89893765832E+03 0.  0.
         23    2    4    4    0    0 -0.79485742447E+03 -0.92360917338E+02 -0.72150330114E+02  0.80898682306E+03  0.94472988086E+02 0.  0.
         23    2    4    4    0    0  0.14901803366E+03 -0.17880301563E+03 -0.29829863295E+03  0.38932855489E+03  0.91748332295E+02 0.  0.
          2    1    3    3  502    0  0.50201421081E+02  0.42631743565E+02 -0.44491253012E+02  0.79480310974E+02  0.00000000000E+00 0. -1.
         -1    1    3    3    0  502  0.59563796972E+03  0.22853218940E+03 -0.58925843351E+03  0.86846822281E+03  0.00000000000E+00 0.  1.
         13    1    5    5    0    0 -0.19200045627E+03 -0.58048236093E+02 -0.38290066741E+02  0.20420553893E+03  0.00000000000E+00 0. -1.
        -13    1    5    5    0    0 -0.60285696820E+03 -0.34312681245E+02 -0.33860263373E+02  0.60478128413E+03  0.00000000000E+00 0.  1.
          1    1    6    6  503    0  0.26020474046E+01 -0.55293981041E+02 -0.95384598822E+02  0.11028334726E+03  0.00000000000E+00 0. -1.
         -1    1    6    6    0  503  0.14641598626E+03 -0.12350903458E+03 -0.20291403413E+03  0.27904520763E+03  0.00000000000E+00 0.  1.
<mgrwt>
<rscale>  0 0.18968484E+04</rscale>
<asrwt>0</asrwt>
<pdfrwt beam="1">  1        2 0.87851173E-01 0.18968484E+04</pdfrwt>
<pdfrwt beam="2">  1       -1 0.24234328E+00 0.18968484E+04</pdfrwt>
<totfact> 0.44077803E+00</totfact>
</mgrwt>
</event>
<event>
12    7  0.1711607E-007  0.1389419E+04  0.7818608E-02  0.8961513E-01
         -1   -1    0    0    0  501 -0.00000000000E+00  0.00000000000E+00  0.71990067594E+03  0.71990067594E+03  0.00000000000E+00 0.  1.
          2   -1    0    0  501    0  0.00000000000E+00 -0.00000000000E+00 -0.67039974316E+03  0.67039974316E+03  0.00000000000E+00 0. -1.
         24    2    1    2    0    0 -0.36444481049E+02  0.25566141160E+03  0.31733625961E+03  0.41674027700E+03  0.79241398436E+02 0.  0.
        254    2    1    2    0    0  0.36444481049E+02 -0.25566141160E+03 -0.26783532683E+03  0.97356014210E+03  0.89966250917E+03 0.  0.
         23    2    4    4    0    0 -0.30979203377E+03  0.10759377381E+03  0.88973074229E+02  0.35178780084E+03  0.91054514079E+02 0.  0.
         23    2    4    4    0    0  0.34623651482E+03 -0.36325518541E+03 -0.35680840105E+03  0.62177234126E+03  0.86339767039E+02 0.  0.
          4    1    3    3  502    0  0.12328674459E+01  0.64142087212E+01  0.45681465562E+02  0.46146054344E+02  0.00000000000E+00 0. -1.
         -3    1    3    3    0  502 -0.37677348495E+02  0.24924720288E+03  0.27165479405E+03  0.37059422265E+03  0.00000000000E+00 0.  1.
         13    1    5    5    0    0 -0.29492988998E+03  0.10079624336E+03  0.58374008284E+02  0.31709785165E+03  0.00000000000E+00 0. -1.
        -13    1    5    5    0    0 -0.14862143792E+02  0.67975304482E+01  0.30599065945E+02  0.34689949192E+02  0.00000000000E+00 0.  1.
          4    1    6    6  503    0  0.27877932392E+03 -0.30338731259E+03 -0.24982986177E+03  0.48184720890E+03  0.00000000000E+00 0. -1.
         -4    1    6    6    0  503  0.67457190896E+02 -0.59867872811E+02 -0.10697853929E+03  0.13992513236E+03  0.00000000000E+00 0.  1.
<mgrwt>
<rscale>  0 0.13894189E+04</rscale>
<asrwt>0</asrwt>
<pdfrwt beam="1">  1        2 0.10313842E+00 0.13894189E+04</pdfrwt>
<pdfrwt beam="2">  1       -1 0.11075395E+00 0.13894189E+04</pdfrwt>
<totfact> 0.36166299E+01</totfact>
</mgrwt>
</event>
<event>
12    7  0.1711607E-007  0.1667586E+04  0.7818608E-02  0.8780071E-01
          2   -1    0    0  501    0  0.00000000000E+00  0.00000000000E+00  0.18387858776E+04  0.18387858776E+04  0.00000000000E+00 0. -1.
         -1   -1    0    0    0  501 -0.00000000000E+00 -0.00000000000E+00 -0.37808120182E+03  0.37808120182E+03  0.00000000000E+00 0.  1.
         24    2    1    2    0    0 -0.56476123387E+03 -0.10095232233E+03  0.67273347159E+03  0.88757034074E+03  0.77872737788E+02 0.  0.
        254    2    1    2    0    0  0.56476123387E+03  0.10095232233E+03  0.78797120422E+03  0.13292967387E+04  0.90387199216E+03 0.  0.
         23    2    4    4    0    0  0.23325701489E+03  0.45216378202E+03  0.62399225701E+03  0.81036668673E+03  0.92015810538E+02 0.  0.
         23    2    4    4    0    0  0.33150421898E+03 -0.35121145969E+03  0.16397894721E+03  0.51893005199E+03  0.95680547175E+02 0.  0.
          4    1    3    3  502    0 -0.48019655983E+03 -0.10332063049E+03  0.60440029187E+03  0.77882193188E+03  0.00000000000E+00 0. -1.
         -1    1    3    3    0  502 -0.84564674043E+02  0.23683081612E+01  0.68333179722E+02  0.10874840886E+03  0.00000000000E+00 0.  1.
         13    1    5    5    0    0  0.43030646110E+02  0.28818074626E+02  0.47586148491E+02  0.70331781280E+02  0.00000000000E+00 0. -1.
        -13    1    5    5    0    0  0.19022636878E+03  0.42334570739E+03  0.57640610852E+03  0.74003490545E+03  0.00000000000E+00 0.  1.
          1    1    6    6  503    0  0.14220346492E+03 -0.18336639619E+03  0.34078525274E+02  0.23453444645E+03  0.00000000000E+00 0. -1.
         -1    1    6    6    0  503  0.18930075406E+03 -0.16784506350E+03  0.12990042194E+03  0.28439560554E+03  0.00000000000E+00 0.  1.
<mgrwt>
<rscale>  0 0.16675855E+04</rscale>
<asrwt>0</asrwt>
<pdfrwt beam="1">  1        2 0.28289013E+00 0.16675855E+04</pdfrwt>
<pdfrwt beam="2">  1       -1 0.58166340E-01 0.16675855E+04</pdfrwt>
<totfact> 0.26720205E+01</totfact>
</mgrwt>
</event>
<event>
12    7  0.1711607E-007  0.2005817E+04  0.7818608E-02  0.8603906E-01
         -1   -1    0    0    0  501 -0.00000000000E+00  0.00000000000E+00  0.12093208208E+04  0.12093208208E+04  0.00000000000E+00 0.  1.
          2   -1    0    0  501    0  0.00000000000E+00 -0.00000000000E+00 -0.83172786491E+03  0.83172786491E+03  0.00000000000E+00 0. -1.
         24    2    1    2    0    0  0.84086309750E+02 -0.55294877905E+03  0.72130254574E+03  0.91624893608E+03  0.80074281963E+02 0.  0.
        254    2    1    2    0    0 -0.84086309750E+02  0.55294877905E+03 -0.34370958986E+03  0.11247997496E+04  0.91335389353E+03 0.  0.
         23    2    4    4    0    0  0.31450358554E+03  0.17934717012E+02  0.70121002494E+02  0.33503527001E+03  0.89986208760E+02 0.  0.
         23    2    4    4    0    0 -0.39858989529E+03  0.53501406204E+03 -0.41383059235E+03  0.78976447960E+03  0.85780084275E+02 0.  0.
          2    1    3    3  502    0 -0.13520937273E+02 -0.84956547811E+02  0.91996549874E+02  0.12595156192E+03  0.00000000000E+00 0. -1.
         -1    1    3    3    0  502  0.97607247023E+02 -0.46799223124E+03  0.62930599587E+03  0.79029737416E+03  0.00000000000E+00 0.  1.
         13    1    5    5    0    0  0.97262244574E+02  0.42305059131E+02  0.44178283093E+02  0.11489727127E+03  0.00000000000E+00 0.  1.
        -13    1    5    5    0    0  0.21724134097E+03 -0.24370342119E+02  0.25942719401E+02  0.22013799874E+03  0.00000000000E+00 0. -1.
          1    1    6    6  503    0 -0.23857905772E+03  0.37897749466E+03 -0.25227476652E+03  0.51399072566E+03  0.00000000000E+00 0. -1.
         -1    1    6    6    0  503 -0.16001083758E+03  0.15603656738E+03 -0.16155582583E+03  0.27577375394E+03  0.00000000000E+00 0.  1.
<mgrwt>
<rscale>  0 0.20058174E+04</rscale>
<asrwt>0</asrwt>
<pdfrwt beam="1">  1        2 0.12795813E+00 0.20058174E+04</pdfrwt>
<pdfrwt beam="2">  1       -1 0.18604936E+00 0.20058174E+04</pdfrwt>
<totfact> 0.65269153E+00</totfact>
</mgrwt>
</event>
<event>
12    7  0.1711607E-007  0.2715865E+04  0.7818608E-02  0.8329876E-01
         -1   -1    0    0    0  501 -0.00000000000E+00  0.00000000000E+00  0.13549927978E+04  0.13549927978E+04  0.00000000000E+00 0.  1.
          2   -1    0    0  501    0  0.00000000000E+00 -0.00000000000E+00 -0.13608783420E+04  0.13608783420E+04  0.00000000000E+00 0. -1.
         24    2    1    2    0    0  0.87543529098E+03 -0.77744386753E+03 -0.25485594034E+03  0.12009224162E+04  0.80356602345E+02 0.  0.
        254    2    1    2    0    0 -0.87543529098E+03  0.77744386753E+03  0.24897039619E+03  0.15149487236E+04  0.92858896242E+03 0.  0.
         23    2    4    4    0    0 -0.92304729591E+03  0.65335067951E+03  0.48058372343E+03  0.12321317440E+04  0.91129020441E+02 0.  0.
         23    2    4    4    0    0  0.47612004925E+02  0.12409318802E+03 -0.23161332725E+03  0.28281697964E+03  0.93138006679E+02 0.  0.
          2    1    3    3  502    0  0.80057095819E+03 -0.68040356018E+03 -0.21909907887E+03  0.10732507956E+04  0.00000000000E+00 0. -1.
         -1    1    3    3    0  502  0.74864332799E+02 -0.97040307348E+02 -0.35756861462E+02  0.12767162064E+03  0.00000000000E+00 0.  1.
         13    1    5    5    0    0 -0.11390881987E+03  0.71687373204E+02  0.89470976029E+02  0.16161483308E+03  0.00000000000E+00 0.  1.
        -13    1    5    5    0    0 -0.80913847604E+03  0.58166330630E+03  0.39111274740E+03  0.10705169109E+04  0.00000000000E+00 0. -1.
          1    1    6    6  503    0  0.93127550019E+01  0.89361132019E+01 -0.11088935790E+03  0.11163794704E+03  0.00000000000E+00 0. -1.
         -1    1    6    6    0  503  0.38299249923E+02  0.11515707482E+03 -0.12072396935E+03  0.17117903260E+03  0.00000000000E+00 0.  1.
<mgrwt>
<rscale>  0 0.27158648E+04</rscale>
<asrwt>0</asrwt>
<pdfrwt beam="1">  1        2 0.20936590E+00 0.27158648E+04</pdfrwt>
<pdfrwt beam="2">  1       -1 0.20846043E+00 0.27158648E+04</pdfrwt>
<totfact> 0.20031742E+00</totfact>
</mgrwt>
</event>
<event>
12    7  0.1711607E-007  0.2773981E+04  0.7818608E-02  0.8311392E-01
         -1   -1    0    0    0  501 -0.00000000000E+00  0.00000000000E+00  0.11061194043E+04  0.11061194043E+04  0.00000000000E+00 0.  1.
          2   -1    0    0  501    0  0.00000000000E+00 -0.00000000000E+00 -0.17391813506E+04  0.17391813506E+04  0.00000000000E+00 0. -1.
         24    2    1    2    0    0  0.19425907333E+03 -0.99611053332E+02  0.96518606142E+03  0.99261917168E+03  0.77780057270E+02 0.  0.
        254    2    1    2    0    0 -0.19425907333E+03  0.99611053332E+02 -0.15982480077E+04  0.18526815832E+04  0.91124826751E+03 0.  0.
         23    2    4    4    0    0 -0.20092610534E+03  0.48918249877E+03 -0.93742477712E+03  0.10801431949E+04  0.90957637673E+02 0.  0.
         23    2    4    4    0    0  0.66670320151E+01 -0.38957144544E+03 -0.66082323062E+03  0.77253838830E+03  0.91202296337E+02 0.  0.
          4    1    3    3  502    0  0.65060823567E+02 -0.61830483781E+02  0.27020368846E+03  0.28472083300E+03  0.00000000000E+00 0. -1.
         -3    1    3    3    0  502  0.12919824976E+03 -0.37780569551E+02  0.69498237296E+03  0.70789833867E+03  0.00000000000E+00 0.  1.
         13    1    5    5    0    0 -0.99245826646E+02  0.29754141381E+03 -0.47300975351E+03  0.56755515499E+03  0.00000000000E+00 0.  1.
        -13    1    5    5    0    0 -0.10168027870E+03  0.19164108496E+03 -0.46441502360E+03  0.51258803992E+03  0.00000000000E+00 0. -1.
          1    1    6    6  503    0  0.32075878148E+02 -0.65114837190E+02 -0.91928214599E+02  0.11713069888E+03  0.00000000000E+00 0. -1.
         -1    1    6    6    0  503 -0.25408846133E+02 -0.32445660825E+03 -0.56889501602E+03  0.65540768942E+03  0.00000000000E+00 0.  1.
<mgrwt>
<rscale>  0 0.27739807E+04</rscale>
<asrwt>0</asrwt>
<pdfrwt beam="1">  1        2 0.26756636E+00 0.27739807E+04</pdfrwt>
<pdfrwt beam="2">  1       -1 0.17017222E+00 0.27739807E+04</pdfrwt>
<totfact> 0.22713552E+00</totfact>
</mgrwt>
</event>
<event>
12    7  0.1711607E-007  0.1685480E+04  0.7818608E-02  0.8769689E-01
          2   -1    0    0  501    0  0.00000000000E+00  0.00000000000E+00  0.17572618804E+04  0.17572618804E+04  0.00000000000E+00 0. -1.
         -1   -1    0    0    0  501 -0.00000000000E+00 -0.00000000000E+00 -0.40415738848E+03  0.40415738848E+03  0.00000000000E+00 0.  1.
         24    2    1    2    0    0 -0.35381773253E+03 -0.29930258903E+02  0.10978110957E+04  0.11565684677E+04  0.79866203780E+02 0.  0.
        254    2    1    2    0    0  0.35381773253E+03  0.29930258903E+02  0.25529339629E+03  0.10048508012E+04  0.90469199523E+03 0.  0.
         23    2    4    4    0    0  0.64498728689E+03  0.75861461405E+02  0.23287566186E+03  0.69605465873E+03  0.92181627657E+02 0.  0.
         23    2    4    4    0    0 -0.29116955436E+03 -0.45931202502E+02  0.22417734424E+02  0.30879614246E+03  0.89236304459E+02 0.  0.
          2    1    3    3  502    0 -0.19441590558E+03  0.10434998475E+02  0.68745329256E+03  0.71449175152E+03  0.00000000000E+00 0. -1.
         -1    1    3    3    0  502 -0.15940182695E+03 -0.40365257378E+02  0.41035780312E+03  0.44207671621E+03  0.00000000000E+00 0.  1.
         13    1    5    5    0    0  0.20558283378E+03  0.67427790877E+02  0.71138540773E+02  0.22775315698E+03  0.00000000000E+00 0. -1.
        -13    1    5    5    0    0  0.43940445311E+03  0.84336705284E+01  0.16173712109E+03  0.46830150176E+03  0.00000000000E+00 0.  1.
          2    1    6    6  503    0 -0.13431828773E+03 -0.61197491916E+02 -0.98620112261E+01  0.14793172311E+03  0.00000000000E+00 0. -1.
         -2    1    6    6    0  503 -0.15685126663E+03  0.15266289414E+02  0.32279745650E+02  0.16086441936E+03  0.00000000000E+00 0.  1.
<mgrwt>
<rscale>  0 0.16854796E+04</rscale>
<asrwt>0</asrwt>
<pdfrwt beam="1">  1        2 0.27034798E+00 0.16854796E+04</pdfrwt>
<pdfrwt beam="2">  1       -1 0.62178061E-01 0.16854796E+04</pdfrwt>
<totfact> 0.25944806E+01</totfact>
</mgrwt>
</event>
<event>
12    7  0.1711607E-007  0.1461408E+04  0.7818608E-02  0.8910530E-01
          2   -1    0    0  501    0  0.00000000000E+00  0.00000000000E+00  0.98798463165E+03  0.98798463165E+03  0.00000000000E+00 0. -1.
         -1   -1    0    0    0  501 -0.00000000000E+00 -0.00000000000E+00 -0.54042137651E+03  0.54042137651E+03  0.00000000000E+00 0.  1.
         24    2    1    2    0    0 -0.16892202263E+03 -0.32588605040E+03 -0.12967712894E+03  0.39740940207E+03  0.79885590119E+02 0.  0.
        254    2    1    2    0    0  0.16892202263E+03  0.32588605040E+03  0.57724038409E+03  0.11309966061E+04  0.90067224581E+03 0.  0.
         23    2    4    4    0    0  0.34786353077E+03  0.97547281330E+01  0.65638318617E+03  0.74849609494E+03  0.91122589388E+02 0.  0.
         23    2    4    4    0    0 -0.17894150814E+03  0.31613132227E+03 -0.79142802077E+02  0.38250051114E+03  0.89910965118E+02 0.  0.
          4    1    3    3  502    0  0.80087061292E+01 -0.27295458424E+02 -0.70303185925E+01  0.29301993174E+02  0.00000000000E+00 0. -1.
         -3    1    3    3    0  502 -0.17693072876E+03 -0.29859059198E+03 -0.12264681035E+03  0.36810740890E+03  0.00000000000E+00 0.  1.
         13    1    5    5    0    0 -0.41108347588E+01  0.60141188086E+01  0.87300811881E+01  0.11370264069E+02  0.00000000000E+00 0. -1.
        -13    1    5    5    0    0  0.35197436553E+03  0.37406093244E+01  0.64765310498E+03  0.73712583087E+03  0.00000000000E+00 0.  1.
          2    1    6    6  503    0  0.24335953158E+01 -0.46498536997E+01  0.10900926668E+01  0.53602077955E+01  0.00000000000E+00 0. -1.
         -2    1    6    6    0  503 -0.18137510346E+03  0.32078117597E+03 -0.80232894744E+02  0.37714030335E+03  0.00000000000E+00 0.  1.
<mgrwt>
<rscale>  0 0.14614076E+04</rscale>
<asrwt>0</asrwt>
<pdfrwt beam="1">  1        2 0.15199763E+00 0.14614076E+04</pdfrwt>
<pdfrwt beam="2">  1       -1 0.83141751E-01 0.14614076E+04</pdfrwt>
<totfact> 0.40724506E+01</totfact>
</mgrwt>
</event>
<event>
12    7  0.1711607E-007  0.1547279E+04  0.7818608E-02  0.8853607E-01
          2   -1    0    0  501    0  0.00000000000E+00  0.00000000000E+00  0.18410097497E+04  0.18410097497E+04  0.00000000000E+00 0. -1.
         -1   -1    0    0    0  501 -0.00000000000E+00 -0.00000000000E+00 -0.32510334834E+03  0.32510334834E+03  0.00000000000E+00 0.  1.
         24    2    1    2    0    0 -0.34263350224E+03 -0.34689741856E+03  0.63043905675E+03  0.80088734848E+03  0.78940514388E+02 0.  0.
        254    2    1    2    0    0  0.34263350224E+03  0.34689741856E+03  0.88546734464E+03  0.13652257496E+04  0.91763467298E+03 0.  0.
         23    2    4    4    0    0  0.18886598411E+03  0.54495651891E+03  0.18017404356E+03  0.61080422132E+03  0.89281259772E+02 0.  0.
         23    2    4    4    0    0  0.15376751813E+03 -0.19805910035E+03  0.70529330108E+03  0.75442152827E+03  0.94028426102E+02 0.  0.
          2    1    3    3  502    0 -0.69267079097E+02 -0.93822676548E+02  0.20103082693E+03  0.23240915700E+03  0.00000000000E+00 0. -1.
         -1    1    3    3    0  502 -0.27336642314E+03 -0.25307474202E+03  0.42940822982E+03  0.56847819148E+03  0.00000000000E+00 0.  1.
         13    1    5    5    0    0  0.11359775801E+03  0.37889305455E+03  0.16246782670E+03  0.42762155245E+03  0.00000000000E+00 0. -1.
        -13    1    5    5    0    0  0.75268226099E+02  0.16606346437E+03  0.17706216865E+02  0.18318266887E+03  0.00000000000E+00 0.  1.
          3    1    6    6  503    0  0.86007957873E+02 -0.16906862130E+03  0.56428294860E+03  0.59531236641E+03  0.00000000000E+00 0. -1.
         -3    1    6    6    0  503  0.67759560258E+02 -0.28990479054E+02  0.14101035248E+03  0.15910916186E+03  0.00000000000E+00 0.  1.
<mgrwt>
<rscale>  0 0.15472795E+04</rscale>
<asrwt>0</asrwt>
<pdfrwt beam="1">  1        2 0.28323226E+00 0.15472795E+04</pdfrwt>
<pdfrwt beam="2">  1       -1 0.50015901E-01 0.15472795E+04</pdfrwt>
<totfact> 0.36025012E+01</totfact>
</mgrwt>
</event>
<event>
12    7  0.1711607E-007  0.1498508E+04  0.7818608E-02  0.8885446E-01
         -1   -1    0    0    0  501 -0.00000000000E+00  0.00000000000E+00  0.39883604996E+03  0.39883604996E+03  0.00000000000E+00 0.  1.
          2   -1    0    0  501    0  0.00000000000E+00 -0.00000000000E+00 -0.14075497941E+04  0.14075497941E+04  0.00000000000E+00 0. -1.
         24    2    1    2    0    0 -0.44937027427E+03 -0.91663120473E+02 -0.17608812167E+03  0.49747779477E+03  0.78366821040E+02 0.  0.
        254    2    1    2    0    0  0.44937027427E+03  0.91663120473E+02 -0.83262562247E+03  0.13089080493E+04  0.89979946834E+03 0.  0.
         23    2    4    4    0    0  0.39343652082E+03  0.24210906052E+03 -0.96804254705E+03  0.10764836882E+04  0.91113473069E+02 0.  0.
         23    2    4    4    0    0  0.55933753456E+02 -0.15044594005E+03  0.13541692458E+03  0.23242436107E+03  0.99603084804E+02 0.  0.
          4    1    3    3  502    0 -0.20496861027E+03 -0.24422313410E+02 -0.11672909897E+03  0.23713764597E+03  0.00000000000E+00 0. -1.
         -3    1    3    3    0  502 -0.24440166400E+03 -0.67240807063E+02 -0.59359022695E+02  0.26034014880E+03  0.00000000000E+00 0.  1.
         13    1    5    5    0    0  0.10492174288E+03  0.48642133926E+02 -0.16465292999E+03  0.20120938515E+03  0.00000000000E+00 0. -1.
        -13    1    5    5    0    0  0.28851477794E+03  0.19346692660E+03 -0.80338961707E+03  0.87527430306E+03  0.00000000000E+00 0.  1.
          4    1    6    6  503    0  0.33742681423E+02 -0.71563927295E+02  0.61313719051E+01  0.79357154440E+02  0.00000000000E+00 0. -1.
         -4    1    6    6    0  503  0.22191072033E+02 -0.78882012757E+02  0.12928555268E+03  0.15306720663E+03  0.00000000000E+00 0.  1.
<mgrwt>
<rscale>  0 0.14985081E+04</rscale>
<asrwt>0</asrwt>
<pdfrwt beam="1">  1        2 0.21654612E+00 0.14985081E+04</pdfrwt>
<pdfrwt beam="2">  1       -1 0.61359394E-01 0.14985081E+04</pdfrwt>
<totfact> 0.42503191E+01</totfact>
</mgrwt>
</event>
<event>
12    7  0.1711607E-007  0.1391124E+04  0.7818608E-02  0.8960268E-01
         -1   -1    0    0    0  501 -0.00000000000E+00  0.00000000000E+00  0.21052703345E+03  0.21052703345E+03  0.00000000000E+00 0.  1.
          2   -1    0    0  501    0  0.00000000000E+00 -0.00000000000E+00 -0.22980740566E+04  0.22980740566E+04  0.00000000000E+00 0. -1.
         24    2    1    2    0    0  0.32982848792E+03  0.10278831408E+03 -0.94098166734E+03  0.10053187107E+04  0.76595971281E+02 0.  0.
        254    2    1    2    0    0 -0.32982848792E+03 -0.10278831408E+03 -0.11465653558E+04  0.15032823794E+04  0.90878684413E+03 0.  0.
         23    2    4    4    0    0 -0.10641817926E+01 -0.86538476296E+02  0.12989647490E+03  0.18196240815E+03  0.93526378241E+02 0.  0.
         23    2    4    4    0    0 -0.32876430613E+03 -0.16249837783E+02 -0.12764618307E+04  0.13213199713E+04  0.90452390041E+02 0.  0.
          2    1    3    3  502    0  0.29436247121E+03  0.10754267380E+03 -0.88527456158E+03  0.93910901418E+03  0.00000000000E+00 0. -1.
         -1    1    3    3    0  502  0.35466016710E+02 -0.47543597183E+01 -0.55707105763E+02  0.66209696496E+02  0.00000000000E+00 0.  1.
         13    1    5    5    0    0 -0.40613429783E+02 -0.19917194522E+02  0.25400540903E+02  0.51878056966E+02  0.00000000000E+00 0.  1.
        -13    1    5    5    0    0  0.39549247990E+02 -0.66621281774E+02  0.10449593400E+03  0.13008435119E+03  0.00000000000E+00 0. -1.
          4    1    6    6  503    0 -0.56137323006E+02 -0.16679104122E+01 -0.38239395224E+03  0.38649620395E+03  0.00000000000E+00 0. -1.
         -4    1    6    6    0  503 -0.27262698312E+03 -0.14581927370E+02 -0.89406787851E+03  0.93482376730E+03  0.00000000000E+00 0.  1.
<mgrwt>
<rscale>  0 0.13911243E+04</rscale>
<asrwt>0</asrwt>
<pdfrwt beam="1">  1        2 0.35354986E+00 0.13911243E+04</pdfrwt>
<pdfrwt beam="2">  1       -1 0.32388774E-01 0.13911243E+04</pdfrwt>
<totfact> 0.45030930E+01</totfact>
</mgrwt>
</event>
<event>
12    7  0.1711607E-007  0.2102091E+04  0.7818608E-02  0.8560323E-01
          2   -1    0    0  501    0  0.00000000000E+00  0.00000000000E+00  0.10129000778E+04  0.10129000778E+04  0.00000000000E+00 0. -1.
         -1   -1    0    0    0  501 -0.00000000000E+00 -0.00000000000E+00 -0.10906273956E+04  0.10906273956E+04  0.00000000000E+00 0.  1.
         24    2    1    2    0    0 -0.28647702438E+01  0.20420973529E+03  0.81004662260E+03  0.84007168290E+03  0.88515980094E+02 0.  0.
        254    2    1    2    0    0  0.28647702438E+01 -0.20420973529E+03 -0.88777394039E+03  0.12634557904E+04  0.87548166301E+03 0.  0.
         23    2    4    4    0    0  0.10224251430E+03 -0.52873276944E+03 -0.57216341212E+03  0.79104790869E+03  0.91509291640E+02 0.  0.
         23    2    4    4    0    0 -0.99377744055E+02  0.32452303415E+03 -0.31561052827E+03  0.47240788176E+03  0.91477130942E+02 0.  0.
          2    1    3    3  502    0  0.39515745000E+01  0.52370748567E+01  0.16200228434E+03  0.16213507340E+03  0.00000000000E+00 0. -1.
         -1    1    3    3    0  502 -0.68163447438E+01  0.19897266044E+03  0.64804433826E+03  0.67793660950E+03  0.00000000000E+00 0.  1.
         13    1    5    5    0    0  0.10723537477E+03 -0.40630591984E+03 -0.47846815438E+03  0.63680114703E+03  0.00000000000E+00 0. -1.
        -13    1    5    5    0    0 -0.49928604756E+01 -0.12242684960E+03 -0.93695257735E+02  0.15424676165E+03  0.00000000000E+00 0.  1.
          1    1    6    6  503    0 -0.63884280060E+02  0.26370365453E+03 -0.29085257600E+03  0.39776379878E+03  0.00000000000E+00 0. -1.
         -1    1    6    6    0  503 -0.35493463996E+02  0.60819379620E+02 -0.24757952272E+02  0.74644082984E+02  0.00000000000E+00 0.  1.
<mgrwt>
<rscale>  0 0.21020909E+04</rscale>
<asrwt>0</asrwt>
<pdfrwt beam="1">  1        2 0.15583078E+00 0.21020909E+04</pdfrwt>
<pdfrwt beam="2">  1       -1 0.16778883E+00 0.21020909E+04</pdfrwt>
<totfact> 0.66353550E+00</totfact>
</mgrwt>
</event>
<event>
12    7  0.1711607E-007  0.1324632E+04  0.7818608E-02  0.9010256E-01
         -1   -1    0    0    0  501 -0.00000000000E+00  0.00000000000E+00  0.16971783149E+03  0.16971783149E+03  0.00000000000E+00 0.  1.
          2   -1    0    0  501    0  0.00000000000E+00 -0.00000000000E+00 -0.25846587491E+04  0.25846587491E+04  0.00000000000E+00 0. -1.
         24    2    1    2    0    0 -0.26872385322E+03  0.16103705625E+03 -0.79938672341E+03  0.86215425461E+03  0.78392489522E+02 0.  0.
        254    2    1    2    0    0  0.26872385322E+03 -0.16103705625E+03 -0.16155541942E+04  0.18922223260E+04  0.93399386172E+03 0.  0.
         23    2    4    4    0    0 -0.11063200280E+03  0.18120560054E+03 -0.12142772569E+04  0.12360388396E+04  0.90817656485E+02 0.  0.
         23    2    4    4    0    0  0.37935585601E+03 -0.34224265680E+03 -0.40127693732E+03  0.65618348636E+03  0.92264216970E+02 0.  0.
          4    1    3    3  502    0 -0.47419150942E+01  0.21858090027E+02 -0.86067465709E+02  0.88926208240E+02  0.00000000000E+00 0. -1.
         -3    1    3    3    0  502 -0.26398193812E+03  0.13917896623E+03 -0.71331925770E+03  0.77322804637E+03  0.00000000000E+00 0.  1.
         13    1    5    5    0    0  0.49904651006E+01  0.64269212625E+02 -0.27323623978E+03  0.28073738469E+03  0.00000000000E+00 0. -1.
        -13    1    5    5    0    0 -0.11562246790E+03  0.11693638792E+03 -0.94104101709E+03  0.95530145491E+03  0.00000000000E+00 0.  1.
          3    1    6    6  503    0  0.14365889828E+03 -0.18639292640E+03 -0.15939545140E+03  0.28423073724E+03  0.00000000000E+00 0. -1.
         -3    1    6    6    0  503  0.23569695773E+03 -0.15584973040E+03 -0.24188148592E+03  0.37195274912E+03  0.00000000000E+00 0.  1.
<mgrwt>
<rscale>  0 0.13246323E+04</rscale>
<asrwt>0</asrwt>
<pdfrwt beam="1">  1        2 0.39763977E+00 0.13246323E+04</pdfrwt>
<pdfrwt beam="2">  1       -1 0.26110438E-01 0.13246323E+04</pdfrwt>
<totfact> 0.45245707E+01</totfact>
</mgrwt>
</event>
<event>
12    7  0.1711607E-007  0.2731304E+04  0.7818608E-02  0.8324919E-01
         -1   -1    0    0    0  501 -0.00000000000E+00  0.00000000000E+00  0.97984155751E+03  0.97984155751E+03  0.00000000000E+00 0.  1.
          2   -1    0    0  501    0  0.00000000000E+00 -0.00000000000E+00 -0.19033745873E+04  0.19033745873E+04  0.00000000000E+00 0. -1.
         24    2    1    2    0    0  0.37726008475E+03  0.67998820790E+03  0.57851937613E+03  0.97260475187E+03  0.81032094690E+02 0.  0.
        254    2    1    2    0    0 -0.37726008475E+03 -0.67998820790E+03 -0.15020524059E+04  0.19106113929E+04  0.88857488728E+03 0.  0.
         23    2    4    4    0    0  0.70152262317E+02 -0.64202742913E+03 -0.11864394799E+04  0.13537843396E+04  0.89290754811E+02 0.  0.
         23    2    4    4    0    0 -0.44741234706E+03 -0.37960778774E+02 -0.31561292599E+03  0.55682705337E+03  0.93946896066E+02 0.  0.
          4    1    3    3  502    0 -0.28614458409E+01  0.29558048680E+01  0.83183327323E+01  0.92800492543E+01  0.00000000000E+00 0. -1.
         -3    1    3    3    0  502  0.38012153059E+03  0.67703240303E+03  0.57020104340E+03  0.96332470261E+03  0.00000000000E+00 0.  1.
         13    1    5    5    0    0  0.70002379764E+01 -0.15641338108E+03 -0.21587697911E+03  0.26667774414E+03  0.00000000000E+00 0.  1.
        -13    1    5    5    0    0  0.63152024341E+02 -0.48561404805E+03 -0.97056250081E+03  0.10871065954E+04  0.00000000000E+00 0. -1.
          3    1    6    6  503    0 -0.12154658983E+03  0.90239613511E+01 -0.42567693191E+02  0.12910078962E+03  0.00000000000E+00 0. -1.
         -3    1    6    6    0  503 -0.32586575723E+03 -0.46984740125E+02 -0.27304523280E+03  0.42772626375E+03  0.00000000000E+00 0.  1.
<mgrwt>
<rscale>  0 0.27313041E+04</rscale>
<asrwt>0</asrwt>
<pdfrwt beam="1">  1        2 0.29282686E+00 0.27313041E+04</pdfrwt>
<pdfrwt beam="2">  1       -1 0.15074485E+00 0.27313041E+04</pdfrwt>
<totfact> 0.25917203E+00</totfact>
</mgrwt>
</event>
<event>
12    7  0.1711607E-007  0.1449096E+04  0.7818608E-02  0.8919027E-01
          2   -1    0    0  501    0  0.00000000000E+00  0.00000000000E+00  0.52663085030E+03  0.52663085030E+03  0.00000000000E+00 0. -1.
         -1   -1    0    0    0  501 -0.00000000000E+00 -0.00000000000E+00 -0.99684608753E+03  0.99684608753E+03  0.00000000000E+00 0.  1.
         24    2    1    2    0    0  0.76033790064E+02 -0.43248969943E+03 -0.16437371484E+03  0.47591510279E+03  0.81535204620E+02 0.  0.
        254    2    1    2    0    0 -0.76033790064E+02  0.43248969943E+03 -0.30584152239E+03  0.10475618350E+04  0.90056553568E+03 0.  0.
         23    2    4    4    0    0 -0.31345657314E+03  0.17196830922E+03  0.20330688751E+03  0.42151312164E+03  0.92257783335E+02 0.  0.
         23    2    4    4    0    0  0.23742278308E+03  0.26052139020E+03 -0.50914840990E+03  0.62604871339E+03  0.91999541052E+02 0.  0.
          4    1    3    3  502    0  0.12859170120E+02 -0.22996240701E+03 -0.53145096623E+02  0.23637357760E+03  0.00000000000E+00 0. -1.
         -3    1    3    3    0  502  0.63174619944E+02 -0.20252729242E+03 -0.11122861822E+03  0.23954152519E+03  0.00000000000E+00 0.  1.
         13    1    5    5    0    0 -0.25080904153E+03  0.90993986824E+02  0.15023394632E+03  0.30619490456E+03  0.00000000000E+00 0. -1.
        -13    1    5    5    0    0 -0.62647531616E+02  0.80974322400E+02  0.53072941190E+02  0.11531821709E+03  0.00000000000E+00 0.  1.
          1    1    6    6  503    0  0.16776085338E+03  0.12639890797E+03 -0.25515613969E+03  0.33049212318E+03  0.00000000000E+00 0. -1.
         -1    1    6    6    0  503  0.69661929702E+02  0.13412248224E+03 -0.25399227020E+03  0.29555659021E+03  0.00000000000E+00 0.  1.
<mgrwt>
<rscale>  0 0.14490961E+04</rscale>
<asrwt>0</asrwt>
<pdfrwt beam="1">  1        2 0.81020131E-01 0.14490961E+04</pdfrwt>
<pdfrwt beam="2">  1       -1 0.15336094E+00 0.14490961E+04</pdfrwt>
<totfact> 0.21109424E+01</totfact>
</mgrwt>
</event>
<event>
12    7  0.1711607E-007  0.2422081E+04  0.7818608E-02  0.8431283E-01
          2   -1    0    0  501    0  0.00000000000E+00  0.00000000000E+00  0.78785578745E+03  0.78785578745E+03  0.00000000000E+00 0. -1.
         -1   -1    0    0    0  501 -0.00000000000E+00 -0.00000000000E+00 -0.18615320728E+04  0.18615320728E+04  0.00000000000E+00 0.  1.
         24    2    1    2    0    0 -0.29802401849E+03  0.25668333198E+03 -0.14951534847E+04  0.15476518610E+04  0.70976696501E+02 0.  0.
        254    2    1    2    0    0  0.29802401849E+03 -0.25668333198E+03  0.42147719932E+03  0.11017359993E+04  0.93886875233E+03 0.  0.
         23    2    4    4    0    0 -0.38902302519E+01 -0.44976139644E+03  0.54431168255E+03  0.71169794552E+03  0.89097195697E+02 0.  0.
         23    2    4    4    0    0  0.30191424875E+03  0.19307806446E+03 -0.12283448323E+03  0.39003805379E+03  0.92790196471E+02 0.  0.
          2    1    3    3  502    0 -0.97277237551E+02  0.49290773442E+02 -0.48222831778E+03  0.49440529099E+03  0.00000000000E+00 0. -1.
         -1    1    3    3    0  502 -0.20074678094E+03  0.20739255854E+03 -0.10129251669E+04  0.10532465700E+04  0.00000000000E+00 0.  1.
         13    1    5    5    0    0  0.19718010866E+02 -0.10930893569E+03  0.18769796765E+03  0.21810036780E+03  0.00000000000E+00 0.  1.
        -13    1    5    5    0    0 -0.23608241118E+02 -0.34045246075E+03  0.35661371490E+03  0.49359757772E+03  0.00000000000E+00 0. -1.
          4    1    6    6  503    0  0.28646728578E+03  0.18870778089E+03 -0.13626243514E+03  0.36910917575E+03  0.00000000000E+00 0. -1.
         -4    1    6    6    0  503  0.15446962965E+02  0.43702835704E+01  0.13427951915E+02  0.20928878039E+02  0.00000000000E+00 0.  1.
<mgrwt>
<rscale>  0 0.24220808E+04</rscale>
<asrwt>0</asrwt>
<pdfrwt beam="1">  1        2 0.12120858E+00 0.24220808E+04</pdfrwt>
<pdfrwt beam="2">  1       -1 0.28638955E+00 0.24220808E+04</pdfrwt>
<totfact> 0.14564918E+00</totfact>
</mgrwt>
</event>
<event>
12    7  0.1711607E-007  0.1761530E+04  0.7818608E-02  0.8727029E-01
         -1   -1    0    0    0  501 -0.00000000000E+00  0.00000000000E+00  0.38334165393E+03  0.38334165393E+03  0.00000000000E+00 0.  1.
          2   -1    0    0  501    0  0.00000000000E+00 -0.00000000000E+00 -0.20236440759E+04  0.20236440759E+04  0.00000000000E+00 0. -1.
         24    2    1    2    0    0 -0.36805124617E+03 -0.46809771088E+03 -0.25811913484E+03  0.65397525720E+03  0.80504425483E+02 0.  0.
        254    2    1    2    0    0  0.36805124617E+03  0.46809771088E+03 -0.13821832871E+04  0.17530104726E+04  0.89890927864E+03 0.  0.
         23    2    4    4    0    0  0.62787814836E+03  0.39178804244E+03 -0.74071401782E+03  0.10508263760E+04  0.88600095062E+02 0.  0.
         23    2    4    4    0    0 -0.25982690219E+03  0.76309668440E+02 -0.64146926929E+03  0.70218409666E+03  0.90810228223E+02 0.  0.
          2    1    3    3  502    0 -0.16156838307E+03 -0.23783502356E+03 -0.86428620720E+02  0.30023282185E+03  0.00000000000E+00 0. -1.
         -1    1    3    3    0  502 -0.20648286310E+03 -0.23026268732E+03 -0.17169051412E+03  0.35374243535E+03  0.00000000000E+00 0.  1.
         13    1    5    5    0    0  0.29799439540E+03  0.20798220159E+03 -0.41993095483E+03  0.55533707124E+03  0.00000000000E+00 0. -1.
        -13    1    5    5    0    0  0.32988375296E+03  0.18380584085E+03 -0.32078306299E+03  0.49548930473E+03  0.00000000000E+00 0.  1.
          2    1    6    6  503    0 -0.20772358562E+03  0.30452928521E+02 -0.53876832918E+03  0.57822813959E+03  0.00000000000E+00 0.  1.
         -2    1    6    6    0  503 -0.52103316571E+02  0.45856739918E+02 -0.10270094011E+03  0.12395595707E+03  0.00000000000E+00 0. -1.
<mgrwt>
<rscale>  0 0.17615301E+04</rscale>
<asrwt>0</asrwt>
<pdfrwt beam="1">  1        2 0.31132986E+00 0.17615301E+04</pdfrwt>
<pdfrwt beam="2">  1       -1 0.58975639E-01 0.17615301E+04</pdfrwt>
<totfact> 0.20372225E+01</totfact>
</mgrwt>
</event>
<event>
12    7  0.1711607E-007  0.1557868E+04  0.7818608E-02  0.8846858E-01
         -1   -1    0    0    0  501 -0.00000000000E+00  0.00000000000E+00  0.58505475881E+03  0.58505475881E+03  0.00000000000E+00 0.  1.
          2   -1    0    0  501    0  0.00000000000E+00 -0.00000000000E+00 -0.10370621956E+04  0.10370621956E+04  0.00000000000E+00 0. -1.
         24    2    1    2    0    0  0.13739547506E+02  0.47788420313E+03  0.43303008779E+02  0.48641065293E+03  0.78473472885E+02 0.  0.
        254    2    1    2    0    0 -0.13739547506E+02 -0.47788420313E+03 -0.49531044554E+03  0.11357063015E+04  0.90329080531E+03 0.  0.
         23    2    4    4    0    0 -0.18873095490E+03 -0.33107737757E+03 -0.70821272655E+03  0.81009101836E+03  0.97214138433E+02 0.  0.
         23    2    4    4    0    0  0.17499140739E+03 -0.14680682556E+03  0.21290228100E+03  0.32561528310E+03  0.92323857384E+02 0.  0.
          2    1    3    3  502    0  0.27663195344E+02  0.45389540241E+03  0.30213050257E+02  0.45574018598E+03  0.00000000000E+00 0. -1.
         -1    1    3    3    0  502 -0.13923647838E+02  0.23988800716E+02  0.13089958522E+02  0.30670466951E+02  0.00000000000E+00 0.  1.
         13    1    5    5    0    0 -0.12729423186E+03 -0.14003876978E+03 -0.39682969023E+03  0.43964585925E+03  0.00000000000E+00 0.  1.
        -13    1    5    5    0    0 -0.61436723037E+02 -0.19103860779E+03 -0.31138303632E+03  0.37044515912E+03  0.00000000000E+00 0. -1.
          4    1    6    6  503    0  0.18437313955E+03 -0.13012367460E+03  0.18514021514E+03  0.29189471482E+03  0.00000000000E+00 0. -1.
         -4    1    6    6    0  503 -0.93817321579E+01 -0.16683150963E+02  0.27762065865E+02  0.33720568284E+02  0.00000000000E+00 0.  1.
<mgrwt>
<rscale>  0 0.15578680E+04</rscale>
<asrwt>0</asrwt>
<pdfrwt beam="1">  1        2 0.15954803E+00 0.15578680E+04</pdfrwt>
<pdfrwt beam="2">  1       -1 0.90008426E-01 0.15578680E+04</pdfrwt>
<totfact> 0.31621119E+01</totfact>
</mgrwt>
</event>
<event>
12    7  0.1711607E-007  0.1440442E+04  0.7818608E-02  0.8925054E-01
         -3   -1    0    0    0  501 -0.00000000000E+00  0.00000000000E+00  0.93657967043E+03  0.93657967043E+03  0.00000000000E+00 0.  1.
          4   -1    0    0  501    0  0.00000000000E+00 -0.00000000000E+00 -0.55384300086E+03  0.55384300086E+03  0.00000000000E+00 0. -1.
         24    2    1    2    0    0  0.10242294040E+02  0.43104166890E+03  0.11707435781E+03  0.45392509031E+03  0.80248099321E+02 0.  0.
        254    2    1    2    0    0 -0.10242294040E+02 -0.43104166890E+03  0.26566231176E+03  0.10364975810E+04  0.90435001331E+03 0.  0.
         23    2    4    4    0    0 -0.21717242993E+03 -0.64778098340E+03  0.17768182452E+03  0.71129667199E+03  0.87109460102E+02 0.  0.
         23    2    4    4    0    0  0.20693013589E+03  0.21673931450E+03  0.87980487234E+02  0.32520090899E+03  0.90658995607E+02 0.  0.
          4    1    3    3  502    0  0.23150375812E+02  0.17520127446E+03  0.12271198031E+02  0.17714967901E+03  0.00000000000E+00 0. -1.
         -3    1    3    3    0  502 -0.12908081773E+02  0.25584039443E+03  0.10480315978E+03  0.27677541129E+03  0.00000000000E+00 0.  1.
         13    1    5    5    0    0 -0.17290404040E+02 -0.94856445072E+02 -0.22189265785E+01  0.96444942215E+02  0.00000000000E+00 0.  1.
        -13    1    5    5    0    0 -0.19988202589E+03 -0.55292453833E+03  0.17990075110E+03  0.61485172977E+03  0.00000000000E+00 0. -1.
          2    1    6    6  503    0  0.16370973268E+03  0.14032425348E+03  0.24804735844E+02  0.21704158037E+03  0.00000000000E+00 0. -1.
         -2    1    6    6    0  503  0.43220403214E+02  0.76415061020E+02  0.63175751390E+02  0.10815932862E+03  0.00000000000E+00 0.  1.
<mgrwt>
<rscale>  0 0.14404417E+04</rscale>
<asrwt>0</asrwt>
<pdfrwt beam="1">  1        4 0.85206615E-01 0.14404417E+04</pdfrwt>
<pdfrwt beam="2">  1       -3 0.14408918E+00 0.14404417E+04</pdfrwt>
<totfact> 0.95448246E-01</totfact>
</mgrwt>
</event>
<event>
12    7  0.2305488E-007  0.1568756E+04  0.7818608E-02  0.8839976E-01
          2   -1    0    0  501    0  0.00000000000E+00  0.00000000000E+00  0.15637599485E+04  0.15637599485E+04  0.00000000000E+00 0. -1.
         -1   -1    0    0    0  501 -0.00000000000E+00 -0.00000000000E+00 -0.39344205203E+03  0.39344205203E+03  0.00000000000E+00 0.  1.
         24    2    1    2    0    0  0.69426992484E+02  0.12340808984E+03  0.10210451893E+04  0.10337861323E+04  0.78299583955E+02 0.  0.
        254    2    1    2    0    0 -0.69426992484E+02 -0.12340808984E+03  0.14927270716E+03  0.92341586821E+03  0.90020267753E+03 0.  0.
         23    2    4    4    0    0 -0.10640420967E+03  0.26379143410E+03  0.36337698965E+03  0.47004746157E+03  0.89409188443E+02 0.  0.
         23    2    4    4    0    0  0.36977217185E+02 -0.38719952394E+03 -0.21410428249E+03  0.45336840664E+03  0.91714134276E+02 0.  0.
          2    1    3    3  502    0  0.86339598952E+02  0.94512184046E+02  0.78224260421E+03  0.79264782289E+03  0.00000000000E+00 0. -1.
         -1    1    3    3    0  502 -0.16912606468E+02  0.28895905795E+02  0.23880258507E+03  0.24113830941E+03  0.00000000000E+00 0.  1.
         13    1    5    5    0    0 -0.72900847842E+02  0.25174067180E+03  0.32810500442E+03  0.41992951001E+03  0.00000000000E+00 0. -1.
        -13    1    5    5    0    0 -0.33503361828E+02  0.12050762297E+02  0.35271985235E+02  0.50117951555E+02  0.00000000000E+00 0.  1.
          2    1    6    6  503    0  0.38400074258E+02 -0.36223895734E+03 -0.16848226586E+03  0.40134511561E+03  0.00000000000E+00 0. -1.
         -2    1    6    6    0  503 -0.14228570733E+01 -0.24960566598E+02 -0.45622016634E+02  0.52023291024E+02  0.00000000000E+00 0.  1.
<mgrwt>
<rscale>  0 0.15687561E+04</rscale>
<asrwt>0</asrwt>
<pdfrwt beam="1">  1        2 0.24057845E+00 0.15687561E+04</pdfrwt>
<pdfrwt beam="2">  1       -1 0.60529547E-01 0.15687561E+04</pdfrwt>
<totfact> 0.35423112E+01</totfact>
</mgrwt>
</event>
<event>
12    7  0.1711607E-007  0.1648574E+04  0.7818608E-02  0.8791250E-01
         -1   -1    0    0    0  501 -0.00000000000E+00  0.00000000000E+00  0.31213323363E+03  0.31213323363E+03  0.00000000000E+00 0.  1.
          2   -1    0    0  501    0  0.00000000000E+00 -0.00000000000E+00 -0.21767928920E+04  0.21767928920E+04  0.00000000000E+00 0. -1.
         24    2    1    2    0    0 -0.34602796157E+03  0.17513101073E+03 -0.23940300730E+02  0.39670221069E+03  0.79958019330E+02 0.  0.
        254    2    1    2    0    0  0.34602796157E+03 -0.17513101073E+03 -0.18407193576E+04  0.20922239149E+04  0.91583128115E+03 0.  0.
         23    2    4    4    0    0  0.34086357064E+03 -0.38402906792E+02 -0.18880493675E+04  0.19212087647E+04  0.93005087513E+02 0.  0.
         23    2    4    4    0    0  0.51643909301E+01 -0.13672810394E+03  0.47330009852E+02  0.17101515027E+03  0.91020912154E+02 0.  0.
          4    1    3    3  502    0 -0.10951278537E+03  0.51056104289E+02 -0.44652021186E+02  0.12881606631E+03  0.00000000000E+00 0. -1.
         -3    1    3    3    0  502 -0.23651517621E+03  0.12407490644E+03  0.20711720456E+02  0.26788614438E+03  0.00000000000E+00 0.  1.
         13    1    5    5    0    0  0.11456149185E+03  0.71095390514E+01 -0.85589701097E+03  0.86355924773E+03  0.00000000000E+00 0. -1.
        -13    1    5    5    0    0  0.22630207880E+03 -0.45512445844E+02 -0.10321523565E+04  0.10576495169E+04  0.00000000000E+00 0.  1.
          3    1    6    6  503    0  0.19783910991E+02 -0.54089267631E+02 -0.22507463831E+02  0.61835571762E+02  0.00000000000E+00 0. -1.
         -3    1    6    6    0  503 -0.14619520061E+02 -0.82638836307E+02  0.69837473684E+02  0.10917957851E+03  0.00000000000E+00 0.  1.
<mgrwt>
<rscale>  0 0.16485744E+04</rscale>
<asrwt>0</asrwt>
<pdfrwt beam="1">  1        2 0.33489121E+00 0.16485744E+04</pdfrwt>
<pdfrwt beam="2">  1       -1 0.48020498E-01 0.16485744E+04</pdfrwt>
<totfact> 0.25108084E+01</totfact>
</mgrwt>
</event>
<event>
12    7  0.1711607E-007  0.3967056E+04  0.7818608E-02  0.8011226E-01
         -1   -1    0    0    0  501 -0.00000000000E+00  0.00000000000E+00  0.16848454527E+04  0.16848454527E+04  0.00000000000E+00 0.  1.
          2   -1    0    0  501    0  0.00000000000E+00 -0.00000000000E+00 -0.23351594374E+04  0.23351594374E+04  0.00000000000E+00 0. -1.
         24    2    1    2    0    0 -0.78633124018E+03 -0.47642722600E+03 -0.20107102394E+04  0.22123776237E+04  0.79745607824E+02 0.  0.
        254    2    1    2    0    0  0.78633124018E+03  0.47642722600E+03  0.13603962547E+04  0.18076272663E+04  0.75600174822E+03 0.  0.
         23    2    4    4    0    0 -0.51710591184E+02 -0.10357765928E+03  0.86148925505E+02  0.17338195906E+03  0.96111131608E+02 0.  0.
         23    2    4    4    0    0  0.83804183136E+03  0.58000488529E+03  0.12742473292E+04  0.16342453073E+04  0.91278093677E+02 0.  0.
          2    1    3    3  502    0 -0.54162748418E+03 -0.36760532171E+03 -0.13951744237E+04  0.15411053425E+04  0.00000000000E+00 0. -1.
         -1    1    3    3    0  502 -0.24470375600E+03 -0.10882190429E+03 -0.61553581573E+03  0.67127228120E+03  0.00000000000E+00 0.  1.
         13    1    5    5    0    0 -0.66262044588E+02 -0.11255909838E+03  0.64147566348E+02  0.14551673254E+03  0.00000000000E+00 0.  1.
        -13    1    5    5    0    0  0.14551453404E+02  0.89814390936E+01  0.22001359157E+02  0.27865226522E+02  0.00000000000E+00 0. -1.
          4    1    6    6  503    0  0.19019542281E+03  0.95038089301E+02  0.23167170571E+03  0.31444922723E+03  0.00000000000E+00 0. -1.
         -4    1    6    6    0  503  0.64784640855E+03  0.48496679598E+03  0.10425756235E+04  0.13197960801E+04  0.00000000000E+00 0.  1.
<mgrwt>
<rscale>  0 0.39670557E+04</rscale>
<asrwt>0</asrwt>
<pdfrwt beam="1">  1        2 0.35925530E+00 0.39670557E+04</pdfrwt>
<pdfrwt beam="2">  1       -1 0.25920699E+00 0.39670557E+04</pdfrwt>
<totfact> 0.23642430E-01</totfact>
</mgrwt>
</event>
<event>
12    7  0.1711607E-007  0.1726249E+04  0.7818608E-02  0.8746534E-01
          2   -1    0    0  501    0  0.00000000000E+00  0.00000000000E+00  0.12662876543E+04  0.12662876543E+04  0.00000000000E+00 0. -1.
         -1   -1    0    0    0  501 -0.00000000000E+00 -0.00000000000E+00 -0.58832124041E+03  0.58832124041E+03  0.00000000000E+00 0.  1.
         24    2    1    2    0    0  0.52205302046E+03 -0.32593640285E+03  0.29257546278E+03  0.68617739851E+03  0.80406006896E+02 0.  0.
        254    2    1    2    0    0 -0.52205302046E+03  0.32593640285E+03  0.38539095109E+03  0.11684314962E+04  0.91538630161E+03 0.  0.
         23    2    4    4    0    0 -0.40679878101E+03 -0.22415036253E+03 -0.12064099605E+02  0.47369635753E+03  0.92271682463E+02 0.  0.
         23    2    4    4    0    0 -0.11525423944E+03  0.55008676538E+03  0.39745505069E+03  0.69473513862E+03  0.93847782954E+02 0.  0.
          4    1    3    3  502    0  0.22043448718E+02  0.29495579258E+00  0.20416119758E+02  0.30046939550E+02  0.00000000000E+00 0. -1.
         -3    1    3    3    0  502  0.50000957174E+03 -0.32623135864E+03  0.27215934302E+03  0.65613045896E+03  0.00000000000E+00 0.  1.
         13    1    5    5    0    0 -0.50101633598E+02 -0.20104474505E+01 -0.18467118062E+02  0.53434539744E+02  0.00000000000E+00 0.  1.
        -13    1    5    5    0    0 -0.35669714742E+03 -0.22213991508E+03  0.64030184576E+01  0.42026181779E+03  0.00000000000E+00 0. -1.
          2    1    6    6  503    0 -0.36206885548E+02  0.34591979277E+03  0.27849631412E+03  0.44556889318E+03  0.00000000000E+00 0. -1.
         -2    1    6    6    0  503 -0.79047353896E+02  0.20416697261E+03  0.11895873657E+03  0.24916624544E+03  0.00000000000E+00 0.  1.
<mgrwt>
<rscale>  0 0.17262490E+04</rscale>
<asrwt>0</asrwt>
<pdfrwt beam="1">  1        2 0.19481348E+00 0.17262490E+04</pdfrwt>
<pdfrwt beam="2">  1       -1 0.90510960E-01 0.17262490E+04</pdfrwt>
<totfact> 0.22345420E+01</totfact>
</mgrwt>
</event>
<event>
12    7  0.1711607E-007  0.1388544E+04  0.7818608E-02  0.8962153E-01
          2   -1    0    0  501    0  0.00000000000E+00  0.00000000000E+00  0.20452839526E+04  0.20452839526E+04  0.00000000000E+00 0. -1.
         -1   -1    0    0    0  501 -0.00000000000E+00 -0.00000000000E+00 -0.23567078801E+03  0.23567078801E+03  0.00000000000E+00 0.  1.
         24    2    1    2    0    0  0.14499155771E+03  0.95542853930E+02 -0.57109256830E+02  0.20006085307E+03  0.81313522677E+02 0.  0.
        254    2    1    2    0    0 -0.14499155771E+03 -0.95542853930E+02  0.18667224214E+04  0.20808938876E+04  0.90294838380E+03 0.  0.
         23    2    4    4    0    0 -0.23868303644E+03 -0.45576720163E+03  0.12486984010E+04  0.13536675466E+04  0.92058656150E+02 0.  0.
         23    2    4    4    0    0  0.93691478732E+02  0.36022434770E+03  0.61802402048E+03  0.72722634097E+03  0.91459210780E+02 0.  0.
          2    1    3    3  502    0  0.63450396444E+02  0.27988343029E+02  0.16268820954E+02  0.71231837613E+02  0.00000000000E+00 0. -1.
         -1    1    3    3    0  502  0.81541161265E+02  0.67554510902E+02 -0.73378077784E+02  0.12882901545E+03  0.00000000000E+00 0.  1.
         13    1    5    5    0    0 -0.33497957372E+02 -0.31681622251E+02  0.17857529480E+03  0.18443148931E+03  0.00000000000E+00 0.  1.
        -13    1    5    5    0    0 -0.20518507907E+03 -0.42408557938E+03  0.10701231062E+04  0.11692360573E+04  0.00000000000E+00 0. -1.
          3    1    6    6  503    0  0.39342552756E+02  0.29558969496E+03  0.46366362962E+03  0.55127585260E+03  0.00000000000E+00 0. -1.
         -3    1    6    6    0  503  0.54348925977E+02  0.64634652740E+02  0.15436039087E+03  0.17595048837E+03  0.00000000000E+00 0.  1.
<mgrwt>
<rscale>  0 0.13885441E+04</rscale>
<asrwt>0</asrwt>
<pdfrwt beam="1">  1        2 0.31465906E+00 0.13885441E+04</pdfrwt>
<pdfrwt beam="2">  1       -1 0.36257046E-01 0.13885441E+04</pdfrwt>
<totfact> 0.50982307E+01</totfact>
</mgrwt>
</event>
<event>
12    7  0.1711607E-007  0.3299515E+04  0.7818608E-02  0.8163019E-01
         -1   -1    0    0    0  501 -0.00000000000E+00  0.00000000000E+00  0.16691395814E+04  0.16691395814E+04  0.00000000000E+00 0.  1.
          2   -1    0    0  501    0  0.00000000000E+00 -0.00000000000E+00 -0.16306008488E+04  0.16306008488E+04  0.00000000000E+00 0. -1.
         24    2    1    2    0    0 -0.94016359849E+03 -0.98815125931E+03 -0.65818882655E+03  0.15165715725E+04  0.80164206005E+02 0.  0.
        254    2    1    2    0    0  0.94016359849E+03  0.98815125931E+03  0.69672755913E+03  0.17831688577E+04  0.91318748355E+03 0.  0.
         23    2    4    4    0    0  0.84134587738E+03  0.89442274145E+03  0.18393307198E+03  0.12450750128E+04  0.92333561689E+02 0.  0.
         23    2    4    4    0    0  0.98817721109E+02  0.93728517865E+02  0.51279448715E+03  0.53809384492E+03  0.89648328577E+02 0.  0.
          4    1    3    3  502    0 -0.59029331425E+03 -0.67062390054E+03 -0.44822121172E+03  0.99954232900E+03  0.00000000000E+00 0. -1.
         -1    1    3    3    0  502 -0.34987028423E+03 -0.31752735878E+03 -0.20996761484E+03  0.51702924351E+03  0.00000000000E+00 0.  1.
         13    1    5    5    0    0  0.34266037741E+03  0.43104980888E+03  0.78417502657E+02  0.55620983155E+03  0.00000000000E+00 0.  1.
        -13    1    5    5    0    0  0.49868549996E+03  0.46337293257E+03  0.10551556932E+03  0.68886518121E+03  0.00000000000E+00 0. -1.
          1    1    6    6  503    0  0.95499758908E+02  0.43657142250E+02  0.41620581961E+03  0.42924752101E+03  0.00000000000E+00 0. -1.
         -1    1    6    6    0  503  0.33179622012E+01  0.50071375615E+02  0.96588667546E+02  0.10884632390E+03  0.00000000000E+00 0.  1.
<mgrwt>
<rscale>  0 0.32995154E+04</rscale>
<asrwt>0</asrwt>
<pdfrwt beam="1">  1        2 0.25086167E+00 0.32995154E+04</pdfrwt>
<pdfrwt beam="2">  1       -1 0.25679071E+00 0.32995154E+04</pdfrwt>
<totfact> 0.64168817E-01</totfact>
</mgrwt>
</event>
<event>
12    7  0.1711607E-007  0.1522688E+04  0.7818608E-02  0.8869504E-01
          2   -1    0    0  501    0  0.00000000000E+00  0.00000000000E+00  0.41777295351E+03  0.41777295351E+03  0.00000000000E+00 0. -1.
         -1   -1    0    0    0  501 -0.00000000000E+00 -0.00000000000E+00 -0.13874642666E+04  0.13874642666E+04  0.00000000000E+00 0.  1.
         24    2    1    2    0    0  0.41685014722E+03 -0.93575526754E+02 -0.60180628312E+03  0.74222103919E+03  0.78745439070E+02 0.  0.
        254    2    1    2    0    0 -0.41685014722E+03  0.93575526754E+02 -0.36788502993E+03  0.10630161809E+04  0.90119009155E+03 0.  0.
         23    2    4    4    0    0 -0.39713223823E+03  0.37679378857E+03  0.40754997670E+02  0.55681392432E+03  0.93237346253E+02 0.  0.
         23    2    4    4    0    0 -0.19717908996E+02 -0.28321826182E+03 -0.40864002760E+03  0.50620225656E+03  0.93019743186E+02 0.  0.
          2    1    3    3  502    0  0.10793704827E+03 -0.41749319909E+02 -0.11358040096E+03  0.16215399959E+03  0.00000000000E+00 0. -1.
         -1    1    3    3    0  502  0.30891309895E+03 -0.51826206845E+02 -0.48822588216E+03  0.58006703960E+03  0.00000000000E+00 0.  1.
         13    1    5    5    0    0 -0.89978020354E+02  0.13046342499E+03 -0.14855175819E+02  0.15917734027E+03  0.00000000000E+00 0. -1.
        -13    1    5    5    0    0 -0.30715421787E+03  0.24633036358E+03  0.55610173489E+02  0.39763658405E+03  0.00000000000E+00 0.  1.
          3    1    6    6  503    0 -0.42476556931E+02 -0.12793898300E+03 -0.13518203937E+03  0.19091051576E+03  0.00000000000E+00 0. -1.
         -3    1    6    6    0  503  0.22758647935E+02 -0.15527927881E+03 -0.27345798823E+03  0.31529174079E+03  0.00000000000E+00 0.  1.
<mgrwt>
<rscale>  0 0.15226885E+04</rscale>
<asrwt>0</asrwt>
<pdfrwt beam="1">  1        2 0.64272762E-01 0.15226885E+04</pdfrwt>
<pdfrwt beam="2">  1       -1 0.21345604E+00 0.15226885E+04</pdfrwt>
<totfact> 0.10172020E+01</totfact>
</mgrwt>
</event>
<event>
12    7  0.1711607E-007  0.1424426E+04  0.7818608E-02  0.8936325E-01
         -1   -1    0    0    0  501 -0.00000000000E+00  0.00000000000E+00  0.20337819016E+03  0.20337819016E+03  0.00000000000E+00 0.  1.
          2   -1    0    0  501    0  0.00000000000E+00 -0.00000000000E+00 -0.24941090901E+04  0.24941090901E+04  0.00000000000E+00 0. -1.
         24    2    1    2    0    0  0.39198294783E+03 -0.11337391867E+03 -0.98262495776E+03  0.10669870075E+04  0.80032429754E+02 0.  0.
        254    2    1    2    0    0 -0.39198294783E+03  0.11337391867E+03 -0.13081059422E+04  0.16305002727E+04  0.88367737696E+03 0.  0.
         23    2    4    4    0    0  0.54948812230E+02  0.22999808796E+03 -0.14477520215E+02  0.25383235742E+03  0.91119562397E+02 0.  0.
         23    2    4    4    0    0 -0.44693176005E+03 -0.11662416930E+03 -0.12936284219E+04  0.13766679153E+04  0.91601636944E+02 0.  0.
          2    1    3    3  502    0  0.22558903253E+03 -0.64270084044E+02 -0.66366727254E+03  0.70390006673E+03  0.00000000000E+00 0. -1.
         -3    1    3    3    0  502  0.16639391529E+03 -0.49103834622E+02 -0.31895768523E+03  0.36308694081E+03  0.00000000000E+00 0.  1.
         13    1    5    5    0    0 -0.26395404577E+01  0.11376269221E+03  0.28267795020E+02  0.11725180402E+03  0.00000000000E+00 0.  1.
        -13    1    5    5    0    0  0.57588352687E+02  0.11623539576E+03 -0.42745315235E+02  0.13658055340E+03  0.00000000000E+00 0. -1.
          3    1    6    6  503    0 -0.40357908341E+03 -0.10015418741E+03 -0.12265540947E+04  0.12951223437E+04  0.00000000000E+00 0. -1.
         -3    1    6    6    0  503 -0.43352676641E+02 -0.16469981883E+02 -0.67074327233E+02  0.81545571608E+02  0.00000000000E+00 0.  1.
<mgrwt>
<rscale>  0 0.14244260E+04</rscale>
<asrwt>0</asrwt>
<pdfrwt beam="1">  1        2 0.38370909E+00 0.14244260E+04</pdfrwt>
<pdfrwt beam="2">  1       -1 0.31288952E-01 0.14244260E+04</pdfrwt>
<totfact> 0.36909468E+01</totfact>
</mgrwt>
</event>
<event>
12    7  0.1711607E-007  0.1875360E+04  0.7818608E-02  0.8667219E-01
         -1   -1    0    0    0  501 -0.00000000000E+00  0.00000000000E+00  0.11531791425E+04  0.11531791425E+04  0.00000000000E+00 0.  1.
          2   -1    0    0  501    0  0.00000000000E+00 -0.00000000000E+00 -0.76245243091E+03  0.76245243091E+03  0.00000000000E+00 0. -1.
         24    2    1    2    0    0  0.22086862315E+03 -0.32538749094E+03 -0.43107413866E+03  0.58925731244E+03  0.82093235324E+02 0.  0.
        254    2    1    2    0    0 -0.22086862315E+03  0.32538749094E+03  0.82180085020E+03  0.13263742609E+04  0.96397721690E+03 0.  0.
         23    2    4    4    0    0  0.35376736164E+03  0.27398595346E+03  0.37695625044E+03  0.59203700649E+03  0.90510515696E+02 0.  0.
         23    2    4    4    0    0 -0.57463598479E+03  0.51401537474E+02  0.44484459976E+03  0.73433725443E+03  0.92281375390E+02 0.  0.
          2    1    3    3  502    0  0.16559716170E+03 -0.17776990852E+03 -0.28313506374E+03  0.37308179352E+03  0.00000000000E+00 0. -1.
         -1    1    3    3    0  502  0.55271461458E+02 -0.14761758242E+03 -0.14793907492E+03  0.21617551892E+03  0.00000000000E+00 0.  1.
         13    1    5    5    0    0  0.44424942687E+02  0.75551436057E+01  0.18393399824E+02  0.48672095545E+02  0.00000000000E+00 0.  1.
        -13    1    5    5    0    0  0.30934241895E+03  0.26643080986E+03  0.35856285062E+03  0.54336491095E+03  0.00000000000E+00 0. -1.
          3    1    6    6  503    0 -0.28489919426E+03 -0.73398851325E+00  0.17103923815E+03  0.33229882729E+03  0.00000000000E+00 0. -1.
         -3    1    6    6    0  503 -0.28973679053E+03  0.52135525987E+02  0.27380536161E+03  0.40203842715E+03  0.00000000000E+00 0.  1.
<mgrwt>
<rscale>  0 0.18753605E+04</rscale>
<asrwt>0</asrwt>
<pdfrwt beam="1">  1        2 0.11730037E+00 0.18753605E+04</pdfrwt>
<pdfrwt beam="2">  1       -1 0.17741218E+00 0.18753605E+04</pdfrwt>
<totfact> 0.85412321E+00</totfact>
</mgrwt>
</event>
<event>
12    7  0.1711607E-007  0.1282060E+04  0.7818608E-02  0.9043914E-01
          2   -1    0    0  501    0  0.00000000000E+00  0.00000000000E+00  0.22447593650E+04  0.22447593650E+04  0.00000000000E+00 0. -1.
         -1   -1    0    0    0  501 -0.00000000000E+00 -0.00000000000E+00 -0.18305738430E+03  0.18305738430E+03  0.00000000000E+00 0.  1.
         24    2    1    2    0    0 -0.90213262533E+02  0.89940624628E+02 -0.22946815860E+02  0.15384207576E+03  0.83144929015E+02 0.  0.
        254    2    1    2    0    0  0.90213262533E+02 -0.89940624628E+02  0.20846487966E+04  0.22739746736E+04  0.89942896450E+03 0.  0.
         23    2    4    4    0    0  0.25955735499E+03  0.30017556251E+03  0.14408993697E+04  0.14970597371E+04  0.86726432042E+02 0.  0.
         23    2    4    4    0    0 -0.16934409245E+03 -0.39011618714E+03  0.64374942689E+03  0.77691493646E+03  0.91188994651E+02 0.  0.
          2    1    3    3  502    0  0.11474954499E+02  0.34279344432E+02 -0.70835153301E+01  0.36836452392E+02  0.00000000000E+00 0. -1.
         -1    1    3    3    0  502 -0.10168821703E+03  0.55661280197E+02 -0.15863300530E+02  0.11700562337E+03  0.00000000000E+00 0.  1.
         13    1    5    5    0    0  0.18329927703E+03  0.20109231727E+03  0.11220928846E+04  0.11546121369E+04  0.00000000000E+00 0. -1.
        -13    1    5    5    0    0  0.76258077952E+02  0.99083245238E+02  0.31880648506E+03  0.34244760016E+03  0.00000000000E+00 0.  1.
          4    1    6    6  503    0 -0.13654982969E+03 -0.22703048478E+03  0.44326071941E+03  0.51639980865E+03  0.00000000000E+00 0. -1.
         -4    1    6    6    0  503 -0.32794262767E+02 -0.16308570236E+03  0.20048870749E+03  0.26051512781E+03  0.00000000000E+00 0.  1.
<mgrwt>
<rscale>  0 0.12820605E+04</rscale>
<asrwt>0</asrwt>
<pdfrwt beam="1">  1        2 0.34534757E+00 0.12820605E+04</pdfrwt>
<pdfrwt beam="2">  1       -1 0.28162676E-01 0.12820605E+04</pdfrwt>
<totfact> 0.62236300E+01</totfact>
</mgrwt>
</event>
<event>
12    7  0.1711607E-007  0.1403303E+04  0.7818608E-02  0.8951431E-01
         -1   -1    0    0    0  501 -0.00000000000E+00  0.00000000000E+00  0.37403802287E+03  0.37403802287E+03  0.00000000000E+00 0.  1.
          2   -1    0    0  501    0  0.00000000000E+00 -0.00000000000E+00 -0.13162168589E+04  0.13162168589E+04  0.00000000000E+00 0. -1.
         24    2    1    2    0    0 -0.39940178252E+03 -0.34431233596E+02 -0.21065422961E+03  0.45994083598E+03  0.80393248582E+02 0.  0.
        254    2    1    2    0    0  0.39940178252E+03  0.34431233596E+02 -0.73152460642E+03  0.12303140458E+04  0.90434346780E+03 0.  0.
         23    2    4    4    0    0  0.58375199864E+03 -0.99944439397E+02 -0.17853271870E+03  0.62519149718E+03  0.90747945491E+02 0.  0.
         23    2    4    4    0    0 -0.18435021612E+03  0.13437567299E+03 -0.55299188771E+03  0.60512254862E+03  0.91276762064E+02 0.  0.
          2    1    3    3  502    0 -0.90728599798E+02 -0.19057152937E+02 -0.86771003293E+02  0.12698055328E+03  0.00000000000E+00 0. -1.
         -1    1    3    3    0  502 -0.30867318273E+03 -0.15374080659E+02 -0.12388322632E+03  0.33296028269E+03  0.00000000000E+00 0.  1.
         13    1    5    5    0    0  0.16245927132E+03  0.12179852638E+02 -0.40026482573E+02  0.16776019479E+03  0.00000000000E+00 0.  1.
        -13    1    5    5    0    0  0.42129272732E+03 -0.11212429204E+03 -0.13850623613E+03  0.45743130239E+03  0.00000000000E+00 0. -1.
          4    1    6    6  503    0 -0.19083086090E+03  0.12037162025E+03 -0.47818351779E+03  0.52873927519E+03  0.00000000000E+00 0. -1.
         -4    1    6    6    0  503  0.64806447842E+01  0.14004052740E+02 -0.74808369917E+02  0.76383273428E+02  0.00000000000E+00 0.  1.
<mgrwt>
<rscale>  0 0.14033035E+04</rscale>
<asrwt>0</asrwt>
<pdfrwt beam="1">  1        2 0.20249490E+00 0.14033035E+04</pdfrwt>
<pdfrwt beam="2">  1       -1 0.57544311E-01 0.14033035E+04</pdfrwt>
<totfact> 0.54873079E+01</totfact>
</mgrwt>
</event>
<event>
12    7  0.1711607E-007  0.1998973E+04  0.7818608E-02  0.8607101E-01
          2   -1    0    0  501    0  0.00000000000E+00  0.00000000000E+00  0.13170158523E+04  0.13170158523E+04  0.00000000000E+00 0. -1.
         -1   -1    0    0    0  501 -0.00000000000E+00 -0.00000000000E+00 -0.75851273444E+03  0.75851273444E+03  0.00000000000E+00 0.  1.
         24    2    1    2    0    0 -0.77553750139E+03  0.81286607368E+02 -0.13054557008E+03  0.79472678454E+03  0.80514517872E+02 0.  0.
        254    2    1    2    0    0  0.77553750139E+03 -0.81286607368E+02  0.68904868796E+03  0.12808018022E+04  0.74672567492E+03 0.  0.
         23    2    4    4    0    0  0.22551875501E+03 -0.30066443208E+03  0.53849631559E+03  0.66333773632E+03  0.93706248148E+02 0.  0.
         23    2    4    4    0    0  0.55001874638E+03  0.21937782471E+03  0.15055237237E+03  0.61746406590E+03  0.89154946611E+02 0.  0.
          2    1    3    3  502    0 -0.28361413098E+03  0.38632722990E+02 -0.86395775634E+02  0.29898778006E+03  0.00000000000E+00 0. -1.
         -1    1    3    3    0  502 -0.49192337041E+03  0.42653884378E+02 -0.44149794445E+02  0.49573900447E+03  0.00000000000E+00 0.  1.
         13    1    5    5    0    0  0.18020581891E+03 -0.19105175039E+03  0.31331764051E+03  0.40883108046E+03  0.00000000000E+00 0.  1.
        -13    1    5    5    0    0  0.45312936101E+02 -0.10961268169E+03  0.22517867508E+03  0.25450665586E+03  0.00000000000E+00 0. -1.
          2    1    6    6  503    0  0.52040015330E+02  0.44937320238E+02 -0.36993182802E-02  0.68757006620E+02  0.00000000000E+00 0.  1.
         -2    1    6    6    0  503  0.49797873105E+03  0.17444050448E+03  0.15055607169E+03  0.54870705928E+03  0.00000000000E+00 0. -1.
<mgrwt>
<rscale>  0 0.19989730E+04</rscale>
<asrwt>0</asrwt>
<pdfrwt beam="1">  1        2 0.20261782E+00 0.19989730E+04</pdfrwt>
<pdfrwt beam="2">  1       -1 0.11669427E+00 0.19989730E+04</pdfrwt>
<totfact> 0.11340329E+01</totfact>
</mgrwt>
</event>
<event>
12    7  0.1711607E-007  0.2495127E+04  0.7818608E-02  0.8404724E-01
          2   -1    0    0  501    0  0.00000000000E+00  0.00000000000E+00  0.44944807943E+04  0.44944807943E+04  0.00000000000E+00 0. -1.
         -1   -1    0    0    0  501 -0.00000000000E+00 -0.00000000000E+00 -0.34629458808E+03  0.34629458808E+03  0.00000000000E+00 0.  1.
         24    2    1    2    0    0  0.46934135774E+02 -0.31587091490E+03 -0.20433815976E+03  0.38733692292E+03  0.79363469808E+02 0.  0.
        254    2    1    2    0    0 -0.46934135774E+02  0.31587091490E+03  0.43525243660E+04  0.44534384595E+04  0.88694335095E+03 0.  0.
         23    2    4    4    0    0  0.20739878340E+03  0.15033854349E+03  0.37595374800E+03  0.46408517200E+03  0.91749077507E+02 0.  0.
         23    2    4    4    0    0 -0.25433291917E+03  0.16553237141E+03  0.39765706180E+04  0.39893532875E+04  0.98689273184E+02 0.  0.
          2    1    3    3  502    0  0.13234854389E+02 -0.36284120614E+01 -0.23222350249E+01  0.13918316000E+02  0.00000000000E+00 0. -1.
         -1    1    3    3    0  502  0.33699281385E+02 -0.31224250283E+03 -0.20201592474E+03  0.37341860692E+03  0.00000000000E+00 0.  1.
         13    1    5    5    0    0  0.17082215453E+02 -0.36138648991E+01  0.26210157820E+01  0.17655928977E+02  0.00000000000E+00 0.  1.
        -13    1    5    5    0    0  0.19031656795E+03  0.15395240839E+03  0.37333273222E+03  0.44642924303E+03  0.00000000000E+00 0. -1.
          1    1    6    6  503    0 -0.21095506221E+03  0.11514430210E+03  0.25702491407E+04  0.25814609998E+04  0.00000000000E+00 0. -1.
         -1    1    6    6    0  503 -0.43377856966E+02  0.50388069311E+02  0.14063214773E+04  0.14078922876E+04  0.00000000000E+00 0.  1.
<mgrwt>
<rscale>  0 0.24951268E+04</rscale>
<asrwt>0</asrwt>
<pdfrwt beam="1">  1        2 0.69145854E+00 0.24951268E+04</pdfrwt>
<pdfrwt beam="2">  1       -1 0.53276094E-01 0.24951268E+04</pdfrwt>
<totfact> 0.45209172E-01</totfact>
</mgrwt>
</event>
<event>
12    7  0.1711607E-007  0.1376448E+04  0.7818608E-02  0.8971046E-01
          2   -1    0    0  501    0  0.00000000000E+00  0.00000000000E+00  0.15022446563E+04  0.15022446563E+04  0.00000000000E+00 0. -1.
         -1   -1    0    0    0  501 -0.00000000000E+00 -0.00000000000E+00 -0.31529618109E+03  0.31529618109E+03  0.00000000000E+00 0.  1.
         24    2    1    2    0    0 -0.14806924044E+03 -0.11369389760E+03  0.79766164228E+03  0.82302393919E+03  0.79079116069E+02 0.  0.
        254    2    1    2    0    0  0.14806924044E+03  0.11369389760E+03  0.38928683292E+03  0.99451689819E+03  0.89591786464E+03 0.  0.
         23    2    4    4    0    0  0.47143408975E+03  0.21202115954E+03  0.37420668662E+03  0.64442264104E+03  0.89704085242E+02 0.  0.
         23    2    4    4    0    0 -0.32336484931E+03 -0.98327261941E+02  0.15080146304E+02  0.35009425715E+03  0.90030560735E+02 0.  0.
          2    1    3    3  502    0 -0.13066275121E+03 -0.55453383324E+02  0.55422242873E+03  0.57211042009E+03  0.00000000000E+00 0. -1.
         -1    1    3    3    0  502 -0.17406489239E+02 -0.58240514273E+02  0.24343921356E+03  0.25091351910E+03  0.00000000000E+00 0.  1.
         13    1    5    5    0    0  0.46261611485E+03  0.19205833790E+03  0.36855668731E+03  0.62187949527E+03  0.00000000000E+00 0.  1.
        -13    1    5    5    0    0  0.88179749001E+01  0.19962821639E+02  0.56499993028E+01  0.22543145771E+02  0.00000000000E+00 0. -1.
          2    1    6    6  503    0 -0.31451420075E+03 -0.98251461656E+02 -0.34907974119E+01  0.32952195353E+03  0.00000000000E+00 0.  1.
         -2    1    6    6    0  503 -0.88506485537E+01 -0.75800284671E-01  0.18570943716E+02  0.20572303614E+02  0.00000000000E+00 0. -1.
<mgrwt>
<rscale>  0 0.13764476E+04</rscale>
<asrwt>0</asrwt>
<pdfrwt beam="1">  1        2 0.23111456E+00 0.13764476E+04</pdfrwt>
<pdfrwt beam="2">  1       -1 0.48507106E-01 0.13764476E+04</pdfrwt>
<totfact> 0.59777674E+01</totfact>
</mgrwt>
</event>
<event>
12    7  0.1711607E-007  0.2540339E+04  0.7818608E-02  0.8388754E-01
         -1   -1    0    0    0  501 -0.00000000000E+00  0.00000000000E+00  0.11000907219E+04  0.11000907219E+04  0.00000000000E+00 0.  1.
          2   -1    0    0  501    0  0.00000000000E+00 -0.00000000000E+00 -0.14665432304E+04  0.14665432304E+04  0.00000000000E+00 0. -1.
         24    2    1    2    0    0 -0.20010554270E+03  0.44144197421E+03  0.84929255253E+03  0.98118477285E+03  0.80699900005E+02 0.  0.
        254    2    1    2    0    0  0.20010554270E+03 -0.44144197421E+03 -0.12157450610E+04  0.15854491795E+04  0.89481830696E+03 0.  0.
         23    2    4    4    0    0 -0.98125237590E+02 -0.57750508202E+03 -0.44059676911E+03  0.73874936366E+03  0.92110951322E+02 0.  0.
         23    2    4    4    0    0  0.29823078029E+03  0.13606310781E+03 -0.77514829194E+03  0.84669981582E+03  0.92687302313E+02 0.  0.
          4    1    3    3  502    0 -0.24013680493E+02  0.13301546405E+03  0.26330881499E+03  0.29597517224E+03  0.00000000000E+00 0. -1.
         -3    1    3    3    0  502 -0.17609186220E+03  0.30842651016E+03  0.58598373754E+03  0.68520960061E+03  0.00000000000E+00 0.  1.
         13    1    5    5    0    0 -0.14388653355E+02 -0.15239678798E+02 -0.33621020795E+02  0.39618861601E+02  0.00000000000E+00 0. -1.
        -13    1    5    5    0    0 -0.83736584235E+02 -0.56226540322E+03 -0.40697574832E+03  0.69913050206E+03  0.00000000000E+00 0.  1.
          4    1    6    6  503    0  0.17071560758E+03  0.29364780364E+02 -0.36048166559E+03  0.39994142099E+03  0.00000000000E+00 0. -1.
         -4    1    6    6    0  503  0.12751517270E+03  0.10669832744E+03 -0.41466662635E+03  0.44675839483E+03  0.00000000000E+00 0.  1.
<mgrwt>
<rscale>  0 0.25403390E+04</rscale>
<asrwt>0</asrwt>
<pdfrwt beam="1">  1        2 0.22562203E+00 0.25403390E+04</pdfrwt>
<pdfrwt beam="2">  1       -1 0.16924473E+00 0.25403390E+04</pdfrwt>
<totfact> 0.33463974E+00</totfact>
</mgrwt>
</event>
<event>
12    7  0.1711607E-007  0.1386088E+04  0.7818608E-02  0.8963951E-01
          2   -1    0    0  501    0  0.00000000000E+00  0.00000000000E+00  0.23202504180E+04  0.23202504180E+04  0.00000000000E+00 0. -1.
         -1   -1    0    0    0  501 -0.00000000000E+00 -0.00000000000E+00 -0.20700783066E+03  0.20700783066E+03  0.00000000000E+00 0.  1.
         24    2    1    2    0    0 -0.32185068460E+03  0.17910151930E+02  0.10988003901E+04  0.11477115515E+04  0.77271414138E+02 0.  0.
        254    2    1    2    0    0  0.32185068460E+03 -0.17910151930E+02  0.10144421972E+04  0.13795466971E+04  0.87758047000E+03 0.  0.
         23    2    4    4    0    0  0.22446444881E+03 -0.42165193503E+03  0.69160279039E+03  0.84559430510E+03  0.92415724082E+02 0.  0.
         23    2    4    4    0    0  0.97386235787E+02  0.40374178310E+03  0.32283940679E+03  0.53395239199E+03  0.91588034125E+02 0.  0.
          4    1    3    3  502    0 -0.29254195093E+03  0.25558055136E+02  0.90211031457E+03  0.94870281274E+03  0.00000000000E+00 0. -1.
         -3    1    3    3    0  502 -0.29308733671E+02 -0.76479032053E+01  0.19669007557E+03  0.19900873880E+03  0.00000000000E+00 0.  1.
         13    1    5    5    0    0  0.18851380396E+02 -0.11925026317E+03  0.16361288203E+03  0.20333512971E+03  0.00000000000E+00 0.  1.
        -13    1    5    5    0    0  0.20561306842E+03 -0.30240167186E+03  0.52798990836E+03  0.64225917539E+03  0.00000000000E+00 0. -1.
          1    1    6    6  503    0  0.23005599598E+02  0.26849125086E+03  0.18360762728E+03  0.32608061917E+03  0.00000000000E+00 0. -1.
         -1    1    6    6    0  503  0.74380636188E+02  0.13525053223E+03  0.13923177951E+03  0.20787177282E+03  0.00000000000E+00 0.  1.
<mgrwt>
<rscale>  0 0.13860880E+04</rscale>
<asrwt>0</asrwt>
<pdfrwt beam="1">  1        2 0.35696158E+00 0.13860880E+04</pdfrwt>
<pdfrwt beam="2">  1       -1 0.31847360E-01 0.13860880E+04</pdfrwt>
<totfact> 0.45095347E+01</totfact>
</mgrwt>
</event>
<event>
12    7  0.1711607E-007  0.1578604E+04  0.7818608E-02  0.8833801E-01
          2   -1    0    0  501    0  0.00000000000E+00  0.00000000000E+00  0.25126960994E+04  0.25126960994E+04  0.00000000000E+00 0. -1.
         -1   -1    0    0    0  501 -0.00000000000E+00 -0.00000000000E+00 -0.24794002283E+03  0.24794002283E+03  0.00000000000E+00 0.  1.
         24    2    1    2    0    0  0.44549091121E+03 -0.19138377679E+03  0.11380053715E+04  0.12393840745E+04  0.76985430981E+02 0.  0.
        254    2    1    2    0    0 -0.44549091121E+03  0.19138377679E+03  0.11267507051E+04  0.15212520477E+04  0.89975037611E+03 0.  0.
         23    2    4    4    0    0 -0.12406686960E+03 -0.22220829455E+03 -0.55411266375E+01  0.27024398219E+03  0.90730323086E+02 0.  0.
         23    2    4    4    0    0 -0.32142404162E+03  0.41359207134E+03  0.11322918317E+04  0.12510080655E+04  0.92544972096E+02 0.  0.
          2    1    3    3  502    0  0.43737591181E+03 -0.17431378953E+03  0.10745932170E+04  0.11732150560E+04  0.00000000000E+00 0. -1.
         -1    1    3    3    0  502  0.81149994018E+01 -0.17069987264E+02  0.63412154445E+02  0.66169018520E+02  0.00000000000E+00 0.  1.
         13    1    5    5    0    0 -0.28022541058E+02 -0.43808665006E+02 -0.38850369919E+02  0.64913890499E+02  0.00000000000E+00 0. -1.
        -13    1    5    5    0    0 -0.96044328537E+02 -0.17839962954E+03  0.33309243281E+02  0.20533009169E+03  0.00000000000E+00 0.  1.
          2    1    6    6  503    0 -0.19125739405E+03  0.23300401592E+03  0.75476730663E+03  0.81273854921E+03  0.00000000000E+00 0. -1.
         -2    1    6    6    0  503 -0.13016664757E+03  0.18058805542E+03  0.37752452508E+03  0.43826951632E+03  0.00000000000E+00 0.  1.
<mgrwt>
<rscale>  0 0.15786044E+04</rscale>
<asrwt>0</asrwt>
<pdfrwt beam="1">  1        2 0.38656861E+00 0.15786044E+04</pdfrwt>
<pdfrwt beam="2">  1       -1 0.38144621E-01 0.15786044E+04</pdfrwt>
<totfact> 0.24926076E+01</totfact>
</mgrwt>
</event>
<event>
12    7  0.1711607E-007  0.1880997E+04  0.7818608E-02  0.8664374E-01
         -1   -1    0    0    0  501 -0.00000000000E+00  0.00000000000E+00  0.65987656851E+03  0.65987656851E+03  0.00000000000E+00 0.  1.
          2   -1    0    0  501    0  0.00000000000E+00 -0.00000000000E+00 -0.13404586237E+04  0.13404586237E+04  0.00000000000E+00 0. -1.
         24    2    1    2    0    0 -0.59492788574E+03  0.37204428608E+03 -0.43314645487E+02  0.70749725001E+03  0.79498806412E+02 0.  0.
        254    2    1    2    0    0  0.59492788574E+03 -0.37204428608E+03 -0.63726740972E+03  0.12928379422E+04  0.87918374263E+03 0.  0.
         23    2    4    4    0    0  0.48809077762E+03  0.10470925574E+03 -0.30123019714E+02  0.50823462265E+03  0.90545015971E+02 0.  0.
         23    2    4    4    0    0  0.10683710812E+03 -0.47675354182E+03 -0.60714439001E+03  0.78460331956E+03  0.90939273407E+02 0.  0.
          4    1    3    3  502    0 -0.54562311077E+03  0.31931912910E+03 -0.54120539368E+02  0.63450635773E+03  0.00000000000E+00 0. -1.
         -3    1    3    3    0  502 -0.49304774969E+02  0.52725156981E+02  0.10805893881E+02  0.72990892282E+02  0.00000000000E+00 0.  1.
         13    1    5    5    0    0  0.23259386202E+03  0.80450713813E+01 -0.32914505455E+02  0.23504891511E+03  0.00000000000E+00 0. -1.
        -13    1    5    5    0    0  0.25549691559E+03  0.96664184355E+02  0.27914857417E+01  0.27318570755E+03  0.00000000000E+00 0.  1.
          2    1    6    6  503    0  0.45103501632E+01 -0.31184427238E+01 -0.32354417494E+02  0.32815793072E+02  0.00000000000E+00 0. -1.
         -2    1    6    6    0  503  0.10232675796E+03 -0.47363509909E+03 -0.57478997251E+03  0.75178752649E+03  0.00000000000E+00 0.  1.
<mgrwt>
<rscale>  0 0.18809968E+04</rscale>
<asrwt>0</asrwt>
<pdfrwt beam="1">  1        2 0.20622440E+00 0.18809968E+04</pdfrwt>
<pdfrwt beam="2">  1       -1 0.10151947E+00 0.18809968E+04</pdfrwt>
<totfact> 0.15414429E+01</totfact>
</mgrwt>
</event>
<event>
12    7  0.1711607E-007  0.1320529E+04  0.7818608E-02  0.9013442E-01
          2   -1    0    0  501    0  0.00000000000E+00  0.00000000000E+00  0.52309284389E+03  0.52309284389E+03  0.00000000000E+00 0. -1.
         -1   -1    0    0    0  501 -0.00000000000E+00 -0.00000000000E+00 -0.83340659651E+03  0.83340659651E+03  0.00000000000E+00 0.  1.
         24    2    1    2    0    0 -0.32846875823E+03 -0.36918825374E+02 -0.19663048506E+03  0.39315112161E+03  0.81544662403E+02 0.  0.
        254    2    1    2    0    0  0.32846875823E+03  0.36918825374E+02 -0.11368326755E+03  0.96334831879E+03  0.89769781843E+03 0.  0.
         23    2    4    4    0    0 -0.10658877448E+03  0.97469212403E+02  0.30516421688E+03  0.34953638988E+03  0.90493504571E+02 0.  0.
         23    2    4    4    0    0  0.43505753271E+03 -0.60550387029E+02 -0.41884748443E+03  0.61381192892E+03  0.91599469022E+02 0.  0.
          4    1    3    3  502    0 -0.60719332353E+00  0.65183991823E+01  0.26086413027E+01  0.70472137102E+01  0.00000000000E+00 0. -1.
         -3    1    3    3    0  502 -0.32786156490E+03 -0.43437224557E+02 -0.19923912636E+03  0.38610390790E+03  0.00000000000E+00 0.  1.
         13    1    5    5    0    0 -0.76841976987E+02  0.10466127081E+03  0.18826212912E+03  0.22869477540E+03  0.00000000000E+00 0.  1.
        -13    1    5    5    0    0 -0.29746797497E+02 -0.71920584086E+01  0.11690208777E+03  0.12084161448E+03  0.00000000000E+00 0. -1.
          4    1    6    6  503    0  0.10556681270E+03 -0.25243034182E+02 -0.15989475145E+03  0.19325603292E+03  0.00000000000E+00 0. -1.
         -4    1    6    6    0  503  0.32949072001E+03 -0.35307352847E+02 -0.25895273298E+03  0.42055589599E+03  0.00000000000E+00 0.  1.
<mgrwt>
<rscale>  0 0.13205287E+04</rscale>
<asrwt>0</asrwt>
<pdfrwt beam="1">  1        2 0.80475823E-01 0.13205287E+04</pdfrwt>
<pdfrwt beam="2">  1       -1 0.12821640E+00 0.13205287E+04</pdfrwt>
<totfact> 0.34337078E+01</totfact>
</mgrwt>
</event>
<event>
12    7  0.1711607E-007  0.1184151E+04  0.7818608E-02  0.9126843E-01
          2   -1    0    0  501    0  0.00000000000E+00  0.00000000000E+00  0.33956134212E+03  0.33956134212E+03  0.00000000000E+00 0. -1.
         -1   -1    0    0    0  501 -0.00000000000E+00 -0.00000000000E+00 -0.10323716302E+04  0.10323716302E+04  0.00000000000E+00 0.  1.
         24    2    1    2    0    0 -0.15834954779E+03 -0.10152833901E+03  0.37010846693E+02  0.20809732366E+03  0.80945107534E+02 0.  0.
        254    2    1    2    0    0  0.15834954779E+03  0.10152833901E+03 -0.72982113473E+03  0.11638356486E+04  0.88684381115E+03 0.  0.
         23    2    4    4    0    0 -0.34212160327E+03  0.15829095730E+03 -0.24452541071E+03  0.45852024004E+03  0.91350508780E+02 0.  0.
         23    2    4    4    0    0  0.50047115106E+03 -0.56762618292E+02 -0.48529572402E+03  0.70531540857E+03  0.90909394154E+02 0.  0.
          2    1    3    3  502    0 -0.90022471477E+02 -0.10251708093E+03  0.23553191279E+02  0.13845053294E+03  0.00000000000E+00 0. -1.
         -1    1    3    3    0  502 -0.68327076313E+02  0.98874191493E+00  0.13457655415E+02  0.69646790718E+02  0.00000000000E+00 0.  1.
         13    1    5    5    0    0 -0.92789595324E+02  0.31888490551E+02 -0.11278578406E+03  0.14949052785E+03  0.00000000000E+00 0.  1.
        -13    1    5    5    0    0 -0.24933200794E+03  0.12640246675E+03 -0.13173962665E+03  0.30902971219E+03  0.00000000000E+00 0. -1.
          1    1    6    6  503    0  0.49503530103E+03 -0.59566114600E+02 -0.45696526566E+03  0.67633225954E+03  0.00000000000E+00 0. -1.
         -1    1    6    6    0  503  0.54358500240E+01  0.28034963079E+01 -0.28330458357E+02  0.28983149031E+02  0.00000000000E+00 0.  1.
<mgrwt>
<rscale>  0 0.11841512E+04</rscale>
<asrwt>0</asrwt>
<pdfrwt beam="1">  1        2 0.52240208E-01 0.11841512E+04</pdfrwt>
<pdfrwt beam="2">  1       -1 0.15882640E+00 0.11841512E+04</pdfrwt>
<totfact> 0.32261033E+01</totfact>
</mgrwt>
</event>
<event>
12    7  0.1711607E-007  0.2752154E+04  0.7818608E-02  0.8318278E-01
         -1   -1    0    0    0  501 -0.00000000000E+00  0.00000000000E+00  0.12102249045E+04  0.12102249045E+04  0.00000000000E+00 0.  1.
          2   -1    0    0  501    0  0.00000000000E+00 -0.00000000000E+00 -0.15646579179E+04  0.15646579179E+04  0.00000000000E+00 0. -1.
         24    2    1    2    0    0 -0.59422506646E+02  0.11643206027E+04 -0.54781898526E+03  0.12905817813E+04  0.79512222519E+02 0.  0.
        254    2    1    2    0    0  0.59422506646E+02 -0.11643206027E+04  0.19338597183E+03  0.14843010411E+04  0.89809684688E+03 0.  0.
         23    2    4    4    0    0  0.17353774513E+03 -0.12675304974E+04  0.11309987943E+03  0.12874475170E+04  0.89334290765E+02 0.  0.
         23    2    4    4    0    0 -0.11411523849E+03  0.10320989472E+03  0.80286092400E+02  0.19685352407E+03  0.92902547238E+02 0.  0.
          4    1    3    3  502    0 -0.53835297037E+02  0.10733896096E+04 -0.52762324940E+03  0.11972676337E+04  0.00000000000E+00 0. -1.
         -3    1    3    3    0  502 -0.55872096096E+01  0.90930993062E+02 -0.20195735863E+02  0.93314147681E+02  0.00000000000E+00 0.  1.
         13    1    5    5    0    0  0.10077252166E+03 -0.67745760671E+03  0.10453706055E+03  0.69284334957E+03  0.00000000000E+00 0. -1.
        -13    1    5    5    0    0  0.72765223470E+02 -0.59007289072E+03  0.85628188783E+01  0.59460416747E+03  0.00000000000E+00 0.  1.
          1    1    6    6  503    0  0.84744287703E+01  0.41738643151E+02  0.19842234190E+02  0.46985577922E+02  0.00000000000E+00 0.  1.
         -1    1    6    6    0  503 -0.12258966726E+03  0.61471251574E+02  0.60443858210E+02  0.14986794615E+03  0.00000000000E+00 0. -1.
<mgrwt>
<rscale>  0 0.27521541E+04</rscale>
<asrwt>0</asrwt>
<pdfrwt beam="1">  1        2 0.24071660E+00 0.27521541E+04</pdfrwt>
<pdfrwt beam="2">  1       -1 0.18618845E+00 0.27521541E+04</pdfrwt>
<totfact> 0.21827342E+00</totfact>
</mgrwt>
</event>
<event>
12    7  0.1711607E-007  0.1638675E+04  0.7818608E-02  0.8797134E-01
         -1   -1    0    0    0  501 -0.00000000000E+00  0.00000000000E+00  0.34464145922E+03  0.34464145922E+03  0.00000000000E+00 0.  1.
          2   -1    0    0  501    0  0.00000000000E+00 -0.00000000000E+00 -0.19478620809E+04  0.19478620809E+04  0.00000000000E+00 0. -1.
         24    2    1    2    0    0  0.40781372393E+03  0.18897782070E+03 -0.10728301037E+04  0.11659446900E+04  0.80236765583E+02 0.  0.
        254    2    1    2    0    0 -0.40781372393E+03 -0.18897782070E+03 -0.53039051801E+03  0.11265588502E+04  0.88645140371E+03 0.  0.
         23    2    4    4    0    0 -0.23238416221E+03 -0.53311813753E+03 -0.24720224314E+03  0.63851785230E+03  0.91535519253E+02 0.  0.
         23    2    4    4    0    0 -0.17542956172E+03  0.34414031683E+03 -0.28318827487E+03  0.48804099786E+03  0.93703403216E+02 0.  0.
          2    1    3    3  502    0  0.21691518297E+03  0.63923960947E+02 -0.47648382696E+03  0.52742327095E+03  0.00000000000E+00 0. -1.
         -1    1    3    3    0  502  0.19089854096E+03  0.12505385976E+03 -0.59634627677E+03  0.63852141906E+03  0.00000000000E+00 0.  1.
         13    1    5    5    0    0 -0.16793705648E+03 -0.39364870359E+03 -0.13673280804E+03  0.44928611994E+03  0.00000000000E+00 0. -1.
        -13    1    5    5    0    0 -0.64447105727E+02 -0.13946943394E+03 -0.11046943510E+03  0.18923173236E+03  0.00000000000E+00 0.  1.
          2    1    6    6  503    0 -0.15231754943E+03  0.31602346927E+03 -0.28441585466E+03  0.45162356822E+03  0.00000000000E+00 0. -1.
         -2    1    6    6    0  503 -0.23112012290E+02  0.28116847562E+02  0.12275797949E+01  0.36417429633E+02  0.00000000000E+00 0.  1.
<mgrwt>
<rscale>  0 0.16386751E+04</rscale>
<asrwt>0</asrwt>
<pdfrwt beam="1">  1        2 0.29967108E+00 0.16386751E+04</pdfrwt>
<pdfrwt beam="2">  1       -1 0.53021764E-01 0.16386751E+04</pdfrwt>
<totfact> 0.27901199E+01</totfact>
</mgrwt>
</event>
<event>
12    7  0.1711607E-007  0.1536245E+04  0.7818608E-02  0.8860702E-01
          2   -1    0    0  501    0  0.00000000000E+00  0.00000000000E+00  0.32247976441E+04  0.32247976441E+04  0.00000000000E+00 0. -1.
         -1   -1    0    0    0  501 -0.00000000000E+00 -0.00000000000E+00 -0.18296109712E+03  0.18296109712E+03  0.00000000000E+00 0.  1.
         24    2    1    2    0    0 -0.47265301618E+03  0.48055391207E+01  0.13391973499E+04  0.14223486940E+04  0.78754672777E+02 0.  0.
        254    2    1    2    0    0  0.47265301618E+03 -0.48055391207E+01  0.17026391971E+04  0.19854100473E+04  0.90523414278E+03 0.  0.
         23    2    4    4    0    0  0.43434647948E+03  0.32010014183E+03  0.14841278911E+04  0.15818709670E+04  0.92515912449E+02 0.  0.
         23    2    4    4    0    0  0.38306536693E+02 -0.32490568095E+03  0.21851130606E+03  0.40353908029E+03  0.89808163188E+02 0.  0.
          4    1    3    3  502    0 -0.37270062728E+03 -0.85914366071E+01  0.11340529528E+04  0.11937569561E+04  0.00000000000E+00 0. -1.
         -1    1    3    3    0  502 -0.99952388897E+02  0.13396975728E+02  0.20514439704E+03  0.22859173792E+03  0.00000000000E+00 0.  1.
         13    1    5    5    0    0  0.85143225138E+01  0.11594433426E+02  0.12290041984E+02  0.18920087376E+02  0.00000000000E+00 0.  1.
        -13    1    5    5    0    0  0.42583215697E+03  0.30850570841E+03  0.14718378491E+04  0.15629508796E+04  0.00000000000E+00 0. -1.
          1    1    6    6  503    0  0.25290778749E+02 -0.32495447663E+03  0.20662942637E+03  0.38591547678E+03  0.00000000000E+00 0. -1.
         -1    1    6    6    0  503  0.13015757944E+02  0.48795677284E-01  0.11881879688E+02  0.17623603513E+02  0.00000000000E+00 0.  1.
<mgrwt>
<rscale>  0 0.15362454E+04</rscale>
<asrwt>0</asrwt>
<pdfrwt beam="1">  1        2 0.49612267E+00 0.15362454E+04</pdfrwt>
<pdfrwt beam="2">  1       -1 0.28147863E-01 0.15362454E+04</pdfrwt>
<totfact> 0.15784235E+01</totfact>
</mgrwt>
</event>
<event>
12    7  0.1711607E-007  0.1130385E+04  0.7818608E-02  0.9176073E-01
          2   -1    0    0  501    0  0.00000000000E+00  0.00000000000E+00  0.34038564382E+03  0.34038564382E+03  0.00000000000E+00 0. -1.
         -1   -1    0    0    0  501 -0.00000000000E+00 -0.00000000000E+00 -0.93847167959E+03  0.93847167959E+03  0.00000000000E+00 0.  1.
         24    2    1    2    0    0 -0.12906695544E+03 -0.54474802706E+02  0.16654964195E+02  0.17885647538E+03  0.10993847297E+03 0.  0.
        254    2    1    2    0    0  0.12906695544E+03  0.54474802706E+02 -0.61474099997E+03  0.11000008480E+04  0.90137094777E+03 0.  0.
         23    2    4    4    0    0 -0.20172875646E+03 -0.28301928353E+03 -0.57429456230E+02  0.36361171893E+03  0.90116223120E+02 0.  0.
         23    2    4    4    0    0  0.33079571189E+03  0.33749408624E+03 -0.55731154374E+03  0.73638912909E+03  0.91349501358E+02 0.  0.
          2    1    3    3  502    0 -0.14042485845E+03 -0.30790791386E+02  0.33552023447E+02  0.14762436107E+03  0.00000000000E+00 0. -1.
         -1    1    3    3    0  502  0.11357903011E+02 -0.23684011320E+02 -0.16897059253E+02  0.31232114312E+02  0.00000000000E+00 0.  1.
         13    1    5    5    0    0 -0.75837997978E+02 -0.41042513044E+02 -0.16399250756E+02  0.87777133922E+02  0.00000000000E+00 0.  1.
        -13    1    5    5    0    0 -0.12589075848E+03 -0.24197677049E+03 -0.41030205473E+02  0.27583458501E+03  0.00000000000E+00 0. -1.
          1    1    6    6  503    0  0.26915814774E+03  0.30343074304E+03 -0.43148611150E+03  0.59219641061E+03  0.00000000000E+00 0. -1.
         -1    1    6    6    0  503  0.61637564149E+02  0.34063343199E+02 -0.12582543224E+03  0.14419271848E+03  0.00000000000E+00 0.  1.
<mgrwt>
<rscale>  0 0.11303845E+04</rscale>
<asrwt>0</asrwt>
<pdfrwt beam="1">  1        2 0.52367021E-01 0.11303845E+04</pdfrwt>
<pdfrwt beam="2">  1       -1 0.14438026E+00 0.11303845E+04</pdfrwt>
<totfact> 0.41828055E+01</totfact>
</mgrwt>
</event>
<event>
12    7  0.1778782E-007  0.2416108E+04  0.7818608E-02  0.8433497E-01
          2   -1    0    0  501    0  0.00000000000E+00  0.00000000000E+00  0.26333079963E+04  0.26333079963E+04  0.00000000000E+00 0. -1.
         -1   -1    0    0    0  501 -0.00000000000E+00 -0.00000000000E+00 -0.55420583893E+03  0.55420583893E+03  0.00000000000E+00 0.  1.
         24    2    1    2    0    0 -0.25596051543E+03 -0.10043637120E+04  0.10135204602E+04  0.14515261948E+04  0.73772077010E+02 0.  0.
        254    2    1    2    0    0  0.25596051543E+03  0.10043637120E+04  0.10655816972E+04  0.17359876405E+04  0.89661947509E+03 0.  0.
         23    2    4    4    0    0  0.23534488828E+03 -0.30180555052E+02  0.84830936177E+01  0.25402317706E+03  0.90320148710E+02 0.  0.
         23    2    4    4    0    0  0.20615627154E+02  0.10345442671E+04  0.10570986035E+04  0.14819644634E+04  0.89746134399E+02 0.  0.
          4    1    3    3  502    0 -0.17001081643E+03 -0.70640404081E+03  0.66418246976E+03  0.98440271216E+03  0.00000000000E+00 0. -1.
         -3    1    3    3    0  502 -0.85949698996E+02 -0.29795967119E+03  0.34933799049E+03  0.46712348262E+03  0.00000000000E+00 0.  1.
         13    1    5    5    0    0  0.54623461722E+02 -0.91346408414E+01  0.41375637051E+02  0.69131089787E+02  0.00000000000E+00 0. -1.
        -13    1    5    5    0    0  0.18072142656E+03 -0.21045914210E+02 -0.32892543434E+02  0.18489208727E+03  0.00000000000E+00 0.  1.
          4    1    6    6  503    0  0.17600420699E+02  0.10016282960E+04  0.10425546750E+04  0.14458524366E+04  0.00000000000E+00 0.  1.
         -4    1    6    6    0  503  0.30152064553E+01  0.32915971105E+02  0.14543928558E+02  0.36112026829E+02  0.00000000000E+00 0. -1.
<mgrwt>
<rscale>  0 0.24161082E+04</rscale>
<asrwt>0</asrwt>
<pdfrwt beam="1">  1        2 0.40512430E+00 0.24161082E+04</pdfrwt>
<pdfrwt beam="2">  1       -1 0.85262438E-01 0.24161082E+04</pdfrwt>
<totfact> 0.40407369E+00</totfact>
</mgrwt>
</event>
<event>
12    7  0.1711607E-007  0.1637600E+04  0.7818608E-02  0.8797776E-01
         -1   -1    0    0    0  501 -0.00000000000E+00  0.00000000000E+00  0.41163725611E+03  0.41163725611E+03  0.00000000000E+00 0.  1.
          2   -1    0    0  501    0  0.00000000000E+00 -0.00000000000E+00 -0.16287003483E+04  0.16287003483E+04  0.00000000000E+00 0. -1.
         24    2    1    2    0    0 -0.68640544026E+02 -0.39811935089E+03  0.57942947149E+02  0.41714200978E+03  0.86252706401E+02 0.  0.
        254    2    1    2    0    0  0.68640544026E+02  0.39811935089E+03 -0.12750060394E+04  0.16231955946E+04  0.91973528595E+03 0.  0.
         23    2    4    4    0    0  0.10579483627E+03  0.59357780247E+03 -0.12644718918E+04  0.14037871057E+04  0.90564440304E+02 0.  0.
         23    2    4    4    0    0 -0.37154292246E+02 -0.19545845158E+03 -0.10534147522E+02  0.21940848897E+03  0.91894880394E+02 0.  0.
          2    1    3    3  502    0 -0.50340858807E+01 -0.27887839188E+02  0.28726380690E+02  0.40351933569E+02  0.00000000000E+00 0. -1.
         -1    1    3    3    0  502 -0.63606458145E+02 -0.37023151170E+03  0.29216566459E+02  0.37679007621E+03  0.00000000000E+00 0.  1.
         13    1    5    5    0    0  0.10611890302E+03  0.41448710984E+03 -0.94981667959E+03  0.10417353362E+04  0.00000000000E+00 0. -1.
        -13    1    5    5    0    0 -0.32406675229E+00  0.17909069263E+03 -0.31465521224E+03  0.36205176950E+03  0.00000000000E+00 0.  1.
          3    1    6    6  503    0  0.85529822313E+01  0.64658737838E+01  0.49255978498E+01  0.11799260274E+02  0.00000000000E+00 0. -1.
         -3    1    6    6    0  503 -0.45707274477E+02 -0.20192432536E+03 -0.15459745371E+02  0.20760922869E+03  0.00000000000E+00 0.  1.
<mgrwt>
<rscale>  0 0.16376004E+04</rscale>
<asrwt>0</asrwt>
<pdfrwt beam="1">  1        2 0.25056928E+00 0.16376004E+04</pdfrwt>
<pdfrwt beam="2">  1       -1 0.63328809E-01 0.16376004E+04</pdfrwt>
<totfact> 0.29606032E+01</totfact>
</mgrwt>
</event>
<event>
12    7  0.1711607E-007  0.1362836E+04  0.7818608E-02  0.8981168E-01
          2   -1    0    0  501    0  0.00000000000E+00  0.00000000000E+00  0.14203521913E+04  0.14203521913E+04  0.00000000000E+00 0. -1.
         -1   -1    0    0    0  501 -0.00000000000E+00 -0.00000000000E+00 -0.32691224925E+03  0.32691224925E+03  0.00000000000E+00 0.  1.
         24    2    1    2    0    0 -0.35809742294E+02 -0.27957132797E+03  0.48444699682E+02  0.29736619149E+03  0.81469613043E+02 0.  0.
        254    2    1    2    0    0  0.35809742294E+02  0.27957132797E+03  0.10449952424E+04  0.14498982491E+04  0.96475251283E+03 0.  0.
         23    2    4    4    0    0  0.17001784629E+03  0.54181920003E+03  0.30933173824E+03  0.65275379618E+03  0.89035277130E+02 0.  0.
         23    2    4    4    0    0 -0.13420810400E+03 -0.26224787206E+03  0.73566350411E+03  0.79714445287E+03  0.86329171690E+02 0.  0.
          2    1    3    3  502    0  0.10514432955E+02 -0.14140222535E+03  0.53501636235E+02  0.15155054508E+03  0.00000000000E+00 0. -1.
         -1    1    3    3    0  502 -0.46324175249E+02 -0.13816910261E+03 -0.50569365536E+01  0.14581564640E+03  0.00000000000E+00 0.  1.
         13    1    5    5    0    0  0.97999522092E+02  0.43485468464E+03  0.23494265482E+03  0.50388545736E+03  0.00000000000E+00 0. -1.
        -13    1    5    5    0    0  0.72018324199E+02  0.10696451539E+03  0.74389083419E+02  0.14886833883E+03  0.00000000000E+00 0.  1.
          4    1    6    6  503    0 -0.22331154382E+02 -0.11914077956E+03  0.36019189726E+03  0.38004132494E+03  0.00000000000E+00 0. -1.
         -4    1    6    6    0  503 -0.11187694962E+03 -0.14310709250E+03  0.37547160685E+03  0.41710312793E+03  0.00000000000E+00 0.  1.
<mgrwt>
<rscale>  0 0.13628361E+04</rscale>
<asrwt>0</asrwt>
<pdfrwt beam="1">  1        2 0.21851572E+00 0.13628361E+04</pdfrwt>
<pdfrwt beam="2">  1       -1 0.50294193E-01 0.13628361E+04</pdfrwt>
<totfact> 0.62177592E+01</totfact>
</mgrwt>
</event>
<event>
12    7  0.1711607E-007  0.2075956E+04  0.7818608E-02  0.8571909E-01
          2   -1    0    0  501    0  0.00000000000E+00  0.00000000000E+00  0.10051165895E+04  0.10051165895E+04  0.00000000000E+00 0. -1.
         -1   -1    0    0    0  501 -0.00000000000E+00 -0.00000000000E+00 -0.10719142128E+04  0.10719142128E+04  0.00000000000E+00 0.  1.
         24    2    1    2    0    0 -0.83739354364E+03 -0.20398657839E+02 -0.12749639511E+03  0.85101724474E+03  0.79567379673E+02 0.  0.
        254    2    1    2    0    0  0.83739354364E+03  0.20398657839E+02  0.60698771819E+02  0.12260135576E+04  0.89318578712E+03 0.  0.
         23    2    4    4    0    0  0.28423593847E+02 -0.23390423693E+03  0.24752053046E+03  0.35304500172E+03  0.88629946983E+02 0.  0.
         23    2    4    4    0    0  0.80896994980E+03  0.25430289477E+03 -0.18682175864E+03  0.87296855587E+03  0.89829772791E+02 0.  0.
          4    1    3    3  502    0 -0.42129488040E+03 -0.40303670577E+02 -0.37862285284E+02  0.42490859577E+03  0.00000000000E+00 0. -1.
         -3    1    3    3    0  502 -0.41609866325E+03  0.19905012738E+02 -0.89634109828E+02  0.42610864898E+03  0.00000000000E+00 0.  1.
         13    1    5    5    0    0  0.40562893821E+02 -0.10643390447E+03  0.16575866949E+03  0.20112051334E+03  0.00000000000E+00 0. -1.
        -13    1    5    5    0    0 -0.12139299974E+02 -0.12747033245E+03  0.81761860968E+02  0.15192448838E+03  0.00000000000E+00 0.  1.
          4    1    6    6  503    0  0.12957642178E+03  0.39920153235E+02 -0.64430447131E+02  0.15011645557E+03  0.00000000000E+00 0. -1.
         -4    1    6    6    0  503  0.67939352801E+03  0.21438274153E+03 -0.12239131151E+03  0.72285210030E+03  0.00000000000E+00 0.  1.
<mgrwt>
<rscale>  0 0.20759564E+04</rscale>
<asrwt>0</asrwt>
<pdfrwt beam="1">  1        2 0.15463332E+00 0.20759564E+04</pdfrwt>
<pdfrwt beam="2">  1       -1 0.16490988E+00 0.20759564E+04</pdfrwt>
<totfact> 0.70666323E+00</totfact>
</mgrwt>
</event>
<event>
12    7  0.1711607E-007  0.1638652E+04  0.7818608E-02  0.8797148E-01
          2   -1    0    0  501    0  0.00000000000E+00  0.00000000000E+00  0.24581456869E+04  0.24581456869E+04  0.00000000000E+00 0. -1.
         -1   -1    0    0    0  501 -0.00000000000E+00 -0.00000000000E+00 -0.27309000274E+03  0.27309000274E+03  0.00000000000E+00 0.  1.
         24    2    1    2    0    0  0.39823335296E+03 -0.22277259407E+03  0.13845155795E+04  0.14596989771E+04  0.74968538567E+02 0.  0.
        254    2    1    2    0    0 -0.39823335296E+03  0.22277259407E+03  0.80054010469E+03  0.12715367126E+04  0.87619844792E+03 0.  0.
         23    2    4    4    0    0 -0.48952908777E+03 -0.17567655792E+03  0.62169476182E+03  0.81600848577E+03  0.94151426932E+02 0.  0.
         23    2    4    4    0    0  0.91295734807E+02  0.39844915199E+03  0.17884534287E+03  0.45552822681E+03  0.91780558061E+02 0.  0.
          2    1    3    3  502    0  0.30790539450E+03 -0.16385499661E+03  0.11467238136E+04  0.11985948842E+04  0.00000000000E+00 0. -1.
         -1    1    3    3    0  502  0.90327958462E+02 -0.58917597459E+02  0.23779176592E+03  0.26110409286E+03  0.00000000000E+00 0.  1.
         13    1    5    5    0    0 -0.48668752710E+03 -0.16892305898E+03  0.62316196724E+03  0.80853607607E+03  0.00000000000E+00 0.  1.
        -13    1    5    5    0    0 -0.28415606676E+01 -0.67534989389E+01 -0.14672054189E+01  0.74724096974E+01  0.00000000000E+00 0. -1.
          3    1    6    6  503    0 -0.48058019209E+01  0.17844726559E+03  0.66907108083E+02  0.19063862001E+03  0.00000000000E+00 0. -1.
         -3    1    6    6    0  503  0.96101536728E+02  0.22000188640E+03  0.11193823478E+03  0.26488960679E+03  0.00000000000E+00 0.  1.
<mgrwt>
<rscale>  0 0.16386519E+04</rscale>
<asrwt>0</asrwt>
<pdfrwt beam="1">  1        2 0.37817624E+00 0.16386519E+04</pdfrwt>
<pdfrwt beam="2">  1       -1 0.42013848E-01 0.16386519E+04</pdfrwt>
<totfact> 0.22337712E+01</totfact>
</mgrwt>
</event>
<event>
12    7  0.1711607E-007  0.2240932E+04  0.7818608E-02  0.8501582E-01
         -1   -1    0    0    0  501 -0.00000000000E+00  0.00000000000E+00  0.13080034749E+04  0.13080034749E+04  0.00000000000E+00 0.  1.
          2   -1    0    0  501    0  0.00000000000E+00 -0.00000000000E+00 -0.95981695499E+03  0.95981695499E+03  0.00000000000E+00 0. -1.
         24    2    1    2    0    0 -0.30711925715E+03 -0.85544001928E+03  0.37899466495E+03  0.98824376286E+03  0.82999482377E+02 0.  0.
        254    2    1    2    0    0  0.30711925715E+03  0.85544001928E+03 -0.30808145026E+02  0.12795766670E+04  0.90014856570E+03 0.  0.
         23    2    4    4    0    0  0.37552673153E+03  0.47853256007E+03 -0.40491338581E+03  0.73638760647E+03  0.91094016369E+02 0.  0.
         23    2    4    4    0    0 -0.68407474377E+02  0.37690745921E+03  0.37410524078E+03  0.54318906057E+03  0.91437459426E+02 0.  0.
          2    1    3    3  502    0 -0.58845397666E+02 -0.18965666219E+03  0.11958749334E+03  0.23180508818E+03  0.00000000000E+00 0. -1.
         -1    1    3    3    0  502 -0.24827385949E+03 -0.66578335709E+03  0.25940717161E+03  0.75643867469E+03  0.00000000000E+00 0.  1.
         13    1    5    5    0    0  0.33958262683E+03  0.42377392139E+03 -0.32427850389E+03  0.63250078654E+03  0.00000000000E+00 0.  1.
        -13    1    5    5    0    0  0.35944104699E+02  0.54758638682E+02 -0.80634881915E+02  0.10388681993E+03  0.00000000000E+00 0. -1.
          3    1    6    6  503    0  0.26326488451E+01  0.29834198781E+02  0.29458064566E+01  0.30094651227E+02  0.00000000000E+00 0. -1.
         -3    1    6    6    0  503 -0.71040123222E+02  0.34707326043E+03  0.37115943432E+03  0.51309440935E+03  0.00000000000E+00 0.  1.
<mgrwt>
<rscale>  0 0.22409319E+04</rscale>
<asrwt>0</asrwt>
<pdfrwt beam="1">  1        2 0.14766415E+00 0.22409319E+04</pdfrwt>
<pdfrwt beam="2">  1       -1 0.20123130E+00 0.22409319E+04</pdfrwt>
<totfact> 0.41016289E+00</totfact>
</mgrwt>
</event>
<event>
12    7  0.1711607E-007  0.1228772E+04  0.7818608E-02  0.9088039E-01
         -1   -1    0    0    0  501 -0.00000000000E+00  0.00000000000E+00  0.93898677128E+02  0.93898677128E+02  0.00000000000E+00 0.  1.
          2   -1    0    0  501    0  0.00000000000E+00 -0.00000000000E+00 -0.40199702161E+04  0.40199702161E+04  0.00000000000E+00 0. -1.
         24    2    1    2    0    0  0.16256525006E+03 -0.15654893844E+03 -0.39794190475E+03  0.46441210830E+03  0.79911301598E+02 0.  0.
        254    2    1    2    0    0 -0.16256525006E+03  0.15654893844E+03 -0.35281296342E+04  0.36494567849E+04  0.90548389194E+03 0.  0.
         23    2    4    4    0    0  0.14954952485E+03 -0.23303094322E+03 -0.49584964314E+03  0.57498572781E+03  0.89851197502E+02 0.  0.
         23    2    4    4    0    0 -0.31211477491E+03  0.38957988166E+03 -0.30322799911E+04  0.30744710571E+04  0.91990325075E+02 0.  0.
          4    1    3    3  502    0  0.19381408677E+01 -0.41131667341E+02 -0.79784325737E+02  0.89783679372E+02  0.00000000000E+00 0. -1.
         -3    1    3    3    0  502  0.16062710919E+03 -0.11541727110E+03 -0.31815757901E+03  0.37462842892E+03  0.00000000000E+00 0.  1.
         13    1    5    5    0    0  0.31123601268E+02 -0.67687234338E+02 -0.66332809271E+02  0.99751099412E+02  0.00000000000E+00 0. -1.
        -13    1    5    5    0    0  0.11842592359E+03 -0.16534370888E+03 -0.42951683387E+03  0.47523462839E+03  0.00000000000E+00 0.  1.
          3    1    6    6  503    0 -0.64481192668E+02  0.14629578549E+03 -0.10252244021E+04  0.10376152253E+04  0.00000000000E+00 0. -1.
         -3    1    6    6    0  503 -0.24763358225E+03  0.24328409617E+03 -0.20070555890E+04  0.20368558319E+04  0.00000000000E+00 0.  1.
<mgrwt>
<rscale>  0 0.12287716E+04</rscale>
<asrwt>0</asrwt>
<pdfrwt beam="1">  1        2 0.61845698E+00 0.12287716E+04</pdfrwt>
<pdfrwt beam="2">  1       -1 0.14445950E-01 0.12287716E+04</pdfrwt>
<totfact> 0.13443049E+01</totfact>
</mgrwt>
</event>
<event>
12    7  0.1711607E-007  0.2581380E+04  0.7818608E-02  0.8374553E-01
         -1   -1    0    0    0  501 -0.00000000000E+00  0.00000000000E+00  0.83750456290E+03  0.83750456290E+03  0.00000000000E+00 0.  1.
          2   -1    0    0  501    0  0.00000000000E+00 -0.00000000000E+00 -0.19891009780E+04  0.19891009780E+04  0.00000000000E+00 0. -1.
         24    2    1    2    0    0 -0.22344695685E+03  0.12393026699E+02  0.71212093449E+03  0.75114994314E+03  0.83832464508E+02 0.  0.
        254    2    1    2    0    0  0.22344695685E+03 -0.12393026699E+02 -0.18637173496E+04  0.20754555977E+04  0.88543291643E+03 0.  0.
         23    2    4    4    0    0 -0.30487804441E+02 -0.10893510273E+03 -0.17661806806E+04  0.17723393561E+04  0.94848478753E+02 0.  0.
         23    2    4    4    0    0  0.25393476129E+03  0.96542076027E+02 -0.97536668956E+02  0.30311624161E+03  0.92535499683E+02 0.  0.
          4    1    3    3  502    0 -0.97830147829E+02 -0.13074710335E+02  0.43148664886E+03  0.44263123932E+03  0.00000000000E+00 0. -1.
         -3    1    3    3    0  502 -0.12561680902E+03  0.25467737034E+02  0.28063428562E+03  0.30851870382E+03  0.00000000000E+00 0.  1.
         13    1    5    5    0    0 -0.82817114865E+01 -0.10485867381E+03 -0.16787035258E+04  0.16819956765E+04  0.00000000000E+00 0. -1.
        -13    1    5    5    0    0 -0.22206092954E+02 -0.40764289164E+01 -0.87477154781E+02  0.90343679610E+02  0.00000000000E+00 0.  1.
          3    1    6    6  503    0  0.24643016329E+03  0.10826981961E+03 -0.10294383928E+03  0.28817982800E+03  0.00000000000E+00 0. -1.
         -3    1    6    6    0  503  0.75045979983E+01 -0.11727743581E+02  0.54071703290E+01  0.14936413612E+02  0.00000000000E+00 0.  1.
<mgrwt>
<rscale>  0 0.25813804E+04</rscale>
<asrwt>0</asrwt>
<pdfrwt beam="1">  1        2 0.30601553E+00 0.25813804E+04</pdfrwt>
<pdfrwt beam="2">  1       -1 0.12884686E+00 0.25813804E+04</pdfrwt>
<totfact> 0.35422197E+00</totfact>
</mgrwt>
</event>
<event>
12    7  0.1711607E-007  0.2267974E+04  0.7818608E-02  0.8490657E-01
          2   -1    0    0  501    0  0.00000000000E+00  0.00000000000E+00  0.12560662416E+04  0.12560662416E+04  0.00000000000E+00 0. -1.
         -1   -1    0    0    0  501 -0.00000000000E+00 -0.00000000000E+00 -0.10237730214E+04  0.10237730214E+04  0.00000000000E+00 0.  1.
         24    2    1    2    0    0  0.43115467857E+03  0.12398312011E+03 -0.74566437362E+03  0.87384726976E+03  0.79545721835E+02 0.  0.
        254    2    1    2    0    0 -0.43115467857E+03 -0.12398312011E+03  0.97795759376E+03  0.14059919932E+04  0.90506699133E+03 0.  0.
         23    2    4    4    0    0 -0.31417191086E+03  0.29837450223E+03  0.15433536904E+03  0.46868621945E+03  0.90089028244E+02 0.  0.
         23    2    4    4    0    0 -0.11698276772E+03 -0.42235762234E+03  0.82362222472E+03  0.93730577375E+03  0.90097809924E+02 0.  0.
          2    1    3    3  502    0  0.27871111211E+03  0.10669247205E+03 -0.43734722013E+03  0.52946742918E+03  0.00000000000E+00 0. -1.
         -1    1    3    3    0  502  0.15244356646E+03  0.17290648063E+02 -0.30831715349E+03  0.34437984058E+03  0.00000000000E+00 0.  1.
         13    1    5    5    0    0 -0.17789967574E+03  0.13991848977E+03  0.12227298627E+03  0.25724727710E+03  0.00000000000E+00 0. -1.
        -13    1    5    5    0    0 -0.13627223512E+03  0.15845601246E+03  0.32062382771E+02  0.21143894234E+03  0.00000000000E+00 0.  1.
          3    1    6    6  503    0 -0.10415744280E+03 -0.38480762480E+03  0.67940042712E+03  0.78772496556E+03  0.00000000000E+00 0. -1.
         -3    1    6    6    0  503 -0.12825324918E+02 -0.37549997539E+02  0.14422179761E+03  0.14958080819E+03  0.00000000000E+00 0.  1.
<mgrwt>
<rscale>  0 0.22679742E+04</rscale>
<asrwt>0</asrwt>
<pdfrwt beam="1">  1        2 0.19324096E+00 0.22679742E+04</pdfrwt>
<pdfrwt beam="2">  1       -1 0.15750354E+00 0.22679742E+04</pdfrwt>
<totfact> 0.55493385E+00</totfact>
</mgrwt>
</event>
<event>
12    7  0.1711607E-007  0.3092206E+04  0.7818608E-02  0.8217880E-01
          2   -1    0    0  501    0  0.00000000000E+00  0.00000000000E+00  0.31342518955E+04  0.31342518955E+04  0.00000000000E+00 0. -1.
         -1   -1    0    0    0  501 -0.00000000000E+00 -0.00000000000E+00 -0.76268110616E+03  0.76268110616E+03  0.00000000000E+00 0.  1.
         24    2    1    2    0    0  0.66570841009E+03  0.89458021868E+03  0.21899517514E+04  0.24588416174E+04  0.81067694694E+02 0.  0.
        254    2    1    2    0    0 -0.66570841009E+03 -0.89458021868E+03  0.18161903798E+03  0.14380913843E+04  0.88976395729E+03 0.  0.
         23    2    4    4    0    0 -0.35918017412E+02 -0.39041310003E+03  0.42974664244E+03  0.58902327494E+03  0.92486480558E+02 0.  0.
         23    2    4    4    0    0 -0.62979039268E+03 -0.50416711865E+03 -0.24812760446E+03  0.84906810935E+03  0.92352173679E+02 0.  0.
          4    1    3    3  502    0  0.53552068408E+03  0.75642644612E+03  0.18622136753E+04  0.20800969073E+04  0.00000000000E+00 0. -1.
         -3    1    3    3    0  502  0.13018772601E+03  0.13815377256E+03  0.32773807609E+03  0.37874471006E+03  0.00000000000E+00 0.  1.
         13    1    5    5    0    0  0.20649570869E+02 -0.24432620228E+03  0.28190559883E+03  0.37362074962E+03  0.00000000000E+00 0. -1.
        -13    1    5    5    0    0 -0.56567588281E+02 -0.14608689775E+03  0.14784104361E+03  0.21540252531E+03  0.00000000000E+00 0.  1.
          3    1    6    6  503    0 -0.32515167281E+03 -0.24391874409E+03 -0.17134084844E+03  0.44110956734E+03  0.00000000000E+00 0. -1.
         -3    1    6    6    0  503 -0.30463871987E+03 -0.26024837456E+03 -0.76786756020E+02  0.40795854202E+03  0.00000000000E+00 0.  1.
<mgrwt>
<rscale>  0 0.30922061E+04</rscale>
<asrwt>0</asrwt>
<pdfrwt beam="1">  1        2 0.48219259E+00 0.30922061E+04</pdfrwt>
<pdfrwt beam="2">  1       -1 0.11733556E+00 0.30922061E+04</pdfrwt>
<totfact> 0.90209046E-01</totfact>
</mgrwt>
</event>
<event>
12    7  0.1711607E-007  0.1250048E+04  0.7818608E-02  0.9070143E-01
         -1   -1    0    0    0  501 -0.00000000000E+00  0.00000000000E+00  0.25802265267E+03  0.25802265267E+03  0.00000000000E+00 0.  1.
          2   -1    0    0  501    0  0.00000000000E+00 -0.00000000000E+00 -0.15140332604E+04  0.15140332604E+04  0.00000000000E+00 0. -1.
         24    2    1    2    0    0  0.25369213096E+03  0.21134716126E+02 -0.50614246336E+03  0.57212242391E+03  0.79608424139E+02 0.  0.
        254    2    1    2    0    0 -0.25369213096E+03 -0.21134716126E+02 -0.74986814438E+03  0.11999334892E+04  0.90151637307E+03 0.  0.
         23    2    4    4    0    0 -0.13697415535E+03  0.12992281588E+03 -0.91048994098E+03  0.93415661881E+03  0.89525407136E+02 0.  0.
         23    2    4    4    0    0 -0.11671797561E+03 -0.15105753200E+03  0.16062179660E+03  0.26577687035E+03  0.91632524067E+02 0.  0.
          2    1    3    3  502    0  0.24644864644E+03  0.20002491971E+02 -0.43308449426E+03  0.49869751773E+03  0.00000000000E+00 0. -1.
         -1    1    3    3    0  502  0.72434845110E+01  0.11322241553E+01 -0.73057969097E+02  0.73424906183E+02  0.00000000000E+00 0.  1.
         13    1    5    5    0    0 -0.79201305899E+02  0.15478428353E+02 -0.36091398321E+03  0.36982608329E+03  0.00000000000E+00 0.  1.
        -13    1    5    5    0    0 -0.57772849451E+02  0.11444438752E+03 -0.54957595776E+03  0.56433053552E+03  0.00000000000E+00 0. -1.
          3    1    6    6  503    0 -0.33078999094E+02 -0.45129978877E+01  0.84043294338E+00  0.33396012615E+02  0.00000000000E+00 0. -1.
         -3    1    6    6    0  503 -0.83638976511E+02 -0.14654453412E+03  0.15978136366E+03  0.23238085774E+03  0.00000000000E+00 0.  1.
<mgrwt>
<rscale>  0 0.12500478E+04</rscale>
<asrwt>0</asrwt>
<pdfrwt beam="1">  1        2 0.23292820E+00 0.12500478E+04</pdfrwt>
<pdfrwt beam="2">  1       -1 0.39695792E-01 0.12500478E+04</pdfrwt>
<totfact> 0.86242081E+01</totfact>
</mgrwt>
</event>
<event>
12    7  0.1711607E-007  0.2077458E+04  0.7818608E-02  0.8571239E-01
         -1   -1    0    0    0  501 -0.00000000000E+00  0.00000000000E+00  0.37396189980E+03  0.37396189980E+03  0.00000000000E+00 0.  1.
          2   -1    0    0  501    0  0.00000000000E+00 -0.00000000000E+00 -0.28852085532E+04  0.28852085532E+04  0.00000000000E+00 0. -1.
         24    2    1    2    0    0 -0.16789961909E+03  0.73956116746E+03 -0.44896059952E+03  0.88472193221E+03  0.77629085419E+02 0.  0.
        254    2    1    2    0    0  0.16789961909E+03 -0.73956116746E+03 -0.20622860539E+04  0.23744485208E+04  0.89991166643E+03 0.  0.
         23    2    4    4    0    0  0.16370847496E+02 -0.25797711419E+03 -0.26764994000E+02  0.27523767604E+03  0.90659899153E+02 0.  0.
         23    2    4    4    0    0  0.15152877159E+03 -0.48158405327E+03 -0.20355210599E+04  0.20992108447E+04  0.91956601385E+02 0.  0.
          4    1    3    3  502    0 -0.17349813786E+03  0.72135363246E+03 -0.44537377993E+03  0.86533835622E+03  0.00000000000E+00 0. -1.
         -3    1    3    3    0  502  0.55985187726E+01  0.18207534997E+02 -0.35868195976E+01  0.19383575984E+02  0.00000000000E+00 0.  1.
         13    1    5    5    0    0  0.15832240458E+02 -0.13645129914E+03  0.30782994025E+02  0.14077361115E+03  0.00000000000E+00 0. -1.
        -13    1    5    5    0    0  0.53860703787E+00 -0.12152581505E+03 -0.57547988025E+02  0.13446406489E+03  0.00000000000E+00 0.  1.
          4    1    6    6  503    0  0.14885614562E+03 -0.44529848515E+03 -0.19590041440E+04  0.20144840851E+04  0.00000000000E+00 0. -1.
         -4    1    6    6    0  503  0.26726259736E+01 -0.36285568113E+02 -0.76516915839E+02  0.84726759600E+02  0.00000000000E+00 0.  1.
<mgrwt>
<rscale>  0 0.20774581E+04</rscale>
<asrwt>0</asrwt>
<pdfrwt beam="1">  1        2 0.44387823E+00 0.20774581E+04</pdfrwt>
<pdfrwt beam="2">  1       -1 0.57532601E-01 0.20774581E+04</pdfrwt>
<totfact> 0.66058093E+00</totfact>
</mgrwt>
</event>
<event>
12    7  0.1711607E-007  0.1471813E+04  0.7818608E-02  0.8903416E-01
          2   -1    0    0  501    0  0.00000000000E+00  0.00000000000E+00  0.14429935908E+04  0.14429935908E+04  0.00000000000E+00 0. -1.
         -1   -1    0    0    0  501 -0.00000000000E+00 -0.00000000000E+00 -0.37530190275E+03  0.37530190275E+03  0.00000000000E+00 0.  1.
         24    2    1    2    0    0  0.23553348846E+02  0.20094470526E+03  0.83950878551E+03  0.86687964916E+03  0.75972300025E+02 0.  0.
        254    2    1    2    0    0 -0.23553348846E+02 -0.20094470526E+03  0.22818290255E+03  0.95141584440E+03  0.90121647630E+03 0.  0.
         23    2    4    4    0    0 -0.81279913567E+02 -0.54681625877E+03  0.11321593305E+03  0.57128139611E+03  0.89051338225E+02 0.  0.
         23    2    4    4    0    0  0.57726564721E+02  0.34587155352E+03  0.11496696951E+03  0.38013444829E+03  0.91243119707E+02 0.  0.
          2    1    3    3  502    0 -0.49589995991E+01  0.99693398090E+02  0.54698697949E+03  0.55601989266E+03  0.00000000000E+00 0. -1.
         -1    1    3    3    0  502  0.28512348445E+02  0.10125130717E+03  0.29252180602E+03  0.31085975651E+03  0.00000000000E+00 0.  1.
         13    1    5    5    0    0 -0.64205885201E+02 -0.15526253214E+03  0.32386119339E+02  0.17110730641E+03  0.00000000000E+00 0. -1.
        -13    1    5    5    0    0 -0.17074028366E+02 -0.39155372663E+03  0.80829813706E+02  0.40017408970E+03  0.00000000000E+00 0.  1.
          4    1    6    6  503    0 -0.50403555821E+01  0.30731075610E+02 -0.13672853166E+02  0.34011043887E+02  0.00000000000E+00 0. -1.
         -4    1    6    6    0  503  0.62766920303E+02  0.31514047791E+03  0.12863982267E+03  0.34612340440E+03  0.00000000000E+00 0.  1.
<mgrwt>
<rscale>  0 0.14718128E+04</rscale>
<asrwt>0</asrwt>
<pdfrwt beam="1">  1        2 0.22199901E+00 0.14718128E+04</pdfrwt>
<pdfrwt beam="2">  1       -1 0.57738755E-01 0.14718128E+04</pdfrwt>
<totfact> 0.45843958E+01</totfact>
</mgrwt>
</event>
<event>
12    7  0.1711607E-007  0.1661451E+04  0.7818608E-02  0.8783661E-01
         -1   -1    0    0    0  501 -0.00000000000E+00  0.00000000000E+00  0.43411068417E+03  0.43411068417E+03  0.00000000000E+00 0.  1.
          2   -1    0    0  501    0  0.00000000000E+00 -0.00000000000E+00 -0.15896984816E+04  0.15896984816E+04  0.00000000000E+00 0. -1.
         24    2    1    2    0    0 -0.54951050743E+03  0.11392726680E+03 -0.62148858695E+03  0.84101432848E+03  0.78203689816E+02 0.  0.
        254    2    1    2    0    0  0.54951050743E+03 -0.11392726680E+03 -0.53409921053E+03  0.11827948373E+04  0.89375636536E+03 0.  0.
         23    2    4    4    0    0 -0.16971251818E+03  0.31328342665E+02  0.84951271406E+02  0.21831681756E+03  0.10325555884E+03 0.  0.
         23    2    4    4    0    0  0.71922302561E+03 -0.14525560947E+03 -0.61905048193E+03  0.96447801977E+03  0.92808398263E+02 0.  0.
          2    1    3    3  502    0 -0.48780667205E+03  0.12353381520E+03 -0.56747705489E+03  0.75844984054E+03  0.00000000000E+00 0. -1.
         -1    1    3    3    0  502 -0.61703835380E+02 -0.96065483945E+01 -0.54011532063E+02  0.82564487938E+02  0.00000000000E+00 0.  1.
         13    1    5    5    0    0 -0.10261965247E+03  0.26835737022E+02  0.10387464513E+03  0.14846175183E+03  0.00000000000E+00 0. -1.
        -13    1    5    5    0    0 -0.67092865711E+02  0.44926056428E+01 -0.18923373724E+02  0.69855065728E+02  0.00000000000E+00 0.  1.
          3    1    6    6  503    0  0.52116616114E+03 -0.11836846180E+03 -0.39725629107E+03  0.66591127116E+03  0.00000000000E+00 0. -1.
         -3    1    6    6    0  503  0.19805686447E+03 -0.26887147666E+02 -0.22179419087E+03  0.29856674861E+03  0.00000000000E+00 0.  1.
<mgrwt>
<rscale>  0 0.16614513E+04</rscale>
<asrwt>0</asrwt>
<pdfrwt beam="1">  1        2 0.24456900E+00 0.16614513E+04</pdfrwt>
<pdfrwt beam="2">  1       -1 0.66786259E-01 0.16614513E+04</pdfrwt>
<totfact> 0.27911800E+01</totfact>
</mgrwt>
</event>
<event>
12    7  0.1711607E-007  0.1407825E+04  0.7818608E-02  0.8948174E-01
         -1   -1    0    0    0  501 -0.00000000000E+00  0.00000000000E+00  0.18510395529E+03  0.18510395529E+03  0.00000000000E+00 0.  1.
          2   -1    0    0  501    0  0.00000000000E+00 -0.00000000000E+00 -0.26768357579E+04  0.26768357579E+04  0.00000000000E+00 0. -1.
         24    2    1    2    0    0  0.37504563535E+03  0.82979548169E+02 -0.56528631474E+03  0.68793121208E+03  0.78459549560E+02 0.  0.
        254    2    1    2    0    0 -0.37504563535E+03 -0.82979548169E+02 -0.19264454878E+04  0.21740085011E+04  0.93143755083E+03 0.  0.
         23    2    4    4    0    0  0.12606275873E+03  0.13694105155E+03 -0.13790438339E+04  0.13946174472E+04  0.92473009608E+02 0.  0.
         23    2    4    4    0    0 -0.50110839408E+03 -0.21992059972E+03 -0.54740165391E+03  0.77939105383E+03  0.91253226168E+02 0.  0.
          4    1    3    3  502    0  0.10029146170E+03  0.35279163890E+00 -0.19717697205E+03  0.22121767574E+03  0.00000000000E+00 0. -1.
         -3    1    3    3    0  502  0.27475417365E+03  0.82626756530E+02 -0.36810934268E+03  0.46671353634E+03  0.00000000000E+00 0.  1.
         13    1    5    5    0    0  0.68217941438E+02  0.31948283207E+02 -0.31686657853E+03  0.32569741928E+03  0.00000000000E+00 0.  1.
        -13    1    5    5    0    0  0.57844817293E+02  0.10499276835E+03 -0.10621772554E+04  0.10689200280E+04  0.00000000000E+00 0. -1.
          2    1    6    6  503    0 -0.40991601540E+03 -0.21218124010E+03 -0.43296844971E+03  0.63286151469E+03  0.00000000000E+00 0. -1.
         -2    1    6    6    0  503 -0.91192378681E+02 -0.77393596214E+01 -0.11443320420E+03  0.14652953914E+03  0.00000000000E+00 0.  1.
<mgrwt>
<rscale>  0 0.14078251E+04</rscale>
<asrwt>0</asrwt>
<pdfrwt beam="1">  1        2 0.41182091E+00 0.14078251E+04</pdfrwt>
<pdfrwt beam="2">  1       -1 0.28477530E-01 0.14078251E+04</pdfrwt>
<totfact> 0.34125650E+01</totfact>
</mgrwt>
</event>
<event>
12    7  0.1711607E-007  0.1392199E+04  0.7818608E-02  0.8959485E-01
         -1   -1    0    0    0  501 -0.00000000000E+00  0.00000000000E+00  0.10286040719E+04  0.10286040719E+04  0.00000000000E+00 0.  1.
          2   -1    0    0  501    0  0.00000000000E+00 -0.00000000000E+00 -0.47107985158E+03  0.47107985158E+03  0.00000000000E+00 0. -1.
         24    2    1    2    0    0 -0.36444592276E+03 -0.10514371786E+03  0.23405821455E+03  0.45267736658E+03  0.79104477718E+02 0.  0.
        254    2    1    2    0    0  0.36444592276E+03  0.10514371786E+03  0.32346600574E+03  0.10470065569E+04  0.92071517920E+03 0.  0.
         23    2    4    4    0    0  0.37232771500E+03  0.43205460304E+03  0.39346736440E+03  0.69882027227E+03  0.90741934715E+02 0.  0.
         23    2    4    4    0    0 -0.78817922395E+01 -0.32691088518E+03 -0.70001358665E+02  0.34818628459E+03  0.96956944369E+02 0.  0.
          2    1    3    3  502    0 -0.13723105055E+03 -0.11435398645E+02  0.53634039648E+02  0.14778274522E+03  0.00000000000E+00 0. -1.
         -1    1    3    3    0  502 -0.22721487221E+03 -0.93708319213E+02  0.18042417490E+03  0.30489462136E+03  0.00000000000E+00 0.  1.
         13    1    5    5    0    0  0.26724113917E+02  0.16934907788E+02  0.19501615707E+01  0.31698146580E+02  0.00000000000E+00 0. -1.
        -13    1    5    5    0    0  0.34560360108E+03  0.41511969525E+03  0.39151720283E+03  0.66712212569E+03  0.00000000000E+00 0.  1.
          1    1    6    6  503    0  0.26873472631E+02 -0.22605811905E+03 -0.14937317764E+02  0.22813938761E+03  0.00000000000E+00 0. -1.
         -1    1    6    6    0  503 -0.34755264870E+02 -0.10085276614E+03 -0.55064040900E+02  0.12004689698E+03  0.00000000000E+00 0.  1.
<mgrwt>
<rscale>  0 0.13921992E+04</rscale>
<asrwt>0</asrwt>
<pdfrwt beam="1">  1        2 0.72473824E-01 0.13921992E+04</pdfrwt>
<pdfrwt beam="2">  1       -1 0.15824678E+00 0.13921992E+04</pdfrwt>
<totfact> 0.22145893E+01</totfact>
</mgrwt>
</event>
<event>
12    7  0.1711607E-007  0.2071098E+04  0.7818608E-02  0.8574083E-01
          2   -1    0    0  501    0  0.00000000000E+00  0.00000000000E+00  0.20458295416E+04  0.20458295416E+04  0.00000000000E+00 0. -1.
         -1   -1    0    0    0  501 -0.00000000000E+00 -0.00000000000E+00 -0.52416952505E+03  0.52416952505E+03  0.00000000000E+00 0.  1.
         24    2    1    2    0    0 -0.33354939128E+03 -0.71586646550E+03  0.96352916653E+03  0.12484774419E+04  0.81163263553E+02 0.  0.
        254    2    1    2    0    0  0.33354939128E+03  0.71586646550E+03  0.55813085007E+03  0.13215216248E+04  0.90066051659E+03 0.  0.
         23    2    4    4    0    0  0.98268334741E+02  0.19284472601E+02 -0.21260228347E+03  0.25242057206E+03  0.92129570534E+02 0.  0.
         23    2    4    4    0    0  0.23528105653E+03  0.69658199290E+03  0.77073313354E+03  0.10691010527E+04  0.91454083654E+02 0.  0.
          4    1    3    3  502    0 -0.27555898940E+03 -0.63885373103E+03  0.87193458258E+03  0.11154984368E+04  0.00000000000E+00 0. -1.
         -3    1    3    3    0  502 -0.57990401872E+02 -0.77012734464E+02  0.91594583944E+02  0.13297900506E+03  0.00000000000E+00 0.  1.
         13    1    5    5    0    0  0.11075548307E+03 -0.25935472792E+00 -0.19064968884E+03  0.22048616317E+03  0.00000000000E+00 0. -1.
        -13    1    5    5    0    0 -0.12487148332E+02  0.19543827329E+02 -0.21952594635E+02  0.31934408893E+02  0.00000000000E+00 0.  1.
          3    1    6    6  503    0  0.15550683622E+03  0.56336070505E+03  0.63301433803E+03  0.86154791640E+03  0.00000000000E+00 0. -1.
         -3    1    6    6    0  503  0.79774220312E+02  0.13322128785E+03  0.13771879551E+03  0.20755313633E+03  0.00000000000E+00 0.  1.
<mgrwt>
<rscale>  0 0.20710978E+04</rscale>
<asrwt>0</asrwt>
<pdfrwt beam="1">  1        2 0.31474300E+00 0.20710978E+04</pdfrwt>
<pdfrwt beam="2">  1       -1 0.80641466E-01 0.20710978E+04</pdfrwt>
<totfact> 0.10158440E+01</totfact>
</mgrwt>
</event>
<event>
12    7  0.1711607E-007  0.2100264E+04  0.7818608E-02  0.8561127E-01
         -1   -1    0    0    0  501 -0.00000000000E+00  0.00000000000E+00  0.58809311995E+03  0.58809311995E+03  0.00000000000E+00 0.  1.
          2   -1    0    0  501    0  0.00000000000E+00 -0.00000000000E+00 -0.18751738308E+04  0.18751738308E+04  0.00000000000E+00 0. -1.
         24    2    1    2    0    0 -0.65534695956E+03 -0.51424440611E+03 -0.61053422151E+03  0.10358776343E+04  0.79771492676E+02 0.  0.
        254    2    1    2    0    0  0.65534695956E+03  0.51424440611E+03 -0.67654648933E+03  0.14273893164E+04  0.94116850870E+03 0.  0.
         23    2    4    4    0    0  0.29798215569E+03  0.68122381249E+03 -0.15237260567E+03  0.76457277397E+03  0.92167607832E+02 0.  0.
         23    2    4    4    0    0  0.35736480387E+03 -0.16697940637E+03 -0.52417388367E+03  0.66281654245E+03  0.94740611266E+02 0.  0.
          2    1    3    3  502    0 -0.29381156881E+02 -0.28848977270E+02 -0.11479124389E+02  0.42746767900E+02  0.00000000000E+00 0. -1.
         -1    1    3    3    0  502 -0.62596580268E+03 -0.48539542884E+03 -0.59905509712E+03  0.99313086643E+03  0.00000000000E+00 0.  1.
         13    1    5    5    0    0  0.89333079867E+02  0.31396812441E+03 -0.79104108564E+02  0.33587771926E+03  0.00000000000E+00 0. -1.
        -13    1    5    5    0    0  0.20864907583E+03  0.36725568808E+03 -0.73268497102E+02  0.42869505472E+03  0.00000000000E+00 0.  1.
          1    1    6    6  503    0  0.35132207884E+03 -0.14260228893E+03 -0.50343612200E+03  0.63024641596E+03  0.00000000000E+00 0. -1.
         -1    1    6    6    0  503  0.60427250271E+01 -0.24377117442E+02 -0.20737761663E+02  0.32570126486E+02  0.00000000000E+00 0.  1.
<mgrwt>
<rscale>  0 0.21002636E+04</rscale>
<asrwt>0</asrwt>
<pdfrwt beam="1">  1        2 0.28848828E+00 0.21002636E+04</pdfrwt>
<pdfrwt beam="2">  1       -1 0.90475865E-01 0.21002636E+04</pdfrwt>
<totfact> 0.98184291E+00</totfact>
</mgrwt>
</event>
<event>
12    7  0.1711607E-007  0.1067301E+04  0.7818608E-02  0.9237662E-01
         -3   -1    0    0    0  501 -0.00000000000E+00  0.00000000000E+00  0.11635641915E+04  0.11635641915E+04  0.00000000000E+00 0.  1.
          4   -1    0    0  501    0  0.00000000000E+00 -0.00000000000E+00 -0.24475049643E+03  0.24475049643E+03  0.00000000000E+00 0. -1.
         24    2    1    2    0    0 -0.11829688136E+03  0.14713169941E+03  0.83816402601E+02  0.22128405152E+03  0.79369723469E+02 0.  0.
        254    2    1    2    0    0  0.11829688136E+03 -0.14713169941E+03  0.83499729245E+03  0.11870306364E+04  0.82230126122E+03 0.  0.
         23    2    4    4    0    0 -0.41545179837E+02 -0.44174562415E+03  0.28198969609E+03  0.53388177525E+03  0.92985820499E+02 0.  0.
         23    2    4    4    0    0  0.15984206120E+03  0.29461392475E+03  0.55300759636E+03  0.65314886113E+03  0.91865031361E+02 0.  0.
          2    1    3    3  502    0 -0.94457229599E+02  0.12650204500E+03  0.32699725770E+02  0.16122719274E+03  0.00000000000E+00 0. -1.
         -1    1    3    3    0  502 -0.23839651763E+02  0.20629654410E+02  0.51116676831E+02  0.60056858788E+02  0.00000000000E+00 0.  1.
         13    1    5    5    0    0  0.48937408667E+01 -0.20072546784E+01  0.18287077086E+02  0.19036674062E+02  0.00000000000E+00 0. -1.
        -13    1    5    5    0    0 -0.46438920703E+02 -0.43973836948E+03  0.26370261901E+03  0.51484510119E+03  0.00000000000E+00 0.  1.
          1    1    6    6  503    0  0.12545285384E+02  0.53518445887E+02  0.41778115744E+02  0.69043603546E+02  0.00000000000E+00 0. -1.
         -1    1    6    6    0  503  0.14729677581E+03  0.24109547886E+03  0.51122948061E+03  0.58410525759E+03  0.00000000000E+00 0.  1.
<mgrwt>
<rscale>  0 0.10673011E+04</rscale>
<asrwt>0</asrwt>
<pdfrwt beam="1">  1        4 0.37653923E-01 0.10673011E+04</pdfrwt>
<pdfrwt beam="2">  1       -3 0.17900987E+00 0.10673011E+04</pdfrwt>
<totfact> 0.31457664E+00</totfact>
</mgrwt>
</event>
<event>
12    7  0.1711607E-007  0.1834389E+04  0.7818608E-02  0.8688223E-01
         -1   -1    0    0    0  501 -0.00000000000E+00  0.00000000000E+00  0.75424428915E+03  0.75424428915E+03  0.00000000000E+00 0.  1.
          2   -1    0    0  501    0  0.00000000000E+00 -0.00000000000E+00 -0.11153491269E+04  0.11153491269E+04  0.00000000000E+00 0. -1.
         24    2    1    2    0    0  0.36484342923E+03  0.55031637940E+03  0.79602615629E+02  0.66988757257E+03  0.80336406290E+02 0.  0.
        254    2    1    2    0    0 -0.36484342923E+03 -0.55031637940E+03 -0.44070745334E+03  0.11997058434E+04  0.89950664591E+03 0.  0.
         23    2    4    4    0    0 -0.28865433176E+03  0.17442628926E+03 -0.11501034679E+02  0.34929876868E+03  0.90174843375E+02 0.  0.
         23    2    4    4    0    0 -0.76189097476E+02 -0.72474266867E+03 -0.42920641866E+03  0.85040707475E+03  0.88979371767E+02 0.  0.
          4    1    3    3  502    0  0.15085091449E+03  0.21472467061E+03 -0.72128113807E+01  0.26251610850E+03  0.00000000000E+00 0. -1.
         -3    1    3    3    0  502  0.21399251474E+03  0.33559170879E+03  0.86815427010E+02  0.40737146407E+03  0.00000000000E+00 0.  1.
         13    1    5    5    0    0 -0.23855623055E+03  0.15418908713E+03 -0.42183886731E+02  0.28716342041E+03  0.00000000000E+00 0.  1.
        -13    1    5    5    0    0 -0.50098101209E+02  0.20237202136E+02  0.30682852052E+02  0.62135348274E+02  0.00000000000E+00 0. -1.
          3    1    6    6  503    0 -0.40079016288E+02 -0.12164494506E+03 -0.52560084727E+02  0.13844270552E+03  0.00000000000E+00 0. -1.
         -3    1    6    6    0  503 -0.36110081188E+02 -0.60309772361E+03 -0.37664633393E+03  0.71196436923E+03  0.00000000000E+00 0.  1.
<mgrwt>
<rscale>  0 0.18343890E+04</rscale>
<asrwt>0</asrwt>
<pdfrwt beam="1">  1        2 0.17159217E+00 0.18343890E+04</pdfrwt>
<pdfrwt beam="2">  1       -1 0.11603758E+00 0.18343890E+04</pdfrwt>
<totfact> 0.15376845E+01</totfact>
</mgrwt>
</event>
<event>
12    7  0.1711607E-007  0.1348673E+04  0.7818608E-02  0.8991833E-01
         -1   -1    0    0    0  501 -0.00000000000E+00  0.00000000000E+00  0.40627784501E+03  0.40627784501E+03  0.00000000000E+00 0.  1.
          2   -1    0    0  501    0  0.00000000000E+00 -0.00000000000E+00 -0.11192575492E+04  0.11192575492E+04  0.00000000000E+00 0. -1.
         24    2    1    2    0    0 -0.19418848293E+03  0.24728898663E+03  0.19123730193E+02  0.32416285648E+03  0.76516865124E+02 0.  0.
        254    2    1    2    0    0  0.19418848293E+03 -0.24728898663E+03 -0.73210343434E+03  0.12013725377E+04  0.89914377378E+03 0.  0.
         23    2    4    4    0    0  0.43541526824E+03 -0.37075484616E+02 -0.74496399847E+03  0.86812114068E+03  0.87760517914E+02 0.  0.
         23    2    4    4    0    0 -0.24122678531E+03 -0.21021350202E+03  0.12860564124E+02  0.33325139701E+03  0.92255195625E+02 0.  0.
          4    1    3    3  502    0 -0.65053799430E+01  0.34725035260E+02 -0.15333709514E+02  0.38513253426E+02  0.00000000000E+00 0. -1.
         -3    1    3    3    0  502 -0.18768310299E+03  0.21256395137E+03  0.34457439707E+02  0.28564960305E+03  0.00000000000E+00 0.  1.
         13    1    5    5    0    0  0.21961217378E+03 -0.61305285457E+02 -0.40306312727E+03  0.46308501321E+03  0.00000000000E+00 0. -1.
        -13    1    5    5    0    0  0.21580309446E+03  0.24229800841E+02 -0.34190087120E+03  0.40503612747E+03  0.00000000000E+00 0.  1.
          4    1    6    6  503    0 -0.16920615906E+03 -0.10033468746E+03  0.35619042189E+02  0.19991620729E+03  0.00000000000E+00 0. -1.
         -4    1    6    6    0  503 -0.72020626250E+02 -0.10987881456E+03 -0.22758478065E+02  0.13333518972E+03  0.00000000000E+00 0.  1.
<mgrwt>
<rscale>  0 0.13486727E+04</rscale>
<asrwt>0</asrwt>
<pdfrwt beam="1">  1        2 0.17219347E+00 0.13486727E+04</pdfrwt>
<pdfrwt beam="2">  1       -1 0.62504285E-01 0.13486727E+04</pdfrwt>
<totfact> 0.61316161E+01</totfact>
</mgrwt>
</event>
<event>
12    7  0.1711607E-007  0.1139141E+04  0.7818608E-02  0.9167860E-01
          2   -1    0    0  501    0  0.00000000000E+00  0.00000000000E+00  0.53988929680E+03  0.53988929680E+03  0.00000000000E+00 0. -1.
         -1   -1    0    0    0  501 -0.00000000000E+00 -0.00000000000E+00 -0.60088397628E+03  0.60088397628E+03  0.00000000000E+00 0.  1.
         24    2    1    2    0    0  0.19322132117E+03 -0.45521600728E+02  0.15744593613E+02  0.21440971714E+03  0.79479176436E+02 0.  0.
        254    2    1    2    0    0 -0.19322132117E+03  0.45521600728E+02 -0.76739273097E+02  0.92636355594E+03  0.90158406522E+03 0.  0.
         23    2    4    4    0    0 -0.51242092240E+03 -0.56493234729E+02  0.10580428515E+03  0.53411709840E+03  0.91213161116E+02 0.  0.
         23    2    4    4    0    0  0.31919960123E+03  0.10201483546E+03 -0.18254355825E+03  0.39224645754E+03  0.90772907392E+02 0.  0.
          4    1    3    3  502    0  0.15171351954E+03 -0.19126440474E+02 -0.19137739037E+02  0.15410731907E+03  0.00000000000E+00 0. -1.
         -3    1    3    3    0  502  0.41507801627E+02 -0.26395160253E+02  0.34882332651E+02  0.60302398061E+02  0.00000000000E+00 0.  1.
         13    1    5    5    0    0 -0.40686739697E+03 -0.62670382181E+02  0.50379429974E+02  0.41473695578E+03  0.00000000000E+00 0. -1.
        -13    1    5    5    0    0 -0.10555352543E+03  0.61771474529E+01  0.55424855178E+02  0.11938014262E+03  0.00000000000E+00 0.  1.
          3    1    6    6  503    0  0.12319349130E+03  0.28332899591E+01 -0.36722165816E+02  0.12858141892E+03  0.00000000000E+00 0. -1.
         -3    1    6    6    0  503  0.19600610994E+03  0.99181545497E+02 -0.14582139243E+03  0.26366503862E+03  0.00000000000E+00 0.  1.
<mgrwt>
<rscale>  0 0.11391415E+04</rscale>
<asrwt>0</asrwt>
<pdfrwt beam="1">  1        2 0.83059892E-01 0.11391415E+04</pdfrwt>
<pdfrwt beam="2">  1       -1 0.92443688E-01 0.11391415E+04</pdfrwt>
<totfact> 0.72579748E+01</totfact>
</mgrwt>
</event>
<event>
12    7  0.1711607E-007  0.1540980E+04  0.7818608E-02  0.8857650E-01
          2   -1    0    0  501    0  0.00000000000E+00  0.00000000000E+00  0.11926566051E+04  0.11926566051E+04  0.00000000000E+00 0. -1.
         -1   -1    0    0    0  501 -0.00000000000E+00 -0.00000000000E+00 -0.49775870664E+03  0.49775870664E+03  0.00000000000E+00 0.  1.
         24    2    1    2    0    0 -0.32350421698E+03 -0.34567591623E+03  0.42120230353E+03  0.63875600785E+03  0.80318364042E+02 0.  0.
        254    2    1    2    0    0  0.32350421698E+03  0.34567591623E+03  0.27369559493E+03  0.10516593039E+04  0.89829349062E+03 0.  0.
         23    2    4    4    0    0  0.54373492993E+03  0.21662894094E+03  0.43635550856E+03  0.73589156329E+03  0.92490491416E+02 0.  0.
         23    2    4    4    0    0 -0.22023071294E+03  0.12904697529E+03 -0.16265991363E+03  0.31576774059E+03  0.89979607341E+02 0.  0.
          4    1    3    3  502    0 -0.31549566523E+03 -0.33144730379E+03  0.38128430675E+03  0.59562786414E+03  0.00000000000E+00 0. -1.
         -3    1    3    3    0  502 -0.80085517530E+01 -0.14228612440E+02  0.39917996776E+02  0.43128143709E+02  0.00000000000E+00 0.  1.
         13    1    5    5    0    0  0.21932117471E+03  0.11124764401E+03  0.13391870390E+03  0.28002149066E+03  0.00000000000E+00 0. -1.
        -13    1    5    5    0    0  0.32441375521E+03  0.10538129693E+03  0.30243680466E+03  0.45587007264E+03  0.00000000000E+00 0.  1.
          3    1    6    6  503    0 -0.75193521154E+01 -0.12020753419E+02 -0.23782489739E+01  0.14376899428E+02  0.00000000000E+00 0. -1.
         -3    1    6    6    0  503 -0.21271136083E+03  0.14106772871E+03 -0.16028166466E+03  0.30139084116E+03  0.00000000000E+00 0.  1.
<mgrwt>
<rscale>  0 0.15409805E+04</rscale>
<asrwt>0</asrwt>
<pdfrwt beam="1">  1        2 0.18348563E+00 0.15409805E+04</pdfrwt>
<pdfrwt beam="2">  1       -1 0.76578263E-01 0.15409805E+04</pdfrwt>
<totfact> 0.35969105E+01</totfact>
</mgrwt>
</event>
<event>
12    7  0.1711607E-007  0.1204415E+04  0.7818608E-02  0.9109001E-01
          2   -1    0    0  501    0  0.00000000000E+00  0.00000000000E+00  0.16742292419E+03  0.16742292419E+03  0.00000000000E+00 0. -1.
         -1   -1    0    0    0  501 -0.00000000000E+00 -0.00000000000E+00 -0.21660948810E+04  0.21660948810E+04  0.00000000000E+00 0.  1.
         24    2    1    2    0    0  0.22314115048E+03 -0.11977598405E+03 -0.50592757708E+03  0.57138881545E+03  0.79901225163E+02 0.  0.
        254    2    1    2    0    0 -0.22314115048E+03  0.11977598405E+03 -0.14927443797E+04  0.17621289897E+04  0.90148462764E+03 0.  0.
         23    2    4    4    0    0 -0.48401177558E+02 -0.33065147081E+03 -0.25761487477E+03  0.43281089866E+03  0.96367946722E+02 0.  0.
         23    2    4    4    0    0 -0.17473997292E+03  0.45042745486E+03 -0.12351295049E+04  0.13293180910E+04  0.90126261633E+02 0.  0.
          4    1    3    3  502    0  0.68474578649E+02 -0.53139705369E+02 -0.10258539879E+03  0.13429951695E+03  0.00000000000E+00 0. -1.
         -3    1    3    3    0  502  0.15466657183E+03 -0.66636278676E+02 -0.40334217829E+03  0.43708929850E+03  0.00000000000E+00 0.  1.
         13    1    5    5    0    0 -0.48712006531E+02 -0.22326930803E+03 -0.11955313978E+03  0.25790501492E+03  0.00000000000E+00 0.  1.
        -13    1    5    5    0    0  0.31082897268E+00 -0.10738216278E+03 -0.13806173499E+03  0.17490588374E+03  0.00000000000E+00 0. -1.
          1    1    6    6  503    0  0.22988514453E+01 -0.20411081690E+01 -0.14308419180E+01  0.33908920831E+01  0.00000000000E+00 0. -1.
         -1    1    6    6    0  503 -0.17703882437E+03  0.45246856303E+03 -0.12336986630E+04  0.13259271990E+04  0.00000000000E+00 0.  1.
<mgrwt>
<rscale>  0 0.12044151E+04</rscale>
<asrwt>0</asrwt>
<pdfrwt beam="1">  1        2 0.25757371E-01 0.12044151E+04</pdfrwt>
<pdfrwt beam="2">  1       -1 0.33324540E+00 0.12044151E+04</pdfrwt>
<totfact> 0.48580100E+00</totfact>
</mgrwt>
</event>
<event>
12    7  0.1711607E-007  0.1466260E+04  0.7818608E-02  0.8907205E-01
         -1   -1    0    0    0  501 -0.00000000000E+00  0.00000000000E+00  0.53079681262E+03  0.53079681262E+03  0.00000000000E+00 0.  1.
          2   -1    0    0  501    0  0.00000000000E+00 -0.00000000000E+00 -0.10125895043E+04  0.10125895043E+04  0.00000000000E+00 0. -1.
         24    2    1    2    0    0  0.25049258705E+03 -0.25705786930E+03  0.13936610077E+03  0.39334791045E+03  0.80463558668E+02 0.  0.
        254    2    1    2    0    0 -0.25049258705E+03  0.25705786930E+03 -0.62115879248E+03  0.11500384065E+04  0.89884637543E+03 0.  0.
         23    2    4    4    0    0 -0.49321226233E+03 -0.10833626812E+03 -0.26463146274E+03  0.57783320447E+03  0.94161130045E+02 0.  0.
         23    2    4    4    0    0  0.24271967528E+03  0.36539413742E+03 -0.35652732974E+03  0.57220520203E+03  0.88776911187E+02 0.  0.
          4    1    3    3  502    0  0.12583562395E+02 -0.23895048913E+02  0.35119038911E+02  0.44301989787E+02  0.00000000000E+00 0. -1.
         -3    1    3    3    0  502  0.23790902466E+03 -0.23316282038E+03  0.10424706186E+03  0.34904592066E+03  0.00000000000E+00 0.  1.
         13    1    5    5    0    0 -0.25791226679E+03 -0.88443881111E+01 -0.13975104585E+03  0.29347455661E+03  0.00000000000E+00 0.  1.
        -13    1    5    5    0    0 -0.23529999554E+03 -0.99491880009E+02 -0.12488041689E+03  0.28435864786E+03  0.00000000000E+00 0. -1.
          3    1    6    6  503    0  0.21924519681E+03  0.36282595834E+03 -0.33653141107E+03  0.54126197263E+03  0.00000000000E+00 0. -1.
         -3    1    6    6    0  503  0.23474478462E+02  0.25681790728E+01 -0.19995918665E+02  0.30943229406E+02  0.00000000000E+00 0.  1.
<mgrwt>
<rscale>  0 0.14662596E+04</rscale>
<asrwt>0</asrwt>
<pdfrwt beam="1">  1        2 0.15578300E+00 0.14662596E+04</pdfrwt>
<pdfrwt beam="2">  1       -1 0.81661048E-01 0.14662596E+04</pdfrwt>
<totfact> 0.40795522E+01</totfact>
</mgrwt>
</event>
<event>
12    7  0.1711607E-007  0.1449920E+04  0.7818608E-02  0.8918456E-01
          2   -1    0    0  501    0  0.00000000000E+00  0.00000000000E+00  0.21851793347E+04  0.21851793347E+04  0.00000000000E+00 0. -1.
         -1   -1    0    0    0  501 -0.00000000000E+00 -0.00000000000E+00 -0.24051434375E+03  0.24051434375E+03  0.00000000000E+00 0.  1.
         24    2    1    2    0    0 -0.42651530504E+02  0.20490877894E+03  0.12845063756E+04  0.13038582104E+04  0.79264387750E+02 0.  0.
        254    2    1    2    0    0  0.42651530504E+02 -0.20490877894E+03  0.66015861530E+03  0.11218354680E+04  0.88255235489E+03 0.  0.
         23    2    4    4    0    0  0.27216453175E+03  0.19797278500E+03  0.52390202157E+03  0.62995362870E+03  0.95401730421E+02 0.  0.
         23    2    4    4    0    0 -0.22951300124E+03 -0.40288156393E+03  0.13625659372E+03  0.49188183927E+03  0.91608472176E+02 0.  0.
          4    1    3    3  502    0 -0.17167599716E+02  0.18202986525E+03  0.11744378503E+04  0.11885848150E+04  0.00000000000E+00 0. -1.
         -3    1    3    3    0  502 -0.25483930788E+02  0.22878913687E+02  0.11006852535E+03  0.11527339543E+03  0.00000000000E+00 0.  1.
         13    1    5    5    0    0  0.45081547959E+01  0.13704414638E+01  0.55860063078E+02  0.56058435730E+02  0.00000000000E+00 0. -1.
        -13    1    5    5    0    0  0.26765637695E+03  0.19660234353E+03  0.46804195850E+03  0.57389519297E+03  0.00000000000E+00 0.  1.
          1    1    6    6  503    0 -0.10214774419E+03 -0.10044996767E+03  0.25339008463E+02  0.14548684819E+03  0.00000000000E+00 0. -1.
         -1    1    6    6    0  503 -0.12736525706E+03 -0.30243159627E+03  0.11091758526E+03  0.34639499108E+03  0.00000000000E+00 0.  1.
<mgrwt>
<rscale>  0 0.14499200E+04</rscale>
<asrwt>0</asrwt>
<pdfrwt beam="1">  1        2 0.33618142E+00 0.14499200E+04</pdfrwt>
<pdfrwt beam="2">  1       -1 0.37002208E-01 0.14499200E+04</pdfrwt>
<totfact> 0.40864345E+01</totfact>
</mgrwt>
</event>
<event>
12    7  0.1711607E-007  0.1576310E+04  0.7818608E-02  0.8835235E-01
          2   -1    0    0  501    0  0.00000000000E+00  0.00000000000E+00  0.73239458655E+03  0.73239458655E+03  0.00000000000E+00 0. -1.
         -1   -1    0    0    0  501 -0.00000000000E+00 -0.00000000000E+00 -0.84816095529E+03  0.84816095529E+03  0.00000000000E+00 0.  1.
         24    2    1    2    0    0  0.46534738054E+03  0.15989848478E+03  0.14892175483E+03  0.52016961946E+03  0.79265591105E+02 0.  0.
        254    2    1    2    0    0 -0.46534738054E+03 -0.15989848478E+03 -0.26468812357E+03  0.10603859224E+04  0.90124513403E+03 0.  0.
         23    2    4    4    0    0  0.13361805010E+03  0.42776895773E+02  0.20730036406E+03  0.26624296760E+03  0.90709595581E+02 0.  0.
         23    2    4    4    0    0 -0.59896543064E+03 -0.20267538055E+03 -0.47198848763E+03  0.79414295479E+03  0.89738526805E+02 0.  0.
          2    1    3    3  502    0  0.35584572795E+03  0.97621239394E+02  0.83923000344E+02  0.37841664666E+03  0.00000000000E+00 0. -1.
         -1    1    3    3    0  502  0.10950165260E+03  0.62277245387E+02  0.64998754482E+02  0.14175297280E+03  0.00000000000E+00 0.  1.
         13    1    5    5    0    0  0.14494450351E+03  0.31614193410E+02  0.16961046411E+03  0.22533547404E+03  0.00000000000E+00 0. -1.
        -13    1    5    5    0    0 -0.11326453415E+02  0.11162702363E+02  0.37689899954E+02  0.40907493562E+02  0.00000000000E+00 0.  1.
          2    1    6    6  503    0 -0.30911299824E+03 -0.13192162689E+03 -0.20438826146E+03  0.39335572037E+03  0.00000000000E+00 0. -1.
         -2    1    6    6    0  503 -0.28985243241E+03 -0.70753753660E+02 -0.26760022617E+03  0.40078723442E+03  0.00000000000E+00 0.  1.
<mgrwt>
<rscale>  0 0.15763102E+04</rscale>
<asrwt>0</asrwt>
<pdfrwt beam="1">  1        2 0.11267609E+00 0.15763102E+04</pdfrwt>
<pdfrwt beam="2">  1       -1 0.13048630E+00 0.15763102E+04</pdfrwt>
<totfact> 0.21316747E+01</totfact>
</mgrwt>
</event>
<event>
12    7  0.1711607E-007  0.1818330E+04  0.7818608E-02  0.8696612E-01
         -1   -1    0    0    0  501 -0.00000000000E+00  0.00000000000E+00  0.64905806038E+03  0.64905806038E+03  0.00000000000E+00 0.  1.
          2   -1    0    0  501    0  0.00000000000E+00 -0.00000000000E+00 -0.12735082319E+04  0.12735082319E+04  0.00000000000E+00 0. -1.
         24    2    1    2    0    0  0.61635342636E+03  0.28430266931E+03 -0.30992088392E+03  0.75044427156E+03  0.79975599217E+02 0.  0.
        254    2    1    2    0    0 -0.61635342636E+03 -0.28430266931E+03 -0.31452928763E+03  0.11721220207E+04  0.90234239884E+03 0.  0.
         23    2    4    4    0    0  0.18004928799E+03 -0.57673635014E+02 -0.26305585478E+03  0.33656452563E+03  0.91286926215E+02 0.  0.
         23    2    4    4    0    0 -0.79640271435E+03 -0.22662903430E+03 -0.51473432849E+02  0.83555749510E+03  0.99442499569E+02 0.  0.
          2    1    3    3  502    0  0.31621807907E+02  0.33155134429E+02 -0.98609521298E+01  0.46866193052E+02  0.00000000000E+00 0. -1.
         -3    1    3    3    0  502  0.58473161845E+03  0.25114753488E+03 -0.30005993179E+03  0.70357807851E+03  0.00000000000E+00 0.  1.
         13    1    5    5    0    0  0.16840399906E+03 -0.55031453875E+02 -0.17967188509E+03  0.25232985179E+03  0.00000000000E+00 0. -1.
        -13    1    5    5    0    0  0.11645288937E+02 -0.26421811389E+01 -0.83383969693E+02  0.84234673842E+02  0.00000000000E+00 0.  1.
          1    1    6    6  503    0 -0.51909339108E+03 -0.10845387609E+03 -0.34283049407E+01  0.53031306337E+03  0.00000000000E+00 0. -1.
         -1    1    6    6    0  503 -0.27730932327E+03 -0.11817515821E+03 -0.48045127908E+02  0.30524443174E+03  0.00000000000E+00 0.  1.
<mgrwt>
<rscale>  0 0.18183298E+04</rscale>
<asrwt>0</asrwt>
<pdfrwt beam="1">  1        2 0.19592434E+00 0.18183298E+04</pdfrwt>
<pdfrwt beam="2">  1       -1 0.99855087E-01 0.18183298E+04</pdfrwt>
<totfact> 0.17609266E+01</totfact>
</mgrwt>
</event>
<event>
12    7  0.1711607E-007  0.2012799E+04  0.7818608E-02  0.8600660E-01
          4   -1    0    0  501    0  0.00000000000E+00  0.00000000000E+00  0.77490300940E+03  0.77490300940E+03  0.00000000000E+00 0. -1.
         -3   -1    0    0    0  501 -0.00000000000E+00 -0.00000000000E+00 -0.13070544362E+04  0.13070544362E+04  0.00000000000E+00 0.  1.
         24    2    1    2    0    0 -0.21338928643E+02 -0.82400472304E+03 -0.16518892328E+02  0.82867657125E+03  0.83623276998E+02 0.  0.
        254    2    1    2    0    0  0.21338928643E+02  0.82400472304E+03 -0.51563253446E+03  0.12532808743E+04  0.79082040056E+03 0.  0.
         23    2    4    4    0    0  0.34383522271E+03  0.68346773717E+03 -0.42261007449E+03  0.87886033630E+03  0.91898898457E+02 0.  0.
         23    2    4    4    0    0 -0.32249629406E+03  0.14053698587E+03 -0.93022459969E+02  0.37442053804E+03  0.88221636624E+02 0.  0.
          4    1    3    3  502    0  0.91103667234E+00 -0.38272371610E+03 -0.47958248134E+02  0.38571785856E+03  0.00000000000E+00 0. -1.
         -3    1    3    3    0  502 -0.22249965315E+02 -0.44128100695E+03  0.31439355806E+02  0.44295871268E+03  0.00000000000E+00 0.  1.
         13    1    5    5    0    0  0.32500942545E+03  0.61043102287E+03 -0.35400328233E+03  0.77690120621E+03  0.00000000000E+00 0. -1.
        -13    1    5    5    0    0  0.18825797260E+02  0.73036714301E+02 -0.68606792164E+02  0.10195913009E+03  0.00000000000E+00 0.  1.
          3    1    6    6  503    0 -0.30234433152E+03  0.12014067334E+03 -0.10705208859E+03  0.34249967280E+03  0.00000000000E+00 0. -1.
         -3    1    6    6    0  503 -0.20151962541E+02  0.20396312531E+02  0.14029628617E+02  0.31920865249E+02  0.00000000000E+00 0.  1.
<mgrwt>
<rscale>  0 0.20127995E+04</rscale>
<asrwt>0</asrwt>
<pdfrwt beam="1">  1        4 0.11921585E+00 0.20127995E+04</pdfrwt>
<pdfrwt beam="2">  1       -3 0.20108530E+00 0.20127995E+04</pdfrwt>
<totfact> 0.16464279E-01</totfact>
</mgrwt>
</event>
<event>
12    7  0.1711607E-007  0.2445311E+04  0.7818608E-02  0.8422732E-01
         -1   -1    0    0    0  501 -0.00000000000E+00  0.00000000000E+00  0.50377294452E+03  0.50377294452E+03  0.00000000000E+00 0.  1.
          2   -1    0    0  501    0  0.00000000000E+00 -0.00000000000E+00 -0.29673804182E+04  0.29673804182E+04  0.00000000000E+00 0. -1.
         24    2    1    2    0    0  0.46171503150E+03 -0.89556378267E+03 -0.63669975488E+03  0.11945688577E+04  0.79955729907E+02 0.  0.
        254    2    1    2    0    0 -0.46171503150E+03  0.89556378267E+03 -0.18269077188E+04  0.22765845050E+04  0.91105978753E+03 0.  0.
         23    2    4    4    0    0 -0.53289850538E+03  0.96251825782E+03 -0.11798971241E+04  0.16157948895E+04  0.90629398053E+02 0.  0.
         23    2    4    4    0    0  0.71183473880E+02 -0.66954475152E+02 -0.64701059470E+03  0.66078961554E+03  0.92033785440E+02 0.  0.
          2    1    3    3  502    0  0.21180883727E+02 -0.29852731385E+02 -0.41621171991E+02  0.55426865007E+02  0.00000000000E+00 0. -1.
         -1    1    3    3    0  502  0.44053414778E+03 -0.86571105128E+03 -0.59507858289E+03  0.11391419927E+04  0.00000000000E+00 0.  1.
         13    1    5    5    0    0 -0.11529752373E+03  0.28560621220E+03 -0.30662587498E+03  0.43460770200E+03  0.00000000000E+00 0. -1.
        -13    1    5    5    0    0 -0.41760098165E+03  0.67691204562E+03 -0.87327124913E+03  0.11811871875E+04  0.00000000000E+00 0.  1.
          4    1    6    6  503    0  0.39456732376E+02  0.17132173643E+02 -0.16790795952E+03  0.17333040118E+03  0.00000000000E+00 0. -1.
         -4    1    6    6    0  503  0.31726741504E+02 -0.84086648796E+02 -0.47910263518E+03  0.48745921436E+03  0.00000000000E+00 0.  1.
<mgrwt>
<rscale>  0 0.24453106E+04</rscale>
<asrwt>0</asrwt>
<pdfrwt beam="1">  1        2 0.45652006E+00 0.24453106E+04</pdfrwt>
<pdfrwt beam="2">  1       -1 0.77503531E-01 0.24453106E+04</pdfrwt>
<totfact> 0.31034445E+00</totfact>
</mgrwt>
</event>
<event>
12    7  0.1711607E-007  0.1431332E+04  0.7818608E-02  0.8931446E-01
         -1   -1    0    0    0  501 -0.00000000000E+00  0.00000000000E+00  0.49923164639E+03  0.49923164639E+03  0.00000000000E+00 0.  1.
          2   -1    0    0  501    0  0.00000000000E+00 -0.00000000000E+00 -0.10259323030E+04  0.10259323030E+04  0.00000000000E+00 0. -1.
         24    2    1    2    0    0 -0.14962489212E+03  0.30422403668E+03 -0.43061586455E+03  0.55437734765E+03  0.83452668920E+02 0.  0.
        254    2    1    2    0    0  0.14962489212E+03 -0.30422403668E+03 -0.96084792024E+02  0.97078660171E+03  0.90457419041E+03 0.  0.
         23    2    4    4    0    0  0.42511436738E+03 -0.44490080413E+03  0.31774462026E+02  0.62366293282E+03  0.96368493100E+02 0.  0.
         23    2    4    4    0    0 -0.27548947526E+03  0.14067676745E+03 -0.12785925405E+03  0.34712366889E+03  0.91991569057E+02 0.  0.
          2    1    3    3  502    0 -0.43828377110E+02  0.14778909541E+03 -0.24580797026E+03  0.29014496653E+03  0.00000000000E+00 0. -1.
         -1    1    3    3    0  502 -0.10579651501E+03  0.15643494126E+03 -0.18480789429E+03  0.26423238112E+03  0.00000000000E+00 0.  1.
         13    1    5    5    0    0  0.32294962688E+03 -0.38265407747E+03  0.47641014630E+02  0.50298138214E+03  0.00000000000E+00 0.  1.
        -13    1    5    5    0    0  0.10216474050E+03 -0.62246726659E+02 -0.15866552604E+02  0.12068155067E+03  0.00000000000E+00 0. -1.
          2    1    6    6  503    0 -0.46369130684E+02  0.42906106760E+02  0.74939767917E+01  0.63617528762E+02  0.00000000000E+00 0. -1.
         -2    1    6    6    0  503 -0.22912034458E+03  0.97770660694E+02 -0.13535323084E+03  0.28350614013E+03  0.00000000000E+00 0.  1.
<mgrwt>
<rscale>  0 0.14313321E+04</rscale>
<asrwt>0</asrwt>
<pdfrwt beam="1">  1        2 0.15783574E+00 0.14313321E+04</pdfrwt>
<pdfrwt beam="2">  1       -1 0.76804870E-01 0.14313321E+04</pdfrwt>
<totfact> 0.45689016E+01</totfact>
</mgrwt>
</event>
<event>
12    7  0.1711607E-007  0.1145248E+04  0.7818608E-02  0.9162178E-01
         -1   -1    0    0    0  501 -0.00000000000E+00  0.00000000000E+00  0.45719653194E+03  0.45719653194E+03  0.00000000000E+00 0.  1.
          2   -1    0    0  501    0  0.00000000000E+00 -0.00000000000E+00 -0.71719354659E+03  0.71719354659E+03  0.00000000000E+00 0. -1.
         24    2    1    2    0    0 -0.19428955460E+02  0.14779509054E+03 -0.22106176317E+03  0.27874123424E+03  0.81286526721E+02 0.  0.
        254    2    1    2    0    0  0.19428955460E+02 -0.14779509054E+03 -0.38935251478E+02  0.89564884430E+03  0.88229814994E+03 0.  0.
         23    2    4    4    0    0  0.87624690109E+02 -0.32737684663E+03 -0.36458587048E+03  0.50604166361E+03  0.91113239049E+02 0.  0.
         23    2    4    4    0    0 -0.68195734649E+02  0.17958175608E+03  0.32565061900E+03  0.38960718069E+03  0.94048733369E+02 0.  0.
          2    1    3    3  502    0 -0.27367450559E+02  0.14946509151E+03 -0.22350844941E+03  0.27026804822E+03  0.00000000000E+00 0. -1.
         -1    1    3    3    0  502  0.79384950995E+01 -0.16700009671E+01  0.24466862390E+01  0.84731860139E+01  0.00000000000E+00 0.  1.
         13    1    5    5    0    0  0.93650687654E+02 -0.30259720642E+03 -0.36103559931E+03  0.48029389399E+03  0.00000000000E+00 0.  1.
        -13    1    5    5    0    0 -0.60259975457E+01 -0.24779640202E+02 -0.35502711693E+01  0.25747769619E+02  0.00000000000E+00 0. -1.
          3    1    6    6  503    0  0.19218093588E+02  0.11772399265E+02  0.20006705394E+02  0.30136236765E+02  0.00000000000E+00 0. -1.
         -3    1    6    6    0  503 -0.87413828236E+02  0.16780935682E+03  0.30564391361E+03  0.35947094393E+03  0.00000000000E+00 0.  1.
<mgrwt>
<rscale>  0 0.11452483E+04</rscale>
<asrwt>0</asrwt>
<pdfrwt beam="1">  1        2 0.11033747E+00 0.11452483E+04</pdfrwt>
<pdfrwt beam="2">  1       -1 0.70337928E-01 0.11452483E+04</pdfrwt>
<totfact> 0.91804249E+01</totfact>
</mgrwt>
</event>
<event>
12    7  0.1711607E-007  0.2080412E+04  0.7818608E-02  0.8569921E-01
         -1   -1    0    0    0  501 -0.00000000000E+00  0.00000000000E+00  0.83696405296E+03  0.83696405296E+03  0.00000000000E+00 0.  1.
          2   -1    0    0  501    0  0.00000000000E+00 -0.00000000000E+00 -0.12928021549E+04  0.12928021549E+04  0.00000000000E+00 0. -1.
         24    2    1    2    0    0 -0.45140214449E+02  0.84069598369E+03 -0.23131983609E+03  0.87685059570E+03  0.80936547092E+02 0.  0.
        254    2    1    2    0    0  0.45140214449E+02 -0.84069598369E+03 -0.22451826588E+03  0.12529156122E+04  0.90032311066E+03 0.  0.
         23    2    4    4    0    0 -0.14004471648E+03 -0.62978930619E+03 -0.52076038386E+03  0.83456377103E+03  0.95174669417E+02 0.  0.
         23    2    4    4    0    0  0.18518493093E+03 -0.21090667750E+03  0.29624211798E+03  0.41835184116E+03  0.92107465923E+02 0.  0.
          4    1    3    3  502    0 -0.27050409133E+02  0.22498556644E+03 -0.96474173921E+02  0.24628742553E+03  0.00000000000E+00 0. -1.
         -3    1    3    3    0  502 -0.18089805316E+02  0.61571041725E+03 -0.13484566217E+03  0.63056317017E+03  0.00000000000E+00 0.  1.
         13    1    5    5    0    0 -0.22020321227E+02 -0.31686451529E+03 -0.24700191107E+03  0.40236545536E+03  0.00000000000E+00 0. -1.
        -13    1    5    5    0    0 -0.11802439525E+03 -0.31292479091E+03 -0.27375847280E+03  0.43219831567E+03  0.00000000000E+00 0.  1.
          3    1    6    6  503    0  0.19249096970E+03 -0.20642807162E+03  0.29702972249E+03  0.40974623636E+03  0.00000000000E+00 0. -1.
         -3    1    6    6    0  503 -0.73060387702E+01 -0.44786058750E+01 -0.78760450738E+00  0.86056047989E+01  0.00000000000E+00 0.  1.
<mgrwt>
<rscale>  0 0.20804124E+04</rscale>
<asrwt>0</asrwt>
<pdfrwt beam="1">  1        2 0.19889264E+00 0.20804124E+04</pdfrwt>
<pdfrwt beam="2">  1       -1 0.12876370E+00 0.20804124E+04</pdfrwt>
<totfact> 0.91246459E+00</totfact>
</mgrwt>
</event>
<event>
12    7  0.1711607E-007  0.1462897E+04  0.7818608E-02  0.8909508E-01
         -1   -1    0    0    0  501 -0.00000000000E+00  0.00000000000E+00  0.24997288909E+03  0.24997288909E+03  0.00000000000E+00 0.  1.
          2   -1    0    0  501    0  0.00000000000E+00 -0.00000000000E+00 -0.21403008028E+04  0.21403008028E+04  0.00000000000E+00 0. -1.
         24    2    1    2    0    0  0.93706290761E+02 -0.42973033142E+03 -0.42492619083E+03  0.61671258048E+03  0.79518001710E+02 0.  0.
        254    2    1    2    0    0 -0.93706290761E+02  0.42973033142E+03 -0.14654017229E+04  0.17735611114E+04  0.89703276408E+03 0.  0.
         23    2    4    4    0    0  0.25459476528E+03  0.53430797814E+03 -0.10848458764E+04  0.12390625583E+04  0.89899599116E+02 0.  0.
         23    2    4    4    0    0 -0.34830105604E+03 -0.10457764672E+03 -0.38055584652E+03  0.53449855311E+03  0.92821555287E+02 0.  0.
          2    1    3    3  502    0  0.92935801517E+02 -0.41792535798E+03 -0.42703471593E+03  0.60469605312E+03  0.00000000000E+00 0. -1.
         -1    1    3    3    0  502  0.77048924388E+00 -0.11804973447E+02  0.21085251032E+01  0.12016527363E+02  0.00000000000E+00 0.  1.
         13    1    5    5    0    0  0.24292082507E+03  0.44075503255E+03 -0.88477396105E+03  0.10178902142E+04  0.00000000000E+00 0. -1.
        -13    1    5    5    0    0  0.11673940204E+02  0.93552945591E+02 -0.20007191532E+03  0.22117234413E+03  0.00000000000E+00 0.  1.
          4    1    6    6  503    0 -0.13894712054E+03 -0.53819730700E+02 -0.94667889520E+02  0.17653576132E+03  0.00000000000E+00 0. -1.
         -4    1    6    6    0  503 -0.20935393549E+03 -0.50757916020E+02 -0.28588795700E+03  0.35796279179E+03  0.00000000000E+00 0.  1.
<mgrwt>
<rscale>  0 0.14628974E+04</rscale>
<asrwt>0</asrwt>
<pdfrwt beam="1">  1        2 0.32927705E+00 0.14628974E+04</pdfrwt>
<pdfrwt beam="2">  1       -1 0.38457367E-01 0.14628974E+04</pdfrwt>
<totfact> 0.40328434E+01</totfact>
</mgrwt>
</event>
<event>
12    7  0.1711607E-007  0.1988348E+04  0.7818608E-02  0.8612088E-01
          2   -1    0    0  501    0  0.00000000000E+00  0.00000000000E+00  0.23127310249E+04  0.23127310249E+04  0.00000000000E+00 0. -1.
         -1   -1    0    0    0  501 -0.00000000000E+00 -0.00000000000E+00 -0.42736583192E+03  0.42736583192E+03  0.00000000000E+00 0.  1.
         24    2    1    2    0    0 -0.16592007789E+03 -0.48043385657E+03  0.13346715588E+04  0.14303556544E+04  0.78885775645E+02 0.  0.
        254    2    1    2    0    0  0.16592007789E+03  0.48043385657E+03  0.55069363417E+03  0.13097412024E+04  0.10741565880E+04 0.  0.
         23    2    4    4    0    0  0.28735961831E+03  0.19983201398E+03 -0.25573257470E+03  0.44259859581E+03  0.89364328495E+02 0.  0.
         23    2    4    4    0    0 -0.12143954042E+03  0.28060184260E+03  0.80642620887E+03  0.86714260654E+03  0.90156051855E+02 0.  0.
          4    1    3    3  502    0 -0.10952424270E+03 -0.30991195156E+03  0.96325626906E+03  0.10177935043E+04  0.00000000000E+00 0. -1.
         -3    1    3    3    0  502 -0.56395835189E+02 -0.17052190501E+03  0.37141528970E+03  0.41256215015E+03  0.00000000000E+00 0.  1.
         13    1    5    5    0    0  0.10118822063E+03  0.42470048413E+02 -0.12373440397E+03  0.16538731430E+03  0.00000000000E+00 0. -1.
        -13    1    5    5    0    0  0.18617139768E+03  0.15736196557E+03 -0.13199817073E+03  0.27721128151E+03  0.00000000000E+00 0.  1.
          3    1    6    6  503    0 -0.37881378490E+02  0.18323061132E+03  0.41515081902E+03  0.45536650985E+03  0.00000000000E+00 0. -1.
         -3    1    6    6    0  503 -0.83558161932E+02  0.97371231275E+02  0.39127538985E+03  0.41177609669E+03  0.00000000000E+00 0.  1.
<mgrwt>
<rscale>  0 0.19883483E+04</rscale>
<asrwt>0</asrwt>
<pdfrwt beam="1">  1        2 0.35580477E+00 0.19883483E+04</pdfrwt>
<pdfrwt beam="2">  1       -1 0.65748591E-01 0.19883483E+04</pdfrwt>
<totfact> 0.11069930E+01</totfact>
</mgrwt>
</event>
<event>
12    7  0.1711607E-007  0.1647986E+04  0.7818608E-02  0.8791599E-01
          2   -1    0    0  501    0  0.00000000000E+00  0.00000000000E+00  0.59378357907E+03  0.59378357907E+03  0.00000000000E+00 0. -1.
         -1   -1    0    0    0  501 -0.00000000000E+00 -0.00000000000E+00 -0.11434546443E+04  0.11434546443E+04  0.00000000000E+00 0.  1.
         24    2    1    2    0    0  0.11779986521E+03  0.79631441302E+02 -0.78414059106E+03  0.80189584168E+03  0.89120702841E+02 0.  0.
        254    2    1    2    0    0 -0.11779986521E+03 -0.79631441302E+02  0.23446952583E+03  0.93534238169E+03  0.89424350026E+03 0.  0.
         23    2    4    4    0    0 -0.28339603961E+03 -0.40973107814E+03  0.22674231688E+03  0.55478042587E+03  0.90423287975E+02 0.  0.
         23    2    4    4    0    0  0.16559617440E+03  0.33009963684E+03  0.77272089504E+01  0.38056195582E+03  0.91541407268E+02 0.  0.
          2    1    3    3  502    0  0.36250800332E+02 -0.15381546718E+02 -0.12820395173E+03  0.13411549404E+03  0.00000000000E+00 0. -1.
         -1    1    3    3    0  502  0.81549064874E+02  0.95012988020E+02 -0.65593663933E+03  0.66778034764E+03  0.00000000000E+00 0.  1.
         13    1    5    5    0    0 -0.24533341926E+03 -0.31054752575E+03  0.14794640007E+03  0.42251199941E+03  0.00000000000E+00 0.  1.
        -13    1    5    5    0    0 -0.38062620354E+02 -0.99183552388E+02  0.78795916808E+02  0.13226842646E+03  0.00000000000E+00 0. -1.
          1    1    6    6  503    0  0.14316675317E+03  0.22430636382E+03  0.36656814754E+02  0.26861456799E+03  0.00000000000E+00 0.  1.
         -1    1    6    6    0  503  0.22429421229E+02  0.10579327301E+03 -0.28929605804E+02  0.11194738784E+03  0.00000000000E+00 0. -1.
<mgrwt>
<rscale>  0 0.16479862E+04</rscale>
<asrwt>0</asrwt>
<pdfrwt beam="1">  1        2 0.91351320E-01 0.16479862E+04</pdfrwt>
<pdfrwt beam="2">  1       -1 0.17591610E+00 0.16479862E+04</pdfrwt>
<totfact> 0.12210608E+01</totfact>
</mgrwt>
</event>
<event>
12    7  0.1711607E-007  0.1949491E+04  0.7818608E-02  0.8630606E-01
          2   -1    0    0  501    0  0.00000000000E+00  0.00000000000E+00  0.63658968626E+03  0.63658968626E+03  0.00000000000E+00 0. -1.
         -1   -1    0    0    0  501 -0.00000000000E+00 -0.00000000000E+00 -0.14925291012E+04  0.14925291012E+04  0.00000000000E+00 0.  1.
         24    2    1    2    0    0 -0.14225614156E+03 -0.17447927024E+03 -0.11283264772E+04  0.11537951620E+04  0.86271729499E+02 0.  0.
        254    2    1    2    0    0  0.14225614156E+03  0.17447927024E+03  0.27238706225E+03  0.97532362540E+03  0.90905535422E+03 0.  0.
         23    2    4    4    0    0  0.44923842314E+03 -0.85690476122E+02  0.31093898812E+03  0.56095133489E+03  0.93943212939E+02 0.  0.
         23    2    4    4    0    0 -0.30698228158E+03  0.26016974637E+03 -0.38551925865E+02  0.41437229052E+03  0.91058915183E+02 0.  0.
          4    1    3    3  502    0 -0.61941764154E+01 -0.54243737662E+02 -0.17456088253E+03  0.18289956972E+03  0.00000000000E+00 0. -1.
         -1    1    3    3    0  502 -0.13606196515E+03 -0.12023553258E+03 -0.95376559464E+03  0.97089559232E+03  0.00000000000E+00 0.  1.
         13    1    5    5    0    0  0.10337575166E+02 -0.18731766261E+02  0.24800552505E+02  0.32753807903E+02  0.00000000000E+00 0. -1.
        -13    1    5    5    0    0  0.43890084797E+03 -0.66958709861E+02  0.28613843561E+03  0.52819752698E+03  0.00000000000E+00 0.  1.
          3    1    6    6  503    0 -0.13309557525E+03  0.68681906543E+02  0.14015331906E+02  0.15042628084E+03  0.00000000000E+00 0. -1.
         -3    1    6    6    0  503 -0.17388670633E+03  0.19148783982E+03 -0.52567257771E+02  0.26394600968E+03  0.00000000000E+00 0.  1.
<mgrwt>
<rscale>  0 0.19494908E+04</rscale>
<asrwt>0</asrwt>
<pdfrwt beam="1">  1        2 0.97936876E-01 0.19494908E+04</pdfrwt>
<pdfrwt beam="2">  1       -1 0.22961986E+00 0.19494908E+04</pdfrwt>
<totfact> 0.46653444E+00</totfact>
</mgrwt>
</event>
<event>
12    7  0.1711607E-007  0.3277611E+04  0.7818608E-02  0.8168616E-01
          2   -1    0    0  501    0  0.00000000000E+00  0.00000000000E+00  0.21132524084E+04  0.21132524084E+04  0.00000000000E+00 0. -1.
         -1   -1    0    0    0  501 -0.00000000000E+00 -0.00000000000E+00 -0.12708765039E+04  0.12708765039E+04  0.00000000000E+00 0.  1.
         24    2    1    2    0    0 -0.62187680621E+03  0.15021543989E+03 -0.10484210454E+04  0.12302701424E+04  0.71291615808E+02 0.  0.
        254    2    1    2    0    0  0.62187680621E+03 -0.15021543989E+03  0.18907969499E+04  0.21538587698E+04  0.80913475641E+03 0.  0.
         23    2    4    4    0    0  0.45873520984E+03  0.29157377700E+03  0.96299706557E+03  0.11095033357E+04  0.90449121363E+02 0.  0.
         23    2    4    4    0    0  0.16314159637E+03 -0.44178921689E+03  0.92779988434E+03  0.10443554341E+04  0.89848509474E+02 0.  0.
          4    1    3    3  502    0 -0.23276677906E+03  0.22350097917E+02 -0.39935148794E+03  0.46277587581E+03  0.00000000000E+00 0. -1.
         -3    1    3    3    0  502 -0.38911002715E+03  0.12786534197E+03 -0.64906955745E+03  0.76749426664E+03  0.00000000000E+00 0.  1.
         13    1    5    5    0    0  0.11375104459E+03  0.54580890859E+02  0.29994311312E+03  0.32539859388E+03  0.00000000000E+00 0. -1.
        -13    1    5    5    0    0  0.34498416525E+03  0.23699288615E+03  0.66305395245E+03  0.78410474187E+03  0.00000000000E+00 0.  1.
          4    1    6    6  503    0 -0.10912686666E+02 -0.27607986881E+02  0.69749487295E+02  0.75804212600E+02  0.00000000000E+00 0. -1.
         -4    1    6    6    0  503  0.17405428303E+03 -0.41418123001E+03  0.85805039705E+03  0.96855122147E+03  0.00000000000E+00 0.  1.
<mgrwt>
<rscale>  0 0.32776106E+04</rscale>
<asrwt>0</asrwt>
<pdfrwt beam="1">  1        2 0.32511575E+00 0.32776106E+04</pdfrwt>
<pdfrwt beam="2">  1       -1 0.19551946E+00 0.32776106E+04</pdfrwt>
<totfact> 0.88857803E-01</totfact>
</mgrwt>
</event>
<event>
12    7  0.1711607E-007  0.1410347E+04  0.7818608E-02  0.8946363E-01
         -1   -1    0    0    0  501 -0.00000000000E+00  0.00000000000E+00  0.60213807403E+03  0.60213807403E+03  0.00000000000E+00 0.  1.
          2   -1    0    0  501    0  0.00000000000E+00 -0.00000000000E+00 -0.82584003229E+03  0.82584003229E+03  0.00000000000E+00 0. -1.
         24    2    1    2    0    0 -0.25753599352E+03 -0.33540304674E+03 -0.16565800064E+03  0.46103129929E+03  0.79292458833E+02 0.  0.
        254    2    1    2    0    0  0.25753599352E+03  0.33540304674E+03 -0.58043957623E+02  0.96694680703E+03  0.86763876982E+03 0.  0.
         23    2    4    4    0    0  0.41543667603E+03  0.10250032157E+03 -0.34277701747E+03  0.55662802123E+03  0.96149480484E+02 0.  0.
         23    2    4    4    0    0 -0.15790068252E+03  0.23290272517E+03  0.28473305985E+03  0.41031878580E+03  0.90068227934E+02 0.  0.
          4    1    3    3  502    0 -0.10524631921E+03 -0.15967378610E+03 -0.35368505088E+02  0.19448248462E+03  0.00000000000E+00 0. -1.
         -3    1    3    3    0  502 -0.15228967431E+03 -0.17572926064E+03 -0.13028949556E+03  0.26654881466E+03  0.00000000000E+00 0.  1.
         13    1    5    5    0    0  0.32556311859E+01  0.34262709215E+01 -0.28570967788E+02  0.28959258747E+02  0.00000000000E+00 0. -1.
        -13    1    5    5    0    0  0.41218104485E+03  0.99074050644E+02 -0.31420604968E+03  0.52766876248E+03  0.00000000000E+00 0.  1.
          1    1    6    6  503    0 -0.52826997952E+02  0.14056496290E+03  0.18625748008E+03  0.23925101753E+03  0.00000000000E+00 0. -1.
         -1    1    6    6    0  503 -0.10507368456E+03  0.92337762277E+02  0.98475579769E+02  0.17106776827E+03  0.00000000000E+00 0.  1.
<mgrwt>
<rscale>  0 0.14103471E+04</rscale>
<asrwt>0</asrwt>
<pdfrwt beam="1">  1        2 0.12705231E+00 0.14103471E+04</pdfrwt>
<pdfrwt beam="2">  1       -1 0.92636627E-01 0.14103471E+04</pdfrwt>
<totfact> 0.41536195E+01</totfact>
</mgrwt>
</event>
<event>
12    7  0.1711607E-007  0.2645970E+04  0.7818608E-02  0.8352752E-01
         -1   -1    0    0    0  501 -0.00000000000E+00  0.00000000000E+00  0.62502152944E+03  0.62502152944E+03  0.00000000000E+00 0.  1.
          2   -1    0    0  501    0  0.00000000000E+00 -0.00000000000E+00 -0.28003670631E+04  0.28003670631E+04  0.00000000000E+00 0. -1.
         24    2    1    2    0    0  0.44740726853E+03  0.81650117625E+02 -0.23603156091E+04  0.24049573071E+04  0.76745481987E+02 0.  0.
        254    2    1    2    0    0 -0.44740726853E+03 -0.81650117625E+02  0.18497007543E+03  0.10204312854E+04  0.89455356117E+03 0.  0.
         23    2    4    4    0    0 -0.69661198733E+02  0.19731952164E+03  0.42704108600E+03  0.48444467674E+03  0.92384411336E+02 0.  0.
         23    2    4    4    0    0 -0.37774606980E+03 -0.27896963926E+03 -0.24207101057E+03  0.53598660867E+03  0.90372106543E+02 0.  0.
          2    1    3    3  502    0  0.35050108732E+03  0.70741316444E+02 -0.19982037806E+04  0.20299442591E+04  0.00000000000E+00 0. -1.
         -1    1    3    3    0  502  0.96906181216E+02  0.10908801181E+02 -0.36211182843E+03  0.37501304802E+03  0.00000000000E+00 0.  1.
         13    1    5    5    0    0  0.67932479858E+01  0.22578676335E+02  0.12512437671E+03  0.12732656632E+03  0.00000000000E+00 0. -1.
        -13    1    5    5    0    0 -0.76454446719E+02  0.17474084530E+03  0.30191670929E+03  0.35711811041E+03  0.00000000000E+00 0.  1.
          3    1    6    6  503    0 -0.24190133294E+03 -0.16409686536E+03 -0.19689608498E+03  0.35243737654E+03  0.00000000000E+00 0. -1.
         -3    1    6    6    0  503 -0.13584473686E+03 -0.11487277390E+03 -0.45174925590E+02  0.18354923214E+03  0.00000000000E+00 0.  1.
<mgrwt>
<rscale>  0 0.26459703E+04</rscale>
<asrwt>0</asrwt>
<pdfrwt beam="1">  1        2 0.43082570E+00 0.26459703E+04</pdfrwt>
<pdfrwt beam="2">  1       -1 0.96157159E-01 0.26459703E+04</pdfrwt>
<totfact> 0.24120628E+00</totfact>
</mgrwt>
</event>
<event>
12    7  0.1711607E-007  0.1756086E+04  0.7818608E-02  0.8730007E-01
          2   -1    0    0  501    0  0.00000000000E+00  0.00000000000E+00  0.21936865046E+04  0.21936865046E+04  0.00000000000E+00 0. -1.
         -1   -1    0    0    0  501 -0.00000000000E+00 -0.00000000000E+00 -0.35144475341E+03  0.35144475341E+03  0.00000000000E+00 0.  1.
         24    2    1    2    0    0 -0.14927610874E+03  0.30798808863E+03  0.14660739358E+04  0.15076385059E+04  0.80380718628E+02 0.  0.
        254    2    1    2    0    0  0.14927610874E+03 -0.30798808863E+03  0.37616781539E+03  0.10374927521E+04  0.90429473399E+03 0.  0.
         23    2    4    4    0    0  0.11569528242E+03 -0.15521388649E+03  0.66331929662E+03  0.69725649515E+03  0.93259754624E+02 0.  0.
         23    2    4    4    0    0  0.33580826328E+02 -0.15277420214E+03 -0.28715148123E+03  0.34023625694E+03  0.94005896772E+02 0.  0.
          4    1    3    3  502    0 -0.10408685705E+03  0.15772513690E+03  0.66436696143E+03  0.69072045869E+03  0.00000000000E+00 0. -1.
         -3    1    3    3    0  502 -0.45189251695E+02  0.15026295173E+03  0.80170697436E+03  0.81691804722E+03  0.00000000000E+00 0.  1.
         13    1    5    5    0    0  0.93180467893E+02 -0.47694340385E+02  0.30372511110E+03  0.32125736227E+03  0.00000000000E+00 0. -1.
        -13    1    5    5    0    0  0.22514814524E+02 -0.10751954610E+03  0.35959418551E+03  0.37599913288E+03  0.00000000000E+00 0.  1.
          4    1    6    6  503    0 -0.96284639040E+01 -0.99145363002E+02 -0.10146242610E+03  0.14218696928E+03  0.00000000000E+00 0. -1.
         -4    1    6    6    0  503  0.43209290232E+02 -0.53628839141E+02 -0.18568905512E+03  0.19804928766E+03  0.00000000000E+00 0.  1.
<mgrwt>
<rscale>  0 0.17560861E+04</rscale>
<asrwt>0</asrwt>
<pdfrwt beam="1">  1        2 0.33749022E+00 0.17560861E+04</pdfrwt>
<pdfrwt beam="2">  1       -1 0.54068425E-01 0.17560861E+04</pdfrwt>
<totfact> 0.19405483E+01</totfact>
</mgrwt>
</event>
<event>
12    7  0.1711607E-007  0.2435410E+04  0.7818608E-02  0.8426364E-01
          2   -1    0    0  501    0  0.00000000000E+00  0.00000000000E+00  0.39067496905E+04  0.39067496905E+04  0.00000000000E+00 0. -1.
         -1   -1    0    0    0  501 -0.00000000000E+00 -0.00000000000E+00 -0.37954970691E+03  0.37954970691E+03  0.00000000000E+00 0.  1.
         24    2    1    2    0    0  0.58941468833E+03 -0.79756509547E+03  0.92034642684E+03  0.13554432212E+04  0.81664093175E+02 0.  0.
        254    2    1    2    0    0 -0.58941468833E+03  0.79756509547E+03  0.26068535567E+04  0.29308561762E+04  0.90039585912E+03 0.  0.
         23    2    4    4    0    0 -0.56307121144E+03  0.31908480179E+03  0.68080077986E+03  0.94405556618E+03  0.94270410462E+02 0.  0.
         23    2    4    4    0    0 -0.26343476887E+02  0.47848029368E+03  0.19260527769E+04  0.19868006101E+04  0.89777472452E+02 0.  0.
          4    1    3    3  502    0  0.12722632599E+03 -0.12000922046E+03  0.16050403880E+03  0.23738217602E+03  0.00000000000E+00 0. -1.
         -3    1    3    3    0  502  0.46218836233E+03 -0.67755587501E+03  0.75984238805E+03  0.11180610452E+04  0.00000000000E+00 0.  1.
         13    1    5    5    0    0 -0.56476976363E+03  0.31219112295E+03  0.67899509469E+03  0.93672969515E+03  0.00000000000E+00 0.  1.
        -13    1    5    5    0    0  0.16985521915E+01  0.68936788318E+01  0.18056851727E+01  0.73258710285E+01  0.00000000000E+00 0. -1.
          4    1    6    6  503    0  0.65124926165E+01  0.94460547692E+02  0.53622984629E+03  0.54452516533E+03  0.00000000000E+00 0. -1.
         -4    1    6    6    0  503 -0.32855969504E+02  0.38401974599E+03  0.13898229306E+04  0.14422754447E+04  0.00000000000E+00 0.  1.
<mgrwt>
<rscale>  0 0.24354102E+04</rscale>
<asrwt>0</asrwt>
<pdfrwt beam="1">  1        2 0.60103838E+00 0.24354102E+04</pdfrwt>
<pdfrwt beam="2">  1       -1 0.58392265E-01 0.24354102E+04</pdfrwt>
<totfact> 0.12352456E+00</totfact>
</mgrwt>
</event>
<event>
12    7  0.1711607E-007  0.2373728E+04  0.7818608E-02  0.8449405E-01
         -1   -1    0    0    0  501 -0.00000000000E+00  0.00000000000E+00  0.58054615325E+03  0.58054615325E+03  0.00000000000E+00 0.  1.
          2   -1    0    0  501    0  0.00000000000E+00 -0.00000000000E+00 -0.24264151405E+04  0.24264151405E+04  0.00000000000E+00 0. -1.
         24    2    1    2    0    0 -0.82337567523E+03  0.55220134812E+03 -0.10946851724E+04  0.14790325309E+04  0.79547277369E+02 0.  0.
        254    2    1    2    0    0  0.82337567523E+03 -0.55220134812E+03 -0.75118381485E+03  0.15279287628E+04  0.88736427087E+03 0.  0.
         23    2    4    4    0    0  0.76544704643E+03 -0.47950693620E+03 -0.93409044646E+03  0.13025438844E+04  0.90881933492E+02 0.  0.
         23    2    4    4    0    0  0.57928628803E+02 -0.72694411920E+02  0.18290663161E+03  0.22538487846E+03  0.93291500103E+02 0.  0.
          2    1    3    3  502    0 -0.11463839307E+03  0.10312890348E+03 -0.14299828068E+03  0.21029988154E+03  0.00000000000E+00 0. -1.
         -1    1    3    3    0  502 -0.70873728216E+03  0.44907244465E+03 -0.95168689172E+03  0.12687326493E+04  0.00000000000E+00 0.  1.
         13    1    5    5    0    0  0.43461266283E+03 -0.26284244249E+03 -0.58829103593E+03  0.77721339362E+03  0.00000000000E+00 0. -1.
        -13    1    5    5    0    0  0.33083438360E+03 -0.21666449372E+03 -0.34579941053E+03  0.52533049077E+03  0.00000000000E+00 0.  1.
          2    1    6    6  503    0  0.57537083087E+02 -0.40527575035E+02  0.44448154573E+02  0.83238444924E+02  0.00000000000E+00 0. -1.
         -2    1    6    6    0  503  0.39154571565E+00 -0.32166836885E+02  0.13845847704E+03  0.14214643354E+03  0.00000000000E+00 0.  1.
<mgrwt>
<rscale>  0 0.23737278E+04</rscale>
<asrwt>0</asrwt>
<pdfrwt beam="1">  1        2 0.37329465E+00 0.23737278E+04</pdfrwt>
<pdfrwt beam="2">  1       -1 0.89314790E-01 0.23737278E+04</pdfrwt>
<totfact> 0.48345718E+00</totfact>
</mgrwt>
</event>
<event>
12    7  0.1711607E-007  0.1148157E+04  0.7818608E-02  0.9159485E-01
         -1   -1    0    0    0  501 -0.00000000000E+00  0.00000000000E+00  0.19130733156E+03  0.19130733156E+03  0.00000000000E+00 0.  1.
          2   -1    0    0  501    0  0.00000000000E+00 -0.00000000000E+00 -0.17227056417E+04  0.17227056417E+04  0.00000000000E+00 0. -1.
         24    2    1    2    0    0 -0.15159944940E+02  0.11721206952E+03 -0.59817054448E+03  0.61507003265E+03  0.80837191962E+02 0.  0.
        254    2    1    2    0    0  0.15159944940E+02 -0.11721206952E+03 -0.93322776568E+03  0.12989429406E+04  0.89575119715E+03 0.  0.
         23    2    4    4    0    0 -0.30854079138E+03  0.21137844374E+03 -0.21605502955E+03  0.44138645691E+03  0.90906337121E+02 0.  0.
         23    2    4    4    0    0  0.32370073632E+03 -0.32859051326E+03 -0.71717273613E+03  0.85755648372E+03  0.91172897436E+02 0.  0.
          2    1    3    3  502    0 -0.40972134787E+02  0.26941614938E+02 -0.22331613040E+03  0.22863652495E+03  0.00000000000E+00 0. -1.
         -1    1    3    3    0  502  0.25812189847E+02  0.90270454579E+02 -0.37485441409E+03  0.38643350770E+03  0.00000000000E+00 0.  1.
         13    1    5    5    0    0 -0.28685280924E+03  0.15860867500E+03 -0.18671117636E+03  0.37722978319E+03  0.00000000000E+00 0.  1.
        -13    1    5    5    0    0 -0.21687982139E+02  0.52769768737E+02 -0.29343853190E+02  0.64156673712E+02  0.00000000000E+00 0. -1.
          1    1    6    6  503    0  0.38057583921E+01  0.30952350686E+01 -0.28584167951E+02  0.29002050522E+02  0.00000000000E+00 0. -1.
         -1    1    6    6    0  503  0.31989497792E+03 -0.33168574832E+03 -0.68858856818E+03  0.82855443320E+03  0.00000000000E+00 0.  1.
<mgrwt>
<rscale>  0 0.11481572E+04</rscale>
<asrwt>0</asrwt>
<pdfrwt beam="1">  1        2 0.26503163E+00 0.11481572E+04</pdfrwt>
<pdfrwt beam="2">  1       -1 0.29431898E-01 0.11481572E+04</pdfrwt>
<totfact> 0.11336972E+02</totfact>
</mgrwt>
</event>
<event>
12    7  0.1711607E-007  0.1403682E+04  0.7818608E-02  0.8951158E-01
          2   -1    0    0  501    0  0.00000000000E+00  0.00000000000E+00  0.15386094610E+04  0.15386094610E+04  0.00000000000E+00 0. -1.
         -1   -1    0    0    0  501 -0.00000000000E+00 -0.00000000000E+00 -0.32014658649E+03  0.32014658649E+03  0.00000000000E+00 0.  1.
         24    2    1    2    0    0 -0.17991298074E+03 -0.19129689075E+03 -0.52607735601E+02  0.27922804282E+03  0.78978129902E+02 0.  0.
        254    2    1    2    0    0  0.17991298074E+03  0.19129689075E+03  0.12710706101E+04  0.15795280047E+04  0.90018055999E+03 0.  0.
         23    2    4    4    0    0  0.11829291934E+03 -0.35138684732E+03  0.48644879899E+03  0.61817359379E+03  0.89667311684E+02 0.  0.
         23    2    4    4    0    0  0.61620061402E+02  0.54268373807E+03  0.78462181112E+03  0.96135441088E+03  0.10133235069E+03 0.  0.
          4    1    3    3  502    0  0.71514145691E+00 -0.36017444819E+02 -0.63368015557E+01  0.36577627213E+02  0.00000000000E+00 0. -1.
         -3    1    3    3    0  502 -0.18062812219E+03 -0.15527944593E+03 -0.46270934046E+02  0.24265041561E+03  0.00000000000E+00 0.  1.
         13    1    5    5    0    0  0.11246150881E+03 -0.35626435405E+03  0.47323456131E+03  0.60292854547E+03  0.00000000000E+00 0.  1.
        -13    1    5    5    0    0  0.58314105249E+01  0.48775067301E+01  0.13214237683E+02  0.15245048316E+02  0.00000000000E+00 0. -1.
          2    1    6    6  503    0 -0.26538168953E+02  0.75493327396E+02  0.11682226507E+03  0.14160140715E+03  0.00000000000E+00 0. -1.
         -2    1    6    6    0  503  0.88158230354E+02  0.46719041067E+03  0.66779954605E+03  0.81975300372E+03  0.00000000000E+00 0.  1.
<mgrwt>
<rscale>  0 0.14036817E+04</rscale>
<asrwt>0</asrwt>
<pdfrwt beam="1">  1        2 0.23670914E+00 0.14036817E+04</pdfrwt>
<pdfrwt beam="2">  1       -1 0.49253322E-01 0.14036817E+04</pdfrwt>
<totfact> 0.55282684E+01</totfact>
</mgrwt>
</event>
<event>
12    7  0.1711607E-007  0.1193230E+04  0.7818608E-02  0.9118803E-01
         -1   -1    0    0    0  501 -0.00000000000E+00  0.00000000000E+00  0.13013999515E+03  0.13013999515E+03  0.00000000000E+00 0.  1.
          2   -1    0    0  501    0  0.00000000000E+00 -0.00000000000E+00 -0.27351252270E+04  0.27351252270E+04  0.00000000000E+00 0. -1.
         24    2    1    2    0    0 -0.16206199459E+03 -0.14957148334E+03 -0.80358933304E+03  0.83711092278E+03  0.79769431126E+02 0.  0.
        254    2    1    2    0    0  0.16206199459E+03  0.14957148334E+03 -0.18013958988E+04  0.20281542993E+04  0.90539878454E+03 0.  0.
         23    2    4    4    0    0  0.12829465849E+03  0.32390634017E+03 -0.17933570843E+04  0.18288525599E+04  0.84836414954E+02 0.  0.
         23    2    4    4    0    0  0.33767336095E+02 -0.17433485683E+03 -0.80388144412E+01  0.19930173943E+03  0.90131490125E+02 0.  0.
          4    1    3    3  502    0 -0.17119245516E+03 -0.13881508870E+03 -0.75692230457E+03  0.78835769845E+03  0.00000000000E+00 0. -1.
         -3    1    3    3    0  502  0.91304605736E+01 -0.10756394643E+02 -0.46667028472E+02  0.48753224328E+02  0.00000000000E+00 0.  1.
         13    1    5    5    0    0  0.38005652924E+02  0.30168688046E+02 -0.33266979342E+03  0.33619008142E+03  0.00000000000E+00 0. -1.
        -13    1    5    5    0    0  0.90289005570E+02  0.29373765212E+03 -0.14606872909E+04  0.14926624785E+04  0.00000000000E+00 0.  1.
          2    1    6    6  503    0  0.19445872354E+01  0.53945568451E+01 -0.15599710023E+02  0.16620277250E+02  0.00000000000E+00 0. -1.
         -2    1    6    6    0  503  0.31822748860E+02 -0.17972941367E+03  0.75608955814E+01  0.18268146218E+03  0.00000000000E+00 0.  1.
<mgrwt>
<rscale>  0 0.11932295E+04</rscale>
<asrwt>0</asrwt>
<pdfrwt beam="1">  1        2 0.42078845E+00 0.11932295E+04</pdfrwt>
<pdfrwt beam="2">  1       -1 0.20021540E-01 0.11932295E+04</pdfrwt>
<totfact> 0.58673169E+01</totfact>
</mgrwt>
</event>
<event>
12    7  0.1711607E-007  0.1946958E+04  0.7818608E-02  0.8631829E-01
         -1   -1    0    0    0  501 -0.00000000000E+00  0.00000000000E+00  0.84605627937E+03  0.84605627937E+03  0.00000000000E+00 0.  1.
          2   -1    0    0  501    0  0.00000000000E+00 -0.00000000000E+00 -0.11200920744E+04  0.11200920744E+04  0.00000000000E+00 0. -1.
         24    2    1    2    0    0 -0.21891004069E+03  0.50459485342E+03  0.43387465662E+03  0.70509283597E+03  0.79819281261E+02 0.  0.
        254    2    1    2    0    0  0.21891004069E+03 -0.50459485342E+03 -0.70791045165E+03  0.12610555178E+04  0.88689697226E+03 0.  0.
         23    2    4    4    0    0 -0.12038390936E+03 -0.35469519069E+03  0.72613493929E+02  0.39203845302E+03  0.90113623927E+02 0.  0.
         23    2    4    4    0    0  0.33929395005E+03 -0.14989966274E+03 -0.78052394558E+03  0.86901706478E+03  0.91557281642E+02 0.  0.
          2    1    3    3  502    0 -0.15763307887E+03  0.26882412329E+03  0.22776301302E+03  0.38599298817E+03  0.00000000000E+00 0. -1.
         -1    1    3    3    0  502 -0.61276961819E+02  0.23577073013E+03  0.20611164359E+03  0.31909984779E+03  0.00000000000E+00 0.  1.
         13    1    5    5    0    0  0.10781130918E+02 -0.40227612768E+02 -0.67527814495E+01  0.42191156303E+02  0.00000000000E+00 0. -1.
        -13    1    5    5    0    0 -0.13116504028E+03 -0.31446757792E+03  0.79366275379E+02  0.34984729672E+03  0.00000000000E+00 0.  1.
          2    1    6    6  503    0  0.16034463043E+02 -0.70355865301E+01 -0.75304516454E+01  0.19060723619E+02  0.00000000000E+00 0. -1.
         -2    1    6    6    0  503  0.32325948701E+03 -0.14286407621E+03 -0.77299349393E+03  0.84995634116E+03  0.00000000000E+00 0.  1.
<mgrwt>
<rscale>  0 0.19469576E+04</rscale>
<asrwt>0</asrwt>
<pdfrwt beam="1">  1        2 0.17232186E+00 0.19469576E+04</pdfrwt>
<pdfrwt beam="2">  1       -1 0.13016250E+00 0.19469576E+04</pdfrwt>
<totfact> 0.11391275E+01</totfact>
</mgrwt>
</event>
<event>
12    7  0.1711607E-007  0.2157946E+04  0.7818608E-02  0.8536139E-01
          2   -1    0    0  501    0  0.00000000000E+00  0.00000000000E+00  0.55021538788E+03  0.55021538788E+03  0.00000000000E+00 0. -1.
         -1   -1    0    0    0  501 -0.00000000000E+00 -0.00000000000E+00 -0.21158674589E+04  0.21158674589E+04  0.00000000000E+00 0.  1.
         24    2    1    2    0    0 -0.74121141878E+03  0.44380440256E+03 -0.43274954460E+03  0.96959049291E+03  0.80478820302E+02 0.  0.
        254    2    1    2    0    0  0.74121141878E+03 -0.44380440256E+03 -0.11329025265E+04  0.16964923539E+04  0.92101110597E+03 0.  0.
         23    2    4    4    0    0  0.55638788926E+03 -0.55561355780E+03 -0.12132998738E+04  0.14487036291E+04  0.91497061363E+02 0.  0.
         23    2    4    4    0    0  0.18482352952E+03  0.11180915524E+03  0.80397347311E+02  0.24778872484E+03  0.90964248155E+02 0.  0.
          2    1    3    3  502    0 -0.72378827764E+03  0.41609600341E+03 -0.41421687659E+03  0.93197691804E+03  0.00000000000E+00 0. -1.
         -1    1    3    3    0  502 -0.17423141142E+02  0.27708399154E+02 -0.18532668010E+02  0.37613574870E+02  0.00000000000E+00 0.  1.
         13    1    5    5    0    0  0.33123360027E+03 -0.36035876264E+03 -0.82422234814E+03  0.95860138480E+03  0.00000000000E+00 0. -1.
        -13    1    5    5    0    0  0.22515428899E+03 -0.19525479516E+03 -0.38907752562E+03  0.49010224426E+03  0.00000000000E+00 0.  1.
          2    1    6    6  503    0  0.71905450276E+02  0.92505130116E+02  0.22021836643E+02  0.11921641735E+03  0.00000000000E+00 0. -1.
         -2    1    6    6    0  503  0.11291807925E+03  0.19304025122E+02  0.58375510668E+02  0.12857230749E+03  0.00000000000E+00 0.  1.
<mgrwt>
<rscale>  0 0.21579461E+04</rscale>
<asrwt>0</asrwt>
<pdfrwt beam="1">  1        2 0.84648523E-01 0.21579461E+04</pdfrwt>
<pdfrwt beam="2">  1       -1 0.32551806E+00 0.21579461E+04</pdfrwt>
<totfact> 0.12990126E+00</totfact>
</mgrwt>
</event>
<event>
12    7  0.1711607E-007  0.1565316E+04  0.7818608E-02  0.8842144E-01
         -1   -1    0    0    0  501 -0.00000000000E+00  0.00000000000E+00  0.82906242852E+03  0.82906242852E+03  0.00000000000E+00 0.  1.
          2   -1    0    0  501    0  0.00000000000E+00 -0.00000000000E+00 -0.73885103335E+03  0.73885103335E+03  0.00000000000E+00 0. -1.
         24    2    1    2    0    0  0.32082669533E+03  0.17567012355E+01  0.45144000946E+03  0.55992601894E+03  0.82378456643E+02 0.  0.
        254    2    1    2    0    0 -0.32082669533E+03 -0.17567012355E+01 -0.36122861429E+03  0.10079874429E+04  0.88465796718E+03 0.  0.
         23    2    4    4    0    0 -0.41839142580E+02 -0.36259788675E+03 -0.39019676202E+03  0.54183389955E+03  0.90015111418E+02 0.  0.
         23    2    4    4    0    0 -0.27898755275E+03  0.36084118551E+03  0.28968147737E+02  0.46615354338E+03  0.91758142257E+02 0.  0.
          2    1    3    3  502    0  0.30836626639E+01 -0.77038079835E+01  0.35306113200E+02  0.36268157689E+02  0.00000000000E+00 0. -1.
         -1    1    3    3    0  502  0.31774303266E+03  0.94605092190E+01  0.41613389626E+03  0.52365786126E+03  0.00000000000E+00 0.  1.
         13    1    5    5    0    0 -0.35861781211E+01 -0.17777776075E+03 -0.24971229032E+03  0.30655182405E+03  0.00000000000E+00 0. -1.
        -13    1    5    5    0    0 -0.38252964459E+02 -0.18482012600E+03 -0.14048447171E+03  0.23528207551E+03  0.00000000000E+00 0.  1.
          3    1    6    6  503    0 -0.14556487670E+03  0.11740518107E+03  0.23654066212E+02  0.18850099395E+03  0.00000000000E+00 0. -1.
         -3    1    6    6    0  503 -0.13342267605E+03  0.24343600444E+03  0.53140815245E+01  0.27765254943E+03  0.00000000000E+00 0.  1.
<mgrwt>
<rscale>  0 0.15653161E+04</rscale>
<asrwt>0</asrwt>
<pdfrwt beam="1">  1        2 0.11366939E+00 0.15653161E+04</pdfrwt>
<pdfrwt beam="2">  1       -1 0.12754807E+00 0.15653161E+04</pdfrwt>
<totfact> 0.22341528E+01</totfact>
</mgrwt>
</event>
<event>
12    7  0.1711607E-007  0.1306870E+04  0.7818608E-02  0.9024135E-01
          2   -1    0    0  501    0  0.00000000000E+00  0.00000000000E+00  0.20079640232E+03  0.20079640232E+03  0.00000000000E+00 0. -1.
         -1   -1    0    0    0  501 -0.00000000000E+00 -0.00000000000E+00 -0.21264175064E+04  0.21264175064E+04  0.00000000000E+00 0.  1.
         24    2    1    2    0    0 -0.11078099977E+03  0.68800928488E+02  0.44055645472E+02  0.15823519277E+03  0.78047925421E+02 0.  0.
        254    2    1    2    0    0  0.11078099977E+03 -0.68800928488E+02 -0.19696767496E+04  0.21689787160E+04  0.89879707102E+03 0.  0.
         23    2    4    4    0    0  0.79053172201E+02  0.47608291980E+02  0.53539602414E+02  0.13986964203E+03  0.90449290962E+02 0.  0.
         23    2    4    4    0    0  0.31727827572E+02 -0.11640922047E+03 -0.20232163520E+04  0.20291090740E+04  0.96547736083E+02 0.  0.
          2    1    3    3  502    0 -0.47975799510E+02  0.40561897037E+02  0.60734850631E+02  0.87382303192E+02  0.00000000000E+00 0. -1.
         -1    1    3    3    0  502 -0.62805200263E+02  0.28239031451E+02 -0.16679205159E+02  0.70852889582E+02  0.00000000000E+00 0.  1.
         13    1    5    5    0    0  0.13108153230E+02  0.52813758283E+02 -0.55270927789E+00  0.54418951043E+02  0.00000000000E+00 0.  1.
        -13    1    5    5    0    0  0.65945018971E+02 -0.52054663025E+01  0.54092311692E+02  0.85450690990E+02  0.00000000000E+00 0. -1.
          4    1    6    6  503    0  0.22155579519E+02 -0.90294897829E+02 -0.19188223305E+04  0.19210734432E+04  0.00000000000E+00 0. -1.
         -4    1    6    6    0  503  0.95722480533E+01 -0.26114322640E+02 -0.10439402153E+03  0.10803563075E+03  0.00000000000E+00 0.  1.
<mgrwt>
<rscale>  0 0.13068695E+04</rscale>
<asrwt>0</asrwt>
<pdfrwt beam="1">  1        2 0.30891754E-01 0.13068695E+04</pdfrwt>
<pdfrwt beam="2">  1       -1 0.32714115E+00 0.13068695E+04</pdfrwt>
<totfact> 0.42835372E+00</totfact>
</mgrwt>
</event>
<event>
12    7  0.1711607E-007  0.1884352E+04  0.7818608E-02  0.8662685E-01
         -1   -1    0    0    0  501 -0.00000000000E+00  0.00000000000E+00  0.10209899190E+04  0.10209899190E+04  0.00000000000E+00 0.  1.
          2   -1    0    0  501    0  0.00000000000E+00 -0.00000000000E+00 -0.86944643556E+03  0.86944643556E+03  0.00000000000E+00 0. -1.
         24    2    1    2    0    0  0.49989386587E+02 -0.57368049237E+03 -0.38165418474E+03  0.69531902383E+03  0.78742504891E+02 0.  0.
        254    2    1    2    0    0 -0.49989386587E+02  0.57368049237E+03  0.53319766816E+03  0.11951173307E+04  0.90133092412E+03 0.  0.
         23    2    4    4    0    0  0.26710275971E+03  0.57116517629E+03  0.92423031804E+02  0.64384804817E+03  0.91786434007E+02 0.  0.
         23    2    4    4    0    0 -0.31709214630E+03  0.25153160754E+01  0.44077463636E+03  0.55126928256E+03  0.95193412483E+02 0.  0.
          2    1    3    3  502    0  0.59649584004E+02 -0.51236227957E+03 -0.31578071928E+03  0.60480628392E+03  0.00000000000E+00 0. -1.
         -1    1    3    3    0  502 -0.96601974173E+01 -0.61318212794E+02 -0.65873465453E+02  0.90512739905E+02  0.00000000000E+00 0.  1.
         13    1    5    5    0    0  0.83676266125E+01  0.89922247792E+02  0.44138968671E+01  0.90418528570E+02  0.00000000000E+00 0.  1.
        -13    1    5    5    0    0  0.25873513310E+03  0.48124292850E+03  0.88009134937E+02  0.55342951960E+03  0.00000000000E+00 0. -1.
          4    1    6    6  503    0 -0.27406595255E+03  0.96890300908E+01  0.42310510841E+03  0.50420626376E+03  0.00000000000E+00 0. -1.
         -4    1    6    6    0  503 -0.43026193742E+02 -0.71737140155E+01  0.17669527952E+02  0.47063018802E+02  0.00000000000E+00 0.  1.
<mgrwt>
<rscale>  0 0.18843525E+04</rscale>
<asrwt>0</asrwt>
<pdfrwt beam="1">  1        2 0.13376099E+00 0.18843525E+04</pdfrwt>
<pdfrwt beam="2">  1       -1 0.15707537E+00 0.18843525E+04</pdfrwt>
<totfact> 0.10128793E+01</totfact>
</mgrwt>
</event>
<event>
12    7  0.1711607E-007  0.2825128E+04  0.7818608E-02  0.8295509E-01
          2   -1    0    0  501    0  0.00000000000E+00  0.00000000000E+00  0.18189180935E+04  0.18189180935E+04  0.00000000000E+00 0. -1.
         -1   -1    0    0    0  501 -0.00000000000E+00 -0.00000000000E+00 -0.10969913393E+04  0.10969913393E+04  0.00000000000E+00 0.  1.
         24    2    1    2    0    0 -0.60398501049E+01  0.50832173197E+02 -0.98036488698E+03  0.98452661113E+03  0.74544931334E+02 0.  0.
        254    2    1    2    0    0  0.60398501049E+01 -0.50832173197E+02  0.17022916412E+04  0.19313828217E+04  0.91094587245E+03 0.  0.
         23    2    4    4    0    0 -0.36773541148E+03  0.22325275080E+03  0.79429115529E+03  0.90767058848E+03  0.88861320195E+02 0.  0.
         23    2    4    4    0    0  0.37377526158E+03 -0.27408492400E+03  0.90800048591E+03  0.10237122332E+04  0.93227475794E+02 0.  0.
          2    1    3    3  502    0 -0.12865140883E+02 -0.17506928097E+02 -0.24539797630E+03  0.24635781123E+03  0.00000000000E+00 0. -1.
         -1    1    3    3    0  502  0.68252907779E+01  0.68339101294E+02 -0.73496691067E+03  0.73816879990E+03  0.00000000000E+00 0.  1.
         13    1    5    5    0    0 -0.32346052123E+03  0.20304871538E+03  0.75102460992E+03  0.84255175171E+03  0.00000000000E+00 0.  1.
        -13    1    5    5    0    0 -0.44274890248E+02  0.20204035414E+02  0.43266545374E+02  0.65118836769E+02  0.00000000000E+00 0. -1.
          4    1    6    6  503    0  0.27058427610E+03 -0.14392058342E+03  0.60284277566E+03  0.67627538545E+03  0.00000000000E+00 0. -1.
         -4    1    6    6    0  503  0.10319098549E+03 -0.13016434058E+03  0.30515771025E+03  0.34743684774E+03  0.00000000000E+00 0.  1.
<mgrwt>
<rscale>  0 0.28251282E+04</rscale>
<asrwt>0</asrwt>
<pdfrwt beam="1">  1        2 0.27983355E+00 0.28251282E+04</pdfrwt>
<pdfrwt beam="2">  1       -1 0.16876790E+00 0.28251282E+04</pdfrwt>
<totfact> 0.20914434E+00</totfact>
</mgrwt>
</event>
<event>
12    7  0.1711607E-007  0.2865760E+04  0.7818608E-02  0.8283138E-01
          2   -1    0    0  501    0  0.00000000000E+00  0.00000000000E+00  0.21944059472E+04  0.21944059472E+04  0.00000000000E+00 0. -1.
         -1   -1    0    0    0  501 -0.00000000000E+00 -0.00000000000E+00 -0.93562690381E+03  0.93562690381E+03  0.00000000000E+00 0.  1.
         24    2    1    2    0    0  0.36597675195E+03 -0.32511151305E+02 -0.78003901913E+03  0.86572835946E+03  0.77645109887E+02 0.  0.
        254    2    1    2    0    0 -0.36597675195E+03  0.32511151305E+02  0.20388180625E+04  0.22643044915E+04  0.91394736197E+03 0.  0.
         23    2    4    4    0    0  0.28201198703E+02  0.28305952968E+03  0.18903663326E+03  0.35422338857E+03  0.93922070605E+02 0.  0.
         23    2    4    4    0    0 -0.39417795065E+03 -0.25054837837E+03  0.18497814292E+04  0.19100811029E+04  0.92562072339E+02 0.  0.
          4    1    3    3  502    0  0.73580913548E+01 -0.94289027051E+01 -0.87137558345E+01  0.14797812519E+02  0.00000000000E+00 0. -1.
         -3    1    3    3    0  502  0.35861866059E+03 -0.23082248600E+02 -0.77132526329E+03  0.85093054694E+03  0.00000000000E+00 0.  1.
         13    1    5    5    0    0 -0.13443658573E+02  0.89291736989E+02  0.17223910338E+02  0.91926108031E+02  0.00000000000E+00 0. -1.
        -13    1    5    5    0    0  0.41644857276E+02  0.19376779269E+03  0.17181272292E+03  0.26229728054E+03  0.00000000000E+00 0.  1.
          2    1    6    6  503    0  0.35330931071E+01 -0.10628490289E+02  0.32244255179E+02  0.34134140457E+02  0.00000000000E+00 0. -1.
         -2    1    6    6    0  503 -0.39771104376E+03 -0.23991988808E+03  0.18175371740E+04  0.18759469625E+04  0.00000000000E+00 0.  1.
<mgrwt>
<rscale>  0 0.28657601E+04</rscale>
<asrwt>0</asrwt>
<pdfrwt beam="1">  1        2 0.33760091E+00 0.28657601E+04</pdfrwt>
<pdfrwt beam="2">  1       -1 0.14394260E+00 0.28657601E+04</pdfrwt>
<totfact> 0.19942471E+00</totfact>
</mgrwt>
</event>
<event>
12    7  0.1711607E-007  0.2276458E+04  0.7818608E-02  0.8487261E-01
          2   -1    0    0  501    0  0.00000000000E+00  0.00000000000E+00  0.13200131260E+04  0.13200131260E+04  0.00000000000E+00 0. -1.
         -1   -1    0    0    0  501 -0.00000000000E+00 -0.00000000000E+00 -0.98147948873E+03  0.98147948873E+03  0.00000000000E+00 0.  1.
         24    2    1    2    0    0 -0.69538931156E+03 -0.43188016771E+03  0.65320557846E+03  0.10502008082E+04  0.78469331731E+02 0.  0.
        254    2    1    2    0    0  0.69538931156E+03  0.43188016771E+03 -0.31467194122E+03  0.12512918064E+04  0.89253906379E+03 0.  0.
         23    2    4    4    0    0  0.86578942811E+03  0.42689686340E+03 -0.39357879558E+03  0.10464385305E+04  0.91088221072E+02 0.  0.
         23    2    4    4    0    0 -0.17040011655E+03  0.49833043144E+01  0.78906854355E+02  0.20485327593E+03  0.81716215966E+02 0.  0.
          4    1    3    3  502    0 -0.50210546745E+03 -0.31519728180E+03  0.42703830179E+03  0.73063050723E+03  0.00000000000E+00 0. -1.
         -3    1    3    3    0  502 -0.19328384411E+03 -0.11668288591E+03  0.22616727666E+03  0.31957030102E+03  0.00000000000E+00 0.  1.
         13    1    5    5    0    0  0.64911478702E+03  0.34151858981E+03 -0.26145268417E+03  0.77867994707E+03  0.00000000000E+00 0.  1.
        -13    1    5    5    0    0  0.21667464109E+03  0.85378273583E+02 -0.13212611141E+03  0.26775858345E+03  0.00000000000E+00 0. -1.
          4    1    6    6  503    0 -0.83339215144E+02  0.41496001274E+02  0.52231109388E+02  0.10674938731E+03  0.00000000000E+00 0. -1.
         -4    1    6    6    0  503 -0.87060901407E+02 -0.36512696959E+02  0.26675744967E+02  0.98103888621E+02  0.00000000000E+00 0.  1.
<mgrwt>
<rscale>  0 0.22764585E+04</rscale>
<asrwt>0</asrwt>
<pdfrwt beam="1">  1        2 0.20307894E+00 0.22764585E+04</pdfrwt>
<pdfrwt beam="2">  1       -1 0.15099684E+00 0.22764585E+04</pdfrwt>
<totfact> 0.57096737E+00</totfact>
</mgrwt>
</event>
<event>
12    7  0.1711607E-007  0.1197928E+04  0.7818608E-02  0.9114673E-01
         -1   -1    0    0    0  501 -0.00000000000E+00  0.00000000000E+00  0.30358091679E+03  0.30358091679E+03  0.00000000000E+00 0.  1.
          2   -1    0    0  501    0  0.00000000000E+00 -0.00000000000E+00 -0.11817527199E+04  0.11817527199E+04  0.00000000000E+00 0. -1.
         24    2    1    2    0    0 -0.17161548727E+03  0.46541379209E+02  0.86263721239E+01  0.19528611924E+03  0.80276264385E+02 0.  0.
        254    2    1    2    0    0  0.17161548727E+03 -0.46541379209E+02 -0.88679817526E+03  0.12900475175E+04  0.91988782916E+03 0.  0.
         23    2    4    4    0    0  0.40774734037E+03 -0.33937506858E+03 -0.41549008883E+03  0.68005244130E+03  0.91684122120E+02 0.  0.
         23    2    4    4    0    0 -0.23613185310E+03  0.29283368937E+03 -0.47130808643E+03  0.60999507617E+03  0.91939430873E+02 0.  0.
          2    1    3    3  502    0 -0.37213489796E+02 -0.87928542726E+01  0.29702419780E+02  0.48418920370E+02  0.00000000000E+00 0. -1.
         -1    1    3    3    0  502 -0.13440199747E+03  0.55334233481E+02 -0.21076047656E+02  0.14686719887E+03  0.00000000000E+00 0.  1.
         13    1    5    5    0    0  0.94535082380E+02 -0.35780756981E+02 -0.61793083846E+02  0.11847164041E+03  0.00000000000E+00 0. -1.
        -13    1    5    5    0    0  0.31321225798E+03 -0.30359431160E+03 -0.35369700498E+03  0.56158080088E+03  0.00000000000E+00 0.  1.
          2    1    6    6  503    0 -0.10790766438E+03  0.67759552198E+02 -0.17410168456E+03  0.21574711473E+03  0.00000000000E+00 0. -1.
         -2    1    6    6    0  503 -0.12822418872E+03  0.22507413717E+03 -0.29720640187E+03  0.39424796145E+03  0.00000000000E+00 0.  1.
<mgrwt>
<rscale>  0 0.11979275E+04</rscale>
<asrwt>0</asrwt>
<pdfrwt beam="1">  1        2 0.18180811E+00 0.11979275E+04</pdfrwt>
<pdfrwt beam="2">  1       -1 0.46704756E-01 0.11979275E+04</pdfrwt>
<totfact> 0.99774958E+01</totfact>
</mgrwt>
</event>
<event>
12    7  0.1711607E-007  0.3503632E+04  0.7818608E-02  0.8112930E-01
         -1   -1    0    0    0  501 -0.00000000000E+00  0.00000000000E+00  0.16071459926E+04  0.16071459926E+04  0.00000000000E+00 0.  1.
          2   -1    0    0  501    0  0.00000000000E+00 -0.00000000000E+00 -0.19095081968E+04  0.19095081968E+04  0.00000000000E+00 0. -1.
         24    2    1    2    0    0 -0.76349549143E+03  0.43787281135E+03 -0.15242029215E+04  0.17618172957E+04  0.78407098830E+02 0.  0.
        254    2    1    2    0    0  0.76349549143E+03 -0.43787281135E+03  0.12218407173E+04  0.17548368937E+04  0.90105483782E+03 0.  0.
         23    2    4    4    0    0 -0.13040926712E+03 -0.27974092723E+03  0.48745700359E+03  0.58373686273E+03  0.88728976326E+02 0.  0.
         23    2    4    4    0    0  0.89390475855E+03 -0.15813188413E+03  0.73438371369E+03  0.11711000310E+04  0.89913477785E+02 0.  0.
          2    1    3    3  502    0 -0.21068776917E+03  0.88909970042E+02 -0.43651218282E+03  0.49278515055E+03  0.00000000000E+00 0. -1.
         -1    1    3    3    0  502 -0.55280772225E+03  0.34896284131E+03 -0.10876907386E+04  0.12690321451E+04  0.00000000000E+00 0.  1.
         13    1    5    5    0    0 -0.11681875220E+03 -0.20267585968E+03  0.41846022390E+03  0.47940909874E+03  0.00000000000E+00 0. -1.
        -13    1    5    5    0    0 -0.13590514918E+02 -0.77065067550E+02  0.68996779692E+02  0.10432776399E+03  0.00000000000E+00 0.  1.
          4    1    6    6  503    0  0.66942260828E+03 -0.81640470438E+02  0.56299111330E+03  0.87849347666E+03  0.00000000000E+00 0.  1.
         -4    1    6    6    0  503  0.22448215027E+03 -0.76491413687E+02  0.17139260039E+03  0.29260655431E+03  0.00000000000E+00 0. -1.
<mgrwt>
<rscale>  0 0.35036315E+04</rscale>
<asrwt>0</asrwt>
<pdfrwt beam="1">  1        2 0.29377049E+00 0.35036315E+04</pdfrwt>
<pdfrwt beam="2">  1       -1 0.24725323E+00 0.35036315E+04</pdfrwt>
<totfact> 0.50944733E-01</totfact>
</mgrwt>
</event>
<event>
12    7  0.1711607E-007  0.3215548E+04  0.7818608E-02  0.8184723E-01
         -1   -1    0    0    0  501 -0.00000000000E+00  0.00000000000E+00  0.14735833574E+04  0.14735833574E+04  0.00000000000E+00 0.  1.
          2   -1    0    0  501    0  0.00000000000E+00 -0.00000000000E+00 -0.17541841484E+04  0.17541841484E+04  0.00000000000E+00 0. -1.
         24    2    1    2    0    0  0.88410363443E+03  0.21836053867E+03  0.10428460306E+04  0.13868163814E+04  0.80070411435E+02 0.  0.
        254    2    1    2    0    0 -0.88410363443E+03 -0.21836053867E+03 -0.13234468216E+04  0.18409511244E+04  0.89903781424E+03 0.  0.
         23    2    4    4    0    0  0.97722097698E+02 -0.25965878577E+03 -0.28025322952E+03  0.40483760153E+03  0.91538612361E+02 0.  0.
         23    2    4    4    0    0 -0.98182573212E+03  0.41298247103E+02 -0.10431935921E+04  0.14361135228E+04  0.92097048955E+02 0.  0.
          4    1    3    3  502    0  0.34393475254E+03  0.57992355981E+02  0.44291942859E+03  0.56376577369E+03  0.00000000000E+00 0. -1.
         -3    1    3    3    0  502  0.54016888189E+03  0.16036818268E+03  0.59992660203E+03  0.82305060768E+03  0.00000000000E+00 0.  1.
         13    1    5    5    0    0  0.45885993276E+02 -0.19053111997E+03 -0.14281161175E+03  0.24249286280E+03  0.00000000000E+00 0. -1.
        -13    1    5    5    0    0  0.51836104421E+02 -0.69127665797E+02 -0.13744161777E+03  0.16234473874E+03  0.00000000000E+00 0.  1.
          3    1    6    6  503    0 -0.61563472748E+02  0.13259854756E+02 -0.99039777836E+02  0.11736593423E+03  0.00000000000E+00 0. -1.
         -3    1    6    6    0  503 -0.92026225938E+03  0.28038392347E+02 -0.94415381425E+03  0.13187475886E+04  0.00000000000E+00 0.  1.
<mgrwt>
<rscale>  0 0.32155476E+04</rscale>
<asrwt>0</asrwt>
<pdfrwt beam="1">  1        2 0.26987448E+00 0.32155476E+04</pdfrwt>
<pdfrwt beam="2">  1       -1 0.22670513E+00 0.32155476E+04</pdfrwt>
<totfact> 0.86928683E-01</totfact>
</mgrwt>
</event>
<event>
12    7  0.1711607E-007  0.1233645E+04  0.7818608E-02  0.9083907E-01
          2   -1    0    0  501    0  0.00000000000E+00  0.00000000000E+00  0.82710799487E+03  0.82710799487E+03  0.00000000000E+00 0. -1.
         -3   -1    0    0    0  501 -0.00000000000E+00 -0.00000000000E+00 -0.46000022110E+03  0.46000022110E+03  0.00000000000E+00 0.  1.
         24    2    1    2    0    0  0.90563505900E+02 -0.89865314209E+02  0.34672997184E+03  0.37749147178E+03  0.77463634041E+02 0.  0.
        254    2    1    2    0    0 -0.90563505900E+02  0.89865314209E+02  0.20377801930E+02  0.90961674419E+03  0.90039427097E+03 0.  0.
         23    2    4    4    0    0 -0.38255799995E+03 -0.13296129423E+03 -0.21105605293E+03  0.46593170740E+03  0.92295012865E+02 0.  0.
         23    2    4    4    0    0  0.29199449405E+03  0.22282660844E+03  0.23143385486E+03  0.44368503678E+03  0.91554905421E+02 0.  0.
          2    1    3    3  502    0  0.98055494652E+02 -0.93769489671E+02  0.34172214583E+03  0.36767053482E+03  0.00000000000E+00 0. -1.
         -1    1    3    3    0  502 -0.74919887518E+01  0.39041754615E+01  0.50078260090E+01  0.98209369628E+01  0.00000000000E+00 0.  1.
         13    1    5    5    0    0 -0.23618092074E+03 -0.10951405626E+03 -0.93086235786E+02  0.27647749119E+03  0.00000000000E+00 0. -1.
        -13    1    5    5    0    0 -0.14637707921E+03 -0.23447237968E+02 -0.11796981714E+03  0.18945421622E+03  0.00000000000E+00 0.  1.
          1    1    6    6  503    0  0.92381156158E+02  0.36292658347E+02  0.28211691716E+02  0.10318592255E+03  0.00000000000E+00 0. -1.
         -1    1    6    6    0  503  0.19961333789E+03  0.18653395009E+03  0.20322216314E+03  0.34049911423E+03  0.00000000000E+00 0.  1.
<mgrwt>
<rscale>  0 0.12336448E+04</rscale>
<asrwt>0</asrwt>
<pdfrwt beam="1">  1        2 0.12724738E+00 0.12336448E+04</pdfrwt>
<pdfrwt beam="2">  1       -3 0.70769265E-01 0.12336448E+04</pdfrwt>
<totfact> 0.39210853E+01</totfact>
</mgrwt>
</event>
<event>
12    7  0.1711607E-007  0.1456824E+04  0.7818608E-02  0.8913683E-01
         -1   -1    0    0    0  501 -0.00000000000E+00  0.00000000000E+00  0.27818114716E+03  0.27818114716E+03  0.00000000000E+00 0.  1.
          2   -1    0    0  501    0  0.00000000000E+00 -0.00000000000E+00 -0.19073339225E+04  0.19073339225E+04  0.00000000000E+00 0. -1.
         24    2    1    2    0    0  0.10487523651E+02  0.28384314756E+03 -0.10188051311E+04  0.10607368686E+04  0.80758210402E+02 0.  0.
        254    2    1    2    0    0 -0.10487523651E+02 -0.28384314756E+03 -0.61034764422E+03  0.11247782011E+04  0.90106871786E+03 0.  0.
         23    2    4    4    0    0  0.12497350800E+03 -0.51203530937E+03 -0.10146136550E+03  0.54354682892E+03  0.85733370397E+02 0.  0.
         23    2    4    4    0    0 -0.13546103165E+03  0.22819216180E+03 -0.50888627872E+03  0.58123137219E+03  0.91887483068E+02 0.  0.
          4    1    3    3  502    0 -0.18004094455E+02  0.19470381021E+03 -0.78288221239E+03  0.80693139709E+03  0.00000000000E+00 0. -1.
         -3    1    3    3    0  502  0.28491618106E+02  0.89139337356E+02 -0.23592291875E+03  0.25380547149E+03  0.00000000000E+00 0.  1.
         13    1    5    5    0    0  0.70265862861E+02 -0.27260980654E+03 -0.97477816604E+02  0.29791831571E+03  0.00000000000E+00 0. -1.
        -13    1    5    5    0    0  0.54707645140E+02 -0.23942550283E+03 -0.39835489009E+01  0.24562851321E+03  0.00000000000E+00 0.  1.
          1    1    6    6  503    0 -0.11218589059E+03  0.14798574581E+03 -0.26617078727E+03  0.32454944616E+03  0.00000000000E+00 0. -1.
         -1    1    6    6    0  503 -0.23275141058E+02  0.80206415998E+02 -0.24271549145E+03  0.25668192602E+03  0.00000000000E+00 0.  1.
<mgrwt>
<rscale>  0 0.14568244E+04</rscale>
<asrwt>0</asrwt>
<pdfrwt beam="1">  1        2 0.29343600E+00 0.14568244E+04</pdfrwt>
<pdfrwt beam="2">  1       -1 0.42797098E-01 0.14568244E+04</pdfrwt>
<totfact> 0.44674896E+01</totfact>
</mgrwt>
</event>
<event>
12    7  0.1711607E-007  0.1972513E+04  0.7818608E-02  0.8619580E-01
          2   -1    0    0  501    0  0.00000000000E+00  0.00000000000E+00  0.51248286312E+03  0.51248286312E+03  0.00000000000E+00 0. -1.
         -1   -1    0    0    0  501 -0.00000000000E+00 -0.00000000000E+00 -0.18980191750E+04  0.18980191750E+04  0.00000000000E+00 0.  1.
         24    2    1    2    0    0  0.31570957915E+03 -0.10406361454E+03 -0.14102348281E+04  0.14510670138E+04  0.79570308640E+02 0.  0.
        254    2    1    2    0    0 -0.31570957915E+03  0.10406361454E+03  0.24698516226E+02  0.95943502429E+03  0.89966870285E+03 0.  0.
         23    2    4    4    0    0 -0.58197043322E+03  0.17050204918E+03  0.16693507630E+03  0.63555526078E+03  0.91118800967E+02 0.  0.
         23    2    4    4    0    0  0.26626085407E+03 -0.66438434636E+02 -0.14223656007E+03  0.32387976350E+03  0.96736519366E+02 0.  0.
          4    1    3    3  502    0  0.12714216456E+02  0.11459333431E+02 -0.88069054711E+02  0.89716921595E+02  0.00000000000E+00 0. -1.
         -1    1    3    3    0  502  0.30299536269E+03 -0.11552294797E+03 -0.13221657734E+04  0.13613500922E+04  0.00000000000E+00 0.  1.
         13    1    5    5    0    0 -0.33347488643E+03  0.58554843324E+02  0.11864356340E+03  0.35876240702E+03  0.00000000000E+00 0. -1.
        -13    1    5    5    0    0 -0.24849554679E+03  0.11194720585E+03  0.48291512896E+02  0.27679285376E+03  0.00000000000E+00 0.  1.
          1    1    6    6  503    0  0.12969850875E+03  0.17126919589E+02 -0.66948032070E+02  0.14695942822E+03  0.00000000000E+00 0. -1.
         -1    1    6    6    0  503  0.13656234533E+03 -0.83565354225E+02 -0.75288528000E+02  0.17692033528E+03  0.00000000000E+00 0.  1.
<mgrwt>
<rscale>  0 0.19725134E+04</rscale>
<asrwt>0</asrwt>
<pdfrwt beam="1">  1        2 0.78843517E-01 0.19725134E+04</pdfrwt>
<pdfrwt beam="2">  1       -1 0.29200295E+00 0.19725134E+04</pdfrwt>
<totfact> 0.23696670E+00</totfact>
</mgrwt>
</event>
<event>
12    7  0.1778988E-007  0.2778050E+04  0.7818608E-02  0.8310115E-01
          2   -1    0    0  501    0  0.00000000000E+00  0.00000000000E+00  0.16571993281E+04  0.16571993281E+04  0.00000000000E+00 0. -1.
         -1   -1    0    0    0  501 -0.00000000000E+00 -0.00000000000E+00 -0.11642477532E+04  0.11642477532E+04  0.00000000000E+00 0.  1.
         24    2    1    2    0    0 -0.89238165296E+03 -0.65644576765E+03  0.78756188376E+03  0.13614969065E+04  0.78447722874E+02 0.  0.
        254    2    1    2    0    0  0.89238165296E+03  0.65644576765E+03 -0.29461030885E+03  0.14599501748E+04  0.90409801379E+03 0.  0.
         23    2    4    4    0    0  0.79422202624E+03  0.75154778134E+03  0.25590448610E+02  0.10977101256E+04  0.93273544555E+02 0.  0.
         23    2    4    4    0    0  0.98159626713E+02 -0.95102013697E+02 -0.32020075746E+03  0.36224004927E+03  0.10004810288E+03 0.  0.
          2    1    3    3  502    0 -0.41198080976E+03 -0.31543306033E+03  0.32252042102E+03  0.61093831533E+03  0.00000000000E+00 0. -1.
         -1    1    3    3    0  502 -0.48040084320E+03 -0.34101270731E+03  0.46504146273E+03  0.75055859116E+03  0.00000000000E+00 0.  1.
         13    1    5    5    0    0  0.77693953933E+03  0.72753107324E+03  0.10390418252E+02  0.10644456168E+04  0.00000000000E+00 0. -1.
        -13    1    5    5    0    0  0.17282486919E+02  0.24016708102E+02  0.15200030358E+02  0.33264508790E+02  0.00000000000E+00 0.  1.
          1    1    6    6  503    0  0.63107623666E+02 -0.95490921910E+02 -0.30153027968E+03  0.32252379431E+03  0.00000000000E+00 0. -1.
         -1    1    6    6    0  503  0.35052003047E+02  0.38890821318E+00 -0.18670477775E+02  0.39716254954E+02  0.00000000000E+00 0.  1.
<mgrwt>
<rscale>  0 0.27780501E+04</rscale>
<asrwt>0</asrwt>
<pdfrwt beam="1">  1        2 0.25495374E+00 0.27780501E+04</pdfrwt>
<pdfrwt beam="2">  1       -1 0.17911504E+00 0.27780501E+04</pdfrwt>
<totfact> 0.21714351E+00</totfact>
</mgrwt>
</event>
<event>
12    7  0.1711607E-007  0.1637054E+04  0.7818608E-02  0.8798102E-01
         -1   -1    0    0    0  501 -0.00000000000E+00  0.00000000000E+00  0.46512785363E+03  0.46512785363E+03  0.00000000000E+00 0.  1.
          2   -1    0    0  501    0  0.00000000000E+00 -0.00000000000E+00 -0.14404355583E+04  0.14404355583E+04  0.00000000000E+00 0. -1.
         24    2    1    2    0    0 -0.40619680914E+03  0.28598683937E+03 -0.36618481440E+02  0.50458325622E+03  0.80492417251E+02 0.  0.
        254    2    1    2    0    0  0.40619680914E+03 -0.28598683937E+03 -0.93868922325E+03  0.14009801557E+04  0.91368682757E+03 0.  0.
         23    2    4    4    0    0  0.28565424756E+03 -0.29140607210E+03  0.31138882086E+02  0.41934398103E+03  0.91454340755E+02 0.  0.
         23    2    4    4    0    0  0.12054256158E+03  0.54192327290E+01 -0.96982810533E+03  0.98163617470E+03  0.92104008377E+02 0.  0.
          2    1    3    3  502    0 -0.47187110110E+01  0.12411362994E+01  0.90331918377E+01  0.10266703838E+02  0.00000000000E+00 0. -1.
         -1    1    3    3    0  502 -0.40147809812E+03  0.28474570307E+03 -0.45651673278E+02  0.49431655239E+03  0.00000000000E+00 0.  1.
         13    1    5    5    0    0  0.15472189376E+03 -0.99024789624E+02  0.32938668927E+02  0.18662724689E+03  0.00000000000E+00 0.  1.
        -13    1    5    5    0    0  0.13093235379E+03 -0.19238128247E+03 -0.17997868412E+01  0.23271673414E+03  0.00000000000E+00 0. -1.
          2    1    6    6  503    0  0.40892566583E+02  0.46626507065E+02 -0.37882405753E+03  0.38386703392E+03  0.00000000000E+00 0. -1.
         -2    1    6    6    0  503  0.79649994996E+02 -0.41207274336E+02 -0.59100404780E+03  0.59776914079E+03  0.00000000000E+00 0.  1.
<mgrwt>
<rscale>  0 0.16370543E+04</rscale>
<asrwt>0</asrwt>
<pdfrwt beam="1">  1        2 0.22160547E+00 0.16370543E+04</pdfrwt>
<pdfrwt beam="2">  1       -1 0.71558132E-01 0.16370543E+04</pdfrwt>
<totfact> 0.29480107E+01</totfact>
</mgrwt>
</event>
<event>
12    7  0.1711607E-007  0.1669900E+04  0.7818608E-02  0.8778720E-01
         -3   -1    0    0    0  501 -0.00000000000E+00  0.00000000000E+00  0.45409467330E+03  0.45409467330E+03  0.00000000000E+00 0.  1.
          2   -1    0    0  501    0  0.00000000000E+00 -0.00000000000E+00 -0.15352342314E+04  0.15352342314E+04  0.00000000000E+00 0. -1.
         24    2    1    2    0    0  0.32107771490E+03  0.89911498885E+02  0.19301023096E+03  0.39305878980E+03  0.77892787514E+02 0.  0.
        254    2    1    2    0    0 -0.32107771490E+03 -0.89911498885E+02 -0.12741497891E+04  0.15962701149E+04  0.90191220088E+03 0.  0.
         23    2    4    4    0    0 -0.27583808767E+03 -0.42784772640E+02 -0.13981911169E+04  0.14286744521E+04  0.90857599749E+02 0.  0.
         23    2    4    4    0    0 -0.45239627230E+02 -0.47126726245E+02  0.12404132780E+03  0.16759566280E+03  0.91839550237E+02 0.  0.
          2    1    3    3  502    0 -0.40943006520E+01  0.22184225444E+01 -0.41856319587E+00  0.46754562946E+01  0.00000000000E+00 0. -1.
         -3    1    3    3    0  502  0.32517201556E+03  0.87693076341E+02  0.19342879415E+03  0.38838333351E+03  0.00000000000E+00 0.  1.
         13    1    5    5    0    0 -0.27665624945E+03 -0.43498554214E+02 -0.12714106858E+04  0.13018893718E+04  0.00000000000E+00 0. -1.
        -13    1    5    5    0    0  0.81816177605E+00  0.71378157446E+00 -0.12678043110E+03  0.12678508028E+03  0.00000000000E+00 0.  1.
          1    1    6    6  503    0  0.26063871541E+01 -0.59212317984E+02  0.89551838530E+02  0.10738912254E+03  0.00000000000E+00 0. -1.
         -1    1    6    6    0  503 -0.47846014384E+02  0.12085591739E+02  0.34489489270E+02  0.60206540261E+02  0.00000000000E+00 0.  1.
<mgrwt>
<rscale>  0 0.16699002E+04</rscale>
<asrwt>0</asrwt>
<pdfrwt beam="1">  1        2 0.23618988E+00 0.16699002E+04</pdfrwt>
<pdfrwt beam="2">  1       -3 0.69860721E-01 0.16699002E+04</pdfrwt>
<totfact> 0.14471614E+01</totfact>
</mgrwt>
</event>
<event>
12    7  0.1711607E-007  0.1203992E+04  0.7818608E-02  0.9109370E-01
         -1   -1    0    0    0  501 -0.00000000000E+00  0.00000000000E+00  0.43547772547E+03  0.43547772547E+03  0.00000000000E+00 0.  1.
          2   -1    0    0  501    0  0.00000000000E+00 -0.00000000000E+00 -0.83218745183E+03  0.83218745183E+03  0.00000000000E+00 0. -1.
         24    2    1    2    0    0  0.35965401240E+00 -0.13124168945E+03  0.14650629246E+03  0.21152971180E+03  0.77821686194E+02 0.  0.
        254    2    1    2    0    0 -0.35965401240E+00  0.13124168945E+03 -0.54321601882E+03  0.10561354655E+04  0.89616626135E+03 0.  0.
         23    2    4    4    0    0  0.22037574461E+02  0.17124006644E+03 -0.77644511330E+03  0.80091549014E+03  0.93753897652E+02 0.  0.
         23    2    4    4    0    0 -0.22397228473E+02 -0.39998376987E+02  0.23322909449E+03  0.25521997536E+03  0.92951166227E+02 0.  0.
          4    1    3    3  502    0 -0.65831396666E+01 -0.98984272636E+01 -0.84563540058E+01  0.14588574750E+02  0.00000000000E+00 0. -1.
         -3    1    3    3    0  502  0.69427936790E+01 -0.12134326219E+03  0.15496264646E+03  0.19694113705E+03  0.00000000000E+00 0.  1.
         13    1    5    5    0    0  0.30483850863E+02  0.14138888115E+03 -0.44263910363E+03  0.46567097498E+03  0.00000000000E+00 0.  1.
        -13    1    5    5    0    0 -0.84462764021E+01  0.29851185290E+02 -0.33380600968E+03  0.33524451516E+03  0.00000000000E+00 0. -1.
          1    1    6    6  503    0 -0.24452460607E+02  0.27091475847E+02  0.84824719396E+02  0.92342319193E+02  0.00000000000E+00 0. -1.
         -1    1    6    6    0  503  0.20552321339E+01 -0.67089852835E+02  0.14840437509E+03  0.16287765617E+03  0.00000000000E+00 0.  1.
<mgrwt>
<rscale>  0 0.12039919E+04</rscale>
<asrwt>0</asrwt>
<pdfrwt beam="1">  1        2 0.12802884E+00 0.12039919E+04</pdfrwt>
<pdfrwt beam="2">  1       -1 0.66996574E-01 0.12039919E+04</pdfrwt>
<totfact> 0.83039873E+01</totfact>
</mgrwt>
</event>
<event>
12    7  0.1711607E-007  0.2134914E+04  0.7818608E-02  0.8546018E-01
          2   -1    0    0  501    0  0.00000000000E+00  0.00000000000E+00  0.16986570223E+04  0.16986570223E+04  0.00000000000E+00 0. -1.
         -1   -1    0    0    0  501 -0.00000000000E+00 -0.00000000000E+00 -0.67080299079E+03  0.67080299079E+03  0.00000000000E+00 0.  1.
         24    2    1    2    0    0  0.38422166636E+03  0.75966159030E+03  0.22193378943E+03  0.88330578618E+03  0.79135860037E+02 0.  0.
        254    2    1    2    0    0 -0.38422166636E+03 -0.75966159030E+03  0.80592024211E+03  0.14861542269E+04  0.91347409866E+03 0.  0.
         23    2    4    4    0    0 -0.54320355698E+03 -0.86643757181E+03  0.58863441991E+03  0.11835468744E+04  0.92241821095E+02 0.  0.
         23    2    4    4    0    0  0.15898189062E+03  0.10677598151E+03  0.21728582220E+03  0.30260735249E+03  0.87645476082E+02 0.  0.
          4    1    3    3  502    0  0.30987317890E+03  0.58771066059E+03  0.14079313613E+03  0.67915235018E+03  0.00000000000E+00 0. -1.
         -3    1    3    3    0  502  0.74348487457E+02  0.17195092971E+03  0.81140653301E+02  0.20415343601E+03  0.00000000000E+00 0.  1.
         13    1    5    5    0    0 -0.27646657448E+03 -0.48350391210E+03  0.36623076807E+03  0.66658440974E+03  0.00000000000E+00 0.  1.
        -13    1    5    5    0    0 -0.26673698250E+03 -0.38293365970E+03  0.22240365183E+03  0.51696246471E+03  0.00000000000E+00 0. -1.
          3    1    6    6  503    0  0.61500642051E+01  0.44419544279E+02  0.57007626721E+02  0.72531294681E+02  0.00000000000E+00 0. -1.
         -3    1    6    6    0  503  0.15283182642E+03  0.62356437227E+02  0.16027819548E+03  0.23007605781E+03  0.00000000000E+00 0.  1.
<mgrwt>
<rscale>  0 0.21349138E+04</rscale>
<asrwt>0</asrwt>
<pdfrwt beam="1">  1        2 0.26133185E+00 0.21349138E+04</pdfrwt>
<pdfrwt beam="2">  1       -1 0.10320046E+00 0.21349138E+04</pdfrwt>
<totfact> 0.91114511E+00</totfact>
</mgrwt>
</event>
<event>
12    7  0.1711607E-007  0.4489815E+04  0.7818608E-02  0.7912422E-01
          2   -1    0    0  501    0  0.00000000000E+00  0.00000000000E+00  0.19078582256E+04  0.19078582256E+04  0.00000000000E+00 0. -1.
         -1   -1    0    0    0  501 -0.00000000000E+00 -0.00000000000E+00 -0.26415016135E+04  0.26415016135E+04  0.00000000000E+00 0.  1.
         24    2    1    2    0    0  0.15734048023E+03  0.21163207505E+04  0.22888635571E+02  0.21237429779E+04  0.78681643383E+02 0.  0.
        254    2    1    2    0    0 -0.15734048023E+03 -0.21163207505E+04 -0.75653202346E+03  0.24256168611E+04  0.89872515749E+03 0.  0.
         23    2    4    4    0    0 -0.56507468286E+01 -0.56955207647E+03  0.18582421381E+03  0.60584217430E+03  0.89958895975E+02 0.  0.
         23    2    4    4    0    0 -0.15168973340E+03 -0.15467686740E+04 -0.94235623727E+03  0.18197746868E+04  0.89674559989E+02 0.  0.
          2    1    3    3  502    0  0.71904559845E+01  0.20436593977E+02  0.57608164240E+01  0.22417493984E+02  0.00000000000E+00 0. -1.
         -1    1    3    3    0  502  0.15015002425E+03  0.20958841565E+04  0.17127819147E+02  0.21013254839E+04  0.00000000000E+00 0.  1.
         13    1    5    5    0    0  0.37025123868E+02 -0.13965774441E+03  0.40594482448E+02  0.15007683824E+03  0.00000000000E+00 0.  1.
        -13    1    5    5    0    0 -0.42675870696E+02 -0.42989433206E+03  0.14522973136E+03  0.45576533606E+03  0.00000000000E+00 0. -1.
          2    1    6    6  503    0 -0.75836718549E+02 -0.38707741023E+03 -0.25046748106E+03  0.46724093192E+03  0.00000000000E+00 0.  1.
         -2    1    6    6    0  503 -0.75853014855E+02 -0.11596912638E+04 -0.69188875621E+03  0.13525337549E+04  0.00000000000E+00 0. -1.
<mgrwt>
<rscale>  0 0.44898154E+04</rscale>
<asrwt>0</asrwt>
<pdfrwt beam="1">  1        2 0.29351665E+00 0.44898154E+04</pdfrwt>
<pdfrwt beam="2">  1       -1 0.40638487E+00 0.44898154E+04</pdfrwt>
<totfact> 0.41980297E-02</totfact>
</mgrwt>
</event>
<event>
12    7  0.1711607E-007  0.3428285E+04  0.7818608E-02  0.8130999E-01
         -1   -1    0    0    0  501 -0.00000000000E+00  0.00000000000E+00  0.87671768203E+03  0.87671768203E+03  0.00000000000E+00 0.  1.
          2   -1    0    0  501    0  0.00000000000E+00 -0.00000000000E+00 -0.33514604628E+04  0.33514604628E+04  0.00000000000E+00 0. -1.
         24    2    1    2    0    0 -0.11221690700E+04 -0.88164630638E+03 -0.27291756749E+03  0.14551721826E+04  0.80488827252E+02 0.  0.
        254    2    1    2    0    0  0.11221690700E+04  0.88164630638E+03 -0.22018252133E+04  0.27730059622E+04  0.89719795216E+03 0.  0.
         23    2    4    4    0    0  0.28263336751E+03  0.77942593835E+03 -0.11405640190E+04  0.14130076540E+04  0.91202713595E+02 0.  0.
         23    2    4    4    0    0  0.83953570246E+03  0.10222036803E+03 -0.10612611943E+04  0.13599983082E+04  0.89726676662E+02 0.  0.
          4    1    3    3  502    0 -0.10835280059E+04 -0.83702031133E+03 -0.27308375191E+03  0.13961413527E+04  0.00000000000E+00 0. -1.
         -3    1    3    3    0  502 -0.38641064116E+02 -0.44625995050E+02  0.16618441288E+00  0.59030829974E+02  0.00000000000E+00 0.  1.
         13    1    5    5    0    0  0.26767267216E+03  0.74458195305E+03 -0.11152348549E+04  0.13674062036E+04  0.00000000000E+00 0.  1.
        -13    1    5    5    0    0  0.14960695348E+02  0.34843985299E+02 -0.25329164088E+02  0.45601450308E+02  0.00000000000E+00 0. -1.
          4    1    6    6  503    0  0.22177216146E+03 -0.12472371363E+02 -0.27145075430E+03  0.35074772081E+03  0.00000000000E+00 0. -1.
         -4    1    6    6    0  503  0.61776354100E+03  0.11469273939E+03 -0.78981044003E+03  0.10092505874E+04  0.00000000000E+00 0.  1.
<mgrwt>
<rscale>  0 0.34282851E+04</rscale>
<asrwt>0</asrwt>
<pdfrwt beam="1">  1        2 0.51560930E+00 0.34282851E+04</pdfrwt>
<pdfrwt beam="2">  1       -1 0.13487964E+00 0.34282851E+04</pdfrwt>
<totfact> 0.44509091E-01</totfact>
</mgrwt>
</event>
<event>
12    7  0.1711607E-007  0.1695686E+04  0.7818608E-02  0.8763828E-01
          2   -1    0    0  501    0  0.00000000000E+00  0.00000000000E+00  0.28399371168E+04  0.28399371168E+04  0.00000000000E+00 0. -1.
         -1   -1    0    0    0  501 -0.00000000000E+00 -0.00000000000E+00 -0.25311762107E+03  0.25311762107E+03  0.00000000000E+00 0.  1.
         24    2    1    2    0    0  0.55495200422E+03 -0.14717564337E+03  0.13164973029E+04  0.14382010441E+04  0.74997986077E+02 0.  0.
        254    2    1    2    0    0 -0.55495200422E+03  0.14717564337E+03  0.12703221929E+04  0.16548536938E+04  0.89173419639E+03 0.  0.
         23    2    4    4    0    0  0.15596770095E+03 -0.22920841406E+02  0.70017060012E+03  0.72328880217E+03  0.89758193882E+02 0.  0.
         23    2    4    4    0    0 -0.71091970517E+03  0.17009648478E+03  0.57015159277E+03  0.93156489159E+03  0.91655153543E+02 0.  0.
          2    1    3    3  502    0  0.35208943936E+03 -0.97797867350E+02  0.74579967195E+03  0.83051101548E+03  0.00000000000E+00 0. -1.
         -1    1    3    3    0  502  0.20286256486E+03 -0.49377776022E+02  0.57069763092E+03  0.60769002866E+03  0.00000000000E+00 0.  1.
         13    1    5    5    0    0  0.14570979418E+03  0.10834638848E+02  0.56743643605E+03  0.58594610885E+03  0.00000000000E+00 0.  1.
        -13    1    5    5    0    0  0.10257906769E+02 -0.33755480254E+02  0.13273416406E+03  0.13734269332E+03  0.00000000000E+00 0. -1.
          1    1    6    6  503    0 -0.19130671169E+03  0.70564378234E+02  0.20197500314E+03  0.28700434022E+03  0.00000000000E+00 0. -1.
         -1    1    6    6    0  503 -0.51961299348E+03  0.99532106544E+02  0.36817658963E+03  0.64456055136E+03  0.00000000000E+00 0.  1.
<mgrwt>
<rscale>  0 0.16956864E+04</rscale>
<asrwt>0</asrwt>
<pdfrwt beam="1">  1        2 0.43691338E+00 0.16956864E+04</pdfrwt>
<pdfrwt beam="2">  1       -1 0.38941175E-01 0.16956864E+04</pdfrwt>
<totfact> 0.15217452E+01</totfact>
</mgrwt>
</event>
<event>
12    7  0.1711607E-007  0.1282400E+04  0.7818608E-02  0.9043640E-01
          2   -1    0    0  501    0  0.00000000000E+00  0.00000000000E+00  0.11350369454E+04  0.11350369454E+04  0.00000000000E+00 0. -1.
         -1   -1    0    0    0  501 -0.00000000000E+00 -0.00000000000E+00 -0.36222395717E+03  0.36222395717E+03  0.00000000000E+00 0.  1.
         24    2    1    2    0    0  0.17117366548E+03 -0.11635683246E+03 -0.62299026878E+02  0.23248570073E+03  0.85610140036E+02 0.  0.
        254    2    1    2    0    0 -0.17117366548E+03  0.11635683246E+03  0.83511201516E+03  0.12647752019E+04  0.92704093611E+03 0.  0.
         23    2    4    4    0    0 -0.36420407035E+03  0.12963988640E+03 -0.59239501963E+01  0.39709107915E+03  0.90526940455E+02 0.  0.
         23    2    4    4    0    0  0.19303040486E+03 -0.13283053932E+02  0.84103596535E+03  0.86768412273E+03  0.89983693546E+02 0.  0.
          2    1    3    3  502    0  0.60156297068E+02 -0.89867990273E+01 -0.47805875129E+02  0.77362421954E+02  0.00000000000E+00 0. -1.
         -1    1    3    3    0  502  0.11101736842E+03 -0.10737003344E+03 -0.14493151749E+02  0.15512327878E+03  0.00000000000E+00 0.  1.
         13    1    5    5    0    0 -0.31304251233E+03  0.13876980737E+03 -0.20743820490E+02  0.34304953003E+03  0.00000000000E+00 0.  1.
        -13    1    5    5    0    0 -0.51161558014E+02 -0.91299209698E+01  0.14819870294E+02  0.54041549116E+02  0.00000000000E+00 0. -1.
          1    1    6    6  503    0  0.52874960567E+02 -0.38918146118E+02  0.18358568552E+03  0.19497201717E+03  0.00000000000E+00 0. -1.
         -1    1    6    6    0  503  0.14015544430E+03  0.25635092186E+02  0.65745027983E+03  0.67271210556E+03  0.00000000000E+00 0.  1.
<mgrwt>
<rscale>  0 0.12824002E+04</rscale>
<asrwt>0</asrwt>
<pdfrwt beam="1">  1        2 0.17462107E+00 0.12824002E+04</pdfrwt>
<pdfrwt beam="2">  1       -1 0.55726763E-01 0.12824002E+04</pdfrwt>
<totfact> 0.75552366E+01</totfact>
</mgrwt>
</event>
<event>
12    7  0.1711607E-007  0.3567530E+04  0.7818608E-02  0.8097970E-01
         -1   -1    0    0    0  501 -0.00000000000E+00  0.00000000000E+00  0.31416017689E+04  0.31416017689E+04  0.00000000000E+00 0.  1.
          2   -1    0    0  501    0  0.00000000000E+00 -0.00000000000E+00 -0.10128011496E+04  0.10128011496E+04  0.00000000000E+00 0. -1.
         24    2    1    2    0    0 -0.56030939771E+03  0.12042504678E+04  0.21765848206E+04  0.25507255461E+04  0.67182736493E+02 0.  0.
        254    2    1    2    0    0  0.56030939771E+03 -0.12042504678E+04 -0.47784201339E+02  0.16036773723E+04  0.89740290525E+03 0.  0.
         23    2    4    4    0    0 -0.20819551282E+03 -0.10746939611E+03  0.57194174363E+02  0.25711446776E+03  0.89115841969E+02 0.  0.
         23    2    4    4    0    0  0.76850491054E+03 -0.10967810717E+04 -0.10497837570E+03  0.13465629046E+04  0.93180898994E+02 0.  0.
          2    1    3    3  502    0 -0.68401702360E+02  0.15223788498E+03  0.31812487778E+03  0.35924727469E+03  0.00000000000E+00 0. -1.
         -3    1    3    3    0  502 -0.49190769535E+03  0.10520125828E+04  0.18584599428E+04  0.21914782714E+04  0.00000000000E+00 0.  1.
         13    1    5    5    0    0 -0.19603637620E+03 -0.65393271309E+02  0.51244814012E+02  0.21291447036E+03  0.00000000000E+00 0. -1.
        -13    1    5    5    0    0 -0.12159136627E+02 -0.42076124798E+02  0.59493603516E+01  0.44199997399E+02  0.00000000000E+00 0.  1.
          1    1    6    6  503    0  0.33440596804E+03 -0.42169497736E+03 -0.93546389290E+01  0.53827642959E+03  0.00000000000E+00 0. -1.
         -1    1    6    6    0  503  0.43409894250E+03 -0.67508609430E+03 -0.95623736773E+02  0.80828647498E+03  0.00000000000E+00 0.  1.
<mgrwt>
<rscale>  0 0.35675302E+04</rscale>
<asrwt>0</asrwt>
<pdfrwt beam="1">  1        2 0.15581556E+00 0.35675302E+04</pdfrwt>
<pdfrwt beam="2">  1       -1 0.48332334E+00 0.35675302E+04</pdfrwt>
<totfact> 0.44131487E-02</totfact>
</mgrwt>
</event>
<event>
12    7  0.1711607E-007  0.1718252E+04  0.7818608E-02  0.8751022E-01
         -1   -1    0    0    0  501 -0.00000000000E+00  0.00000000000E+00  0.30073390367E+03  0.30073390367E+03  0.00000000000E+00 0.  1.
          2   -1    0    0  501    0  0.00000000000E+00 -0.00000000000E+00 -0.24543210987E+04  0.24543210987E+04  0.00000000000E+00 0. -1.
         24    2    1    2    0    0  0.45773694496E+03  0.21956152166E+03 -0.22139612451E+03  0.55989836216E+03  0.82094819716E+02 0.  0.
        254    2    1    2    0    0 -0.45773694496E+03 -0.21956152166E+03 -0.19321910706E+04  0.21951566403E+04  0.90973620876E+03 0.  0.
         23    2    4    4    0    0 -0.23648322727E+03 -0.46490729084E+03 -0.17026931670E+04  0.17829983518E+04  0.88634055591E+02 0.  0.
         23    2    4    4    0    0 -0.22125371769E+03  0.24534576918E+03 -0.22949790354E+03  0.41215828841E+03  0.89763093363E+02 0.  0.
          2    1    3    3  502    0  0.32438762282E+01 -0.52248632979E+00 -0.13343300918E+02  0.13741885036E+02  0.00000000000E+00 0. -1.
         -1    1    3    3    0  502  0.45449306874E+03  0.22008400799E+03 -0.20805282359E+03  0.54615647712E+03  0.00000000000E+00 0.  1.
         13    1    5    5    0    0 -0.24280590835E+03 -0.43348732819E+03 -0.15883127879E+04  0.16642125721E+04  0.00000000000E+00 0.  1.
        -13    1    5    5    0    0  0.63226810816E+01 -0.31419962651E+02 -0.11438037914E+03  0.11878577979E+03  0.00000000000E+00 0. -1.
          2    1    6    6  503    0 -0.47964347359E+02  0.34765217296E+02 -0.84776532802E+02  0.10342272219E+03  0.00000000000E+00 0. -1.
         -2    1    6    6    0  503 -0.17328937033E+03  0.21058055189E+03 -0.14472137074E+03  0.30873556622E+03  0.00000000000E+00 0.  1.
<mgrwt>
<rscale>  0 0.17182521E+04</rscale>
<asrwt>0</asrwt>
<pdfrwt beam="1">  1        2 0.37758785E+00 0.17182521E+04</pdfrwt>
<pdfrwt beam="2">  1       -1 0.46266756E-01 0.17182521E+04</pdfrwt>
<totfact> 0.18634389E+01</totfact>
</mgrwt>
</event>
<event>
12    7  0.1711607E-007  0.1399444E+04  0.7818608E-02  0.8954221E-01
         -1   -1    0    0    0  501 -0.00000000000E+00  0.00000000000E+00  0.36903520369E+03  0.36903520369E+03  0.00000000000E+00 0.  1.
          2   -1    0    0  501    0  0.00000000000E+00 -0.00000000000E+00 -0.13267317698E+04  0.13267317698E+04  0.00000000000E+00 0. -1.
         24    2    1    2    0    0 -0.22264884135E+03 -0.27796734627E+03 -0.53384229830E+03  0.64654626191E+03  0.78715418986E+02 0.  0.
        254    2    1    2    0    0  0.22264884135E+03  0.27796734627E+03 -0.42385426781E+03  0.10492207116E+04  0.89127622493E+03 0.  0.
         23    2    4    4    0    0 -0.27222589258E+03  0.19130847289E+02  0.69555146228E+02  0.29838473674E+03  0.98603280076E+02 0.  0.
         23    2    4    4    0    0  0.49487473393E+03  0.25883649898E+03 -0.49340941404E+03  0.75083597485E+03  0.91675928001E+02 0.  0.
          4    1    3    3  502    0 -0.21882581439E+03 -0.25526555756E+03 -0.52132289667E+03  0.62034087767E+03  0.00000000000E+00 0. -1.
         -3    1    3    3    0  502 -0.38230269602E+01 -0.22701788713E+02 -0.12519401636E+02  0.26205384241E+02  0.00000000000E+00 0.  1.
         13    1    5    5    0    0 -0.25557990973E+03  0.42585012000E+02  0.73568270967E+02  0.26934525056E+03  0.00000000000E+00 0. -1.
        -13    1    5    5    0    0 -0.16645982847E+02 -0.23454164711E+02 -0.40131247393E+01  0.29039486177E+02  0.00000000000E+00 0.  1.
          2    1    6    6  503    0  0.33248168697E+03  0.12865204975E+03 -0.33590724918E+03  0.48982558337E+03  0.00000000000E+00 0. -1.
         -2    1    6    6    0  503  0.16239304696E+03  0.13018444923E+03 -0.15750216486E+03  0.26101039148E+03  0.00000000000E+00 0.  1.
<mgrwt>
<rscale>  0 0.13994438E+04</rscale>
<asrwt>0</asrwt>
<pdfrwt beam="1">  1        2 0.20411258E+00 0.13994438E+04</pdfrwt>
<pdfrwt beam="2">  1       -1 0.56774646E-01 0.13994438E+04</pdfrwt>
<totfact> 0.55566825E+01</totfact>
</mgrwt>
</event>
<event>
12    7  0.1711607E-007  0.1618669E+04  0.7818608E-02  0.8809160E-01
         -1   -1    0    0    0  501 -0.00000000000E+00  0.00000000000E+00  0.52480895985E+03  0.52480895985E+03  0.00000000000E+00 0.  1.
          2   -1    0    0  501    0  0.00000000000E+00 -0.00000000000E+00 -0.12481162339E+04  0.12481162339E+04  0.00000000000E+00 0. -1.
         24    2    1    2    0    0 -0.30530965584E+03  0.43208615238E+03 -0.44044197271E+03  0.69277534647E+03  0.77692472840E+02 0.  0.
        254    2    1    2    0    0  0.30530965584E+03 -0.43208615238E+03 -0.28286530135E+03  0.10801498473E+04  0.89821961951E+03 0.  0.
         23    2    4    4    0    0  0.38525435648E+03 -0.66840913985E+03 -0.21012068740E+03  0.80487094542E+03  0.92058883838E+02 0.  0.
         23    2    4    4    0    0 -0.79944700639E+02  0.23632298747E+03 -0.72744613958E+02  0.27527890187E+03  0.90812914208E+02 0.  0.
          2    1    3    3  502    0 -0.30212631842E+01 -0.29153237752E+01 -0.76785543667E+01  0.87514193766E+01  0.00000000000E+00 0. -1.
         -3    1    3    3    0  502 -0.30228839266E+03  0.43500147615E+03 -0.43276341834E+03  0.68402392710E+03  0.00000000000E+00 0.  1.
         13    1    5    5    0    0  0.50663254457E+02 -0.96584981634E+02  0.24185660884E+01  0.10909295803E+03  0.00000000000E+00 0. -1.
        -13    1    5    5    0    0  0.33459110202E+03 -0.57182415821E+03 -0.21253925348E+03  0.69577798740E+03  0.00000000000E+00 0.  1.
          3    1    6    6  503    0 -0.23409580775E+02  0.16770374987E+03 -0.77543205848E+02  0.18624044933E+03  0.00000000000E+00 0. -1.
         -3    1    6    6    0  503 -0.56535119864E+02  0.68619237606E+02  0.47985918901E+01  0.89038452546E+02  0.00000000000E+00 0.  1.
<mgrwt>
<rscale>  0 0.16186693E+04</rscale>
<asrwt>0</asrwt>
<pdfrwt beam="1">  1        2 0.19201788E+00 0.16186693E+04</pdfrwt>
<pdfrwt beam="2">  1       -1 0.80739841E-01 0.16186693E+04</pdfrwt>
<totfact> 0.29614515E+01</totfact>
</mgrwt>
</event>
<event>
12    7  0.1711607E-007  0.1905099E+04  0.7818608E-02  0.8652322E-01
         -1   -1    0    0    0  501 -0.00000000000E+00  0.00000000000E+00  0.39833385385E+03  0.39833385385E+03  0.00000000000E+00 0.  1.
          2   -1    0    0  501    0  0.00000000000E+00 -0.00000000000E+00 -0.22778654775E+04  0.22778654775E+04  0.00000000000E+00 0. -1.
         24    2    1    2    0    0  0.20691627476E+03  0.23112995083E+03  0.20542184954E+03  0.38468220974E+03  0.97708071768E+02 0.  0.
        254    2    1    2    0    0 -0.20691627476E+03 -0.23112995083E+03 -0.20849534732E+04  0.22915171216E+04  0.89876823173E+03 0.  0.
         23    2    4    4    0    0  0.19319507868E+03 -0.32204122333E+03 -0.16158366026E+04  0.16614459448E+04  0.91868456203E+02 0.  0.
         23    2    4    4    0    0 -0.40011135344E+03  0.90911272499E+02 -0.46911687053E+03  0.63007117676E+03  0.92547798152E+02 0.  0.
          2    1    3    3  502    0 -0.51404706266E+01  0.86501483057E+01 -0.59249755931E+01  0.11677107508E+02  0.00000000000E+00 0. -1.
         -1    1    3    3    0  502  0.21205674538E+03  0.22247980253E+03  0.21134682514E+03  0.37300510223E+03  0.00000000000E+00 0.  1.
         13    1    5    5    0    0  0.17102564571E+03 -0.20293486218E+03 -0.11246235338E+04  0.11555130560E+04  0.00000000000E+00 0.  1.
        -13    1    5    5    0    0  0.22169432974E+02 -0.11910636116E+03 -0.49121306881E+03  0.50593288883E+03  0.00000000000E+00 0. -1.
          2    1    6    6  503    0 -0.33765372274E+03  0.68406468424E+02 -0.43657539805E+03  0.55613627789E+03  0.00000000000E+00 0.  1.
         -2    1    6    6    0  503 -0.62457630699E+02  0.22504804074E+02 -0.32541472479E+02  0.73934898864E+02  0.00000000000E+00 0. -1.
<mgrwt>
<rscale>  0 0.19050994E+04</rscale>
<asrwt>0</asrwt>
<pdfrwt beam="1">  1        2 0.35044084E+00 0.19050994E+04</pdfrwt>
<pdfrwt beam="2">  1       -1 0.61282132E-01 0.19050994E+04</pdfrwt>
<totfact> 0.13436647E+01</totfact>
</mgrwt>
</event>
<event>
12    7  0.1711607E-007  0.1325179E+04  0.7818608E-02  0.9009833E-01
          2   -1    0    0  501    0  0.00000000000E+00  0.00000000000E+00  0.31494264095E+04  0.31494264095E+04  0.00000000000E+00 0. -1.
         -1   -1    0    0    0  501 -0.00000000000E+00 -0.00000000000E+00 -0.13939841913E+03  0.13939841913E+03  0.00000000000E+00 0.  1.
         24    2    1    2    0    0 -0.14960616437E+03  0.27173585522E+03  0.39996782322E+03  0.51238152539E+03  0.79612740916E+02 0.  0.
        254    2    1    2    0    0  0.14960616437E+03 -0.27173585522E+03  0.26100601672E+04  0.27764433032E+04  0.89442772795E+03 0.  0.
         23    2    4    4    0    0  0.48584308263E+03 -0.95858976605E+02  0.10006684986E+04  0.11201980279E+04  0.90960064446E+02 0.  0.
         23    2    4    4    0    0 -0.33623691826E+03 -0.17587687861E+03  0.16093916685E+04  0.16562452753E+04  0.94968034688E+02 0.  0.
          4    1    3    3  502    0 -0.48098042332E+02  0.14153559585E+03  0.23835512980E+03  0.28135194058E+03  0.00000000000E+00 0. -1.
         -3    1    3    3    0  502 -0.10150812204E+03  0.13020025936E+03  0.16161269343E+03  0.23102958480E+03  0.00000000000E+00 0.  1.
         13    1    5    5    0    0  0.27900735511E+03 -0.37625622221E+02  0.47283958828E+03  0.55030724863E+03  0.00000000000E+00 0. -1.
        -13    1    5    5    0    0  0.20683572751E+03 -0.58233354384E+02  0.52782891036E+03  0.56989077932E+03  0.00000000000E+00 0.  1.
          4    1    6    6  503    0 -0.10352299524E+03 -0.61497719955E+02  0.71323139654E+03  0.72332427383E+03  0.00000000000E+00 0. -1.
         -4    1    6    6    0  503 -0.23271392301E+03 -0.11437915866E+03  0.89616027198E+03  0.93292100147E+03  0.00000000000E+00 0.  1.
<mgrwt>
<rscale>  0 0.13251793E+04</rscale>
<asrwt>0</asrwt>
<pdfrwt beam="1">  1        2 0.48452709E+00 0.13251793E+04</pdfrwt>
<pdfrwt beam="2">  1       -1 0.21445913E-01 0.13251793E+04</pdfrwt>
<totfact> 0.28725363E+01</totfact>
</mgrwt>
</event>
<event>
12    7  0.1711607E-007  0.2453034E+04  0.7818608E-02  0.8419911E-01
          2   -1    0    0  501    0  0.00000000000E+00  0.00000000000E+00  0.74300355232E+03  0.74300355232E+03  0.00000000000E+00 0. -1.
         -1   -1    0    0    0  501 -0.00000000000E+00 -0.00000000000E+00 -0.20246791281E+04  0.20246791281E+04  0.00000000000E+00 0.  1.
         24    2    1    2    0    0 -0.10220473639E+04  0.27591424648E+03 -0.50120697841E+03  0.11741897232E+04  0.82483849579E+02 0.  0.
        254    2    1    2    0    0  0.10220473639E+04 -0.27591424648E+03 -0.78046859739E+03  0.15934929572E+04  0.89965498261E+03 0.  0.
         23    2    4    4    0    0 -0.80156521689E+02 -0.48458276023E+02 -0.36955815270E+03  0.39226566577E+03  0.92335539358E+02 0.  0.
         23    2    4    4    0    0  0.11022038856E+04 -0.22745597046E+03 -0.41091044470E+03  0.12012272915E+04  0.86660188474E+02 0.  0.
          4    1    3    3  502    0 -0.10128731286E+04  0.26518787135E+03 -0.48921078169E+03  0.11556659425E+04  0.00000000000E+00 0. -1.
         -3    1    3    3    0  502 -0.91742353462E+01  0.10726375129E+02 -0.11996196720E+02  0.18523780751E+02  0.00000000000E+00 0.  1.
         13    1    5    5    0    0 -0.81212468427E+01 -0.52454020543E+02 -0.99929364670E+02  0.11315147743E+03  0.00000000000E+00 0. -1.
        -13    1    5    5    0    0 -0.72035274846E+02  0.39957445195E+01 -0.26962878803E+03  0.27911418834E+03  0.00000000000E+00 0.  1.
          4    1    6    6  503    0  0.10659149645E+04 -0.20780917376E+03 -0.38359503436E+03  0.11517397773E+04  0.00000000000E+00 0.  1.
         -4    1    6    6    0  503  0.36288921071E+02 -0.19646796699E+02 -0.27315410332E+02  0.49487514129E+02  0.00000000000E+00 0. -1.
<mgrwt>
<rscale>  0 0.24530339E+04</rscale>
<asrwt>0</asrwt>
<pdfrwt beam="1">  1        2 0.11430824E+00 0.24530339E+04</pdfrwt>
<pdfrwt beam="2">  1       -1 0.31148909E+00 0.24530339E+04</pdfrwt>
<totfact> 0.10783524E+00</totfact>
</mgrwt>
</event>
<event>
12    7  0.1711607E-007  0.1726656E+04  0.7818608E-02  0.8746306E-01
         -1   -1    0    0    0  501 -0.00000000000E+00  0.00000000000E+00  0.37617545878E+03  0.37617545878E+03  0.00000000000E+00 0.  1.
          2   -1    0    0  501    0  0.00000000000E+00 -0.00000000000E+00 -0.19813488970E+04  0.19813488970E+04  0.00000000000E+00 0. -1.
         24    2    1    2    0    0  0.18583039539E+03 -0.43261544344E+02  0.22587019175E+03  0.30775529444E+03  0.85390167285E+02 0.  0.
        254    2    1    2    0    0 -0.18583039539E+03  0.43261544344E+02 -0.18310436300E+04  0.20497690613E+04  0.90134784232E+03 0.  0.
         23    2    4    4    0    0 -0.39420946047E+03  0.33233738964E+03 -0.80909056806E+03  0.96362334152E+03  0.89961979353E+02 0.  0.
         23    2    4    4    0    0  0.20837906508E+03 -0.28907584530E+03 -0.10219530619E+04  0.10861457198E+04  0.91311471306E+02 0.  0.
          4    1    3    3  502    0  0.26237925840E+02  0.20483831436E+02  0.61610098551E+02  0.70027282870E+02  0.00000000000E+00 0. -1.
         -3    1    3    3    0  502  0.15959246955E+03 -0.63745375780E+02  0.16426009320E+03  0.23772801157E+03  0.00000000000E+00 0.  1.
         13    1    5    5    0    0 -0.28694126268E+03  0.26366323157E+03 -0.54012497625E+03  0.66602445742E+03  0.00000000000E+00 0.  1.
        -13    1    5    5    0    0 -0.10726819779E+03  0.68674158076E+02 -0.26896559181E+03  0.29759888410E+03  0.00000000000E+00 0. -1.
          1    1    6    6  503    0  0.17495919960E+03 -0.18893626608E+03 -0.63968839029E+03  0.68957151249E+03  0.00000000000E+00 0. -1.
         -1    1    6    6    0  503  0.33419865481E+02 -0.10013957922E+03 -0.38226467162E+03  0.39657420731E+03  0.00000000000E+00 0.  1.
<mgrwt>
<rscale>  0 0.17266555E+04</rscale>
<asrwt>0</asrwt>
<pdfrwt beam="1">  1        2 0.30482291E+00 0.17266555E+04</pdfrwt>
<pdfrwt beam="2">  1       -1 0.57873147E-01 0.17266555E+04</pdfrwt>
<totfact> 0.22384548E+01</totfact>
</mgrwt>
</event>
<event>
12    7  0.1711607E-007  0.1502177E+04  0.7818608E-02  0.8883006E-01
         -1   -1    0    0    0  501 -0.00000000000E+00  0.00000000000E+00  0.17780138078E+03  0.17780138078E+03  0.00000000000E+00 0.  1.
          2   -1    0    0  501    0  0.00000000000E+00 -0.00000000000E+00 -0.31728337138E+04  0.31728337138E+04  0.00000000000E+00 0. -1.
         24    2    1    2    0    0  0.86148570537E+02 -0.29040260448E+03 -0.13895212751E+03  0.34245149551E+03  0.78804087100E+02 0.  0.
        254    2    1    2    0    0 -0.86148570537E+02  0.29040260448E+03 -0.28560802055E+04  0.30081835991E+04  0.89454970599E+03 0.  0.
         23    2    4    4    0    0  0.13183399776E+02  0.32994036068E+03 -0.28442303706E+04  0.28648582782E+04  0.93445757501E+02 0.  0.
         23    2    4    4    0    0 -0.99331970313E+02 -0.39537756204E+02 -0.11849834928E+02  0.14332532087E+03  0.94718818201E+02 0.  0.
          4    1    3    3  502    0  0.50881261613E+02 -0.77490943683E+02 -0.69076568344E+02  0.11560848338E+03  0.00000000000E+00 0. -1.
         -1    1    3    3    0  502  0.35267308924E+02 -0.21291166079E+03 -0.69875559170E+02  0.22684301213E+03  0.00000000000E+00 0.  1.
         13    1    5    5    0    0 -0.32431434517E+02  0.18546103436E+03 -0.17725706647E+04  0.17825415436E+04  0.00000000000E+00 0. -1.
        -13    1    5    5    0    0  0.45614834293E+02  0.14447932632E+03 -0.10716597059E+04  0.10823167346E+04  0.00000000000E+00 0.  1.
          2    1    6    6  503    0 -0.99776728102E+01 -0.19014029580E+02 -0.41702774177E+02  0.46906381758E+02  0.00000000000E+00 0. -1.
         -2    1    6    6    0  503 -0.89354297503E+02 -0.20523726624E+02  0.29852939249E+02  0.96418939107E+02  0.00000000000E+00 0.  1.
<mgrwt>
<rscale>  0 0.15021774E+04</rscale>
<asrwt>0</asrwt>
<pdfrwt beam="1">  1        2 0.48812822E+00 0.15021774E+04</pdfrwt>
<pdfrwt beam="2">  1       -1 0.27354061E-01 0.15021774E+04</pdfrwt>
<totfact> 0.17984419E+01</totfact>
</mgrwt>
</event>
<event>
12    7  0.1711607E-007  0.3428338E+04  0.7818608E-02  0.8130986E-01
          2   -1    0    0  501    0  0.00000000000E+00  0.00000000000E+00  0.32802490049E+04  0.32802490049E+04  0.00000000000E+00 0. -1.
         -1   -1    0    0    0  501 -0.00000000000E+00 -0.00000000000E+00 -0.89577839150E+03  0.89577839150E+03  0.00000000000E+00 0.  1.
         24    2    1    2    0    0 -0.25803289269E+03  0.90645464410E+03 -0.44692659222E+03  0.10461154262E+04  0.79831763633E+02 0.  0.
        254    2    1    2    0    0  0.25803289269E+03 -0.90645464410E+03  0.28313972056E+04  0.31299119702E+04  0.94408570051E+03 0.  0.
         23    2    4    4    0    0  0.20708832946E+02 -0.31894434995E+03  0.13462258007E+03  0.35817159577E+03  0.89494686040E+02 0.  0.
         23    2    4    4    0    0  0.23732405975E+03 -0.58751029415E+03  0.26967746255E+04  0.27717403745E+04  0.91979711668E+02 0.  0.
          4    1    3    3  502    0 -0.16795158873E+03  0.70970286568E+03 -0.33699928308E+03  0.80340177403E+03  0.00000000000E+00 0. -1.
         -3    1    3    3    0  502 -0.90081303965E+02  0.19675177842E+03 -0.10992730914E+03  0.24271365213E+03  0.00000000000E+00 0.  1.
         13    1    5    5    0    0 -0.15089128331E+02 -0.27302468442E+03  0.11614267756E+03  0.29708463718E+03  0.00000000000E+00 0. -1.
        -13    1    5    5    0    0  0.35797961276E+02 -0.45919665524E+02  0.18479902512E+02  0.61086958594E+02  0.00000000000E+00 0.  1.
          3    1    6    6  503    0  0.16087162512E+03 -0.29076424461E+03  0.13068101489E+04  0.13483976754E+04  0.00000000000E+00 0. -1.
         -3    1    6    6    0  503  0.76452434631E+02 -0.29674604955E+03  0.13899644766E+04  0.14233426991E+04  0.00000000000E+00 0.  1.
<mgrwt>
<rscale>  0 0.34283385E+04</rscale>
<asrwt>0</asrwt>
<pdfrwt beam="1">  1        2 0.50465369E+00 0.34283385E+04</pdfrwt>
<pdfrwt beam="2">  1       -1 0.13781206E+00 0.34283385E+04</pdfrwt>
<totfact> 0.47002903E-01</totfact>
</mgrwt>
</event>
<event>
12    7  0.1711607E-007  0.1714712E+04  0.7818608E-02  0.8753018E-01
         -1   -1    0    0    0  501 -0.00000000000E+00  0.00000000000E+00  0.57603531166E+03  0.57603531166E+03  0.00000000000E+00 0.  1.
          2   -1    0    0  501    0  0.00000000000E+00 -0.00000000000E+00 -0.12760670586E+04  0.12760670586E+04  0.00000000000E+00 0. -1.
         24    2    1    2    0    0 -0.58118092540E+03 -0.20509129035E+03 -0.22813509404E+03  0.66257746539E+03  0.84436787445E+02 0.  0.
        254    2    1    2    0    0  0.58118092540E+03  0.20509129035E+03 -0.47189665291E+03  0.11895249049E+04  0.90135971891E+03 0.  0.
         23    2    4    4    0    0 -0.19549776860E+02  0.61207233476E+02  0.22691425411E+03  0.25249445732E+03  0.90193420238E+02 0.  0.
         23    2    4    4    0    0  0.60073070226E+03  0.14388405687E+03 -0.69881090703E+03  0.93703044756E+03  0.90052081624E+02 0.  0.
          4    1    3    3  502    0 -0.30127074154E+03 -0.63275671418E+02 -0.10060279492E+03  0.32386539279E+03  0.00000000000E+00 0. -1.
         -3    1    3    3    0  502 -0.27991018386E+03 -0.14181561893E+03 -0.12753229912E+03  0.33871207259E+03  0.00000000000E+00 0.  1.
         13    1    5    5    0    0 -0.18033314499E+02  0.81058598140E+02  0.21180307477E+03  0.22749997637E+03  0.00000000000E+00 0. -1.
        -13    1    5    5    0    0 -0.15164623603E+01 -0.19851364665E+02  0.15111179340E+02  0.24994480955E+02  0.00000000000E+00 0.  1.
          1    1    6    6  503    0  0.34564513071E+03  0.93225439223E+02 -0.33868912370E+03  0.49282031352E+03  0.00000000000E+00 0. -1.
         -1    1    6    6    0  503  0.25508557155E+03  0.50658617647E+02 -0.36012178333E+03  0.44421013404E+03  0.00000000000E+00 0.  1.
<mgrwt>
<rscale>  0 0.17147124E+04</rscale>
<asrwt>0</asrwt>
<pdfrwt beam="1">  1        2 0.19631801E+00 0.17147124E+04</pdfrwt>
<pdfrwt beam="2">  1       -1 0.88620818E-01 0.17147124E+04</pdfrwt>
<totfact> 0.23123343E+01</totfact>
</mgrwt>
</event>
<event>
12    7  0.1711607E-007  0.1876087E+04  0.7818608E-02  0.8666852E-01
         -1   -1    0    0    0  501 -0.00000000000E+00  0.00000000000E+00  0.60229779516E+03  0.60229779516E+03  0.00000000000E+00 0.  1.
          2   -1    0    0  501    0  0.00000000000E+00 -0.00000000000E+00 -0.14609472164E+04  0.14609472164E+04  0.00000000000E+00 0. -1.
         24    2    1    2    0    0 -0.45486271675E+01  0.64679119230E+03  0.47266009773E+02  0.65403546748E+03  0.84668651757E+02 0.  0.
        254    2    1    2    0    0  0.45486271675E+01 -0.64679119230E+03 -0.90591543098E+03  0.14092095440E+04  0.86419282251E+03 0.  0.
         23    2    4    4    0    0  0.29163692581E+03 -0.77195049868E+02 -0.22049495552E+02  0.31548582763E+03  0.89632332105E+02 0.  0.
         23    2    4    4    0    0 -0.28708829864E+03 -0.56959614243E+03 -0.88386593543E+03  0.10937237164E+04  0.90294625219E+02 0.  0.
          2    1    3    3  502    0  0.31656226071E+02  0.11481832329E+03  0.66756069374E+01  0.11928926079E+03  0.00000000000E+00 0. -1.
         -1    1    3    3    0  502 -0.36204853239E+02  0.53197286901E+03  0.40590402836E+02  0.53474620668E+03  0.00000000000E+00 0.  1.
         13    1    5    5    0    0  0.22267467322E+02 -0.12855910925E+02  0.23482133651E+02  0.34821331788E+02  0.00000000000E+00 0. -1.
        -13    1    5    5    0    0  0.26936945849E+03 -0.64339138943E+02 -0.45531629203E+02  0.28066449584E+03  0.00000000000E+00 0.  1.
          1    1    6    6  503    0 -0.29603816888E+02 -0.12903278950E+03 -0.21392544832E+03  0.25157492756E+03  0.00000000000E+00 0. -1.
         -1    1    6    6    0  503 -0.25748448176E+03 -0.44056335294E+03 -0.66994048711E+03  0.84214878885E+03  0.00000000000E+00 0.  1.
<mgrwt>
<rscale>  0 0.18760867E+04</rscale>
<asrwt>0</asrwt>
<pdfrwt beam="1">  1        2 0.22476111E+00 0.18760867E+04</pdfrwt>
<pdfrwt beam="2">  1       -1 0.92661201E-01 0.18760867E+04</pdfrwt>
<totfact> 0.16171967E+01</totfact>
</mgrwt>
</event>
<event>
12    7  0.1711607E-007  0.1896058E+04  0.7818608E-02  0.8656821E-01
         -3   -1    0    0    0  501 -0.00000000000E+00  0.00000000000E+00  0.69092057398E+03  0.69092057398E+03  0.00000000000E+00 0.  1.
          2   -1    0    0  501    0  0.00000000000E+00 -0.00000000000E+00 -0.13008132763E+04  0.13008132763E+04  0.00000000000E+00 0. -1.
         24    2    1    2    0    0 -0.60682940777E+03 -0.30301971276E+03 -0.52248841621E+03  0.85991518795E+03  0.79981928848E+02 0.  0.
        254    2    1    2    0    0  0.60682940777E+03  0.30301971276E+03 -0.87404286152E+02  0.11318186624E+04  0.90183762329E+03 0.  0.
         23    2    4    4    0    0 -0.95612534818E+02  0.39224801053E+03 -0.10847846948E+02  0.41401926697E+03  0.91071505221E+02 0.  0.
         23    2    4    4    0    0  0.70244194259E+03 -0.89228297768E+02 -0.76556439204E+02  0.71779939539E+03  0.89379593918E+02 0.  0.
          2    1    3    3  502    0 -0.59801703385E+03 -0.29265021233E+03 -0.52246231537E+03  0.84630691273E+03  0.00000000000E+00 0. -1.
         -1    1    3    3    0  502 -0.88123739167E+01 -0.10369500433E+02 -0.26100840436E-01  0.13608275222E+02  0.00000000000E+00 0.  1.
         13    1    5    5    0    0 -0.27449275188E+02  0.16526414338E+03 -0.47669247448E+02  0.17417823328E+03  0.00000000000E+00 0. -1.
        -13    1    5    5    0    0 -0.68163259630E+02  0.22698386715E+03  0.36821400500E+02  0.23984103370E+03  0.00000000000E+00 0.  1.
          4    1    6    6  503    0  0.52624855047E+03 -0.74369614511E+02 -0.18884324213E+02  0.53181293152E+03  0.00000000000E+00 0. -1.
         -4    1    6    6    0  503  0.17619339212E+03 -0.14858683258E+02 -0.57672114990E+02  0.18598646387E+03  0.00000000000E+00 0.  1.
<mgrwt>
<rscale>  0 0.18960577E+04</rscale>
<asrwt>0</asrwt>
<pdfrwt beam="1">  1        2 0.20012512E+00 0.18960577E+04</pdfrwt>
<pdfrwt beam="2">  1       -3 0.10629547E+00 0.18960577E+04</pdfrwt>
<totfact> 0.74337399E+00</totfact>
</mgrwt>
</event>
<event>
12    7  0.1711607E-007  0.1804532E+04  0.7818608E-02  0.8703893E-01
         -1   -1    0    0    0  501 -0.00000000000E+00  0.00000000000E+00  0.29406288702E+03  0.29406288702E+03  0.00000000000E+00 0.  1.
          2   -1    0    0  501    0  0.00000000000E+00 -0.00000000000E+00 -0.27684003357E+04  0.27684003357E+04  0.00000000000E+00 0. -1.
         24    2    1    2    0    0  0.30442720351E+03  0.60116819850E+03 -0.10689385396E+04  0.12654734958E+04  0.68661793410E+02 0.  0.
        254    2    1    2    0    0 -0.30442720351E+03 -0.60116819850E+03 -0.14053989091E+04  0.17969897270E+04  0.89439748439E+03 0.  0.
         23    2    4    4    0    0 -0.35596128442E+03 -0.74382257226E+01 -0.10134596179E+04  0.10781390517E+04  0.92301975052E+02 0.  0.
         23    2    4    4    0    0  0.51534080911E+02 -0.59372997278E+03 -0.39193929120E+03  0.71885067524E+03  0.89212349134E+02 0.  0.
          2    1    3    3  502    0  0.26143160597E+03  0.51043104366E+03 -0.95149523926E+03  0.11109588315E+04  0.00000000000E+00 0. -1.
         -1    1    3    3    0  502  0.42995597534E+02  0.90737154839E+02 -0.11744330035E+03  0.15451466426E+03  0.00000000000E+00 0.  1.
         13    1    5    5    0    0 -0.24897190774E+03  0.37435493601E+02 -0.68858703331E+03  0.73317155528E+03  0.00000000000E+00 0.  1.
        -13    1    5    5    0    0 -0.10698937667E+03 -0.44873719324E+02 -0.32487258454E+03  0.34496749643E+03  0.00000000000E+00 0. -1.
          1    1    6    6  503    0  0.29985464004E+02 -0.98258805368E+02 -0.99989017332E+02  0.14335872653E+03  0.00000000000E+00 0. -1.
         -1    1    6    6    0  503  0.21548616907E+02 -0.49547116741E+03 -0.29195027387E+03  0.57549194872E+03  0.00000000000E+00 0.  1.
<mgrwt>
<rscale>  0 0.18045318E+04</rscale>
<asrwt>0</asrwt>
<pdfrwt beam="1">  1        2 0.42590775E+00 0.18045318E+04</pdfrwt>
<pdfrwt beam="2">  1       -1 0.45240443E-01 0.18045318E+04</pdfrwt>
<totfact> 0.12618843E+01</totfact>
</mgrwt>
</event>
<event>
12    7  0.1711607E-007  0.2146849E+04  0.7818608E-02  0.8540882E-01
         -1   -1    0    0    0  501 -0.00000000000E+00  0.00000000000E+00  0.29563512452E+04  0.29563512452E+04  0.00000000000E+00 0.  1.
          2   -1    0    0  501    0  0.00000000000E+00 -0.00000000000E+00 -0.38975073998E+03  0.38975073998E+03  0.00000000000E+00 0. -1.
         24    2    1    2    0    0  0.93995891859E+02 -0.30045325991E+03 -0.21522453200E+03  0.38934130916E+03  0.78470801997E+02 0.  0.
        254    2    1    2    0    0 -0.93995891859E+02  0.30045325991E+03  0.27818250372E+04  0.29567606760E+04  0.95119701874E+03 0.  0.
         23    2    4    4    0    0 -0.42214802097E+03  0.20981791119E+03  0.72119459524E+03  0.86649975599E+03  0.92019973203E+02 0.  0.
         23    2    4    4    0    0  0.32815212911E+03  0.90635348721E+02  0.20606304419E+04  0.20902609200E+04  0.84227721633E+02 0.  0.
          4    1    3    3  502    0  0.85453447228E+02 -0.30122611040E+03 -0.21649574113E+03  0.38067028668E+03  0.00000000000E+00 0. -1.
         -3    1    3    3    0  502  0.85424446307E+01  0.77285049219E+00  0.12712091366E+01  0.86710224784E+01  0.00000000000E+00 0.  1.
         13    1    5    5    0    0 -0.37760648540E+02  0.70079316190E+01  0.25133773099E+02  0.45898629979E+02  0.00000000000E+00 0. -1.
        -13    1    5    5    0    0 -0.38438737243E+03  0.20280997957E+03  0.69606082214E+03  0.82060112601E+03  0.00000000000E+00 0.  1.
          1    1    6    6  503    0  0.81204141439E+02  0.54014534531E+02  0.72112004728E+03  0.72768523767E+03  0.00000000000E+00 0. -1.
         -1    1    6    6    0  503  0.24694798767E+03  0.36620814191E+02  0.13395103946E+04  0.13625756823E+04  0.00000000000E+00 0.  1.
<mgrwt>
<rscale>  0 0.21468489E+04</rscale>
<asrwt>0</asrwt>
<pdfrwt beam="1">  1        2 0.59961654E-01 0.21468489E+04</pdfrwt>
<pdfrwt beam="2">  1       -1 0.45482325E+00 0.21468489E+04</pdfrwt>
<totfact> 0.25739591E-01</totfact>
</mgrwt>
</event>
<event>
12    7  0.1711607E-007  0.1451835E+04  0.7818608E-02  0.8917129E-01
          2   -1    0    0  501    0  0.00000000000E+00  0.00000000000E+00  0.12707433182E+04  0.12707433182E+04  0.00000000000E+00 0. -1.
         -1   -1    0    0    0  501 -0.00000000000E+00 -0.00000000000E+00 -0.41468339197E+03  0.41468339197E+03  0.00000000000E+00 0.  1.
         24    2    1    2    0    0 -0.43375038558E+03  0.87276265598E+02  0.30863046441E+03  0.54527846762E+03  0.79494025930E+02 0.  0.
        254    2    1    2    0    0  0.43375038558E+03 -0.87276265598E+02  0.54742946187E+03  0.11401482426E+04  0.89694060887E+03 0.  0.
         23    2    4    4    0    0 -0.39500704199E+02 -0.40860902160E+03  0.21243056196E+03  0.47111452800E+03  0.91107171362E+02 0.  0.
         23    2    4    4    0    0  0.47325108978E+03  0.32133275601E+03  0.33499889992E+03  0.66903371459E+03  0.90335564725E+02 0.  0.
          2    1    3    3  502    0 -0.22311024960E+03  0.46488978042E+02  0.20698026193E+03  0.30786399170E+03  0.00000000000E+00 0. -1.
         -1    1    3    3    0  502 -0.21064013598E+03  0.40787287555E+02  0.10165020248E+03  0.23741447592E+03  0.00000000000E+00 0.  1.
         13    1    5    5    0    0  0.15412412221E+01 -0.33259467422E+03  0.15197325661E+03  0.36567398522E+03  0.00000000000E+00 0. -1.
        -13    1    5    5    0    0 -0.41041945421E+02 -0.76014347387E+02  0.60457305345E+02  0.10544054278E+03  0.00000000000E+00 0.  1.
          4    1    6    6  503    0  0.20413047615E+03  0.17146213437E+03  0.11410214203E+03  0.28997898826E+03  0.00000000000E+00 0. -1.
         -4    1    6    6    0  503  0.26912061363E+03  0.14987062163E+03  0.22089675788E+03  0.37905472633E+03  0.00000000000E+00 0.  1.
<mgrwt>
<rscale>  0 0.14518349E+04</rscale>
<asrwt>0</asrwt>
<pdfrwt beam="1">  1        2 0.19549897E+00 0.14518349E+04</pdfrwt>
<pdfrwt beam="2">  1       -1 0.63797445E-01 0.14518349E+04</pdfrwt>
<totfact> 0.47367305E+01</totfact>
</mgrwt>
</event>
<event>
12    7  0.1711607E-007  0.1931288E+04  0.7818608E-02  0.8639437E-01
         -1   -1    0    0    0  501 -0.00000000000E+00  0.00000000000E+00  0.10042720395E+04  0.10042720395E+04  0.00000000000E+00 0.  1.
          2   -1    0    0  501    0  0.00000000000E+00 -0.00000000000E+00 -0.92850142103E+03  0.92850142103E+03  0.00000000000E+00 0. -1.
         24    2    1    2    0    0  0.16355337077E+03 -0.71202628949E+03  0.19960221475E+03  0.76243636610E+03  0.87960367222E+02 0.  0.
        254    2    1    2    0    0 -0.16355337077E+03  0.71202628949E+03 -0.12383159626E+03  0.11703370944E+04  0.90588272331E+03 0.  0.
         23    2    4    4    0    0 -0.37792390435E+03  0.26515518590E+03  0.25892285704E+03  0.53739458304E+03  0.92833947939E+02 0.  0.
         23    2    4    4    0    0  0.21437053359E+03  0.44687110359E+03 -0.38275445331E+03  0.63294251141E+03  0.92014902730E+02 0.  0.
          2    1    3    3  502    0  0.22799278692E+02 -0.13644147143E+03  0.38238272583E+01  0.13838606827E+03  0.00000000000E+00 0. -1.
         -1    1    3    3    0  502  0.14075409208E+03 -0.57558481805E+03  0.19577838749E+03  0.62405029783E+03  0.00000000000E+00 0.  1.
         13    1    5    5    0    0 -0.12056747320E+03  0.43533569236E+02  0.99168631739E+02  0.16206821022E+03  0.00000000000E+00 0. -1.
        -13    1    5    5    0    0 -0.25735643115E+03  0.22162161666E+03  0.15975422530E+03  0.37532637281E+03  0.00000000000E+00 0.  1.
          1    1    6    6  503    0  0.33946888757E+02  0.16874387345E+03 -0.11822108304E+03  0.20881357848E+03  0.00000000000E+00 0. -1.
         -1    1    6    6    0  503  0.18042364483E+03  0.27812723014E+03 -0.26453337027E+03  0.42412893293E+03  0.00000000000E+00 0.  1.
<mgrwt>
<rscale>  0 0.19312877E+04</rscale>
<asrwt>0</asrwt>
<pdfrwt beam="1">  1        2 0.14284637E+00 0.19312877E+04</pdfrwt>
<pdfrwt beam="2">  1       -1 0.15450339E+00 0.19312877E+04</pdfrwt>
<totfact> 0.96282241E+00</totfact>
</mgrwt>
</event>
<event>
12    7  0.1711607E-007  0.2011547E+04  0.7818608E-02  0.8601241E-01
         -1   -1    0    0    0  501 -0.00000000000E+00  0.00000000000E+00  0.68410663042E+03  0.68410663042E+03  0.00000000000E+00 0.  1.
          2   -1    0    0  501    0  0.00000000000E+00 -0.00000000000E+00 -0.14786873832E+04  0.14786873832E+04  0.00000000000E+00 0. -1.
         24    2    1    2    0    0  0.46385450883E+03  0.45614019465E+03  0.18338728605E+03  0.68082098134E+03  0.81617580302E+02 0.  0.
        254    2    1    2    0    0 -0.46385450883E+03 -0.45614019465E+03 -0.97796803878E+03  0.14819730322E+04  0.90365795569E+03 0.  0.
         23    2    4    4    0    0 -0.92060833556E+02 -0.17914406658E+03 -0.98514899975E+03  0.10096913274E+04  0.91598205327E+02 0.  0.
         23    2    4    4    0    0 -0.37179367527E+03 -0.27699612807E+03  0.71809609726E+01  0.47228170485E+03  0.89671905306E+02 0.  0.
          4    1    3    3  502    0  0.49274894844E+02  0.18019021650E+02  0.15734073916E+02  0.54774642720E+02  0.00000000000E+00 0. -1.
         -3    1    3    3    0  502  0.41457961398E+03  0.43812117300E+03  0.16765321213E+03  0.62604633862E+03  0.00000000000E+00 0.  1.
         13    1    5    5    0    0  0.16927361320E+02 -0.11498346879E+02 -0.68770707927E+02  0.71750664185E+02  0.00000000000E+00 0. -1.
        -13    1    5    5    0    0 -0.10898819488E+03 -0.16764571970E+03 -0.91637829182E+03  0.93794066320E+03  0.00000000000E+00 0.  1.
          3    1    6    6  503    0 -0.25432744449E+03 -0.14166368841E+03  0.25025115464E+02  0.29219395278E+03  0.00000000000E+00 0. -1.
         -3    1    6    6    0  503 -0.11746623078E+03 -0.13533243966E+03 -0.17844154492E+02  0.18008775208E+03  0.00000000000E+00 0.  1.
<mgrwt>
<rscale>  0 0.20115465E+04</rscale>
<asrwt>0</asrwt>
<pdfrwt beam="1">  1        2 0.22749037E+00 0.20115465E+04</pdfrwt>
<pdfrwt beam="2">  1       -1 0.10524717E+00 0.20115465E+04</pdfrwt>
<totfact> 0.11687372E+01</totfact>
</mgrwt>
</event>
<event>
12    7  0.1711607E-007  0.2619906E+04  0.7818608E-02  0.8361471E-01
          2   -1    0    0  501    0  0.00000000000E+00  0.00000000000E+00  0.20499245566E+04  0.20499245566E+04  0.00000000000E+00 0. -1.
         -1   -1    0    0    0  501 -0.00000000000E+00 -0.00000000000E+00 -0.83709269920E+03  0.83709269920E+03  0.00000000000E+00 0.  1.
         24    2    1    2    0    0 -0.73306200822E+03 -0.81568182895E+03  0.93331463110E+03  0.14422183466E+04  0.78745188234E+02 0.  0.
        254    2    1    2    0    0  0.73306200822E+03  0.81568182895E+03  0.27951722628E+03  0.14447989092E+04  0.89810759612E+03 0.  0.
         23    2    4    4    0    0  0.69318073626E+03  0.89350252491E+03  0.46010533492E+03  0.12245832361E+04  0.95188696209E+02 0.  0.
         23    2    4    4    0    0  0.39881271958E+02 -0.77820695959E+02 -0.18058810863E+03  0.22021567304E+03  0.90754069317E+02 0.  0.
          4    1    3    3  502    0 -0.58961881005E+03 -0.67263958457E+03  0.72225636081E+03  0.11496732591E+04  0.00000000000E+00 0. -1.
         -3    1    3    3    0  502 -0.14344319816E+03 -0.14304224438E+03  0.21105827030E+03  0.29254508753E+03  0.00000000000E+00 0.  1.
         13    1    5    5    0    0  0.17274304376E+03  0.21144308670E+03  0.68511256869E+02  0.28149978756E+03  0.00000000000E+00 0. -1.
        -13    1    5    5    0    0  0.52043769250E+03  0.68205943821E+03  0.39159407805E+03  0.94308344858E+03  0.00000000000E+00 0.  1.
          4    1    6    6  503    0 -0.84678998065E+01 -0.87478006689E+01  0.73570439630E+01  0.14225169227E+02  0.00000000000E+00 0. -1.
         -4    1    6    6    0  503  0.48349171765E+02 -0.69072895290E+02 -0.18794515260E+03  0.20599050381E+03  0.00000000000E+00 0.  1.
<mgrwt>
<rscale>  0 0.26199060E+04</rscale>
<asrwt>0</asrwt>
<pdfrwt beam="1">  1        2 0.31537301E+00 0.26199060E+04</pdfrwt>
<pdfrwt beam="2">  1       -1 0.12878349E+00 0.26199060E+04</pdfrwt>
<totfact> 0.32695341E+00</totfact>
</mgrwt>
</event>
<event>
12    7  0.1711607E-007  0.2126292E+04  0.7818608E-02  0.8549749E-01
         -3   -1    0    0    0  501 -0.00000000000E+00  0.00000000000E+00  0.20918766612E+04  0.20918766612E+04  0.00000000000E+00 0.  1.
          4   -1    0    0  501    0  0.00000000000E+00 -0.00000000000E+00 -0.54031855730E+03  0.54031855730E+03  0.00000000000E+00 0. -1.
         24    2    1    2    0    0 -0.17443210164E+03  0.82094435873E+03  0.40261625687E+03  0.93416599277E+03  0.78676893276E+02 0.  0.
        254    2    1    2    0    0  0.17443210164E+03 -0.82094435873E+03  0.11489418470E+04  0.16980292257E+04  0.92674682912E+03 0.  0.
         23    2    4    4    0    0 -0.75509949742E+02 -0.74899239504E+02  0.83414948580E+03  0.84589517614E+03  0.91769470785E+02 0.  0.
         23    2    4    4    0    0  0.24994205138E+03 -0.74604511923E+03  0.31479236119E+03  0.85213404954E+03  0.89352441170E+02 0.  0.
          2    1    3    3  502    0 -0.69486747720E+02  0.22573390867E+03  0.82120488149E+02  0.25005595415E+03  0.00000000000E+00 0. -1.
         -1    1    3    3    0  502 -0.10494535392E+03  0.59521045007E+03  0.32049576872E+03  0.68411003862E+03  0.00000000000E+00 0.  1.
         13    1    5    5    0    0  0.16092696880E+02 -0.37804008742E+02  0.28070933578E+03  0.28370028051E+03  0.00000000000E+00 0.  1.
        -13    1    5    5    0    0 -0.91602646622E+02 -0.37095230761E+02  0.55344015003E+03  0.56219489563E+03  0.00000000000E+00 0. -1.
          4    1    6    6  503    0  0.83484745287E+02 -0.36335684888E+03  0.12062597191E+03  0.39185268587E+03  0.00000000000E+00 0.  1.
         -4    1    6    6    0  503  0.16645730609E+03 -0.38268827035E+03  0.19416638927E+03  0.46028136367E+03  0.00000000000E+00 0. -1.
<mgrwt>
<rscale>  0 0.21262923E+04</rscale>
<asrwt>0</asrwt>
<pdfrwt beam="1">  1        4 0.83125933E-01 0.21262923E+04</pdfrwt>
<pdfrwt beam="2">  1       -3 0.32182717E+00 0.21262923E+04</pdfrwt>
<totfact> 0.76903863E-02</totfact>
</mgrwt>
</event>
<event>
12    7  0.1711607E-007  0.2461509E+04  0.7818608E-02  0.8416828E-01
         -1   -1    0    0    0  501 -0.00000000000E+00  0.00000000000E+00  0.21194018098E+04  0.21194018098E+04  0.00000000000E+00 0.  1.
          2   -1    0    0  501    0  0.00000000000E+00 -0.00000000000E+00 -0.71470970163E+03  0.71470970163E+03  0.00000000000E+00 0. -1.
         24    2    1    2    0    0  0.30315778879E+03  0.88494339271E+03  0.27091589015E+02  0.93901392255E+03  0.77354633608E+02 0.  0.
        254    2    1    2    0    0 -0.30315778879E+03 -0.88494339271E+03  0.13776005192E+04  0.18950975889E+04  0.90475534144E+03 0.  0.
         23    2    4    4    0    0  0.16942885499E+03  0.71387859213E+02  0.37731602044E+03  0.42990568873E+03  0.93000852542E+02 0.  0.
         23    2    4    4    0    0 -0.47258664378E+03 -0.95633125192E+03  0.10002844988E+04  0.14651919002E+04  0.91162638590E+02 0.  0.
          2    1    3    3  502    0  0.29246988641E+03  0.87341636163E+03  0.18875790826E+02  0.92127686973E+03  0.00000000000E+00 0. -1.
         -1    1    3    3    0  502  0.10687902384E+02  0.11527031081E+02  0.82157981893E+01  0.17737052821E+02  0.00000000000E+00 0.  1.
         13    1    5    5    0    0  0.18045568636E+03  0.72165914983E+02  0.34828983285E+03  0.39884581193E+03  0.00000000000E+00 0.  1.
        -13    1    5    5    0    0 -0.11026831371E+02 -0.77805577014E+00  0.29026187587E+02  0.31059876798E+02  0.00000000000E+00 0. -1.
          2    1    6    6  503    0 -0.49593850152E+01 -0.52600195926E+02  0.56208923344E+02  0.77141552840E+02  0.00000000000E+00 0. -1.
         -2    1    6    6    0  503 -0.46762725876E+03 -0.90373105600E+03  0.94407557542E+03  0.13880503474E+04  0.00000000000E+00 0.  1.
<mgrwt>
<rscale>  0 0.24615093E+04</rscale>
<asrwt>0</asrwt>
<pdfrwt beam="1">  1        2 0.10995534E+00 0.24615093E+04</pdfrwt>
<pdfrwt beam="2">  1       -1 0.32606181E+00 0.24615093E+04</pdfrwt>
<totfact> 0.91011536E-01</totfact>
</mgrwt>
</event>
<event>
12    7  0.1711607E-007  0.1518409E+04  0.7818608E-02  0.8872303E-01
          2   -1    0    0  501    0  0.00000000000E+00  0.00000000000E+00  0.29403333767E+04  0.29403333767E+04  0.00000000000E+00 0. -1.
         -1   -1    0    0    0  501 -0.00000000000E+00 -0.00000000000E+00 -0.19602927772E+03  0.19602927772E+03  0.00000000000E+00 0.  1.
         24    2    1    2    0    0 -0.23323990640E+03  0.32936253549E+03  0.14522073932E+04  0.15092820603E+04  0.78393182062E+02 0.  0.
        254    2    1    2    0    0  0.23323990640E+03 -0.32936253549E+03  0.12920967058E+04  0.16270805941E+04  0.90277174795E+03 0.  0.
         23    2    4    4    0    0  0.54582964348E+03 -0.36196107072E+03  0.84904470006E+03  0.10761750514E+04  0.91268955367E+02 0.  0.
         23    2    4    4    0    0 -0.31258973709E+03  0.32598535228E+02  0.44305200571E+03  0.55090554266E+03  0.91797761068E+02 0.  0.
          4    1    3    3  502    0 -0.23656072043E+03  0.31656631329E+03  0.14282925711E+04  0.14819564345E+04  0.00000000000E+00 0. -1.
         -3    1    3    3    0  502  0.33208140378E+01  0.12796222206E+02  0.23914822064E+02  0.27325625757E+02  0.00000000000E+00 0.  1.
         13    1    5    5    0    0  0.20449877517E+03 -0.84148314843E+02  0.27874596404E+03  0.35580893807E+03  0.00000000000E+00 0. -1.
        -13    1    5    5    0    0  0.34133086831E+03 -0.27781275588E+03  0.57029873602E+03  0.72036611337E+03  0.00000000000E+00 0.  1.
          2    1    6    6  503    0 -0.79271563292E+02 -0.29402125246E+02  0.13861416272E+03  0.16236487250E+03  0.00000000000E+00 0. -1.
         -2    1    6    6    0  503 -0.23331817379E+03  0.62000660474E+02  0.30443784299E+03  0.38854067016E+03  0.00000000000E+00 0.  1.
<mgrwt>
<rscale>  0 0.15184089E+04</rscale>
<asrwt>0</asrwt>
<pdfrwt beam="1">  1        2 0.45235895E+00 0.15184089E+04</pdfrwt>
<pdfrwt beam="2">  1       -1 0.30158353E-01 0.15184089E+04</pdfrwt>
<totfact> 0.21207031E+01</totfact>
</mgrwt>
</event>
<event>
12    7  0.1711607E-007  0.1837690E+04  0.7818608E-02  0.8686509E-01
         -1   -1    0    0    0  501 -0.00000000000E+00  0.00000000000E+00  0.10152749022E+04  0.10152749022E+04  0.00000000000E+00 0.  1.
          2   -1    0    0  501    0  0.00000000000E+00 -0.00000000000E+00 -0.83157403903E+03  0.83157403903E+03  0.00000000000E+00 0. -1.
         24    2    1    2    0    0 -0.61174155240E+03  0.14550323323E+03  0.36912166849E+03  0.73326845952E+03  0.77671808038E+02 0.  0.
        254    2    1    2    0    0  0.61174155240E+03 -0.14550323323E+03 -0.18542080530E+03  0.11135804817E+04  0.90015648443E+03 0.  0.
         23    2    4    4    0    0  0.17830749526E+03 -0.24647980619E+03 -0.47689402832E+03  0.57331932436E+03  0.93387770691E+02 0.  0.
         23    2    4    4    0    0  0.43343405714E+03  0.10097657296E+03  0.29147322302E+03  0.54026115738E+03  0.94149499508E+02 0.  0.
          4    1    3    3  502    0 -0.16468188500E+03  0.74308294557E+02  0.11413050659E+03  0.21369983252E+03  0.00000000000E+00 0. -1.
         -3    1    3    3    0  502 -0.44705966740E+03  0.71194938671E+02  0.25499116190E+03  0.51956862700E+03  0.00000000000E+00 0.  1.
         13    1    5    5    0    0  0.29661208544E+02 -0.35072119988E+02 -0.23871908532E+02  0.51765904896E+02  0.00000000000E+00 0. -1.
        -13    1    5    5    0    0  0.14864628671E+03 -0.21140768620E+03 -0.45302211979E+03  0.52155341946E+03  0.00000000000E+00 0.  1.
          3    1    6    6  503    0  0.12606744069E+03 -0.48014709988E+01  0.51718249188E+02  0.13634819773E+03  0.00000000000E+00 0. -1.
         -3    1    6    6    0  503  0.30736661645E+03  0.10577804396E+03  0.23975497383E+03  0.40391295965E+03  0.00000000000E+00 0.  1.
<mgrwt>
<rscale>  0 0.18376901E+04</rscale>
<asrwt>0</asrwt>
<pdfrwt beam="1">  1        2 0.12793447E+00 0.18376901E+04</pdfrwt>
<pdfrwt beam="2">  1       -1 0.15619614E+00 0.18376901E+04</pdfrwt>
<totfact> 0.10975907E+01</totfact>
</mgrwt>
</event>
<event>
12    7  0.1711607E-007  0.1546973E+04  0.7818608E-02  0.8853804E-01
         -1   -1    0    0    0  501 -0.00000000000E+00  0.00000000000E+00  0.39200666474E+03  0.39200666474E+03  0.00000000000E+00 0.  1.
          2   -1    0    0  501    0  0.00000000000E+00 -0.00000000000E+00 -0.15262013073E+04  0.15262013073E+04  0.00000000000E+00 0. -1.
         24    2    1    2    0    0 -0.10785069318E+03  0.25632426262E+03  0.14797074810E+03  0.32467669315E+03  0.78649304855E+02 0.  0.
        254    2    1    2    0    0  0.10785069318E+03 -0.25632426262E+03 -0.12821653906E+04  0.15935312789E+04  0.90446666504E+03 0.  0.
         23    2    4    4    0    0 -0.18279967171E+03 -0.44993863476E+03 -0.38469185962E+03  0.62616748261E+03  0.90760092555E+02 0.  0.
         23    2    4    4    0    0  0.29065036489E+03  0.19361437214E+03 -0.89747353101E+03  0.96736379625E+03  0.91486697018E+02 0.  0.
          2    1    3    3  502    0 -0.78836700281E+01  0.71596439436E+02  0.84608787921E+01  0.72524401845E+02  0.00000000000E+00 0. -1.
         -1    1    3    3    0  502 -0.99967023156E+02  0.18472782319E+03  0.13950986930E+03  0.25215229131E+03  0.00000000000E+00 0.  1.
         13    1    5    5    0    0 -0.52286280924E+02 -0.21317823840E+03 -0.13212131571E+03  0.25619301037E+03  0.00000000000E+00 0. -1.
        -13    1    5    5    0    0 -0.13051339078E+03 -0.23676039636E+03 -0.25257054391E+03  0.36997447224E+03  0.00000000000E+00 0.  1.
          3    1    6    6  503    0  0.56281667733E+02  0.46733580854E+02 -0.30283275541E+03  0.31154346639E+03  0.00000000000E+00 0. -1.
         -3    1    6    6    0  503  0.23436869716E+03  0.14688079128E+03 -0.59464077560E+03  0.65582032987E+03  0.00000000000E+00 0.  1.
<mgrwt>
<rscale>  0 0.15469726E+04</rscale>
<asrwt>0</asrwt>
<pdfrwt beam="1">  1        2 0.23480020E+00 0.15469726E+04</pdfrwt>
<pdfrwt beam="2">  1       -1 0.60308719E-01 0.15469726E+04</pdfrwt>
<totfact> 0.37523762E+01</totfact>
</mgrwt>
</event>
<event>
12    7  0.1711607E-007  0.2339604E+04  0.7818608E-02  0.8462468E-01
          2   -1    0    0  501    0  0.00000000000E+00  0.00000000000E+00  0.17327041904E+04  0.17327041904E+04  0.00000000000E+00 0. -1.
         -1   -1    0    0    0  501 -0.00000000000E+00 -0.00000000000E+00 -0.78976916761E+03  0.78976916761E+03  0.00000000000E+00 0.  1.
         24    2    1    2    0    0  0.18000092900E+03 -0.85230502510E+03  0.92654339119E+03  0.12741822403E+04  0.78952741450E+02 0.  0.
        254    2    1    2    0    0 -0.18000092900E+03  0.85230502510E+03  0.16391631634E+02  0.12482911178E+04  0.89394509838E+03 0.  0.
         23    2    4    4    0    0  0.12451256456E+03 -0.95953070317E+02 -0.14607624810E+03  0.23524206858E+03  0.96385632394E+02 0.  0.
         23    2    4    4    0    0 -0.30451349356E+03  0.94825809541E+03  0.16246787974E+03  0.10130490492E+04  0.89166590656E+02 0.  0.
          4    1    3    3  502    0  0.15704777737E+03 -0.81481929047E+03  0.89179327102E+03  0.12181501216E+04  0.00000000000E+00 0. -1.
         -3    1    3    3    0  502  0.22953151631E+02 -0.37485734624E+02  0.34750120175E+02  0.56032118667E+02  0.00000000000E+00 0.  1.
         13    1    5    5    0    0 -0.72560194678E+01 -0.54342315749E+01 -0.45448477378E+02  0.46343767513E+02  0.00000000000E+00 0. -1.
        -13    1    5    5    0    0  0.13176858403E+03 -0.90518838742E+02 -0.10062777073E+03  0.18889830106E+03  0.00000000000E+00 0.  1.
          4    1    6    6  503    0 -0.89796486981E+02  0.25663721066E+03  0.49845105873E+01  0.27193917025E+03  0.00000000000E+00 0. -1.
         -4    1    6    6    0  503 -0.21471700658E+03  0.69162088475E+03  0.15748336915E+03  0.74110987896E+03  0.00000000000E+00 0.  1.
<mgrwt>
<rscale>  0 0.23396037E+04</rscale>
<asrwt>0</asrwt>
<pdfrwt beam="1">  1        2 0.26656988E+00 0.23396037E+04</pdfrwt>
<pdfrwt beam="2">  1       -1 0.12150295E+00 0.23396037E+04</pdfrwt>
<totfact> 0.58098149E+00</totfact>
</mgrwt>
</event>
<event>
12    7  0.1711607E-007  0.2219667E+04  0.7818608E-02  0.8510287E-01
          2   -1    0    0  501    0  0.00000000000E+00  0.00000000000E+00  0.15089348586E+04  0.15089348586E+04  0.00000000000E+00 0. -1.
         -1   -1    0    0    0  501 -0.00000000000E+00 -0.00000000000E+00 -0.81629111688E+03  0.81629111688E+03  0.00000000000E+00 0.  1.
         24    2    1    2    0    0  0.13756216632E+02  0.39168381579E+03 -0.58852976604E+03  0.71171043311E+03  0.80987715307E+02 0.  0.
        254    2    1    2    0    0 -0.13756216632E+02 -0.39168381579E+03  0.12811735078E+04  0.16135155424E+04  0.89912257422E+03 0.  0.
         23    2    4    4    0    0  0.22849669457E+03 -0.42198819122E+03  0.24814450841E+03  0.54827219230E+03  0.93498271832E+02 0.  0.
         23    2    4    4    0    0 -0.24225291121E+03  0.30304375426E+02  0.10330289994E+04  0.10652433501E+04  0.89384860143E+02 0.  0.
          2    1    3    3  502    0 -0.17982093687E+02  0.21748946423E+02 -0.53211491649E+02  0.60231513407E+02  0.00000000000E+00 0. -1.
         -1    1    3    3    0  502  0.31738310320E+02  0.36993486937E+03 -0.53531827439E+03  0.65147891970E+03  0.00000000000E+00 0.  1.
         13    1    5    5    0    0  0.10422759258E+03 -0.14358275986E+03  0.13549748781E+03  0.22324643152E+03  0.00000000000E+00 0.  1.
        -13    1    5    5    0    0  0.12426910200E+03 -0.27840543135E+03  0.11264702060E+03  0.32502576078E+03  0.00000000000E+00 0. -1.
          2    1    6    6  503    0 -0.11708756094E+03  0.14144772055E+02  0.68410720394E+03  0.69419899019E+03  0.00000000000E+00 0. -1.
         -2    1    6    6    0  503 -0.12516535027E+03  0.16159603371E+02  0.34892179545E+03  0.37104435992E+03  0.00000000000E+00 0.  1.
<mgrwt>
<rscale>  0 0.22196668E+04</rscale>
<asrwt>0</asrwt>
<pdfrwt beam="1">  1        2 0.23214382E+00 0.22196668E+04</pdfrwt>
<pdfrwt beam="2">  1       -1 0.12558325E+00 0.22196668E+04</pdfrwt>
<totfact> 0.72156131E+00</totfact>
</mgrwt>
</event>
<event>
12    7  0.1711607E-007  0.1130737E+04  0.7818608E-02  0.9175740E-01
         -1   -1    0    0    0  501 -0.00000000000E+00  0.00000000000E+00  0.14266905150E+04  0.14266905150E+04  0.00000000000E+00 0.  1.
          2   -1    0    0  501    0  0.00000000000E+00 -0.00000000000E+00 -0.22404419303E+03  0.22404419303E+03  0.00000000000E+00 0. -1.
         24    2    1    2    0    0 -0.18770850033E+02  0.59777354757E+02  0.45369061290E+03  0.46464481569E+03  0.78319573322E+02 0.  0.
        254    2    1    2    0    0  0.18770850033E+02 -0.59777354757E+02  0.74895570910E+03  0.11860898924E+04  0.91757773600E+03 0.  0.
         23    2    4    4    0    0 -0.12251546748E+03 -0.46057947845E+03  0.39144916735E+03  0.62363195494E+03  0.92416821350E+02 0.  0.
         23    2    4    4    0    0  0.14128631752E+03  0.40080212369E+03  0.35750654175E+03  0.56245793742E+03  0.89128211560E+02 0.  0.
          2    1    3    3  502    0 -0.55895316088E+01  0.47988903630E+02  0.10584603500E+03  0.11635102432E+03  0.00000000000E+00 0. -1.
         -3    1    3    3    0  502 -0.13181318424E+02  0.11788451127E+02  0.34784457790E+03  0.34829379137E+03  0.00000000000E+00 0.  1.
         13    1    5    5    0    0 -0.83722229398E+02 -0.35040294776E+03  0.34214864755E+03  0.49684739560E+03  0.00000000000E+00 0. -1.
        -13    1    5    5    0    0 -0.38793238086E+02 -0.11017653068E+03  0.49300519798E+02  0.12678455934E+03  0.00000000000E+00 0.  1.
          4    1    6    6  503    0  0.14547818934E+03  0.34075718351E+03  0.28047791167E+03  0.46470121651E+03  0.00000000000E+00 0. -1.
         -4    1    6    6    0  503 -0.41918718275E+01  0.60044940176E+02  0.77028630081E+02  0.97756720906E+02  0.00000000000E+00 0.  1.
<mgrwt>
<rscale>  0 0.11307373E+04</rscale>
<asrwt>0</asrwt>
<pdfrwt beam="1">  1        2 0.34468338E-01 0.11307373E+04</pdfrwt>
<pdfrwt beam="2">  1       -1 0.21949084E+00 0.11307373E+04</pdfrwt>
<totfact> 0.19223729E+01</totfact>
</mgrwt>
</event>
<event>
12    7  0.1711607E-007  0.1711365E+04  0.7818608E-02  0.8754909E-01
         -1   -1    0    0    0  501 -0.00000000000E+00  0.00000000000E+00  0.48500564143E+03  0.48500564143E+03  0.00000000000E+00 0.  1.
          2   -1    0    0  501    0  0.00000000000E+00 -0.00000000000E+00 -0.15096581654E+04  0.15096581654E+04  0.00000000000E+00 0. -1.
         24    2    1    2    0    0 -0.54807717943E+03 -0.22002428028E+03 -0.15636379088E+03  0.61593388297E+03  0.78266433214E+02 0.  0.
        254    2    1    2    0    0  0.54807717943E+03  0.22002428028E+03 -0.86828873306E+03  0.13787299238E+04  0.89340449987E+03 0.  0.
         23    2    4    4    0    0 -0.38098620405E+02  0.17914207645E+03 -0.74376831012E+03  0.77139314359E+03  0.91173978742E+02 0.  0.
         23    2    4    4    0    0  0.58617579983E+03  0.40882203826E+02 -0.12452042294E+03  0.60733678024E+03  0.89884403591E+02 0.  0.
          2    1    3    3  502    0 -0.22965297113E+03 -0.13122710246E+03 -0.84147300040E+02  0.27756406049E+03  0.00000000000E+00 0. -1.
         -1    1    3    3    0  502 -0.31842420829E+03 -0.88797177821E+02 -0.72216490836E+02  0.33836982248E+03  0.00000000000E+00 0.  1.
         13    1    5    5    0    0  0.28471836005E+02  0.78695492605E+02 -0.28149123018E+03  0.29366807567E+03  0.00000000000E+00 0. -1.
        -13    1    5    5    0    0 -0.66570456409E+02  0.10044658385E+03 -0.46227707994E+03  0.47772506792E+03  0.00000000000E+00 0.  1.
          2    1    6    6  503    0  0.25821810330E+03  0.14979643803E+02 -0.94881255943E+01  0.25882620255E+03  0.00000000000E+00 0. -1.
         -2    1    6    6    0  503  0.32795769653E+03  0.25902560023E+02 -0.11503229734E+03  0.34851057769E+03  0.00000000000E+00 0.  1.
<mgrwt>
<rscale>  0 0.17113652E+04</rscale>
<asrwt>0</asrwt>
<pdfrwt beam="1">  1        2 0.23225510E+00 0.17113652E+04</pdfrwt>
<pdfrwt beam="2">  1       -1 0.74616253E-01 0.17113652E+04</pdfrwt>
<totfact> 0.24540926E+01</totfact>
</mgrwt>
</event>
<event>
12    7  0.1711607E-007  0.1666601E+04  0.7818608E-02  0.8780646E-01
          2   -1    0    0  501    0  0.00000000000E+00  0.00000000000E+00  0.13119817620E+04  0.13119817620E+04  0.00000000000E+00 0. -1.
         -1   -1    0    0    0  501 -0.00000000000E+00 -0.00000000000E+00 -0.52926755304E+03  0.52926755304E+03  0.00000000000E+00 0.  1.
         24    2    1    2    0    0 -0.36146057221E+03 -0.21384947311E+03 -0.15731875259E+03  0.45548220256E+03  0.79558183248E+02 0.  0.
        254    2    1    2    0    0  0.36146057221E+03  0.21384947311E+03  0.94003296154E+03  0.13857671125E+04  0.92752529821E+03 0.  0.
         23    2    4    4    0    0  0.57607085502E+03  0.18444445971E+02  0.90783301405E+03  0.10792622173E+04  0.91914768445E+02 0.  0.
         23    2    4    4    0    0 -0.21461028281E+03  0.19540502714E+03  0.32199947485E+02  0.30650489519E+03  0.93100569477E+02 0.  0.
          4    1    3    3  502    0 -0.14901353874E+03 -0.66459285538E+02 -0.25138655010E+02  0.16508732034E+03  0.00000000000E+00 0. -1.
         -1    1    3    3    0  502 -0.21244703347E+03 -0.14739018757E+03 -0.13218009758E+03  0.29039488221E+03  0.00000000000E+00 0.  1.
         13    1    5    5    0    0  0.55527564354E+03  0.10331389915E+02  0.89556718595E+03  0.10537923716E+04  0.00000000000E+00 0. -1.
        -13    1    5    5    0    0  0.20795211483E+02  0.81130560554E+01  0.12265828097E+02  0.25469845663E+02  0.00000000000E+00 0.  1.
          2    1    6    6  503    0 -0.21156984612E+02  0.42617103134E+02  0.36480342121E+02  0.59955407085E+02  0.00000000000E+00 0.  1.
         -2    1    6    6    0  503 -0.19345329820E+03  0.15278792401E+03 -0.42803946362E+01  0.24654948811E+03  0.00000000000E+00 0. -1.
<mgrwt>
<rscale>  0 0.16666006E+04</rscale>
<asrwt>0</asrwt>
<pdfrwt beam="1">  1        2 0.20184335E+00 0.16666006E+04</pdfrwt>
<pdfrwt beam="2">  1       -1 0.81425778E-01 0.16666006E+04</pdfrwt>
<totfact> 0.26576059E+01</totfact>
</mgrwt>
</event>
<event>
12    7  0.2759970E-007  0.3368925E+04  0.7818608E-02  0.8145576E-01
          2   -1    0    0  501    0  0.00000000000E+00  0.00000000000E+00  0.24871217758E+04  0.24871217758E+04  0.00000000000E+00 0. -1.
         -1   -1    0    0    0  501 -0.00000000000E+00 -0.00000000000E+00 -0.11408421040E+04  0.11408421040E+04  0.00000000000E+00 0.  1.
         24    2    1    2    0    0 -0.77616582309E+03  0.10891247237E+04  0.14416959678E+04  0.19681078450E+04  0.79593826064E+02 0.  0.
        254    2    1    2    0    0  0.77616582309E+03 -0.10891247237E+04 -0.95416296068E+02  0.16598560348E+04  0.97846396864E+03 0.  0.
         23    2    4    4    0    0  0.61544909808E+03 -0.11584127879E+04 -0.32702000529E+03  0.13552601642E+04  0.95342797762E+02 0.  0.
         23    2    4    4    0    0  0.16071672500E+03  0.69288064209E+02  0.23160370922E+03  0.30459587064E+03  0.92237003138E+02 0.  0.
          4    1    3    3  502    0 -0.72446963107E+03  0.10403228476E+04  0.13476246317E+04  0.18501945902E+04  0.00000000000E+00 0. -1.
         -1    1    3    3    0  502 -0.51696192016E+02  0.48801876167E+02  0.94071336115E+02  0.11791325483E+03  0.00000000000E+00 0.  1.
         13    1    5    5    0    0  0.41095774328E+01 -0.39763058395E+02 -0.40125436901E+01  0.40175738281E+02  0.00000000000E+00 0. -1.
        -13    1    5    5    0    0  0.61133952065E+03 -0.11186497296E+04 -0.32300746160E+03  0.13150844259E+04  0.00000000000E+00 0.  1.
          4    1    6    6  503    0  0.16240721472E+02  0.25210549211E+02  0.23858560115E+01  0.30083635657E+02  0.00000000000E+00 0. -1.
         -4    1    6    6    0  503  0.14447600353E+03  0.44077514998E+02  0.22921785321E+03  0.27451223498E+03  0.00000000000E+00 0.  1.
<mgrwt>
<rscale>  0 0.33689246E+04</rscale>
<asrwt>0</asrwt>
<pdfrwt beam="1">  1        2 0.38263412E+00 0.33689246E+04</pdfrwt>
<pdfrwt beam="2">  1       -1 0.17551417E+00 0.33689246E+04</pdfrwt>
<totfact> 0.74946400E-01</totfact>
</mgrwt>
</event>
<event>
12    7  0.1711607E-007  0.1318876E+04  0.7818608E-02  0.9014729E-01
          2   -1    0    0  501    0  0.00000000000E+00  0.00000000000E+00  0.57898190211E+03  0.57898190211E+03  0.00000000000E+00 0. -1.
         -1   -1    0    0    0  501 -0.00000000000E+00 -0.00000000000E+00 -0.75107418386E+03  0.75107418386E+03  0.00000000000E+00 0.  1.
         24    2    1    2    0    0  0.14812256600E+03  0.26255980358E+03 -0.23047978840E+03  0.38731773369E+03  0.77563837922E+02 0.  0.
        254    2    1    2    0    0 -0.14812256600E+03 -0.26255980358E+03  0.58387506643E+02  0.94273835228E+03  0.89132965558E+03 0.  0.
         23    2    4    4    0    0 -0.42989471717E+03  0.62922868492E+02  0.19085815792E+03  0.48320755147E+03  0.91071104741E+02 0.  0.
         23    2    4    4    0    0  0.28177215118E+03 -0.32548267207E+03 -0.13247065128E+03  0.45953080081E+03  0.91025097898E+02 0.  0.
          2    1    3    3  502    0  0.13525568038E+02  0.46914123694E+00 -0.47914331455E+00  0.13542180865E+02  0.00000000000E+00 0. -1.
         -1    1    3    3    0  502  0.13459699796E+03  0.26209066235E+03 -0.23000064508E+03  0.37377555282E+03  0.00000000000E+00 0.  1.
         13    1    5    5    0    0 -0.26911873608E+03  0.71179699768E+02  0.15370376410E+03  0.31798787849E+03  0.00000000000E+00 0. -1.
        -13    1    5    5    0    0 -0.16077598109E+03 -0.82568312762E+01  0.37154393824E+02  0.16521967298E+03  0.00000000000E+00 0.  1.
          1    1    6    6  503    0  0.50001725248E+02 -0.11874834292E+03 -0.49859650381E+02  0.13815688984E+03  0.00000000000E+00 0. -1.
         -1    1    6    6    0  503  0.23177042593E+03 -0.20673432916E+03 -0.82611000895E+02  0.32137391097E+03  0.00000000000E+00 0.  1.
<mgrwt>
<rscale>  0 0.13188758E+04</rscale>
<asrwt>0</asrwt>
<pdfrwt beam="1">  1        2 0.89074139E-01 0.13188758E+04</pdfrwt>
<pdfrwt beam="2">  1       -1 0.11554987E+00 0.13188758E+04</pdfrwt>
<totfact> 0.39326516E+01</totfact>
</mgrwt>
</event>
<event>
12    7  0.1711607E-007  0.1629118E+04  0.7818608E-02  0.8802857E-01
         -1   -1    0    0    0  501 -0.00000000000E+00  0.00000000000E+00  0.28256867844E+03  0.28256867844E+03  0.00000000000E+00 0.  1.
          2   -1    0    0  501    0  0.00000000000E+00 -0.00000000000E+00 -0.23481240156E+04  0.23481240156E+04  0.00000000000E+00 0. -1.
         24    2    1    2    0    0  0.54171047609E+03 -0.10721534529E+03 -0.89698456484E+03  0.10562361946E+04  0.78155095737E+02 0.  0.
        254    2    1    2    0    0 -0.54171047609E+03  0.10721534529E+03 -0.11685707723E+04  0.15744564995E+04  0.89911637102E+03 0.  0.
         23    2    4    4    0    0 -0.60936530439E+03  0.28135117231E+03 -0.41806685928E+03  0.79568697498E+03  0.88618886047E+02 0.  0.
         23    2    4    4    0    0  0.67654828300E+02 -0.17413582703E+03 -0.75050391305E+03  0.77876952450E+03  0.91243557262E+02 0.  0.
          4    1    3    3  502    0  0.40839962953E+03 -0.59441997158E+02 -0.61422471531E+03  0.73999703332E+03  0.00000000000E+00 0. -1.
         -3    1    3    3    0  502  0.13331084657E+03 -0.47773348129E+02 -0.28275984953E+03  0.31623916126E+03  0.00000000000E+00 0.  1.
         13    1    5    5    0    0 -0.19969209545E+03  0.13789346860E+03 -0.13926761309E+03  0.27979815890E+03  0.00000000000E+00 0. -1.
        -13    1    5    5    0    0 -0.40967320895E+03  0.14345770371E+03 -0.27879924619E+03  0.51588881609E+03  0.00000000000E+00 0.  1.
          2    1    6    6  503    0  0.24093826072E+02 -0.15583910880E+03 -0.62730591102E+03  0.64682226793E+03  0.00000000000E+00 0. -1.
         -2    1    6    6    0  503  0.43561002228E+02 -0.18296718222E+02 -0.12319800203E+03  0.13194725657E+03  0.00000000000E+00 0.  1.
<mgrwt>
<rscale>  0 0.16291179E+04</rscale>
<asrwt>0</asrwt>
<pdfrwt beam="1">  1        2 0.36124986E+00 0.16291179E+04</pdfrwt>
<pdfrwt beam="2">  1       -1 0.43472103E-01 0.16291179E+04</pdfrwt>
<totfact> 0.24256159E+01</totfact>
</mgrwt>
</event>
<event>
12    7  0.1711607E-007  0.2666160E+04  0.7818608E-02  0.8346069E-01
         -1   -1    0    0    0  501 -0.00000000000E+00  0.00000000000E+00  0.15891815925E+04  0.15891815925E+04  0.00000000000E+00 0.  1.
          2   -1    0    0  501    0  0.00000000000E+00 -0.00000000000E+00 -0.11182498508E+04  0.11182498508E+04  0.00000000000E+00 0. -1.
         24    2    1    2    0    0 -0.27833043246E+03  0.99565583344E+03  0.77937390563E+03  0.12971561020E+04  0.79949358862E+02 0.  0.
        254    2    1    2    0    0  0.27833043246E+03 -0.99565583344E+03 -0.30844216387E+03  0.14102753413E+04  0.90826295831E+03 0.  0.
         23    2    4    4    0    0 -0.19563712827E+03 -0.12253075994E+03  0.17219860313E+03  0.30287404551E+03  0.93769160334E+02 0.  0.
         23    2    4    4    0    0  0.47396756073E+03 -0.87312507350E+03 -0.48064076701E+03  0.11074012958E+04  0.91265767666E+02 0.  0.
          2    1    3    3  502    0 -0.45228792500E+02  0.17332829313E+03  0.17427239684E+03  0.24991840503E+03  0.00000000000E+00 0. -1.
         -1    1    3    3    0  502 -0.23310163996E+03  0.82232754031E+03  0.60510150879E+03  0.10472376970E+04  0.00000000000E+00 0.  1.
         13    1    5    5    0    0 -0.79007424689E+02 -0.45586208200E+02  0.12631855703E+03  0.15580967038E+03  0.00000000000E+00 0. -1.
        -13    1    5    5    0    0 -0.11662970358E+03 -0.76944551741E+02  0.45880046103E+02  0.14706437512E+03  0.00000000000E+00 0.  1.
          3    1    6    6  503    0  0.36919048306E+03 -0.73990984408E+03 -0.41950823484E+03  0.92722993332E+03  0.00000000000E+00 0. -1.
         -3    1    6    6    0  503  0.10477707767E+03 -0.13321522942E+03 -0.61132532161E+02  0.18017136244E+03  0.00000000000E+00 0.  1.
<mgrwt>
<rscale>  0 0.26661598E+04</rscale>
<asrwt>0</asrwt>
<pdfrwt beam="1">  1        2 0.17203844E+00 0.26661598E+04</pdfrwt>
<pdfrwt beam="2">  1       -1 0.24448948E+00 0.26661598E+04</pdfrwt>
<totfact> 0.16124211E+00</totfact>
</mgrwt>
</event>
<event>
12    7  0.1711607E-007  0.1413079E+04  0.7818608E-02  0.8944405E-01
         -1   -1    0    0    0  501 -0.00000000000E+00  0.00000000000E+00  0.36124001476E+03  0.36124001476E+03  0.00000000000E+00 0.  1.
          2   -1    0    0  501    0  0.00000000000E+00 -0.00000000000E+00 -0.13819020964E+04  0.13819020964E+04  0.00000000000E+00 0. -1.
         24    2    1    2    0    0  0.10107994169E+03  0.35737010432E+03 -0.52705144530E+03  0.64952160980E+03  0.78514645315E+02 0.  0.
        254    2    1    2    0    0 -0.10107994169E+03 -0.35737010432E+03 -0.49361063634E+03  0.10936205014E+04  0.90245431719E+03 0.  0.
         23    2    4    4    0    0  0.13511735771E+03 -0.55124835673E+03 -0.51798373223E+03  0.77363649831E+03  0.89860077439E+02 0.  0.
         23    2    4    4    0    0 -0.23619729940E+03  0.19387825240E+03  0.24373095893E+02  0.31998400305E+03  0.91748424547E+02 0.  0.
          2    1    3    3  502    0  0.74078499486E+02  0.18062165443E+03 -0.33017291839E+03  0.38357002252E+03  0.00000000000E+00 0. -1.
         -1    1    3    3    0  502  0.27001442203E+02  0.17674844989E+03 -0.19687852691E+03  0.26595158728E+03  0.00000000000E+00 0.  1.
         13    1    5    5    0    0  0.77805201088E+02 -0.38774795430E+03 -0.40912547773E+03  0.56902177630E+03  0.00000000000E+00 0.  1.
        -13    1    5    5    0    0  0.57312156619E+02 -0.16350040242E+03 -0.10885825451E+03  0.20461472201E+03  0.00000000000E+00 0. -1.
          4    1    6    6  503    0 -0.11802317338E+03  0.11553612049E+03  0.56589069818E+02  0.17458633227E+03  0.00000000000E+00 0.  1.
         -4    1    6    6    0  503 -0.11817412601E+03  0.78342131914E+02 -0.32215973924E+02  0.14539767078E+03  0.00000000000E+00 0. -1.
<mgrwt>
<rscale>  0 0.14130794E+04</rscale>
<asrwt>0</asrwt>
<pdfrwt beam="1">  1        2 0.21260032E+00 0.14130794E+04</pdfrwt>
<pdfrwt beam="2">  1       -1 0.55575387E-01 0.14130794E+04</pdfrwt>
<totfact> 0.53773304E+01</totfact>
</mgrwt>
</event>
<event>
12    7  0.1711607E-007  0.1924306E+04  0.7818608E-02  0.8642852E-01
         -1   -1    0    0    0  501 -0.00000000000E+00  0.00000000000E+00  0.77376102203E+03  0.77376102203E+03  0.00000000000E+00 0.  1.
          2   -1    0    0  501    0  0.00000000000E+00 -0.00000000000E+00 -0.11964132287E+04  0.11964132287E+04  0.00000000000E+00 0. -1.
         24    2    1    2    0    0 -0.22794124507E+03 -0.33948129342E+03 -0.80495538313E+03  0.90760265003E+03  0.92653341753E+02 0.  0.
        254    2    1    2    0    0  0.22794124507E+03  0.33948129342E+03  0.38230317647E+03  0.10625716007E+04  0.90315996814E+03 0.  0.
         23    2    4    4    0    0  0.29350779416E+03  0.55049082282E+03  0.49082373184E+03  0.79884199331E+03  0.89741981820E+02 0.  0.
         23    2    4    4    0    0 -0.65566549089E+02 -0.21100952940E+03 -0.10852055537E+03  0.26372960737E+03  0.94618185401E+02 0.  0.
          2    1    3    3  502    0 -0.23084181857E+03 -0.30700157072E+03 -0.71055915485E+03  0.80773276655E+03  0.00000000000E+00 0. -1.
         -1    1    3    3    0  502  0.29005734988E+01 -0.32479722697E+02 -0.94396228281E+02  0.99869883483E+02  0.00000000000E+00 0.  1.
         13    1    5    5    0    0  0.12347192923E+03  0.23663531451E+03  0.15449897282E+03  0.30840155963E+03  0.00000000000E+00 0.  1.
        -13    1    5    5    0    0  0.17003586492E+03  0.31385550831E+03  0.33632475902E+03  0.49044043368E+03  0.00000000000E+00 0. -1.
          1    1    6    6  503    0 -0.51592437251E+02 -0.57649858310E+02 -0.71505305217E+02  0.10534844289E+03  0.00000000000E+00 0. -1.
         -1    1    6    6    0  503 -0.13974111838E+02 -0.15335967109E+03 -0.37015250151E+02  0.15838116448E+03  0.00000000000E+00 0.  1.
<mgrwt>
<rscale>  0 0.19243055E+04</rscale>
<asrwt>0</asrwt>
<pdfrwt beam="1">  1        2 0.18406357E+00 0.19243055E+04</pdfrwt>
<pdfrwt beam="2">  1       -1 0.11904016E+00 0.19243055E+04</pdfrwt>
<totfact> 0.12810382E+01</totfact>
</mgrwt>
</event>
<event>
12    7  0.1711607E-007  0.1986495E+04  0.7818608E-02  0.8612961E-01
         -1   -1    0    0    0  501 -0.00000000000E+00  0.00000000000E+00  0.74377164744E+03  0.74377164744E+03  0.00000000000E+00 0.  1.
          2   -1    0    0  501    0  0.00000000000E+00 -0.00000000000E+00 -0.13264027690E+04  0.13264027690E+04  0.00000000000E+00 0. -1.
         24    2    1    2    0    0 -0.66336876172E+01 -0.78765930269E+03 -0.25750969951E+03  0.83246084810E+03  0.78921703964E+02 0.  0.
        254    2    1    2    0    0  0.66336876172E+01  0.78765930269E+03 -0.32512142207E+03  0.12377135684E+04  0.89765235769E+03 0.  0.
         23    2    4    4    0    0 -0.97453342912E+02  0.85508673287E+03 -0.50411529072E+03  0.10015109672E+04  0.90672577405E+02 0.  0.
         23    2    4    4    0    0  0.10408703053E+03 -0.67427430182E+02  0.17899386865E+03  0.23620260116E+03  0.91500248717E+02 0.  0.
          4    1    3    3  502    0 -0.30579447791E+02 -0.60462579025E+03 -0.17437826729E+03  0.63001208636E+03  0.00000000000E+00 0. -1.
         -3    1    3    3    0  502  0.23945760174E+02 -0.18303351244E+03 -0.83131432215E+02  0.20244876174E+03  0.00000000000E+00 0.  1.
         13    1    5    5    0    0 -0.10259268851E+03  0.56000174714E+03 -0.30977358380E+03  0.64814110327E+03  0.00000000000E+00 0. -1.
        -13    1    5    5    0    0  0.51393455930E+01  0.29508498573E+03 -0.19434170691E+03  0.35336986392E+03  0.00000000000E+00 0.  1.
          4    1    6    6  503    0  0.77148611120E+02 -0.88714432110E+02  0.12033220401E+03  0.16823197670E+03  0.00000000000E+00 0. -1.
         -4    1    6    6    0  503  0.26938419409E+02  0.21287001927E+02  0.58661664638E+02  0.67970624459E+02  0.00000000000E+00 0.  1.
<mgrwt>
<rscale>  0 0.19864952E+04</rscale>
<asrwt>0</asrwt>
<pdfrwt beam="1">  1        2 0.20406196E+00 0.19864952E+04</pdfrwt>
<pdfrwt beam="2">  1       -1 0.11442641E+00 0.19864952E+04</pdfrwt>
<totfact> 0.11752022E+01</totfact>
</mgrwt>
</event>
<event>
12    7  0.1711607E-007  0.2175859E+04  0.7818608E-02  0.8528544E-01
          2   -1    0    0  501    0  0.00000000000E+00  0.00000000000E+00  0.23751828756E+04  0.23751828756E+04  0.00000000000E+00 0. -1.
         -1   -1    0    0    0  501 -0.00000000000E+00 -0.00000000000E+00 -0.49831538428E+03  0.49831538428E+03  0.00000000000E+00 0.  1.
         24    2    1    2    0    0 -0.11517488831E+03  0.24103771108E+03  0.19205340904E+04  0.19406511846E+04  0.79444287033E+02 0.  0.
        254    2    1    2    0    0  0.11517488831E+03 -0.24103771108E+03 -0.43666599094E+02  0.93284707530E+03  0.89271073757E+03 0.  0.
         23    2    4    4    0    0  0.23468161728E+03 -0.26708162858E+02 -0.41085828633E+03  0.48328302454E+03  0.94705664632E+02 0.  0.
         23    2    4    4    0    0 -0.11950672897E+03 -0.21432954822E+03  0.36719168724E+03  0.44956405076E+03  0.84018373274E+02 0.  0.
          4    1    3    3  502    0 -0.10755853629E+03  0.24532054554E+03  0.18901404064E+04  0.19090263918E+04  0.00000000000E+00 0. -1.
         -3    1    3    3    0  502 -0.76163520219E+01 -0.42828344609E+01  0.30393684011E+02  0.31624792757E+02  0.00000000000E+00 0.  1.
         13    1    5    5    0    0  0.22464980355E+03 -0.13558687184E+02 -0.32173594403E+03  0.39263900712E+03  0.00000000000E+00 0.  1.
        -13    1    5    5    0    0  0.10031813730E+02 -0.13149475674E+02 -0.89122342299E+02  0.90644017421E+02  0.00000000000E+00 0. -1.
          2    1    6    6  503    0 -0.87453010406E+01 -0.89913629691E+01  0.73101279300E+02  0.74169548560E+02  0.00000000000E+00 0. -1.
         -2    1    6    6    0  503 -0.11076142793E+03 -0.20533818525E+03  0.29409040794E+03  0.37539450220E+03  0.00000000000E+00 0.  1.
<mgrwt>
<rscale>  0 0.21758586E+04</rscale>
<asrwt>0</asrwt>
<pdfrwt beam="1">  1        2 0.36541274E+00 0.21758586E+04</pdfrwt>
<pdfrwt beam="2">  1       -1 0.76663907E-01 0.21758586E+04</pdfrwt>
<totfact> 0.73099798E+00</totfact>
</mgrwt>
</event>
<event>
12    7  0.1711607E-007  0.1889627E+04  0.7818608E-02  0.8660037E-01
          2   -1    0    0  501    0  0.00000000000E+00  0.00000000000E+00  0.19449009551E+04  0.19449009551E+04  0.00000000000E+00 0. -1.
         -1   -1    0    0    0  501 -0.00000000000E+00 -0.00000000000E+00 -0.45898086701E+03  0.45898086701E+03  0.00000000000E+00 0.  1.
         24    2    1    2    0    0  0.44722546299E+03 -0.22829300667E+03  0.12387115577E+04  0.13390909282E+04  0.81424070535E+02 0.  0.
        254    2    1    2    0    0 -0.44722546299E+03  0.22829300667E+03  0.24720853039E+03  0.10647908939E+04  0.90583623163E+03 0.  0.
         23    2    4    4    0    0  0.19491282869E+03  0.27520605348E+03 -0.44518468362E+02  0.35200211160E+03  0.90521875166E+02 0.  0.
         23    2    4    4    0    0 -0.64213829168E+03 -0.46913046808E+02  0.29172699875E+03  0.71278878227E+03  0.91764844717E+02 0.  0.
          4    1    3    3  502    0  0.26870749777E+03 -0.17437983233E+03  0.72638677519E+03  0.79388273217E+03  0.00000000000E+00 0. -1.
         -3    1    3    3    0  502  0.17851796523E+03 -0.53913174345E+02  0.51232478253E+03  0.54520819608E+03  0.00000000000E+00 0.  1.
         13    1    5    5    0    0  0.20421233242E+03  0.25940389680E+03 -0.47107049813E+02  0.33348483104E+03  0.00000000000E+00 0. -1.
        -13    1    5    5    0    0 -0.92995037346E+01  0.15802156676E+02  0.25885814504E+01  0.18517280557E+02  0.00000000000E+00 0.  1.
          2    1    6    6  503    0 -0.13220529646E+03  0.64378902004E+01  0.98004450041E+02  0.16469535230E+03  0.00000000000E+00 0.  1.
         -2    1    6    6    0  503 -0.50993299522E+03 -0.53350937009E+02  0.19372254871E+03  0.54809342997E+03  0.00000000000E+00 0. -1.
<mgrwt>
<rscale>  0 0.18896268E+04</rscale>
<asrwt>0</asrwt>
<pdfrwt beam="1">  1        2 0.29921553E+00 0.18896268E+04</pdfrwt>
<pdfrwt beam="2">  1       -1 0.70612442E-01 0.18896268E+04</pdfrwt>
<totfact> 0.15508219E+01</totfact>
</mgrwt>
</event>
<event>
12    7  0.1711607E-007  0.2514893E+04  0.7818608E-02  0.8397699E-01
         -1   -1    0    0    0  501 -0.00000000000E+00  0.00000000000E+00  0.41030780708E+03  0.41030780708E+03  0.00000000000E+00 0.  1.
          2   -1    0    0  501    0  0.00000000000E+00 -0.00000000000E+00 -0.38536222768E+04  0.38536222768E+04  0.00000000000E+00 0. -1.
         24    2    1    2    0    0 -0.56938460803E+03  0.53176692118E+03 -0.19376349482E+03  0.80971067567E+03  0.10541440144E+03 0.  0.
        254    2    1    2    0    0  0.56938460803E+03 -0.53176692118E+03 -0.32495509749E+04  0.34542194082E+04  0.87468582434E+03 0.  0.
         23    2    4    4    0    0  0.74071725274E+03 -0.50286315844E+03 -0.20558369323E+04  0.22444345973E+04  0.97405157258E+02 0.  0.
         23    2    4    4    0    0 -0.17133264471E+03 -0.28903762748E+02 -0.11937140426E+04  0.12097848109E+04  0.91846451298E+02 0.  0.
          4    1    3    3  502    0 -0.67454431804E+02  0.51525213331E+02 -0.55497199111E+02  0.10141443235E+03  0.00000000000E+00 0. -1.
         -3    1    3    3    0  502 -0.50193017623E+03  0.48024170785E+03 -0.13826629571E+03  0.70829624332E+03  0.00000000000E+00 0.  1.
         13    1    5    5    0    0  0.59825034171E+03 -0.44939236434E+03 -0.17240323881E+04  0.18794000755E+04  0.00000000000E+00 0.  1.
        -13    1    5    5    0    0  0.14246691104E+03 -0.53470794099E+02 -0.33180454417E+03  0.36503452179E+03  0.00000000000E+00 0. -1.
          3    1    6    6  503    0  0.67267035782E+01 -0.12999168830E+02 -0.47196281960E+02  0.49413722407E+02  0.00000000000E+00 0. -1.
         -3    1    6    6    0  503 -0.17805934828E+03 -0.15904593918E+02 -0.11465177606E+04  0.11603710885E+04  0.00000000000E+00 0.  1.
<mgrwt>
<rscale>  0 0.25148927E+04</rscale>
<asrwt>0</asrwt>
<pdfrwt beam="1">  1        2 0.59286494E+00 0.25148927E+04</pdfrwt>
<pdfrwt beam="2">  1       -1 0.63124281E-01 0.25148927E+04</pdfrwt>
<totfact> 0.11549018E+00</totfact>
</mgrwt>
</event>
<event>
12    7  0.1711607E-007  0.2777012E+04  0.7818608E-02  0.8310441E-01
          2   -1    0    0  501    0  0.00000000000E+00  0.00000000000E+00  0.10195802564E+04  0.10195802564E+04  0.00000000000E+00 0. -1.
         -1   -1    0    0    0  501 -0.00000000000E+00 -0.00000000000E+00 -0.18909240304E+04  0.18909240304E+04  0.00000000000E+00 0.  1.
         24    2    1    2    0    0 -0.29978449471E+02  0.10642874020E+04  0.27657441544E+03  0.11030171989E+04  0.80914475571E+02 0.  0.
        254    2    1    2    0    0  0.29978449471E+02 -0.10642874020E+04 -0.11479181894E+04  0.18074870878E+04  0.90315393024E+03 0.  0.
         23    2    4    4    0    0  0.11460928863E+02 -0.10505413133E+04 -0.52549390519E+03  0.11784171599E+04  0.93566845696E+02 0.  0.
         23    2    4    4    0    0  0.18517520608E+02 -0.13746088706E+02 -0.62242428420E+03  0.62906992791E+03  0.88233390009E+02 0.  0.
          2    1    3    3  502    0  0.24399413137E+02  0.54256806254E+03  0.14888187082E+03  0.56315295019E+03  0.00000000000E+00 0. -1.
         -1    1    3    3    0  502 -0.54377862608E+02  0.52171933947E+03  0.12769254462E+03  0.53986424874E+03  0.00000000000E+00 0.  1.
         13    1    5    5    0    0  0.24252567612E+02 -0.18770378420E+03 -0.12694406338E+03  0.22789403868E+03  0.00000000000E+00 0. -1.
        -13    1    5    5    0    0 -0.12791638748E+02 -0.86283752910E+03 -0.39854984181E+03  0.95052312126E+03  0.00000000000E+00 0.  1.
          2    1    6    6  503    0 -0.34956064237E+01 -0.16483919077E+02 -0.19641407664E+02  0.25879021377E+02  0.00000000000E+00 0. -1.
         -2    1    6    6    0  503  0.22013127032E+02  0.27378303713E+01 -0.60278287654E+03  0.60319090653E+03  0.00000000000E+00 0.  1.
<mgrwt>
<rscale>  0 0.27770119E+04</rscale>
<asrwt>0</asrwt>
<pdfrwt beam="1">  1        2 0.15685850E+00 0.27770119E+04</pdfrwt>
<pdfrwt beam="2">  1       -1 0.29091139E+00 0.27770119E+04</pdfrwt>
<totfact> 0.91964247E-01</totfact>
</mgrwt>
</event>
<event>
12    7  0.1711607E-007  0.2179896E+04  0.7818608E-02  0.8526843E-01
          2   -1    0    0  501    0  0.00000000000E+00  0.00000000000E+00  0.22430913594E+04  0.22430913594E+04  0.00000000000E+00 0. -1.
         -1   -1    0    0    0  501 -0.00000000000E+00 -0.00000000000E+00 -0.52962006453E+03  0.52962006453E+03  0.00000000000E+00 0.  1.
         24    2    1    2    0    0 -0.21763869888E+03 -0.87153831844E+03  0.73459581100E+03  0.11631811710E+04  0.80086123796E+02 0.  0.
        254    2    1    2    0    0  0.21763869888E+03  0.87153831844E+03  0.97887548389E+03  0.16095302530E+04  0.90853991576E+03 0.  0.
         23    2    4    4    0    0  0.22725496166E+03 -0.12488584457E+03  0.22355500671E+03  0.35590655419E+03  0.97218015396E+02 0.  0.
         23    2    4    4    0    0 -0.96162627842E+01  0.99642416301E+03  0.75532047718E+03  0.12536236988E+04  0.90054260115E+02 0.  0.
          2    1    3    3  502    0 -0.21602126317E+03 -0.75922893889E+03  0.63529148451E+03  0.10132566497E+04  0.00000000000E+00 0. -1.
         -1    1    3    3    0  502 -0.16174357065E+01 -0.11230937954E+03  0.99304326491E+02  0.14992452131E+03  0.00000000000E+00 0.  1.
         13    1    5    5    0    0  0.11585896156E+03 -0.17929785760E+02  0.13127687675E+03  0.17600680260E+03  0.00000000000E+00 0.  1.
        -13    1    5    5    0    0  0.11139600011E+03 -0.10695605881E+03  0.92278129961E+02  0.17989975160E+03  0.00000000000E+00 0. -1.
          1    1    6    6  503    0  0.44109117293E+00  0.87449223584E+03  0.62503423650E+03  0.10748975123E+04  0.00000000000E+00 0. -1.
         -1    1    6    6    0  503 -0.10057353957E+02  0.12193192717E+03  0.13028624068E+03  0.17872618650E+03  0.00000000000E+00 0.  1.
<mgrwt>
<rscale>  0 0.21798956E+04</rscale>
<asrwt>0</asrwt>
<pdfrwt beam="1">  1        2 0.34509097E+00 0.21798956E+04</pdfrwt>
<pdfrwt beam="2">  1       -1 0.81480011E-01 0.21798956E+04</pdfrwt>
<totfact> 0.76308388E+00</totfact>
</mgrwt>
</event>
<event>
12    7  0.1711607E-007  0.1303992E+04  0.7818608E-02  0.9026406E-01
         -1   -1    0    0    0  501 -0.00000000000E+00  0.00000000000E+00  0.44535063806E+03  0.44535063806E+03  0.00000000000E+00 0.  1.
          2   -1    0    0  501    0  0.00000000000E+00 -0.00000000000E+00 -0.95452548815E+03  0.95452548815E+03  0.00000000000E+00 0. -1.
         24    2    1    2    0    0  0.23439380793E+02 -0.12019827350E+03  0.20609982455E+03  0.25570670217E+03  0.88948020404E+02 0.  0.
        254    2    1    2    0    0 -0.23439380793E+02  0.12019827350E+03 -0.71527467465E+03  0.11441694240E+04  0.88459526405E+03 0.  0.
         23    2    4    4    0    0  0.84279320051E+02 -0.20795853585E+03 -0.74740330288E+03  0.78567672969E+03  0.91249493085E+02 0.  0.
         23    2    4    4    0    0 -0.10771870084E+03  0.32815680935E+03  0.32128628237E+02  0.35849269435E+03  0.90523770975E+02 0.  0.
          2    1    3    3  502    0  0.30970637129E+02 -0.26631284233E+02  0.16329579377E+02  0.43989326282E+02  0.00000000000E+00 0. -1.
         -1    1    3    3    0  502 -0.75312563363E+01 -0.93566989265E+02  0.18977024517E+03  0.21171737589E+03  0.00000000000E+00 0.  1.
         13    1    5    5    0    0  0.77227637239E+02 -0.21722155631E+03 -0.70796727630E+03  0.74455824271E+03  0.00000000000E+00 0.  1.
        -13    1    5    5    0    0  0.70516828112E+01  0.92630204553E+01 -0.39436026584E+02  0.41118486975E+02  0.00000000000E+00 0. -1.
          2    1    6    6  503    0 -0.95028329857E+01  0.52356132666E+02 -0.27222299298E+02  0.59770578394E+02  0.00000000000E+00 0. -1.
         -2    1    6    6    0  503 -0.98215867858E+02  0.27580067669E+03  0.59350927535E+02  0.29872211595E+03  0.00000000000E+00 0.  1.
<mgrwt>
<rscale>  0 0.13039916E+04</rscale>
<asrwt>0</asrwt>
<pdfrwt beam="1">  1        2 0.14685007E+00 0.13039916E+04</pdfrwt>
<pdfrwt beam="2">  1       -1 0.68515483E-01 0.13039916E+04</pdfrwt>
<totfact> 0.65011296E+01</totfact>
</mgrwt>
</event>
<event>
12    7  0.1711607E-007  0.1484078E+04  0.7818608E-02  0.8895110E-01
         -1   -1    0    0    0  501 -0.00000000000E+00  0.00000000000E+00  0.32118392683E+03  0.32118392683E+03  0.00000000000E+00 0.  1.
          2   -1    0    0  501    0  0.00000000000E+00 -0.00000000000E+00 -0.17143508014E+04  0.17143508014E+04  0.00000000000E+00 0. -1.
         24    2    1    2    0    0  0.17492513504E+03 -0.79055507273E+02 -0.10216917972E+04  0.10427159260E+04  0.80955530273E+02 0.  0.
        254    2    1    2    0    0 -0.17492513504E+03  0.79055507273E+02 -0.37147507740E+03  0.99281880221E+03  0.90047035753E+03 0.  0.
         23    2    4    4    0    0  0.15537806690E+03  0.87203818986E+01 -0.56572328289E+03  0.59277965955E+03  0.84418619032E+02 0.  0.
         23    2    4    4    0    0 -0.33030320194E+03  0.70335125374E+02  0.19424820548E+03  0.40003914266E+03  0.90838952305E+02 0.  0.
          4    1    3    3  502    0  0.71731580972E+02 -0.26608821863E+02 -0.61921010334E+03  0.62391874566E+03  0.00000000000E+00 0. -1.
         -3    1    3    3    0  502  0.10319355407E+03 -0.52446685410E+02 -0.40248169382E+03  0.41879718035E+03  0.00000000000E+00 0.  1.
         13    1    5    5    0    0  0.64653303209E+02  0.36255759536E+02 -0.16326267602E+03  0.17930206663E+03  0.00000000000E+00 0.  1.
        -13    1    5    5    0    0  0.90724763693E+02 -0.27535377638E+02 -0.40246060686E+03  0.41347759292E+03  0.00000000000E+00 0. -1.
          4    1    6    6  503    0 -0.50647365141E+02  0.26108178376E+02  0.53709531160E+00  0.56983164577E+02  0.00000000000E+00 0.  1.
         -4    1    6    6    0  503 -0.27965583680E+03  0.44226946997E+02  0.19371111017E+03  0.34305597809E+03  0.00000000000E+00 0. -1.
<mgrwt>
<rscale>  0 0.14840781E+04</rscale>
<asrwt>0</asrwt>
<pdfrwt beam="1">  1        2 0.26374628E+00 0.14840781E+04</pdfrwt>
<pdfrwt beam="2">  1       -1 0.49412911E-01 0.14840781E+04</pdfrwt>
<totfact> 0.43557189E+01</totfact>
</mgrwt>
</event>
<event>
12    7  0.1711607E-007  0.1486955E+04  0.7818608E-02  0.8893174E-01
         -1   -1    0    0    0  501 -0.00000000000E+00  0.00000000000E+00  0.49759966218E+03  0.49759966218E+03  0.00000000000E+00 0.  1.
          2   -1    0    0  501    0  0.00000000000E+00 -0.00000000000E+00 -0.11108502533E+04  0.11108502533E+04  0.00000000000E+00 0. -1.
         24    2    1    2    0    0  0.39977077892E+03 -0.12890418177E+03 -0.40288136649E+03  0.58744810139E+03  0.79680064076E+02 0.  0.
        254    2    1    2    0    0 -0.39977077892E+03  0.12890418177E+03 -0.21036922467E+03  0.10210018141E+04  0.90650787641E+03 0.  0.
         23    2    4    4    0    0  0.24037745345E+03 -0.19650057802E+02 -0.24357791928E+03  0.35655039627E+03  0.98135301621E+02 0.  0.
         23    2    4    4    0    0 -0.64014823237E+03  0.14855423957E+03  0.33208694603E+02  0.66445141785E+03  0.92383698724E+02 0.  0.
          4    1    3    3  502    0  0.39165950392E+02  0.84518780416E+01 -0.53958402096E+02  0.67207998552E+02  0.00000000000E+00 0. -1.
         -3    1    3    3    0  502  0.36060482853E+03 -0.13735605981E+03 -0.34892296439E+03  0.52024010284E+03  0.00000000000E+00 0.  1.
         13    1    5    5    0    0  0.83510479444E+02 -0.12332698350E+02 -0.26211513986E+02  0.88391962819E+02  0.00000000000E+00 0.  1.
        -13    1    5    5    0    0  0.15686697400E+03 -0.73173594521E+01 -0.21736640529E+03  0.26815843345E+03  0.00000000000E+00 0. -1.
          4    1    6    6  503    0 -0.31110513045E+03  0.25228178433E+02  0.98838736291E+01  0.31228281114E+03  0.00000000000E+00 0. -1.
         -4    1    6    6    0  503 -0.32904310192E+03  0.12332606114E+03  0.23324820974E+02  0.35216860671E+03  0.00000000000E+00 0.  1.
<mgrwt>
<rscale>  0 0.14869549E+04</rscale>
<asrwt>0</asrwt>
<pdfrwt beam="1">  1        2 0.17090004E+00 0.14869549E+04</pdfrwt>
<pdfrwt beam="2">  1       -1 0.76553795E-01 0.14869549E+04</pdfrwt>
<totfact> 0.40530516E+01</totfact>
</mgrwt>
</event>
<event>
12    7  0.1711607E-007  0.1430015E+04  0.7818608E-02  0.8932374E-01
         -1   -1    0    0    0  501 -0.00000000000E+00  0.00000000000E+00  0.58315465426E+03  0.58315465426E+03  0.00000000000E+00 0.  1.
          2   -1    0    0  501    0  0.00000000000E+00 -0.00000000000E+00 -0.87667291434E+03  0.87667291434E+03  0.00000000000E+00 0. -1.
         24    2    1    2    0    0 -0.37781090223E+03 -0.19955901096E+03 -0.56249880906E+02  0.43809550119E+03  0.78732092306E+02 0.  0.
        254    2    1    2    0    0  0.37781090223E+03  0.19955901096E+03 -0.23726837917E+03  0.10217320674E+04  0.89725986043E+03 0.  0.
         23    2    4    4    0    0 -0.20336736584E+03  0.24762616215E+03 -0.27228710504E+03  0.43039604946E+03  0.91779573715E+02 0.  0.
         23    2    4    4    0    0  0.58117826807E+03 -0.48067151194E+02  0.35018725862E+02  0.59133601796E+03  0.91505981653E+02 0.  0.
          2    1    3    3  502    0  0.15859678520E+01 -0.50597282102E+00  0.50237290929E+01  0.52923677614E+01  0.00000000000E+00 0. -1.
         -1    1    3    3    0  502 -0.37939687009E+03 -0.19905303814E+03 -0.61273609999E+02  0.43280313343E+03  0.00000000000E+00 0.  1.
         13    1    5    5    0    0 -0.11466875190E+02  0.53632659867E+02 -0.78299605285E+02  0.95596964485E+02  0.00000000000E+00 0. -1.
        -13    1    5    5    0    0 -0.19190049065E+03  0.19399350228E+03 -0.19398749975E+03  0.33479908497E+03  0.00000000000E+00 0.  1.
          4    1    6    6  503    0  0.11122754720E+03 -0.67436045925E+01  0.43169222914E+02  0.11950157014E+03  0.00000000000E+00 0. -1.
         -4    1    6    6    0  503  0.46995072087E+03 -0.41323546601E+02 -0.81504970518E+01  0.47183444782E+03  0.00000000000E+00 0.  1.
<mgrwt>
<rscale>  0 0.14300152E+04</rscale>
<asrwt>0</asrwt>
<pdfrwt beam="1">  1        2 0.13487276E+00 0.14300152E+04</pdfrwt>
<pdfrwt beam="2">  1       -1 0.89716101E-01 0.14300152E+04</pdfrwt>
<totfact> 0.41027655E+01</totfact>
</mgrwt>
</event>
<event>
12    7  0.1711607E-007  0.1826999E+04  0.7818608E-02  0.8692072E-01
          2   -1    0    0  501    0  0.00000000000E+00  0.00000000000E+00  0.12026474792E+04  0.12026474792E+04  0.00000000000E+00 0. -1.
         -1   -1    0    0    0  501 -0.00000000000E+00 -0.00000000000E+00 -0.69387049707E+03  0.69387049707E+03  0.00000000000E+00 0.  1.
         24    2    1    2    0    0 -0.12806935228E+03 -0.54173438004E+03 -0.22433704276E+03  0.60539651474E+03  0.79372122249E+02 0.  0.
        254    2    1    2    0    0  0.12806935228E+03  0.54173438004E+03  0.73311402494E+03  0.12911214616E+04  0.90535106861E+03 0.  0.
         23    2    4    4    0    0  0.77963706551E+02  0.19140539134E+03  0.87179249742E+03  0.90034576659E+03  0.88803026321E+02 0.  0.
         23    2    4    4    0    0  0.50105645734E+02  0.35032898870E+03 -0.13867847248E+03  0.39077569497E+03  0.90735599365E+02 0.  0.
          2    1    3    3  502    0 -0.43387957429E+02 -0.11513045187E+03 -0.19217124445E+02  0.12452643763E+03  0.00000000000E+00 0. -1.
         -1    1    3    3    0  502 -0.84681394856E+02 -0.42660392817E+03 -0.20511991832E+03  0.48087007711E+03  0.00000000000E+00 0.  1.
         13    1    5    5    0    0  0.49304212048E+02  0.18940813736E+03  0.73875517158E+03  0.76424181472E+03  0.00000000000E+00 0. -1.
        -13    1    5    5    0    0  0.28659494503E+02  0.19972539764E+01  0.13303732584E+03  0.13610395187E+03  0.00000000000E+00 0.  1.
          2    1    6    6  503    0  0.76130017215E+02  0.28565807731E+03 -0.11263582869E+03  0.31635920495E+03  0.00000000000E+00 0. -1.
         -2    1    6    6    0  503 -0.26024371481E+02  0.64670911399E+02 -0.26042643789E+02  0.74416490025E+02  0.00000000000E+00 0.  1.
<mgrwt>
<rscale>  0 0.18269993E+04</rscale>
<asrwt>0</asrwt>
<pdfrwt beam="1">  1        2 0.18502269E+00 0.18269993E+04</pdfrwt>
<pdfrwt beam="2">  1       -1 0.10674931E+00 0.18269993E+04</pdfrwt>
<totfact> 0.16605493E+01</totfact>
</mgrwt>
</event>
<event>
12    7  0.1711607E-007  0.2419390E+04  0.7818608E-02  0.8432280E-01
         -1   -1    0    0    0  501 -0.00000000000E+00  0.00000000000E+00  0.56083259790E+03  0.56083259790E+03  0.00000000000E+00 0.  1.
          2   -1    0    0  501    0  0.00000000000E+00 -0.00000000000E+00 -0.26092678725E+04  0.26092678725E+04  0.00000000000E+00 0. -1.
         24    2    1    2    0    0  0.76379465742E+03 -0.67765526714E+03 -0.60106033406E+03  0.11878156044E+04  0.83865637578E+02 0.  0.
        254    2    1    2    0    0 -0.76379465742E+03  0.67765526714E+03 -0.14473749406E+04  0.19822848660E+04  0.88992141876E+03 0.  0.
         23    2    4    4    0    0 -0.39407633472E+03  0.17387164337E+03 -0.12427747174E+04  0.13185295531E+04  0.92215390608E+02 0.  0.
         23    2    4    4    0    0 -0.36971832270E+03  0.50378362377E+03 -0.20460022312E+03  0.66375531284E+03  0.90665794587E+02 0.  0.
          2    1    3    3  502    0  0.41179166506E+03 -0.38764989497E+03 -0.37685156206E+03  0.67960423506E+03  0.00000000000E+00 0. -1.
         -1    1    3    3    0  502  0.35200299237E+03 -0.29000537217E+03 -0.22420877200E+03  0.50821136938E+03  0.00000000000E+00 0.  1.
         13    1    5    5    0    0 -0.14978516192E+03  0.11138227354E+03 -0.47256371613E+03  0.50809258151E+03  0.00000000000E+00 0. -1.
        -13    1    5    5    0    0 -0.24429117280E+03  0.62489369835E+02 -0.77021100130E+03  0.81043697163E+03  0.00000000000E+00 0.  1.
          2    1    6    6  503    0 -0.16273019427E+03  0.20053455803E+03 -0.12987227508E+03  0.28907098250E+03  0.00000000000E+00 0. -1.
         -2    1    6    6    0  503 -0.20698812843E+03  0.30324906574E+03 -0.74727948041E+02  0.37468433034E+03  0.00000000000E+00 0.  1.
<mgrwt>
<rscale>  0 0.24193904E+04</rscale>
<asrwt>0</asrwt>
<pdfrwt beam="1">  1        2 0.40142582E+00 0.24193904E+04</pdfrwt>
<pdfrwt beam="2">  1       -1 0.86281940E-01 0.24193904E+04</pdfrwt>
<totfact> 0.40669001E+00</totfact>
</mgrwt>
</event>
<event>
12    7  0.1711607E-007  0.1668809E+04  0.7818608E-02  0.8779356E-01
          2   -1    0    0  501    0  0.00000000000E+00  0.00000000000E+00  0.10511997331E+04  0.10511997331E+04  0.00000000000E+00 0. -1.
         -1   -1    0    0    0  501 -0.00000000000E+00 -0.00000000000E+00 -0.66232034153E+03  0.66232034153E+03  0.00000000000E+00 0.  1.
         24    2    1    2    0    0 -0.38285436546E+03  0.17748219617E+03 -0.27373837235E+03  0.50941586215E+03  0.80588020262E+02 0.  0.
        254    2    1    2    0    0  0.38285436546E+03 -0.17748219617E+03  0.66261776395E+03  0.12041042125E+04  0.91253890787E+03 0.  0.
         23    2    4    4    0    0  0.36935324170E+03  0.30939690799E+03  0.21189282138E+03  0.53429450250E+03  0.91781173600E+02 0.  0.
         23    2    4    4    0    0  0.13501123762E+02 -0.48687910415E+03  0.45072494256E+03  0.66980971001E+03  0.90876462127E+02 0.  0.
          4    1    3    3  502    0 -0.86315690518E+02  0.67067072149E+02 -0.10140983795E+03  0.14910515025E+03  0.00000000000E+00 0. -1.
         -3    1    3    3    0  502 -0.29653867494E+03  0.11041512402E+03 -0.17232853439E+03  0.36031071191E+03  0.00000000000E+00 0.  1.
         13    1    5    5    0    0  0.10713981430E+03  0.10089037829E+03  0.11128402933E+03  0.18450458917E+03  0.00000000000E+00 0. -1.
        -13    1    5    5    0    0  0.26221342740E+03  0.20850652970E+03  0.10060879205E+03  0.34978991334E+03  0.00000000000E+00 0.  1.
          4    1    6    6  503    0  0.60180236825E+01 -0.42940073613E+03  0.35175421185E+03  0.55511461371E+03  0.00000000000E+00 0. -1.
         -4    1    6    6    0  503  0.74831000794E+01 -0.57478368025E+02  0.98970730715E+02  0.11469509630E+03  0.00000000000E+00 0.  1.
<mgrwt>
<rscale>  0 0.16688091E+04</rscale>
<asrwt>0</asrwt>
<pdfrwt beam="1">  1        2 0.16172304E+00 0.16688091E+04</pdfrwt>
<pdfrwt beam="2">  1       -1 0.10189544E+00 0.16688091E+04</pdfrwt>
<totfact> 0.23213684E+01</totfact>
</mgrwt>
</event>
<event>
12    7  0.1711607E-007  0.1555128E+04  0.7818608E-02  0.8848599E-01
         -1   -1    0    0    0  501 -0.00000000000E+00  0.00000000000E+00  0.95880350262E+03  0.95880350262E+03  0.00000000000E+00 0.  1.
          2   -1    0    0  501    0  0.00000000000E+00 -0.00000000000E+00 -0.63058371772E+03  0.63058371772E+03  0.00000000000E+00 0. -1.
         24    2    1    2    0    0  0.33957511309E+03  0.10942437209E+02  0.51208077870E+03  0.61985200971E+03  0.80986391911E+02 0.  0.
        254    2    1    2    0    0 -0.33957511309E+03 -0.10942437209E+02 -0.18386099380E+03  0.96953521062E+03  0.88924837095E+03 0.  0.
         23    2    4    4    0    0 -0.22135308140E+03  0.36071767478E+03  0.13977799612E+03  0.45447044295E+03  0.88831682273E+02 0.  0.
         23    2    4    4    0    0 -0.11822203169E+03 -0.37166011199E+03 -0.32363898992E+03  0.51506476767E+03  0.91879439894E+02 0.  0.
          2    1    3    3  502    0  0.13763516082E+03  0.39490852854E+02  0.17808627005E+03  0.22851189145E+03  0.00000000000E+00 0. -1.
         -1    1    3    3    0  502  0.20193995227E+03 -0.28548415645E+02  0.33399450865E+03  0.39134011827E+03  0.00000000000E+00 0.  1.
         13    1    5    5    0    0 -0.17636751895E+03  0.31589536908E+03  0.14707986258E+03  0.39054816850E+03  0.00000000000E+00 0. -1.
        -13    1    5    5    0    0 -0.44985562444E+02  0.44822305702E+02 -0.73018664565E+01  0.63922274448E+02  0.00000000000E+00 0.  1.
          4    1    6    6  503    0 -0.18160480541E+02 -0.10780113757E+03 -0.14302506479E+03  0.18001960302E+03  0.00000000000E+00 0. -1.
         -4    1    6    6    0  503 -0.10006155115E+03 -0.26385897442E+03 -0.18061392513E+03  0.33504516465E+03  0.00000000000E+00 0.  1.
<mgrwt>
<rscale>  0 0.15551281E+04</rscale>
<asrwt>0</asrwt>
<pdfrwt beam="1">  1        2 0.97012880E-01 0.15551281E+04</pdfrwt>
<pdfrwt beam="2">  1       -1 0.14750823E+00 0.15551281E+04</pdfrwt>
<totfact> 0.18729088E+01</totfact>
</mgrwt>
</event>
<event>
12    7  0.1711607E-007  0.1340799E+04  0.7818608E-02  0.8997823E-01
         -1   -1    0    0    0  501 -0.00000000000E+00  0.00000000000E+00  0.30830971004E+03  0.30830971004E+03  0.00000000000E+00 0.  1.
          2   -1    0    0  501    0  0.00000000000E+00 -0.00000000000E+00 -0.14577395344E+04  0.14577395344E+04  0.00000000000E+00 0. -1.
         24    2    1    2    0    0  0.27627485783E+03 -0.22837544989E+03 -0.35370562594E+03  0.50991052858E+03  0.80112010043E+02 0.  0.
        254    2    1    2    0    0 -0.27627485783E+03  0.22837544989E+03 -0.79572419843E+03  0.12561387159E+04  0.90345134367E+03 0.  0.
         23    2    4    4    0    0 -0.25506620940E+03  0.55899688157E+03 -0.44995551910E+03  0.76695200808E+03  0.90659410653E+02 0.  0.
         23    2    4    4    0    0 -0.21208648438E+02 -0.33062143168E+03 -0.34576867933E+03  0.48918670780E+03  0.99936568011E+02 0.  0.
          2    1    3    3  502    0  0.12548054964E+03 -0.13504303407E+03 -0.22453805179E+03  0.29051562108E+03  0.00000000000E+00 0. -1.
         -1    1    3    3    0  502  0.15079430819E+03 -0.93332415821E+02 -0.12916757415E+03  0.21939490750E+03  0.00000000000E+00 0.  1.
         13    1    5    5    0    0 -0.14516676769E+03  0.39025106113E+03 -0.26518931201E+03  0.49365438554E+03  0.00000000000E+00 0. -1.
        -13    1    5    5    0    0 -0.10989944170E+03  0.16874582044E+03 -0.18476620709E+03  0.27329762254E+03  0.00000000000E+00 0.  1.
          3    1    6    6  503    0  0.72379498852E+01 -0.29905909428E+03 -0.32558242661E+03  0.44214550355E+03  0.00000000000E+00 0. -1.
         -3    1    6    6    0  503 -0.28446598324E+02 -0.31562337406E+02 -0.20186252716E+02  0.47041204252E+02  0.00000000000E+00 0.  1.
<mgrwt>
<rscale>  0 0.13407986E+04</rscale>
<asrwt>0</asrwt>
<pdfrwt beam="1">  1        2 0.22426762E+00 0.13407986E+04</pdfrwt>
<pdfrwt beam="2">  1       -1 0.47432263E-01 0.13407986E+04</pdfrwt>
<totfact> 0.66261924E+01</totfact>
</mgrwt>
</event>
<event>
12    7  0.1711607E-007  0.1775386E+04  0.7818608E-02  0.8719499E-01
          2   -1    0    0  501    0  0.00000000000E+00  0.00000000000E+00  0.10797927695E+04  0.10797927695E+04  0.00000000000E+00 0. -1.
         -1   -1    0    0    0  501 -0.00000000000E+00 -0.00000000000E+00 -0.72976867012E+03  0.72976867012E+03  0.00000000000E+00 0.  1.
         24    2    1    2    0    0  0.39475880397E+03 -0.45554401944E+03  0.32973005107E+03  0.69161389195E+03  0.79075925542E+02 0.  0.
        254    2    1    2    0    0 -0.39475880397E+03  0.45554401944E+03  0.20294048349E+02  0.11179475477E+04  0.94129697973E+03 0.  0.
         23    2    4    4    0    0 -0.47192338814E+02 -0.16105869753E+02  0.39877758523E+03  0.41450917272E+03  0.10152721755E+03 0.  0.
         23    2    4    4    0    0 -0.34756646515E+03  0.47164988920E+03 -0.37848353688E+03  0.70343837498E+03  0.91212356741E+02 0.  0.
          2    1    3    3  502    0  0.38713239846E+03 -0.45740830908E+03  0.32927127283E+03  0.68374953475E+03  0.00000000000E+00 0. -1.
         -1    1    3    3    0  502  0.76264055038E+01  0.18642896321E+01  0.45877823054E+00  0.78643572023E+01  0.00000000000E+00 0.  1.
         13    1    5    5    0    0 -0.56546906480E+02 -0.22470797343E+02  0.39857484510E+03  0.40319275355E+03  0.00000000000E+00 0.  1.
        -13    1    5    5    0    0  0.93545676666E+01  0.63649275895E+01  0.20274013387E+00  0.11316419178E+02  0.00000000000E+00 0. -1.
          3    1    6    6  503    0 -0.31204329632E+02  0.49401544586E+02 -0.85458846032E+01  0.59052984166E+02  0.00000000000E+00 0. -1.
         -3    1    6    6    0  503 -0.31636213552E+03  0.42224834461E+03 -0.36993765228E+03  0.64438539081E+03  0.00000000000E+00 0.  1.
<mgrwt>
<rscale>  0 0.17753861E+04</rscale>
<asrwt>0</asrwt>
<pdfrwt beam="1">  1        2 0.16612196E+00 0.17753861E+04</pdfrwt>
<pdfrwt beam="2">  1       -1 0.11227210E+00 0.17753861E+04</pdfrwt>
<totfact> 0.17591549E+01</totfact>
</mgrwt>
</event>
<event>
12    7  0.1711607E-007  0.1470190E+04  0.7818608E-02  0.8904522E-01
          2   -1    0    0  501    0  0.00000000000E+00  0.00000000000E+00  0.19304472494E+04  0.19304472494E+04  0.00000000000E+00 0. -1.
         -1   -1    0    0    0  501 -0.00000000000E+00 -0.00000000000E+00 -0.27991697430E+03  0.27991697430E+03  0.00000000000E+00 0.  1.
         24    2    1    2    0    0 -0.15883512185E+03  0.36586244385E+03  0.94926619004E+03  0.10322953691E+04  0.73780117454E+02 0.  0.
        254    2    1    2    0    0  0.15883512185E+03 -0.36586244385E+03  0.70126408502E+03  0.11780688546E+04  0.85848179097E+03 0.  0.
         23    2    4    4    0    0  0.18215068969E+03 -0.56905976999E+03  0.21369043490E+03  0.64127816101E+03  0.92553672248E+02 0.  0.
         23    2    4    4    0    0 -0.23315567838E+02  0.20319732614E+03  0.48757365012E+03  0.53679069356E+03  0.92646723369E+02 0.  0.
          4    1    3    3  502    0 -0.15650703989E+03  0.36626451347E+03  0.91480939247E+03  0.99775767194E+03  0.00000000000E+00 0. -1.
         -3    1    3    3    0  502 -0.23280819608E+01 -0.40206961444E+00  0.34456797571E+02  0.34537697151E+02  0.00000000000E+00 0.  1.
         13    1    5    5    0    0  0.57731771336E+02 -0.32636769729E+03  0.10467624982E+03  0.34757150133E+03  0.00000000000E+00 0. -1.
        -13    1    5    5    0    0  0.12441891836E+03 -0.24269207270E+03  0.10901418508E+03  0.29370665968E+03  0.00000000000E+00 0.  1.
          3    1    6    6  503    0  0.21718198493E+02  0.65607700108E+01  0.44195240609E+02  0.49678397130E+02  0.00000000000E+00 0. -1.
         -3    1    6    6    0  503 -0.45033766331E+02  0.19663655613E+03  0.44337840951E+03  0.48711229643E+03  0.00000000000E+00 0.  1.
<mgrwt>
<rscale>  0 0.14701904E+04</rscale>
<asrwt>0</asrwt>
<pdfrwt beam="1">  1        2 0.29699188E+00 0.14701904E+04</pdfrwt>
<pdfrwt beam="2">  1       -1 0.43064151E-01 0.14701904E+04</pdfrwt>
<totfact> 0.42834490E+01</totfact>
</mgrwt>
</event>
<event>
12    7  0.1711607E-007  0.1860751E+04  0.7818608E-02  0.8674644E-01
          2   -1    0    0  501    0  0.00000000000E+00  0.00000000000E+00  0.95430182898E+03  0.95430182898E+03  0.00000000000E+00 0. -1.
         -1   -1    0    0    0  501 -0.00000000000E+00 -0.00000000000E+00 -0.90704870304E+03  0.90704870304E+03  0.00000000000E+00 0.  1.
         24    2    1    2    0    0 -0.58387692484E+03 -0.20962862844E+03  0.34680309941E+03  0.71449455786E+03  0.73305240142E+02 0.  0.
        254    2    1    2    0    0  0.58387692484E+03  0.20962862844E+03 -0.29954997346E+03  0.11468559742E+04  0.91689258566E+03 0.  0.
         23    2    4    4    0    0  0.11466254185E+03  0.43992369189E+03 -0.39406056088E+03  0.60833916582E+03  0.90069205876E+02 0.  0.
         23    2    4    4    0    0  0.46921438299E+03 -0.23029506345E+03  0.94510587415E+02  0.53851680834E+03  0.88713856141E+02 0.  0.
          2    1    3    3  502    0 -0.23652209580E+03 -0.49917300583E+02  0.15015895207E+03  0.28457362771E+03  0.00000000000E+00 0. -1.
         -1    1    3    3    0  502 -0.34735482904E+03 -0.15971132785E+03  0.19664414734E+03  0.42992093015E+03  0.00000000000E+00 0.  1.
         13    1    5    5    0    0  0.88502603575E+02  0.36119134971E+03 -0.27192341541E+03  0.46068888178E+03  0.00000000000E+00 0.  1.
        -13    1    5    5    0    0  0.26159938273E+02  0.78732342174E+02 -0.12213714547E+03  0.14765028404E+03  0.00000000000E+00 0. -1.
          2    1    6    6  503    0  0.58778053192E+02 -0.23678198398E+01  0.25016479948E+02  0.63924098562E+02  0.00000000000E+00 0. -1.
         -2    1    6    6    0  503  0.41043632980E+03 -0.22792724361E+03  0.69494107467E+02  0.47459270978E+03  0.00000000000E+00 0.  1.
<mgrwt>
<rscale>  0 0.18607506E+04</rscale>
<asrwt>0</asrwt>
<pdfrwt beam="1">  1        2 0.14681567E+00 0.18607506E+04</pdfrwt>
<pdfrwt beam="2">  1       -1 0.13954595E+00 0.18607506E+04</pdfrwt>
<totfact> 0.12223999E+01</totfact>
</mgrwt>
</event>
<event>
12    7  0.1711607E-007  0.2456453E+04  0.7818608E-02  0.8418666E-01
         -1   -1    0    0    0  501 -0.00000000000E+00  0.00000000000E+00  0.20507943569E+04  0.20507943569E+04  0.00000000000E+00 0.  1.
          2   -1    0    0  501    0  0.00000000000E+00 -0.00000000000E+00 -0.73558841944E+03  0.73558841944E+03  0.00000000000E+00 0. -1.
         24    2    1    2    0    0  0.89490587076E+03 -0.54881868960E+03  0.73794926952E+03  0.12860941818E+04  0.86085124068E+02 0.  0.
        254    2    1    2    0    0 -0.89490587076E+03  0.54881868960E+03  0.57725666797E+03  0.15002885945E+04  0.90309586125E+03 0.  0.
         23    2    4    4    0    0 -0.45371378198E+03  0.13804889236E+02  0.64901525508E+03  0.79721279844E+03  0.90998207343E+02 0.  0.
         23    2    4    4    0    0 -0.44119208878E+03  0.53501380036E+03 -0.71758587114E+02  0.70307579610E+03  0.90972822607E+02 0.  0.
          4    1    3    3  502    0  0.81680377437E+03 -0.49743715606E+03  0.64031999739E+03  0.11509221647E+04  0.00000000000E+00 0. -1.
         -3    1    3    3    0  502  0.78102096397E+02 -0.51381533534E+02  0.97629272133E+02  0.13517201717E+03  0.00000000000E+00 0.  1.
         13    1    5    5    0    0 -0.25803487052E+03 -0.69232588408E+01  0.44013949689E+03  0.51024768754E+03  0.00000000000E+00 0. -1.
        -13    1    5    5    0    0 -0.19567891146E+03  0.20728148077E+02  0.20887575819E+03  0.28696511090E+03  0.00000000000E+00 0.  1.
          4    1    6    6  503    0 -0.43841802378E+03  0.50937698575E+03 -0.77901467791E+02  0.67656774669E+03  0.00000000000E+00 0. -1.
         -4    1    6    6    0  503 -0.27740650048E+01  0.25636814615E+02  0.61428806769E+01  0.26508049405E+02  0.00000000000E+00 0.  1.
<mgrwt>
<rscale>  0 0.24564532E+04</rscale>
<asrwt>0</asrwt>
<pdfrwt beam="1">  1        2 0.11316745E+00 0.24564532E+04</pdfrwt>
<pdfrwt beam="2">  1       -1 0.31550682E+00 0.24564532E+04</pdfrwt>
<totfact> 0.10283028E+00</totfact>
</mgrwt>
</event>
<event>
12    7  0.1711607E-007  0.2557821E+04  0.7818608E-02  0.8382671E-01
          2   -1    0    0  501    0  0.00000000000E+00  0.00000000000E+00  0.14273810140E+04  0.14273810140E+04  0.00000000000E+00 0. -1.
         -1   -1    0    0    0  501 -0.00000000000E+00 -0.00000000000E+00 -0.11458831783E+04  0.11458831783E+04  0.00000000000E+00 0.  1.
         24    2    1    2    0    0  0.10158250293E+03  0.39682291141E+03  0.11750906579E+04  0.12470491922E+04  0.80661054292E+02 0.  0.
        254    2    1    2    0    0 -0.10158250293E+03 -0.39682291141E+03 -0.89359282211E+03  0.13262150000E+04  0.89025314753E+03 0.  0.
         23    2    4    4    0    0  0.21216368112E+03  0.19099434910E+03 -0.35686817148E+03  0.46572925492E+03  0.89758443022E+02 0.  0.
         23    2    4    4    0    0 -0.31374618405E+03 -0.58781726052E+03 -0.53672465063E+03  0.86048574513E+03  0.91632784529E+02 0.  0.
          2    1    3    3  502    0  0.76246662270E+02  0.35655389475E+03  0.10924682009E+04  0.11517078637E+04  0.00000000000E+00 0. -1.
         -1    1    3    3    0  502  0.25335840659E+02  0.40269016665E+02  0.82622456964E+02  0.95341328498E+02  0.00000000000E+00 0.  1.
         13    1    5    5    0    0  0.13008848292E+03  0.17081924056E+03 -0.25811751281E+03  0.33574823418E+03  0.00000000000E+00 0. -1.
        -13    1    5    5    0    0  0.82075198208E+02  0.20175108545E+02 -0.98750658672E+02  0.12998102074E+03  0.00000000000E+00 0.  1.
          1    1    6    6  503    0 -0.20472897104E+03 -0.41497111274E+03 -0.42130435906E+03  0.62578937268E+03  0.00000000000E+00 0. -1.
         -1    1    6    6    0  503 -0.10901721301E+03 -0.17284614778E+03 -0.11542029157E+03  0.23469637245E+03  0.00000000000E+00 0.  1.
<mgrwt>
<rscale>  0 0.25578209E+04</rscale>
<asrwt>0</asrwt>
<pdfrwt beam="1">  1        2 0.21959708E+00 0.25578209E+04</pdfrwt>
<pdfrwt beam="2">  1       -1 0.17628972E+00 0.25578209E+04</pdfrwt>
<totfact> 0.31242928E+00</totfact>
</mgrwt>
</event>
<event>
12    7  0.1711607E-007  0.1834888E+04  0.7818608E-02  0.8687963E-01
          2   -1    0    0  501    0  0.00000000000E+00  0.00000000000E+00  0.19739158221E+04  0.19739158221E+04  0.00000000000E+00 0. -1.
         -1   -1    0    0    0  501 -0.00000000000E+00 -0.00000000000E+00 -0.42641315920E+03  0.42641315920E+03  0.00000000000E+00 0.  1.
         24    2    1    2    0    0  0.22576285499E+03  0.10420976699E+02 -0.28573202206E+03  0.37402593544E+03  0.84706248303E+02 0.  0.
        254    2    1    2    0    0 -0.22576285499E+03 -0.10420976699E+02  0.18332346850E+04  0.20263030459E+04  0.83311293362E+03 0.  0.
         23    2    4    4    0    0 -0.29127333140E+03  0.33907116175E+03  0.69733062548E+03  0.83262700108E+03  0.84783933509E+02 0.  0.
         23    2    4    4    0    0  0.65510476407E+02 -0.34949213845E+03  0.11359040595E+04  0.11936760448E+04  0.90266772605E+02 0.  0.
          4    1    3    3  502    0  0.20088503857E+03  0.28159287538E+01 -0.19629192365E+03  0.28087941802E+03  0.00000000000E+00 0. -1.
         -3    1    3    3    0  502  0.24877816418E+02  0.76050479452E+01 -0.89440098404E+02  0.93146517414E+02  0.00000000000E+00 0.  1.
         13    1    5    5    0    0 -0.25019477568E+03  0.29962930424E+03  0.65165482820E+03  0.75962435509E+03  0.00000000000E+00 0. -1.
        -13    1    5    5    0    0 -0.41078555722E+02  0.39441857509E+02  0.45675797284E+02  0.73002645990E+02  0.00000000000E+00 0.  1.
          3    1    6    6  503    0  0.70821726704E+02 -0.25767644322E+03  0.94018484303E+03  0.97742539635E+03  0.00000000000E+00 0. -1.
         -3    1    6    6    0  503 -0.53112502974E+01 -0.91815695225E+02  0.19571921649E+03  0.21625064849E+03  0.00000000000E+00 0.  1.
<mgrwt>
<rscale>  0 0.18348882E+04</rscale>
<asrwt>0</asrwt>
<pdfrwt beam="1">  1        2 0.30367935E+00 0.18348882E+04</pdfrwt>
<pdfrwt beam="2">  1       -1 0.65602026E-01 0.18348882E+04</pdfrwt>
<totfact> 0.17444454E+01</totfact>
</mgrwt>
</event>
<event>
12    7  0.1711607E-007  0.1134978E+04  0.7818608E-02  0.9171755E-01
          2   -1    0    0  501    0  0.00000000000E+00  0.00000000000E+00  0.16592868541E+04  0.16592868541E+04  0.00000000000E+00 0. -1.
         -3   -1    0    0    0  501 -0.00000000000E+00 -0.00000000000E+00 -0.19408548298E+03  0.19408548298E+03  0.00000000000E+00 0.  1.
         24    2    1    2    0    0 -0.17463662612E+03  0.99989716775E+02  0.32300658430E+03  0.38978734499E+03  0.84291317283E+02 0.  0.
        254    2    1    2    0    0  0.17463662612E+03 -0.99989716775E+02  0.11421947868E+04  0.14635849921E+04  0.89273523703E+03 0.  0.
         23    2    4    4    0    0 -0.27104962063E+03  0.20484488047E+03  0.58071338937E+03  0.67927852450E+03  0.93605295596E+02 0.  0.
         23    2    4    4    0    0  0.44568624675E+03 -0.30483459724E+03  0.56148139746E+03  0.78430646760E+03  0.91186145975E+02 0.  0.
          2    1    3    3  502    0 -0.14893384676E+03  0.42000674404E+02  0.23010319304E+03  0.27729555858E+03  0.00000000000E+00 0. -1.
         -1    1    3    3    0  502 -0.25702779359E+02  0.57989042371E+02  0.92903391255E+02  0.11249178641E+03  0.00000000000E+00 0.  1.
         13    1    5    5    0    0 -0.14696166001E+03  0.14978569739E+03  0.28524926686E+03  0.35411951217E+03  0.00000000000E+00 0. -1.
        -13    1    5    5    0    0 -0.12408796062E+03  0.55059183073E+02  0.29546412251E+03  0.32515901233E+03  0.00000000000E+00 0.  1.
          1    1    6    6  503    0  0.27298134378E+03 -0.20934163416E+03  0.41200006370E+03  0.53673716690E+03  0.00000000000E+00 0. -1.
         -1    1    6    6    0  503  0.17270490297E+03 -0.95492963079E+02  0.14948133375E+03  0.24756930070E+03  0.00000000000E+00 0.  1.
<mgrwt>
<rscale>  0 0.11349775E+04</rscale>
<asrwt>0</asrwt>
<pdfrwt beam="1">  1        2 0.25527489E+00 0.11349775E+04</pdfrwt>
<pdfrwt beam="2">  1       -3 0.29859306E-01 0.11349775E+04</pdfrwt>
<totfact> 0.72275021E+01</totfact>
</mgrwt>
</event>
<event>
12    7  0.1711607E-007  0.1620794E+04  0.7818608E-02  0.8807874E-01
         -1   -1    0    0    0  501 -0.00000000000E+00  0.00000000000E+00  0.24686828595E+03  0.24686828595E+03  0.00000000000E+00 0.  1.
          2   -1    0    0  501    0  0.00000000000E+00 -0.00000000000E+00 -0.26602997294E+04  0.26602997294E+04  0.00000000000E+00 0. -1.
         24    2    1    2    0    0 -0.46803085297E+03  0.33353430289E+02 -0.30145463925E+03  0.56281659035E+03  0.75645781148E+02 0.  0.
        254    2    1    2    0    0  0.46803085297E+03 -0.33353430289E+02 -0.21119768042E+04  0.23443514250E+04  0.90297965191E+03 0.  0.
         23    2    4    4    0    0  0.69179281785E+03  0.11450091902E+03 -0.12417609737E+04  0.14289574375E+04  0.90891577936E+02 0.  0.
         23    2    4    4    0    0 -0.22376196488E+03 -0.14785434931E+03 -0.87021583048E+03  0.91539398753E+03  0.93489225353E+02 0.  0.
          2    1    3    3  502    0 -0.10178003355E+03  0.70050955818E+01 -0.10487088157E+03  0.14630840166E+03  0.00000000000E+00 0. -1.
         -1    1    3    3    0  502 -0.36625081942E+03  0.26348334707E+02 -0.19658375768E+03  0.41650818869E+03  0.00000000000E+00 0.  1.
         13    1    5    5    0    0  0.81298757755E+02  0.17824213997E+01 -0.20495473967E+03  0.22049741574E+03  0.00000000000E+00 0. -1.
        -13    1    5    5    0    0  0.61049406010E+03  0.11271849762E+03 -0.10368062341E+04  0.12084600217E+04  0.00000000000E+00 0.  1.
          3    1    6    6  503    0 -0.14127231266E+02 -0.93412144693E+01 -0.18127667688E+03  0.18206611582E+03  0.00000000000E+00 0. -1.
         -3    1    6    6    0  503 -0.20963473362E+03 -0.13851313484E+03 -0.68893915360E+03  0.73332787171E+03  0.00000000000E+00 0.  1.
<mgrwt>
<rscale>  0 0.16207944E+04</rscale>
<asrwt>0</asrwt>
<pdfrwt beam="1">  1        2 0.40927689E+00 0.16207944E+04</pdfrwt>
<pdfrwt beam="2">  1       -1 0.37979736E-01 0.16207944E+04</pdfrwt>
<totfact> 0.20527464E+01</totfact>
</mgrwt>
</event>
<event>
12    7  0.1711607E-007  0.1002602E+04  0.7818608E-02  0.9305696E-01
          4   -1    0    0  501    0  0.00000000000E+00  0.00000000000E+00  0.45740604823E+03  0.45740604823E+03  0.00000000000E+00 0. -1.
         -3   -1    0    0    0  501 -0.00000000000E+00 -0.00000000000E+00 -0.54940819022E+03  0.54940819022E+03  0.00000000000E+00 0.  1.
         24    2    1    2    0    0 -0.39257859372E+02  0.23146196693E+02 -0.31669396089E+02  0.98045865710E+02  0.80827688266E+02 0.  0.
        254    2    1    2    0    0  0.39257859372E+02 -0.23146196693E+02 -0.60332745892E+02  0.90876837274E+03  0.90561746291E+03 0.  0.
         23    2    4    4    0    0 -0.30237271482E+03  0.28470963138E+03  0.50078208226E+02  0.42785501818E+03  0.89795638941E+02 0.  0.
         23    2    4    4    0    0  0.34163057419E+03 -0.30785582808E+03 -0.11041095412E+03  0.48091335456E+03  0.87180363043E+02 0.  0.
          2    1    3    3  502    0 -0.77633119727E+01 -0.17584847967E+02  0.18124350478E+02  0.26419461975E+02  0.00000000000E+00 0. -1.
         -1    1    3    3    0  502 -0.31494547399E+02  0.40731044659E+02 -0.49793746567E+02  0.71626403735E+02  0.00000000000E+00 0.  1.
         13    1    5    5    0    0 -0.25683091463E+03  0.19679408476E+03  0.19145005597E+02  0.32412429984E+03  0.00000000000E+00 0.  1.
        -13    1    5    5    0    0 -0.45541800188E+02  0.87915546626E+02  0.30933202629E+02  0.10373071834E+03  0.00000000000E+00 0. -1.
          1    1    6    6  503    0  0.12603367001E+01  0.20359746988E+01 -0.93350358548E+01  0.96372473239E+01  0.00000000000E+00 0. -1.
         -1    1    6    6    0  503  0.34037023749E+03 -0.30989180277E+03 -0.10107591826E+03  0.47127610724E+03  0.00000000000E+00 0.  1.
<mgrwt>
<rscale>  0 0.10026019E+04</rscale>
<asrwt>0</asrwt>
<pdfrwt beam="1">  1        4 0.70370161E-01 0.10026019E+04</pdfrwt>
<pdfrwt beam="2">  1       -3 0.84524337E-01 0.10026019E+04</pdfrwt>
<totfact> 0.54178600E+00</totfact>
</mgrwt>
</event>
<event>
12    7  0.1711607E-007  0.2065704E+04  0.7818608E-02  0.8576503E-01
         -1   -1    0    0    0  501 -0.00000000000E+00  0.00000000000E+00  0.15704731443E+04  0.15704731443E+04  0.00000000000E+00 0.  1.
          2   -1    0    0  501    0  0.00000000000E+00 -0.00000000000E+00 -0.67927518019E+03  0.67927518019E+03  0.00000000000E+00 0. -1.
         24    2    1    2    0    0 -0.32930414550E+03  0.62265957796E+03 -0.12738495523E+03  0.72024394821E+03  0.79863933331E+02 0.  0.
        254    2    1    2    0    0  0.32930414550E+03 -0.62265957796E+03  0.10185829194E+04  0.15295043763E+04  0.89762258397E+03 0.  0.
         23    2    4    4    0    0  0.41217512008E+03 -0.60714170898E+03  0.11378454873E+04  0.13568737236E+04  0.88907616713E+02 0.  0.
         23    2    4    4    0    0 -0.82870974587E+02 -0.15517868983E+02 -0.11926256794E+03  0.17263065274E+03  0.92029231594E+02 0.  0.
          2    1    3    3  502    0 -0.16463037784E+03  0.30188060028E+03 -0.21885897229E+02  0.34454905402E+03  0.00000000000E+00 0. -1.
         -1    1    3    3    0  502 -0.16467376765E+03  0.32077897769E+03 -0.10549905801E+03  0.37569489419E+03  0.00000000000E+00 0.  1.
         13    1    5    5    0    0  0.80006917946E+02 -0.65506758155E+02  0.14388736410E+03  0.17718864476E+03  0.00000000000E+00 0.  1.
        -13    1    5    5    0    0  0.33216820214E+03 -0.54163495082E+03  0.99395812321E+03  0.11796850788E+04  0.00000000000E+00 0. -1.
          3    1    6    6  503    0 -0.72251702822E+02  0.29560008871E+02 -0.81707930681E+02  0.11300570172E+03  0.00000000000E+00 0. -1.
         -3    1    6    6    0  503 -0.10619271765E+02 -0.45077877854E+02 -0.37554637261E+02  0.59624951023E+02  0.00000000000E+00 0.  1.
<mgrwt>
<rscale>  0 0.20657042E+04</rscale>
<asrwt>0</asrwt>
<pdfrwt beam="1">  1        2 0.10450387E+00 0.20657042E+04</pdfrwt>
<pdfrwt beam="2">  1       -1 0.24161125E+00 0.20657042E+04</pdfrwt>
<totfact> 0.35519478E+00</totfact>
</mgrwt>
</event>
<event>
12    7  0.1711607E-007  0.1303736E+04  0.7818608E-02  0.9026608E-01
          4   -1    0    0  501    0  0.00000000000E+00  0.00000000000E+00  0.57464168808E+03  0.57464168808E+03  0.00000000000E+00 0. -1.
         -3   -1    0    0    0  501 -0.00000000000E+00 -0.00000000000E+00 -0.73947240942E+03  0.73947240942E+03  0.00000000000E+00 0.  1.
         24    2    1    2    0    0  0.22539882342E+03 -0.55901173463E+02 -0.27903061341E+03  0.37164879873E+03  0.79593816244E+02 0.  0.
        254    2    1    2    0    0 -0.22539882342E+03  0.55901173463E+02  0.11419989207E+03  0.94246529878E+03  0.90623929139E+03 0.  0.
         23    2    4    4    0    0 -0.44337730645E+03 -0.27484441826E+03  0.63297879611E+02  0.53339302405E+03  0.91534727947E+02 0.  0.
         23    2    4    4    0    0  0.21797848303E+03  0.33074559172E+03  0.50902012456E+02  0.40907227472E+03  0.88554195662E+02 0.  0.
          4    1    3    3  502    0 -0.21012657459E+00  0.58416408849E+00  0.47219385376E+01  0.47625732973E+01  0.00000000000E+00 0. -1.
         -3    1    3    3    0  502  0.22560895000E+03 -0.56485337552E+02 -0.28375255194E+03  0.36688622543E+03  0.00000000000E+00 0.  1.
         13    1    5    5    0    0 -0.30927897341E+03 -0.19922300196E+03  0.25755670009E+01  0.36789933602E+03  0.00000000000E+00 0.  1.
        -13    1    5    5    0    0 -0.13409833305E+03 -0.75621416295E+02  0.60722312611E+02  0.16549368803E+03  0.00000000000E+00 0. -1.
          3    1    6    6  503    0  0.32952510931E+02  0.80963002387E+01  0.54732634670E+01  0.34371131305E+02  0.00000000000E+00 0. -1.
         -3    1    6    6    0  503  0.18502597210E+03  0.32264929148E+03  0.45428748989E+02  0.37470114342E+03  0.00000000000E+00 0.  1.
<mgrwt>
<rscale>  0 0.13037357E+04</rscale>
<asrwt>0</asrwt>
<pdfrwt beam="1">  1        4 0.88406414E-01 0.13037357E+04</pdfrwt>
<pdfrwt beam="2">  1       -3 0.11376499E+00 0.13037357E+04</pdfrwt>
<totfact> 0.15904312E+00</totfact>
</mgrwt>
</event>
<event>
12    7  0.1711607E-007  0.2107697E+04  0.7818608E-02  0.8557860E-01
          2   -1    0    0  501    0  0.00000000000E+00  0.00000000000E+00  0.15311271030E+04  0.15311271030E+04  0.00000000000E+00 0. -1.
         -1   -1    0    0    0  501 -0.00000000000E+00 -0.00000000000E+00 -0.72534601873E+03  0.72534601873E+03  0.00000000000E+00 0.  1.
         24    2    1    2    0    0 -0.11032238167E+03  0.50871757118E+02  0.12409560882E+04  0.12494700971E+04  0.80277935893E+02 0.  0.
        254    2    1    2    0    0  0.11032238167E+03 -0.50871757118E+02 -0.43517500400E+03  0.10070030246E+04  0.89995491215E+03 0.  0.
         23    2    4    4    0    0  0.46920172211E+03 -0.18539456295E+03 -0.27393618580E+03  0.58102514476E+03  0.89597907082E+02 0.  0.
         23    2    4    4    0    0 -0.35887934044E+03  0.13452280584E+03 -0.16123881820E+03  0.42597787986E+03  0.92565821690E+02 0.  0.
          2    1    3    3  502    0 -0.82984532522E+02 -0.24078242936E+01  0.83569081315E+03  0.83980436141E+03  0.00000000000E+00 0. -1.
         -1    1    3    3    0  502 -0.27337849144E+02  0.53279581412E+02  0.40526527508E+03  0.40966573566E+03  0.00000000000E+00 0.  1.
         13    1    5    5    0    0  0.15365773370E+02  0.50517177537E+00  0.57870469142E+01  0.16427175709E+02  0.00000000000E+00 0.  1.
        -13    1    5    5    0    0  0.45383594874E+03 -0.18589973473E+03 -0.27972323271E+03  0.56459796905E+03  0.00000000000E+00 0. -1.
          2    1    6    6  503    0 -0.33264993391E+03  0.12328656379E+03 -0.11742242505E+03  0.37368915055E+03  0.00000000000E+00 0. -1.
         -2    1    6    6    0  503 -0.26229406533E+02  0.11236242049E+02 -0.43816393158E+02  0.52288729300E+02  0.00000000000E+00 0.  1.
<mgrwt>
<rscale>  0 0.21076973E+04</rscale>
<asrwt>0</asrwt>
<pdfrwt beam="1">  1        2 0.23555801E+00 0.21076973E+04</pdfrwt>
<pdfrwt beam="2">  1       -1 0.11159170E+00 0.21076973E+04</pdfrwt>
<totfact> 0.94342498E+00</totfact>
</mgrwt>
</event>
<event>
12    7  0.1711607E-007  0.1554660E+04  0.7818608E-02  0.8848897E-01
         -1   -1    0    0    0  501 -0.00000000000E+00  0.00000000000E+00  0.41370824417E+03  0.41370824417E+03  0.00000000000E+00 0.  1.
          2   -1    0    0  501    0  0.00000000000E+00 -0.00000000000E+00 -0.14605513239E+04  0.14605513239E+04  0.00000000000E+00 0. -1.
         24    2    1    2    0    0  0.13263089765E+03 -0.40171531190E+03 -0.70400520745E+03  0.82498979738E+03  0.77580196122E+02 0.  0.
        254    2    1    2    0    0 -0.13263089765E+03  0.40171531190E+03 -0.34283787223E+03  0.10492697706E+04  0.89691866862E+03 0.  0.
         23    2    4    4    0    0 -0.11686716233E+03  0.37820219275E+03  0.23105189739E+03  0.46733773706E+03  0.91240062249E+02 0.  0.
         23    2    4    4    0    0 -0.15763735327E+02  0.23513119152E+02 -0.57388976962E+03  0.58193203359E+03  0.92163235207E+02 0.  0.
          4    1    3    3  502    0  0.95399956779E+02 -0.29022235146E+03 -0.43638661820E+03  0.53269451431E+03  0.00000000000E+00 0. -1.
         -3    1    3    3    0  502  0.37230940876E+02 -0.11149296045E+03 -0.26761858926E+03  0.29229528307E+03  0.00000000000E+00 0.  1.
         13    1    5    5    0    0  0.10490545269E+02  0.63651015847E+02  0.19295120768E+02  0.67333535804E+02  0.00000000000E+00 0. -1.
        -13    1    5    5    0    0 -0.12735770760E+03  0.31455117690E+03  0.21175677662E+03  0.40000420125E+03  0.00000000000E+00 0.  1.
          4    1    6    6  503    0 -0.21789190200E+02 -0.32291793436E+02 -0.18917804740E+03  0.19314725561E+03  0.00000000000E+00 0. -1.
         -4    1    6    6    0  503  0.60254548734E+01  0.55804912588E+02 -0.38471172222E+03  0.38878477798E+03  0.00000000000E+00 0.  1.
<mgrwt>
<rscale>  0 0.15546603E+04</rscale>
<asrwt>0</asrwt>
<pdfrwt beam="1">  1        2 0.22470020E+00 0.15546603E+04</pdfrwt>
<pdfrwt beam="2">  1       -1 0.63647423E-01 0.15546603E+04</pdfrwt>
<totfact> 0.36687321E+01</totfact>
</mgrwt>
</event>
<event>
12    7  0.1711607E-007  0.1090463E+04  0.7818608E-02  0.9214537E-01
          2   -1    0    0  501    0  0.00000000000E+00  0.00000000000E+00  0.10271470112E+04  0.10271470112E+04  0.00000000000E+00 0. -1.
         -1   -1    0    0    0  501 -0.00000000000E+00 -0.00000000000E+00 -0.28942059830E+03  0.28942059830E+03  0.00000000000E+00 0.  1.
         24    2    1    2    0    0  0.13812703221E+03  0.42175438135E+02  0.37939082711E+02  0.17043193201E+03  0.82157317645E+02 0.  0.
        254    2    1    2    0    0 -0.13812703221E+03 -0.42175438135E+02  0.69978733016E+03  0.11461356775E+04  0.89613996623E+03 0.  0.
         23    2    4    4    0    0  0.36632155881E+03 -0.78979335771E+02  0.22824057210E+03  0.44877987451E+03  0.94235858812E+02 0.  0.
         23    2    4    4    0    0 -0.50444859103E+03  0.36803897635E+02  0.47154675806E+03  0.69735580294E+03  0.90143568787E+02 0.  0.
          4    1    3    3  502    0  0.10563606148E+03  0.41909860755E+02  0.62502848201E+02  0.12969972994E+03  0.00000000000E+00 0. -1.
         -3    1    3    3    0  502  0.32490970734E+02  0.26557737996E+00 -0.24563765490E+02  0.40732202072E+02  0.00000000000E+00 0.  1.
         13    1    5    5    0    0  0.78348295988E+02  0.21030916630E+02  0.39403985341E+02  0.90185525442E+02  0.00000000000E+00 0. -1.
        -13    1    5    5    0    0  0.28797326283E+03 -0.10001025240E+03  0.18883658676E+03  0.35859434907E+03  0.00000000000E+00 0.  1.
          4    1    6    6  503    0 -0.44052773466E+03  0.31201836569E+02  0.44779640436E+03  0.62893549698E+03  0.00000000000E+00 0. -1.
         -4    1    6    6    0  503 -0.63920856366E+02  0.56020610668E+01  0.23750353702E+02  0.68420305960E+02  0.00000000000E+00 0.  1.
<mgrwt>
<rscale>  0 0.10904632E+04</rscale>
<asrwt>0</asrwt>
<pdfrwt beam="1">  1        2 0.15802262E+00 0.10904632E+04</pdfrwt>
<pdfrwt beam="2">  1       -1 0.44526246E-01 0.10904632E+04</pdfrwt>
<totfact> 0.13686854E+02</totfact>
</mgrwt>
</event>
<event>
12    7  0.1711607E-007  0.1714988E+04  0.7818608E-02  0.8752862E-01
         -3   -1    0    0    0  501 -0.00000000000E+00  0.00000000000E+00  0.14784762895E+04  0.14784762895E+04  0.00000000000E+00 0.  1.
          2   -1    0    0  501    0  0.00000000000E+00 -0.00000000000E+00 -0.49733333053E+03  0.49733333053E+03  0.00000000000E+00 0. -1.
         24    2    1    2    0    0 -0.15181048882E+03 -0.46463776054E+03  0.78798168919E+03  0.93032703628E+03  0.75223526299E+02 0.  0.
        254    2    1    2    0    0  0.15181048882E+03  0.46463776054E+03  0.19316126980E+03  0.10454825838E+04  0.90376317903E+03 0.  0.
         23    2    4    4    0    0  0.75653453485E+00  0.26304991887E+03  0.53975839023E+03  0.60730824807E+03  0.91040409651E+02 0.  0.
         23    2    4    4    0    0  0.15105395428E+03  0.20158784166E+03 -0.34659712043E+03  0.43817433569E+03  0.91718207341E+02 0.  0.
          4    1    3    3  502    0 -0.39910627615E+02 -0.69738945939E+02  0.17568578279E+03  0.19318869805E+03  0.00000000000E+00 0. -1.
         -3    1    3    3    0  502 -0.11189986120E+03 -0.39489881460E+03  0.61229590639E+03  0.73713833823E+03  0.00000000000E+00 0.  1.
         13    1    5    5    0    0 -0.24389004850E+02  0.21499916891E+02  0.97218468285E+02  0.10251097775E+03  0.00000000000E+00 0.  1.
        -13    1    5    5    0    0  0.25145539385E+02  0.24155000198E+03  0.44253992194E+03  0.50479727032E+03  0.00000000000E+00 0. -1.
          1    1    6    6  503    0  0.74893758763E+02  0.11290583660E+03 -0.11092385113E+03  0.17510255221E+03  0.00000000000E+00 0. -1.
         -1    1    6    6    0  503  0.76160195521E+02  0.88682005063E+02 -0.23567326930E+03  0.26307178348E+03  0.00000000000E+00 0.  1.
<mgrwt>
<rscale>  0 0.17149875E+04</rscale>
<asrwt>0</asrwt>
<pdfrwt beam="1">  1        2 0.76512821E-01 0.17149875E+04</pdfrwt>
<pdfrwt beam="2">  1       -3 0.22745789E+00 0.17149875E+04</pdfrwt>
<totfact> 0.36543349E+00</totfact>
</mgrwt>
</event>
<event>
12    7  0.1711607E-007  0.1349153E+04  0.7818608E-02  0.8991469E-01
         -1   -1    0    0    0  501 -0.00000000000E+00  0.00000000000E+00  0.42462915456E+03  0.42462915456E+03  0.00000000000E+00 0.  1.
          2   -1    0    0  501    0  0.00000000000E+00 -0.00000000000E+00 -0.10716497801E+04  0.10716497801E+04  0.00000000000E+00 0. -1.
         24    2    1    2    0    0  0.70894341322E+02 -0.12399885507E+03 -0.55364524130E+03  0.57819437206E+03  0.85929942236E+02 0.  0.
        254    2    1    2    0    0 -0.70894341322E+02  0.12399885507E+03 -0.93375384205E+02  0.91808456257E+03  0.90208568216E+03 0.  0.
         23    2    4    4    0    0 -0.34078487584E+03  0.28509383786E+03  0.18229913032E+03  0.48918216912E+03  0.93023618950E+02 0.  0.
         23    2    4    4    0    0  0.26989053452E+03 -0.16109498279E+03 -0.27567451453E+03  0.42890239345E+03  0.95751402313E+02 0.  0.
          4    1    3    3  502    0  0.81916276727E+02 -0.11467126824E+03 -0.40437976348E+03  0.42823214413E+03  0.00000000000E+00 0. -1.
         -3    1    3    3    0  502 -0.11021935405E+02 -0.93275868305E+01 -0.14926547782E+03  0.14996222793E+03  0.00000000000E+00 0.  1.
         13    1    5    5    0    0 -0.84316693437E+02  0.75054740886E+02  0.44113843909E+01  0.11296893039E+03  0.00000000000E+00 0.  1.
        -13    1    5    5    0    0 -0.25646818240E+03  0.21003909697E+03  0.17788774593E+03  0.37621323873E+03  0.00000000000E+00 0. -1.
          1    1    6    6  503    0  0.24443804300E+03 -0.13546833911E+03 -0.19577281631E+03  0.34121638790E+03  0.00000000000E+00 0. -1.
         -1    1    6    6    0  503  0.25452491518E+02 -0.25626643674E+02 -0.79901698219E+02  0.87686005546E+02  0.00000000000E+00 0.  1.
<mgrwt>
<rscale>  0 0.13491534E+04</rscale>
<asrwt>0</asrwt>
<pdfrwt beam="1">  1        2 0.16486919E+00 0.13491534E+04</pdfrwt>
<pdfrwt beam="2">  1       -1 0.65327564E-01 0.13491534E+04</pdfrwt>
<totfact> 0.60051181E+01</totfact>
</mgrwt>
</event>
<event>
12    7  0.1711607E-007  0.2033447E+04  0.7818608E-02  0.8591141E-01
          2   -1    0    0  501    0  0.00000000000E+00  0.00000000000E+00  0.22777195406E+04  0.22777195406E+04  0.00000000000E+00 0. -1.
         -1   -1    0    0    0  501 -0.00000000000E+00 -0.00000000000E+00 -0.45384289754E+03  0.45384289754E+03  0.00000000000E+00 0.  1.
         24    2    1    2    0    0 -0.12374398056E+03  0.40101002389E+03 -0.20025890364E+03  0.47338138173E+03  0.88683099274E+02 0.  0.
        254    2    1    2    0    0  0.12374398056E+03 -0.40101002389E+03  0.20241355467E+04  0.22581810564E+04  0.90891988650E+03 0.  0.
         23    2    4    4    0    0  0.29286751610E+03 -0.37779318818E+03  0.20053159867E+04  0.20634880041E+04  0.90506692560E+02 0.  0.
         23    2    4    4    0    0 -0.16912353554E+03 -0.23216835715E+02  0.18819559978E+02  0.19469305231E+03  0.91702873706E+02 0.  0.
          2    1    3    3  502    0 -0.19181501489E+02  0.57114941630E+01 -0.82042961119E+01  0.21630109561E+02  0.00000000000E+00 0. -1.
         -1    1    3    3    0  502 -0.10456247908E+03  0.39529852973E+03 -0.19205460753E+03  0.45175127217E+03  0.00000000000E+00 0.  1.
         13    1    5    5    0    0  0.65988407161E+02 -0.10467555716E+03  0.69442303325E+03  0.70536146142E+03  0.00000000000E+00 0. -1.
        -13    1    5    5    0    0  0.22687910894E+03 -0.27311763101E+03  0.13108929535E+04  0.13581265427E+04  0.00000000000E+00 0.  1.
          4    1    6    6  503    0 -0.65724042666E+02 -0.54891941620E+02  0.91600127796E+01  0.86120153700E+02  0.00000000000E+00 0. -1.
         -4    1    6    6    0  503 -0.10339949287E+03  0.31675105905E+02  0.96595471983E+01  0.10857289861E+03  0.00000000000E+00 0.  1.
<mgrwt>
<rscale>  0 0.20334472E+04</rscale>
<asrwt>0</asrwt>
<pdfrwt beam="1">  1        2 0.35041838E+00 0.20334472E+04</pdfrwt>
<pdfrwt beam="2">  1       -1 0.69821986E-01 0.20334472E+04</pdfrwt>
<totfact> 0.10211437E+01</totfact>
</mgrwt>
</event>
<event>
12    7  0.1711607E-007  0.1809921E+04  0.7818608E-02  0.8701041E-01
         -1   -1    0    0    0  501 -0.00000000000E+00  0.00000000000E+00  0.95057876384E+03  0.95057876384E+03  0.00000000000E+00 0.  1.
          2   -1    0    0  501    0  0.00000000000E+00 -0.00000000000E+00 -0.86153131204E+03  0.86153131204E+03  0.00000000000E+00 0. -1.
         24    2    1    2    0    0 -0.34104305778E+03  0.46551124094E+03 -0.24842514241E+03  0.63332315858E+03  0.79825366356E+02 0.  0.
        254    2    1    2    0    0  0.34104305778E+03 -0.46551124094E+03  0.33747259420E+03  0.11787869173E+04  0.97089637030E+03 0.  0.
         23    2    4    4    0    0  0.60876616222E+03 -0.53545673773E+03  0.14421938221E+03  0.82914521128E+03  0.96811119944E+02 0.  0.
         23    2    4    4    0    0 -0.26772310444E+03  0.69945496791E+02  0.19325321199E+03  0.34964170602E+03  0.91293403223E+02 0.  0.
          2    1    3    3  502    0 -0.24472923751E+03  0.27009173655E+03 -0.14692077110E+03  0.39297284744E+03  0.00000000000E+00 0. -1.
         -1    1    3    3    0  502 -0.96313820269E+02  0.19541950439E+03 -0.10150437131E+03  0.24035031114E+03  0.00000000000E+00 0.  1.
         13    1    5    5    0    0  0.44801674317E+03 -0.36213243356E+03  0.13942195143E+03  0.59270345211E+03  0.00000000000E+00 0.  1.
        -13    1    5    5    0    0  0.16074941905E+03 -0.17332430417E+03  0.47974307771E+01  0.23644175918E+03  0.00000000000E+00 0. -1.
          3    1    6    6  503    0 -0.47698118984E+02  0.45129843424E+02  0.71014321444E+02  0.96720458912E+02  0.00000000000E+00 0. -1.
         -3    1    6    6    0  503 -0.22002498545E+03  0.24815653368E+02  0.12223889055E+03  0.25292124710E+03  0.00000000000E+00 0.  1.
<mgrwt>
<rscale>  0 0.18099208E+04</rscale>
<asrwt>0</asrwt>
<pdfrwt beam="1">  1        2 0.13254328E+00 0.18099208E+04</pdfrwt>
<pdfrwt beam="2">  1       -1 0.14624289E+00 0.18099208E+04</pdfrwt>
<totfact> 0.12529259E+01</totfact>
</mgrwt>
</event>
<event>
12    7  0.2270623E-007  0.1696468E+04  0.7818608E-02  0.8763381E-01
         -1   -1    0    0    0  501 -0.00000000000E+00  0.00000000000E+00  0.36876047365E+03  0.36876047365E+03  0.00000000000E+00 0.  1.
          2   -1    0    0  501    0  0.00000000000E+00 -0.00000000000E+00 -0.19511343263E+04  0.19511343263E+04  0.00000000000E+00 0. -1.
         24    2    1    2    0    0 -0.11600892592E+03 -0.18061135231E+03 -0.13358908046E+04  0.13552929315E+04  0.78333625947E+02 0.  0.
        254    2    1    2    0    0  0.11600892592E+03  0.18061135231E+03 -0.24648304808E+03  0.96460186844E+03  0.90753751445E+03 0.  0.
         23    2    4    4    0    0 -0.23678459702E+03 -0.32761060692E+02  0.21873795521E+03  0.33625639387E+03  0.89899037185E+02 0.  0.
         23    2    4    4    0    0  0.35279352294E+03  0.21337241300E+03 -0.46522100329E+03  0.62834547457E+03  0.91631856143E+02 0.  0.
          4    1    3    3  502    0 -0.11630041134E+03 -0.18626651095E+03 -0.12443710747E+04  0.12635981839E+04  0.00000000000E+00 0. -1.
         -1    1    3    3    0  502  0.29148542147E+00  0.56551586457E+01 -0.91519729881E+02  0.91694747617E+02  0.00000000000E+00 0.  1.
         13    1    5    5    0    0  0.26858738190E+01  0.15386572742E+00 -0.57643799380E+01  0.63612631531E+01  0.00000000000E+00 0. -1.
        -13    1    5    5    0    0 -0.23947047084E+03 -0.32914926419E+02  0.22450233515E+03  0.32989513072E+03  0.00000000000E+00 0.  1.
          3    1    6    6  503    0  0.89506764689E+02  0.13720069899E+02 -0.12183435632E+03  0.15180023591E+03  0.00000000000E+00 0. -1.
         -3    1    6    6    0  503  0.26328675825E+03  0.19965234310E+03 -0.34338664697E+03  0.47654523866E+03  0.00000000000E+00 0.  1.
<mgrwt>
<rscale>  0 0.16964684E+04</rscale>
<asrwt>0</asrwt>
<pdfrwt beam="1">  1        2 0.30017451E+00 0.16964684E+04</pdfrwt>
<pdfrwt beam="2">  1       -1 0.56732381E-01 0.16964684E+04</pdfrwt>
<totfact> 0.24252235E+01</totfact>
</mgrwt>
</event>
<event>
12    7  0.1711607E-007  0.2260439E+04  0.7818608E-02  0.8493685E-01
         -1   -1    0    0    0  501 -0.00000000000E+00  0.00000000000E+00  0.11534275390E+04  0.11534275390E+04  0.00000000000E+00 0.  1.
          2   -1    0    0  501    0  0.00000000000E+00 -0.00000000000E+00 -0.11074784446E+04  0.11074784446E+04  0.00000000000E+00 0. -1.
         24    2    1    2    0    0 -0.14030774834E+03 -0.78337847086E+03  0.52728128715E+03  0.95807408577E+03  0.80698855022E+02 0.  0.
        254    2    1    2    0    0  0.14030774834E+03  0.78337847086E+03 -0.48133219281E+03  0.13028318978E+04  0.91231693031E+03 0.  0.
         23    2    4    4    0    0 -0.25165300926E+03  0.75412742394E+03 -0.38451650913E+03  0.88782803780E+03  0.91368869399E+02 0.  0.
         23    2    4    4    0    0  0.39196075761E+03  0.29251046913E+02 -0.96815683679E+02  0.41500386003E+03  0.91466212266E+02 0.  0.
          4    1    3    3  502    0 -0.53760418385E+01 -0.19534534934E+01  0.92444206964E+01  0.10870930062E+02  0.00000000000E+00 0. -1.
         -3    1    3    3    0  502 -0.13493170651E+03 -0.78142501736E+03  0.51803686646E+03  0.94720315571E+03  0.00000000000E+00 0.  1.
         13    1    5    5    0    0 -0.17060878269E+03  0.60261873176E+03 -0.27461677434E+03  0.68386480049E+03  0.00000000000E+00 0. -1.
        -13    1    5    5    0    0 -0.81044226572E+02  0.15150869219E+03 -0.10989973478E+03  0.20396323731E+03  0.00000000000E+00 0.  1.
          1    1    6    6  503    0  0.21338536823E+03 -0.14834945693E+02 -0.86654955871E+02  0.23078663819E+03  0.00000000000E+00 0. -1.
         -1    1    6    6    0  503  0.17857538937E+03  0.44085992606E+02 -0.10160727808E+02  0.18421722184E+03  0.00000000000E+00 0.  1.
<mgrwt>
<rscale>  0 0.22604390E+04</rscale>
<asrwt>0</asrwt>
<pdfrwt beam="1">  1        2 0.17038130E+00 0.22604390E+04</pdfrwt>
<pdfrwt beam="2">  1       -1 0.17745039E+00 0.22604390E+04</pdfrwt>
<totfact> 0.48533311E+00</totfact>
</mgrwt>
</event>
<event>
12    7  0.1711607E-007  0.2778554E+04  0.7818608E-02  0.8309957E-01
          2   -1    0    0  501    0  0.00000000000E+00  0.00000000000E+00  0.15533431198E+04  0.15533431198E+04  0.00000000000E+00 0. -1.
         -1   -1    0    0    0  501 -0.00000000000E+00 -0.00000000000E+00 -0.12425400888E+04  0.12425400888E+04  0.00000000000E+00 0.  1.
         24    2    1    2    0    0 -0.43431790512E+03 -0.70785422681E+03 -0.79188511068E+03  0.11503746098E+04  0.81179216898E+02 0.  0.
        254    2    1    2    0    0  0.43431790512E+03  0.70785422681E+03  0.11026881417E+04  0.16455085988E+04  0.89559352491E+03 0.  0.
         23    2    4    4    0    0 -0.18686091859E+02  0.59696367009E+03  0.98558377451E+03  0.11559464413E+04  0.90122167632E+02 0.  0.
         23    2    4    4    0    0  0.45300399698E+03  0.11089055672E+03  0.11710436714E+03  0.48956215752E+03  0.91914832436E+02 0.  0.
          2    1    3    3  502    0 -0.14762206391E+03 -0.18213849530E+03 -0.25075369043E+03  0.34328431144E+03  0.00000000000E+00 0. -1.
         -1    1    3    3    0  502 -0.28669584122E+03 -0.52571573152E+03 -0.54113142025E+03  0.80709029837E+03  0.00000000000E+00 0.  1.
         13    1    5    5    0    0 -0.54076259923E+02  0.29416372323E+03  0.49645259456E+03  0.57958754006E+03  0.00000000000E+00 0.  1.
        -13    1    5    5    0    0  0.35390168065E+02  0.30279994686E+03  0.48913117996E+03  0.57635890122E+03  0.00000000000E+00 0. -1.
          4    1    6    6  503    0  0.26271160317E+03  0.23811332417E+02  0.41387830353E+02  0.26701557724E+03  0.00000000000E+00 0. -1.
         -4    1    6    6    0  503  0.19029239382E+03  0.87079224307E+02  0.75716536791E+02  0.22254658028E+03  0.00000000000E+00 0.  1.
<mgrwt>
<rscale>  0 0.27785544E+04</rscale>
<asrwt>0</asrwt>
<pdfrwt beam="1">  1        2 0.23897586E+00 0.27785544E+04</pdfrwt>
<pdfrwt beam="2">  1       -1 0.19116001E+00 0.27785544E+04</pdfrwt>
<totfact> 0.20388790E+00</totfact>
</mgrwt>
</event>
<event>
12    7  0.1711607E-007  0.1585248E+04  0.7818608E-02  0.8829662E-01
         -1   -1    0    0    0  501 -0.00000000000E+00  0.00000000000E+00  0.32850813382E+03  0.32850813382E+03  0.00000000000E+00 0.  1.
          2   -1    0    0  501    0  0.00000000000E+00 -0.00000000000E+00 -0.19124417599E+04  0.19124417599E+04  0.00000000000E+00 0. -1.
         24    2    1    2    0    0  0.32000343445E+03  0.28656636822E+03 -0.98255463952E+02  0.44801458374E+03  0.80873046130E+02 0.  0.
        254    2    1    2    0    0 -0.32000343445E+03 -0.28656636822E+03 -0.14856781621E+04  0.17929353100E+04  0.90711352260E+03 0.  0.
         23    2    4    4    0    0  0.47998199951E+02 -0.28827643848E+03 -0.55179894207E+02  0.31305259166E+03  0.97723959399E+02 0.  0.
         23    2    4    4    0    0 -0.36800163440E+03  0.17100702543E+01 -0.14304982679E+04  0.14798827183E+04  0.91101252418E+02 0.  0.
          4    1    3    3  502    0  0.12431443635E+03  0.11496901415E+03 -0.79525125000E+02  0.18707270994E+03  0.00000000000E+00 0. -1.
         -3    1    3    3    0  502  0.19568899811E+03  0.17159735407E+03 -0.18730338952E+02  0.26094187380E+03  0.00000000000E+00 0.  1.
         13    1    5    5    0    0 -0.22568126672E+02 -0.19142559560E+02 -0.96080711698E+01  0.31113870855E+02  0.00000000000E+00 0. -1.
        -13    1    5    5    0    0  0.70566326622E+02 -0.26913387892E+03 -0.45571823037E+02  0.28193872081E+03  0.00000000000E+00 0.  1.
          2    1    6    6  503    0 -0.34625620696E+03  0.25102275315E+02 -0.13068315521E+04  0.13521583452E+04  0.00000000000E+00 0.  1.
         -2    1    6    6    0  503 -0.21745427446E+02 -0.23392205061E+02 -0.12366671582E+03  0.12772437307E+03  0.00000000000E+00 0. -1.
<mgrwt>
<rscale>  0 0.15852478E+04</rscale>
<asrwt>0</asrwt>
<pdfrwt beam="1">  1        2 0.29422181E+00 0.15852478E+04</pdfrwt>
<pdfrwt beam="2">  1       -1 0.50539712E-01 0.15852478E+04</pdfrwt>
<totfact> 0.32141867E+01</totfact>
</mgrwt>
</event>
<event>
12    7  0.1711607E-007  0.1461586E+04  0.7818608E-02  0.8910408E-01
         -1   -1    0    0    0  501 -0.00000000000E+00  0.00000000000E+00  0.23068096366E+03  0.23068096366E+03  0.00000000000E+00 0.  1.
          2   -1    0    0  501    0  0.00000000000E+00 -0.00000000000E+00 -0.23151378563E+04  0.23151378563E+04  0.00000000000E+00 0. -1.
         24    2    1    2    0    0 -0.31027106604E+03  0.33373586153E+03 -0.88488690606E+03  0.99848969032E+03  0.79429625934E+02 0.  0.
        254    2    1    2    0    0  0.31027106604E+03 -0.33373586153E+03 -0.11995699866E+04  0.15473291296E+04  0.86464531631E+03 0.  0.
         23    2    4    4    0    0  0.43222169637E+02  0.28179755082E+03 -0.40321203531E+03  0.50203314177E+03  0.90439562282E+02 0.  0.
         23    2    4    4    0    0  0.26704889640E+03 -0.61553341235E+03 -0.79635795127E+03  0.10452959879E+04  0.90891258601E+02 0.  0.
          4    1    3    3  502    0 -0.24577624453E+03  0.30533939794E+03 -0.74176797180E+03  0.83896235571E+03  0.00000000000E+00 0. -1.
         -3    1    3    3    0  502 -0.64494821506E+02  0.28396463593E+02 -0.14311893426E+03  0.15952733461E+03  0.00000000000E+00 0.  1.
         13    1    5    5    0    0  0.71079458686E+02  0.20594367287E+03 -0.30570664395E+03  0.37539530897E+03  0.00000000000E+00 0. -1.
        -13    1    5    5    0    0 -0.27857289048E+02  0.75853877944E+02 -0.97505391356E+02  0.12663783280E+03  0.00000000000E+00 0.  1.
          2    1    6    6  503    0  0.10299152089E+03 -0.28049092238E+03 -0.29034207817E+03  0.41663045168E+03  0.00000000000E+00 0. -1.
         -2    1    6    6    0  503  0.16405737551E+03 -0.33504248997E+03 -0.50601587310E+03  0.62866553618E+03  0.00000000000E+00 0.  1.
<mgrwt>
<rscale>  0 0.14615858E+04</rscale>
<asrwt>0</asrwt>
<pdfrwt beam="1">  1        2 0.35617505E+00 0.14615858E+04</pdfrwt>
<pdfrwt beam="2">  1       -1 0.35489379E-01 0.14615858E+04</pdfrwt>
<totfact> 0.37193961E+01</totfact>
</mgrwt>
</event>
<event>
12    7  0.1711607E-007  0.2801295E+04  0.7818608E-02  0.8302867E-01
          2   -1    0    0  501    0  0.00000000000E+00  0.00000000000E+00  0.39382020684E+04  0.39382020684E+04  0.00000000000E+00 0. -1.
         -1   -1    0    0    0  501 -0.00000000000E+00 -0.00000000000E+00 -0.49814933084E+03  0.49814933084E+03  0.00000000000E+00 0.  1.
         24    2    1    2    0    0 -0.16590264135E+03  0.12142042374E+04  0.19775781758E+04  0.23278745950E+04  0.79806465679E+02 0.  0.
        254    2    1    2    0    0  0.16590264135E+03 -0.12142042374E+04  0.14624745618E+04  0.21084768043E+04  0.89723295392E+03 0.  0.
         23    2    4    4    0    0 -0.32925013073E+03 -0.23526574204E+03  0.34106977685E+03  0.53708790594E+03  0.91538014304E+02 0.  0.
         23    2    4    4    0    0  0.49515277208E+03 -0.97893849541E+03  0.11214047849E+04  0.15713888983E+04  0.90650607312E+02 0.  0.
          4    1    3    3  502    0 -0.17442011380E+03  0.11695394580E+04  0.18975506935E+04  0.22358317366E+04  0.00000000000E+00 0. -1.
         -3    1    3    3    0  502  0.85174724506E+01  0.44664779397E+02  0.80027482307E+02  0.92042858386E+02  0.00000000000E+00 0.  1.
         13    1    5    5    0    0 -0.79004212154E+02 -0.39711685171E+02  0.32295580130E+02  0.94136538991E+02  0.00000000000E+00 0. -1.
        -13    1    5    5    0    0 -0.25024591858E+03 -0.19555405687E+03  0.30877419672E+03  0.44295136695E+03  0.00000000000E+00 0.  1.
          1    1    6    6  503    0  0.25271337391E+03 -0.55285937036E+03  0.67491152666E+03  0.90830782313E+03  0.00000000000E+00 0. -1.
         -1    1    6    6    0  503  0.24243939818E+03 -0.42607912505E+03  0.44649325826E+03  0.66308107518E+03  0.00000000000E+00 0.  1.
<mgrwt>
<rscale>  0 0.28012945E+04</rscale>
<asrwt>0</asrwt>
<pdfrwt beam="1">  1        2 0.60587722E+00 0.28012945E+04</pdfrwt>
<pdfrwt beam="2">  1       -1 0.76638361E-01 0.28012945E+04</pdfrwt>
<totfact> 0.64828732E-01</totfact>
</mgrwt>
</event>
<event>
12    7  0.1711607E-007  0.1483689E+04  0.7818608E-02  0.8895373E-01
          2   -1    0    0  501    0  0.00000000000E+00  0.00000000000E+00  0.17313631877E+04  0.17313631877E+04  0.00000000000E+00 0. -1.
         -3   -1    0    0    0  501 -0.00000000000E+00 -0.00000000000E+00 -0.31786120612E+03  0.31786120612E+03  0.00000000000E+00 0.  1.
         24    2    1    2    0    0  0.44175595826E+03  0.15488811612E+03  0.44865623081E+03  0.65273902426E+03  0.75081057388E+02 0.  0.
        254    2    1    2    0    0 -0.44175595826E+03 -0.15488811612E+03  0.96484575072E+03  0.13964853695E+04  0.89448611470E+03 0.  0.
         23    2    4    4    0    0 -0.77605900884E+02  0.24072391988E+03 -0.20655415724E+02  0.27035312041E+03  0.93238844176E+02 0.  0.
         23    2    4    4    0    0 -0.36415005737E+03 -0.39561203600E+03  0.98550116645E+03  0.11261322491E+04  0.88584118614E+02 0.  0.
          4    1    3    3  502    0  0.56694640157E+02  0.12538937034E+02  0.92674383769E+02  0.10936200698E+03  0.00000000000E+00 0. -1.
         -3    1    3    3    0  502  0.38506131810E+03  0.14234917908E+03  0.35598184704E+03  0.54337701728E+03  0.00000000000E+00 0.  1.
         13    1    5    5    0    0 -0.62109978557E+02  0.23469030058E+03  0.13469487707E+01  0.24277355889E+03  0.00000000000E+00 0. -1.
        -13    1    5    5    0    0 -0.15495922327E+02  0.60336192991E+01 -0.22002364495E+02  0.27579561526E+02  0.00000000000E+00 0.  1.
          1    1    6    6  503    0 -0.36310003171E+03 -0.37832015960E+03  0.92603266128E+03  0.10641918370E+04  0.00000000000E+00 0. -1.
         -1    1    6    6    0  503 -0.10500256628E+01 -0.17291876406E+02  0.59468505166E+02  0.61940412093E+02  0.00000000000E+00 0.  1.
<mgrwt>
<rscale>  0 0.14836889E+04</rscale>
<asrwt>0</asrwt>
<pdfrwt beam="1">  1        2 0.26636356E+00 0.14836889E+04</pdfrwt>
<pdfrwt beam="2">  1       -3 0.48901725E-01 0.14836889E+04</pdfrwt>
<totfact> 0.24277124E+01</totfact>
</mgrwt>
</event>
<event>
12    7  0.1711607E-007  0.1479776E+04  0.7818608E-02  0.8898014E-01
         -1   -1    0    0    0  501 -0.00000000000E+00  0.00000000000E+00  0.11692299010E+04  0.11692299010E+04  0.00000000000E+00 0.  1.
          2   -1    0    0  501    0  0.00000000000E+00 -0.00000000000E+00 -0.46820048085E+03  0.46820048085E+03  0.00000000000E+00 0. -1.
         24    2    1    2    0    0 -0.16972850038E+02  0.35741812122E+03 -0.91906667430E+02  0.38170618494E+03  0.96005130522E+02 0.  0.
        254    2    1    2    0    0  0.16972850038E+02 -0.35741812122E+03  0.79293608759E+03  0.12557241969E+04  0.90557154810E+03 0.  0.
         23    2    4    4    0    0 -0.23798572825E+03  0.72119405712E+01  0.75834216752E+03  0.80018602104E+03  0.92334209755E+02 0.  0.
         23    2    4    4    0    0  0.25495857829E+03 -0.36463006179E+03  0.34593920073E+02  0.45553817589E+03  0.91429381367E+02 0.  0.
          2    1    3    3  502    0  0.15735458504E+01  0.20221513563E+03 -0.99172635691E+02  0.22523021289E+03  0.00000000000E+00 0. -1.
         -1    1    3    3    0  502 -0.18546395889E+02  0.15520298558E+03  0.72659682613E+01  0.15647597205E+03  0.00000000000E+00 0.  1.
         13    1    5    5    0    0 -0.96120211253E+02  0.47136383509E+02  0.35338797815E+03  0.36924787983E+03  0.00000000000E+00 0. -1.
        -13    1    5    5    0    0 -0.14186551700E+03 -0.39924442938E+02  0.40495418937E+03  0.43093814121E+03  0.00000000000E+00 0.  1.
          2    1    6    6  503    0  0.35498623719E+02 -0.11914661952E+03 -0.11231690561E+01  0.12432751400E+03  0.00000000000E+00 0. -1.
         -2    1    6    6    0  503  0.21945995457E+03 -0.24548344227E+03  0.35717089129E+02  0.33121066188E+03  0.00000000000E+00 0.  1.
<mgrwt>
<rscale>  0 0.14797757E+04</rscale>
<asrwt>0</asrwt>
<pdfrwt beam="1">  1        2 0.72030844E-01 0.14797757E+04</pdfrwt>
<pdfrwt beam="2">  1       -1 0.17988152E+00 0.14797757E+04</pdfrwt>
<totfact> 0.15330491E+01</totfact>
</mgrwt>
</event>
<event>
12    7  0.1711607E-007  0.1341022E+04  0.7818608E-02  0.8997652E-01
         -1   -1    0    0    0  501 -0.00000000000E+00  0.00000000000E+00  0.35699769768E+03  0.35699769768E+03  0.00000000000E+00 0.  1.
          2   -1    0    0  501    0  0.00000000000E+00 -0.00000000000E+00 -0.12593500057E+04  0.12593500057E+04  0.00000000000E+00 0. -1.
         24    2    1    2    0    0 -0.15889390804E+03 -0.18724577905E+03 -0.47515378644E+03  0.54075383855E+03  0.79594832439E+02 0.  0.
        254    2    1    2    0    0  0.15889390804E+03  0.18724577905E+03 -0.42719852161E+03  0.10755938649E+04  0.95608332770E+03 0.  0.
         23    2    4    4    0    0  0.18792887996E+03 -0.33951926710E+03 -0.35832233354E+03  0.53654968605E+03  0.94340204725E+02 0.  0.
         23    2    4    4    0    0 -0.29034971925E+02  0.52676504615E+03 -0.68876188071E+02  0.53904417882E+03  0.86604006850E+02 0.  0.
          4    1    3    3  502    0 -0.10921370114E+03 -0.15058152745E+03 -0.28077549032E+03  0.33680454999E+03  0.00000000000E+00 0. -1.
         -3    1    3    3    0  502 -0.49680206896E+02 -0.36664251602E+02 -0.19437829612E+03  0.20394928856E+03  0.00000000000E+00 0.  1.
         13    1    5    5    0    0  0.19691826655E+03 -0.33081094569E+03 -0.33613962054E+03  0.51107976871E+03  0.00000000000E+00 0.  1.
        -13    1    5    5    0    0 -0.89893865918E+01 -0.87083214144E+01 -0.22182712995E+02  0.25469917334E+02  0.00000000000E+00 0. -1.
          4    1    6    6  503    0  0.14613203647E+02  0.56770469503E+02  0.12827418498E+02  0.60008121065E+02  0.00000000000E+00 0. -1.
         -4    1    6    6    0  503 -0.43648175572E+02  0.46999457665E+03 -0.81703606569E+02  0.47903605776E+03  0.00000000000E+00 0.  1.
<mgrwt>
<rscale>  0 0.13410221E+04</rscale>
<asrwt>0</asrwt>
<pdfrwt beam="1">  1        2 0.19374615E+00 0.13410221E+04</pdfrwt>
<pdfrwt beam="2">  1       -1 0.54922723E-01 0.13410221E+04</pdfrwt>
<totfact> 0.65184392E+01</totfact>
</mgrwt>
</event>
<event>
12    7  0.1711607E-007  0.1762839E+04  0.7818608E-02  0.8726315E-01
          2   -1    0    0  501    0  0.00000000000E+00  0.00000000000E+00  0.13245639020E+04  0.13245639020E+04  0.00000000000E+00 0. -1.
         -1   -1    0    0    0  501 -0.00000000000E+00 -0.00000000000E+00 -0.58653265704E+03  0.58653265704E+03  0.00000000000E+00 0.  1.
         24    2    1    2    0    0  0.73575468189E+02 -0.62709052220E+03  0.15376958155E+03  0.65466005693E+03  0.79239089938E+02 0.  0.
        254    2    1    2    0    0 -0.73575468189E+02  0.62709052220E+03  0.58426166342E+03  0.12564365021E+04  0.91575931333E+03 0.  0.
         23    2    4    4    0    0 -0.23456167216E+03  0.26994745955E+03 -0.16621659014E+03  0.40515437501E+03  0.92904810364E+02 0.  0.
         23    2    4    4    0    0  0.16098620397E+03  0.35714306266E+03  0.75047825356E+03  0.85128212711E+03  0.89419940705E+02 0.  0.
          2    1    3    3  502    0  0.16552357040E+02 -0.68837156589E+02 -0.64086252425E+01  0.71088713087E+02  0.00000000000E+00 0. -1.
         -1    1    3    3    0  502  0.57023111150E+02 -0.55825336561E+03  0.16017820679E+03  0.58357134384E+03  0.00000000000E+00 0.  1.
         13    1    5    5    0    0 -0.15654812142E+03  0.23791450397E+03 -0.13562027365E+03  0.31544172861E+03  0.00000000000E+00 0. -1.
        -13    1    5    5    0    0 -0.78013550738E+02  0.32032955572E+02 -0.30596316486E+02  0.89712646399E+02  0.00000000000E+00 0.  1.
          1    1    6    6  503    0  0.54969864809E+01  0.76960044178E+02  0.19949086951E+03  0.21389173027E+03  0.00000000000E+00 0. -1.
         -1    1    6    6    0  503  0.15548921749E+03  0.28018301848E+03  0.55098738405E+03  0.63739039684E+03  0.00000000000E+00 0.  1.
<mgrwt>
<rscale>  0 0.17628386E+04</rscale>
<asrwt>0</asrwt>
<pdfrwt beam="1">  1        2 0.20377906E+00 0.17628386E+04</pdfrwt>
<pdfrwt beam="2">  1       -1 0.90235794E-01 0.17628386E+04</pdfrwt>
<totfact> 0.20735830E+01</totfact>
</mgrwt>
</event>
<event>
12    7  0.1711607E-007  0.1127683E+04  0.7818608E-02  0.9178622E-01
          2   -1    0    0  501    0  0.00000000000E+00  0.00000000000E+00  0.88261546773E+03  0.88261546773E+03  0.00000000000E+00 0. -1.
         -1   -1    0    0    0  501 -0.00000000000E+00 -0.00000000000E+00 -0.36019913606E+03  0.36019913606E+03  0.00000000000E+00 0.  1.
         24    2    1    2    0    0  0.47095988516E+02  0.17227469583E+03  0.58696507868E+02  0.20436402760E+03  0.80142203505E+02 0.  0.
        254    2    1    2    0    0 -0.47095988516E+02 -0.17227469583E+03  0.46371982380E+03  0.10384505762E+04  0.91183711334E+03 0.  0.
         23    2    4    4    0    0  0.30573648249E+03  0.53004385106E+02  0.51297506769E+03  0.60689795668E+03  0.94326285811E+02 0.  0.
         23    2    4    4    0    0 -0.35283247100E+03 -0.22527908093E+03 -0.49255243886E+02  0.43155261952E+03  0.92575198953E+02 0.  0.
          2    1    3    3  502    0  0.35021961093E+02  0.17373446265E+03  0.67181094645E+02  0.18953495918E+03  0.00000000000E+00 0. -1.
         -1    1    3    3    0  502  0.12074027423E+02 -0.14597668263E+01 -0.84845867776E+01  0.14829068419E+02  0.00000000000E+00 0.  1.
         13    1    5    5    0    0  0.40449881692E+02  0.42532916602E+02  0.99570888347E+02  0.11558375201E+03  0.00000000000E+00 0. -1.
        -13    1    5    5    0    0  0.26528660080E+03  0.10471468503E+02  0.41340417934E+03  0.49131420467E+03  0.00000000000E+00 0.  1.
          3    1    6    6  503    0 -0.69994369647E+00  0.41090903325E+01 -0.83207077948E+01  0.93063807544E+01  0.00000000000E+00 0. -1.
         -3    1    6    6    0  503 -0.35213252731E+03 -0.22938817126E+03 -0.40934536091E+02  0.42224623876E+03  0.00000000000E+00 0.  1.
<mgrwt>
<rscale>  0 0.11276832E+04</rscale>
<asrwt>0</asrwt>
<pdfrwt beam="1">  1        2 0.13578699E+00 0.11276832E+04</pdfrwt>
<pdfrwt beam="2">  1       -1 0.55415252E-01 0.11276832E+04</pdfrwt>
<totfact> 0.11220517E+02</totfact>
</mgrwt>
</event>
<event>
12    7  0.1711607E-007  0.2034029E+04  0.7818608E-02  0.8590874E-01
         -1   -1    0    0    0  501 -0.00000000000E+00  0.00000000000E+00  0.67916939316E+03  0.67916939316E+03  0.00000000000E+00 0.  1.
          2   -1    0    0  501    0  0.00000000000E+00 -0.00000000000E+00 -0.15229174607E+04  0.15229174607E+04  0.00000000000E+00 0. -1.
         24    2    1    2    0    0  0.33410835652E+03 -0.35517736425E+03  0.37442947051E+03  0.61990941809E+03  0.79441200094E+02 0.  0.
        254    2    1    2    0    0 -0.33410835652E+03  0.35517736425E+03 -0.12181775381E+04  0.15821774358E+04  0.88405292268E+03 0.  0.
         23    2    4    4    0    0 -0.54965232614E+03  0.29684389441E+03 -0.44460611160E+03  0.77155555073E+03  0.85961596718E+02 0.  0.
         23    2    4    4    0    0  0.21554396962E+03  0.58333469838E+02 -0.77357142648E+03  0.81062188507E+03  0.93984531429E+02 0.  0.
          2    1    3    3  502    0  0.37775947616E+02 -0.22920602374E+02  0.61507190385E+02  0.75733154566E+02  0.00000000000E+00 0. -1.
         -1    1    3    3    0  502  0.29633240891E+03 -0.33225676187E+03  0.31292228012E+03  0.54417626352E+03  0.00000000000E+00 0.  1.
         13    1    5    5    0    0 -0.23271995063E+03  0.13427135821E+03 -0.24298128369E+03  0.36225305696E+03  0.00000000000E+00 0.  1.
        -13    1    5    5    0    0 -0.31693237551E+03  0.16257253620E+03 -0.20162482791E+03  0.40930249377E+03  0.00000000000E+00 0. -1.
          1    1    6    6  503    0  0.13668036588E+03  0.39091579538E+02 -0.62855479252E+03  0.64443060232E+03  0.00000000000E+00 0. -1.
         -1    1    6    6    0  503  0.78863603741E+02  0.19241890300E+02 -0.14501663396E+03  0.16619128275E+03  0.00000000000E+00 0.  1.
<mgrwt>
<rscale>  0 0.20340294E+04</rscale>
<asrwt>0</asrwt>
<pdfrwt beam="1">  1        2 0.23429500E+00 0.20340294E+04</pdfrwt>
<pdfrwt beam="2">  1       -1 0.10448760E+00 0.20340294E+04</pdfrwt>
<totfact> 0.11199805E+01</totfact>
</mgrwt>
</event>
<event>
12    7  0.1711607E-007  0.1407353E+04  0.7818608E-02  0.8948513E-01
          2   -1    0    0  501    0  0.00000000000E+00  0.00000000000E+00  0.14483630265E+04  0.14483630265E+04  0.00000000000E+00 0. -1.
         -3   -1    0    0    0  501 -0.00000000000E+00 -0.00000000000E+00 -0.34187621990E+03  0.34187621990E+03  0.00000000000E+00 0.  1.
         24    2    1    2    0    0 -0.36676172996E+03 -0.11320780131E+03  0.53171675037E+03  0.66060446399E+03  0.79657908429E+02 0.  0.
        254    2    1    2    0    0  0.36676172996E+03  0.11320780131E+03  0.57477005619E+03  0.11296347824E+04  0.89352333558E+03 0.  0.
         23    2    4    4    0    0  0.53617902704E+02  0.45258069317E+03  0.44028393176E+03  0.64026550575E+03  0.91574089993E+02 0.  0.
         23    2    4    4    0    0  0.31314382725E+03 -0.33937289187E+03  0.13448612443E+03  0.48936927663E+03  0.90347966010E+02 0.  0.
          4    1    3    3  502    0 -0.27820424478E+03 -0.87428374186E+02  0.45599546514E+03  0.54126997576E+03  0.00000000000E+00 0. -1.
         -3    1    3    3    0  502 -0.88557485182E+02 -0.25779427124E+02  0.75721285225E+02  0.11933448823E+03  0.00000000000E+00 0.  1.
         13    1    5    5    0    0  0.56520119332E+02  0.41556071597E+03  0.36357921281E+03  0.55504511216E+03  0.00000000000E+00 0. -1.
        -13    1    5    5    0    0 -0.29022166283E+01  0.37019977209E+02  0.76704718956E+02  0.85220393592E+02  0.00000000000E+00 0.  1.
          1    1    6    6  503    0  0.27446006223E+03 -0.31751804518E+03  0.14440421197E+03  0.44384525593E+03  0.00000000000E+00 0. -1.
         -1    1    6    6    0  503  0.38683765019E+02 -0.21854846689E+02 -0.99180875481E+01  0.45524020697E+02  0.00000000000E+00 0.  1.
<mgrwt>
<rscale>  0 0.14073534E+04</rscale>
<asrwt>0</asrwt>
<pdfrwt beam="1">  1        2 0.22282508E+00 0.14073534E+04</pdfrwt>
<pdfrwt beam="2">  1       -3 0.52596342E-01 0.14073534E+04</pdfrwt>
<totfact> 0.30215196E+01</totfact>
</mgrwt>
</event>
<event>
12    7  0.1711607E-007  0.1428249E+04  0.7818608E-02  0.8933620E-01
          2   -1    0    0  501    0  0.00000000000E+00  0.00000000000E+00  0.23860340331E+04  0.23860340331E+04  0.00000000000E+00 0. -1.
         -1   -1    0    0    0  501 -0.00000000000E+00 -0.00000000000E+00 -0.21373294399E+03  0.21373294399E+03  0.00000000000E+00 0.  1.
         24    2    1    2    0    0  0.10903274535E+03 -0.24898132450E+03  0.70534064009E+02  0.29167613993E+03  0.78867464206E+02 0.  0.
        254    2    1    2    0    0 -0.10903274535E+03  0.24898132450E+03  0.21017670251E+04  0.23080908372E+04  0.91431878757E+03 0.  0.
         23    2    4    4    0    0 -0.29548643464E+03  0.22937777319E+03  0.28595894575E+03  0.48042643129E+03  0.95449679603E+02 0.  0.
         23    2    4    4    0    0  0.18645368928E+03  0.19603551305E+02  0.18158080794E+04  0.18276644059E+04  0.89715784450E+02 0.  0.
          2    1    3    3  502    0  0.38437165479E+02 -0.12876059469E+03  0.71591133495E+02  0.15225635235E+03  0.00000000000E+00 0. -1.
         -1    1    3    3    0  502  0.70595579876E+02 -0.12022072981E+03 -0.10570694869E+01  0.13941978758E+03  0.00000000000E+00 0.  1.
         13    1    5    5    0    0 -0.24593843864E+03  0.13923401235E+03  0.19786978061E+03  0.34499895054E+03  0.00000000000E+00 0. -1.
        -13    1    5    5    0    0 -0.49547995997E+02  0.90143760846E+02  0.88089165131E+02  0.13542748074E+03  0.00000000000E+00 0.  1.
          3    1    6    6  503    0  0.76507519789E+02  0.50026149298E+02  0.94631078699E+03  0.95071558406E+03  0.00000000000E+00 0. -1.
         -3    1    6    6    0  503  0.10994616950E+03 -0.30422597993E+02  0.86949729241E+03  0.87694882186E+03  0.00000000000E+00 0.  1.
<mgrwt>
<rscale>  0 0.14282494E+04</rscale>
<asrwt>0</asrwt>
<pdfrwt beam="1">  1        2 0.36708214E+00 0.14282494E+04</pdfrwt>
<pdfrwt beam="2">  1       -1 0.32881993E-01 0.14282494E+04</pdfrwt>
<totfact> 0.38964424E+01</totfact>
</mgrwt>
</event>
<event>
12    7  0.1711607E-007  0.2872958E+04  0.7818608E-02  0.8280969E-01
         -1   -1    0    0    0  501 -0.00000000000E+00  0.00000000000E+00  0.90444973614E+03  0.90444973614E+03  0.00000000000E+00 0.  1.
          2   -1    0    0  501    0  0.00000000000E+00 -0.00000000000E+00 -0.22814663315E+04  0.22814663315E+04  0.00000000000E+00 0. -1.
         24    2    1    2    0    0  0.54032256294E+03  0.80347620114E+03 -0.15963889254E+04  0.18688091248E+04  0.80420556686E+02 0.  0.
        254    2    1    2    0    0 -0.54032256294E+03 -0.80347620114E+03  0.21937233009E+03  0.13171069428E+04  0.86551949821E+03 0.  0.
         23    2    4    4    0    0 -0.18128177276E+03 -0.34551220796E+03 -0.32386897735E+03  0.51607377861E+03  0.95912791120E+02 0.  0.
         23    2    4    4    0    0 -0.35904079018E+03 -0.45796399318E+03  0.54324130743E+03  0.80103316420E+03  0.88891529303E+02 0.  0.
          2    1    3    3  502    0  0.35574917631E+03  0.47891231289E+03 -0.10339260062E+04  0.11936990685E+04  0.00000000000E+00 0. -1.
         -1    1    3    3    0  502  0.18457338663E+03  0.32456388825E+03 -0.56246291927E+03  0.67511005633E+03  0.00000000000E+00 0.  1.
         13    1    5    5    0    0 -0.12342088474E+03 -0.28709853498E+03 -0.21360569467E+03  0.37853094507E+03  0.00000000000E+00 0. -1.
        -13    1    5    5    0    0 -0.57860888015E+02 -0.58413672979E+02 -0.11026328268E+03  0.13754283354E+03  0.00000000000E+00 0.  1.
          1    1    6    6  503    0 -0.18454256481E+03 -0.30518280142E+03  0.33665100827E+03  0.49043491095E+03  0.00000000000E+00 0.  1.
         -1    1    6    6    0  503 -0.17449822537E+03 -0.15278119176E+03  0.20659029917E+03  0.31059825325E+03  0.00000000000E+00 0. -1.
<mgrwt>
<rscale>  0 0.28729578E+04</rscale>
<asrwt>0</asrwt>
<pdfrwt beam="1">  1        2 0.35099482E+00 0.28729578E+04</pdfrwt>
<pdfrwt beam="2">  1       -1 0.13914611E+00 0.28729578E+04</pdfrwt>
<totfact> 0.19454560E+00</totfact>
</mgrwt>
</event>
<event>
12    7  0.1711607E-007  0.1285142E+04  0.7818608E-02  0.9041431E-01
         -1   -1    0    0    0  501 -0.00000000000E+00  0.00000000000E+00  0.44180366030E+03  0.44180366030E+03  0.00000000000E+00 0.  1.
          2   -1    0    0  501    0  0.00000000000E+00 -0.00000000000E+00 -0.93457211998E+03  0.93457211998E+03  0.00000000000E+00 0. -1.
         24    2    1    2    0    0  0.28356371383E+03 -0.15693022116E+03 -0.16965171241E+03  0.37463376606E+03  0.80828714196E+02 0.  0.
        254    2    1    2    0    0 -0.28356371383E+03  0.15693022116E+03 -0.32311674727E+03  0.10017420142E+04  0.89109323674E+03 0.  0.
         23    2    4    4    0    0 -0.58220667546E+03  0.15044023303E+03 -0.32463977327E+03  0.68955668002E+03  0.92198459340E+02 0.  0.
         23    2    4    4    0    0  0.29864296163E+03  0.64899881319E+01  0.15230260007E+01  0.31218533420E+03  0.90706255583E+02 0.  0.
          4    1    3    3  502    0  0.15344606943E+03 -0.90039963246E+02 -0.47773041681E+02  0.18421496876E+03  0.00000000000E+00 0. -1.
         -3    1    3    3    0  502  0.13011764440E+03 -0.66890257914E+02 -0.12187867073E+03  0.19041879730E+03  0.00000000000E+00 0.  1.
         13    1    5    5    0    0 -0.41740783768E+03  0.14679180213E+03 -0.25428468934E+03  0.51033110758E+03  0.00000000000E+00 0.  1.
        -13    1    5    5    0    0 -0.16479883778E+03  0.36484308988E+01 -0.70355083932E+02  0.17922557244E+03  0.00000000000E+00 0. -1.
          3    1    6    6  503    0  0.29237415061E+01  0.14391012309E+02 -0.69339159515E+01  0.16239725678E+02  0.00000000000E+00 0. -1.
         -3    1    6    6    0  503  0.29571922013E+03 -0.79010241775E+01  0.84569419522E+01  0.29594560852E+03  0.00000000000E+00 0.  1.
<mgrwt>
<rscale>  0 0.12851418E+04</rscale>
<asrwt>0</asrwt>
<pdfrwt beam="1">  1        2 0.14378033E+00 0.12851418E+04</pdfrwt>
<pdfrwt beam="2">  1       -1 0.67969794E-01 0.12851418E+04</pdfrwt>
<totfact> 0.68213559E+01</totfact>
</mgrwt>
</event>
<event>
12    7  0.1711607E-007  0.2443527E+04  0.7818608E-02  0.8423385E-01
          2   -1    0    0  501    0  0.00000000000E+00  0.00000000000E+00  0.70114096841E+03  0.70114096841E+03  0.00000000000E+00 0. -1.
         -1   -1    0    0    0  501 -0.00000000000E+00 -0.00000000000E+00 -0.21289672520E+04  0.21289672520E+04  0.00000000000E+00 0.  1.
         24    2    1    2    0    0 -0.44527896417E+03 -0.94979049469E+03 -0.65370416667E+03  0.12385561473E+04  0.79478631463E+02 0.  0.
        254    2    1    2    0    0  0.44527896417E+03  0.94979049469E+03 -0.77412211695E+03  0.15915520731E+04  0.91290613409E+03 0.  0.
         23    2    4    4    0    0  0.34467486159E+03 -0.22480269881E+01  0.15088945897E+01  0.35650946845E+03  0.91054437001E+02 0.  0.
         23    2    4    4    0    0  0.10060410258E+03  0.95203852168E+03 -0.77563101153E+03  0.12350426046E+04  0.85019038976E+02 0.  0.
          2    1    3    3  502    0 -0.42399178316E+03 -0.85756654504E+03 -0.60735671678E+03  0.11331688280E+04  0.00000000000E+00 0. -1.
         -3    1    3    3    0  502 -0.21287181018E+02 -0.92223949658E+02 -0.46347449895E+02  0.10538731934E+03  0.00000000000E+00 0.  1.
         13    1    5    5    0    0  0.35020490223E+03 -0.41309114215E+01 -0.79394093943E+00  0.35023016477E+03  0.00000000000E+00 0.  1.
        -13    1    5    5    0    0 -0.55300406391E+01  0.18828844334E+01  0.23028355291E+01  0.62793036822E+01  0.00000000000E+00 0. -1.
          1    1    6    6  503    0  0.23189861942E+02  0.41537686735E+03 -0.38429582402E+03  0.56635588810E+03  0.00000000000E+00 0. -1.
         -1    1    6    6    0  503  0.77414240643E+02  0.53666165433E+03 -0.39133518752E+03  0.66868671654E+03  0.00000000000E+00 0.  1.
<mgrwt>
<rscale>  0 0.24435271E+04</rscale>
<asrwt>0</asrwt>
<pdfrwt beam="1">  1        2 0.10786784E+00 0.24435271E+04</pdfrwt>
<pdfrwt beam="2">  1       -1 0.32753342E+00 0.24435271E+04</pdfrwt>
<totfact> 0.91355684E-01</totfact>
</mgrwt>
</event>
<event>
12    7  0.1711607E-007  0.9968840E+03  0.7818608E-02  0.9311969E-01
         -1   -1    0    0    0  501 -0.00000000000E+00  0.00000000000E+00  0.21588413084E+03  0.21588413084E+03  0.00000000000E+00 0.  1.
          2   -1    0    0  501    0  0.00000000000E+00 -0.00000000000E+00 -0.11508230988E+04  0.11508230988E+04  0.00000000000E+00 0. -1.
         24    2    1    2    0    0 -0.93542957296E+01  0.34295456339E+02 -0.13112723586E+02  0.88267289121E+02  0.79721324844E+02 0.  0.
        254    2    1    2    0    0  0.93542957296E+01 -0.34295456339E+02 -0.92182624442E+03  0.12784399406E+04  0.88508834337E+03 0.  0.
         23    2    4    4    0    0 -0.13147798082E+03  0.24464429147E+03  0.87799704592E+01  0.29256777158E+03  0.91550665189E+02 0.  0.
         23    2    4    4    0    0  0.14083227655E+03 -0.27893974781E+03 -0.93060621488E+03  0.98587216898E+03  0.90966440973E+02 0.  0.
          4    1    3    3  502    0 -0.29733584383E+02  0.42008734198E+02 -0.30994733415E+02  0.60079058653E+02  0.00000000000E+00 0. -1.
         -3    1    3    3    0  502  0.20379288653E+02 -0.77132778598E+01  0.17882009829E+02  0.28188230468E+02  0.00000000000E+00 0.  1.
         13    1    5    5    0    0 -0.47465664741E+02  0.11444197763E+03 -0.39876680204E+02  0.13015415936E+03  0.00000000000E+00 0. -1.
        -13    1    5    5    0    0 -0.84012316083E+02  0.13020231384E+03  0.48656650663E+02  0.16241361223E+03  0.00000000000E+00 0.  1.
          1    1    6    6  503    0  0.11560289369E+03 -0.24851632235E+03 -0.69715872872E+03  0.74910258612E+03  0.00000000000E+00 0. -1.
         -1    1    6    6    0  503  0.25229382863E+02 -0.30423425464E+02 -0.23344748616E+03  0.23676958286E+03  0.00000000000E+00 0.  1.
<mgrwt>
<rscale>  0 0.99688403E+03</rscale>
<asrwt>0</asrwt>
<pdfrwt beam="1">  1        2 0.17704971E+00 0.99688403E+03</pdfrwt>
<pdfrwt beam="2">  1       -1 0.33212943E-01 0.99688403E+03</pdfrwt>
<totfact> 0.19642758E+02</totfact>
</mgrwt>
</event>
<event>
12    7  0.1711607E-007  0.1630711E+04  0.7818608E-02  0.8801900E-01
         -1   -1    0    0    0  501 -0.00000000000E+00  0.00000000000E+00  0.35749948296E+03  0.35749948296E+03  0.00000000000E+00 0.  1.
          2   -1    0    0  501    0  0.00000000000E+00 -0.00000000000E+00 -0.18595955576E+04  0.18595955576E+04  0.00000000000E+00 0. -1.
         24    2    1    2    0    0 -0.36786622476E+03  0.18654796621E+03 -0.85284667371E+01  0.42138842320E+03  0.85847338053E+02 0.  0.
        254    2    1    2    0    0  0.36786622476E+03 -0.18654796621E+03 -0.14935676079E+04  0.17957066173E+04  0.90757498492E+03 0.  0.
         23    2    4    4    0    0  0.31431226243E+03 -0.51823966246E+03 -0.11707845435E+04  0.13214417332E+04  0.90040329494E+02 0.  0.
         23    2    4    4    0    0  0.53553962322E+02  0.33169169625E+03 -0.32278306441E+03  0.47426488415E+03  0.88605109466E+02 0.  0.
          4    1    3    3  502    0 -0.16936308029E+02  0.47651119134E+01  0.18142076075E+02  0.25272113990E+02  0.00000000000E+00 0. -1.
         -3    1    3    3    0  502 -0.35092991673E+03  0.18178285429E+03 -0.26670542812E+02  0.39611630921E+03  0.00000000000E+00 0.  1.
         13    1    5    5    0    0  0.10011069644E+03 -0.24854426454E+03 -0.48872478165E+03  0.55735833642E+03  0.00000000000E+00 0.  1.
        -13    1    5    5    0    0  0.21420156599E+03 -0.26969539792E+03 -0.68205976182E+03  0.76408339678E+03  0.00000000000E+00 0. -1.
          1    1    6    6  503    0  0.38687635343E+01  0.21519104224E+03 -0.16088517501E+03  0.26871209785E+03  0.00000000000E+00 0. -1.
         -1    1    6    6    0  503  0.49685198788E+02  0.11650065401E+03 -0.16189788940E+03  0.20555278630E+03  0.00000000000E+00 0.  1.
<mgrwt>
<rscale>  0 0.16307108E+04</rscale>
<asrwt>0</asrwt>
<pdfrwt beam="1">  1        2 0.28609162E+00 0.16307108E+04</pdfrwt>
<pdfrwt beam="2">  1       -1 0.54999922E-01 0.16307108E+04</pdfrwt>
<totfact> 0.29113042E+01</totfact>
</mgrwt>
</event>
<event>
12    7  0.1711607E-007  0.2076260E+04  0.7818608E-02  0.8571774E-01
         -1   -1    0    0    0  501 -0.00000000000E+00  0.00000000000E+00  0.88346084223E+03  0.88346084223E+03  0.00000000000E+00 0.  1.
          2   -1    0    0  501    0  0.00000000000E+00 -0.00000000000E+00 -0.12198776728E+04  0.12198776728E+04  0.00000000000E+00 0. -1.
         24    2    1    2    0    0  0.37268845107E+03 -0.16645305748E+02  0.62658756280E+03  0.73369351135E+03  0.80749284649E+02 0.  0.
        254    2    1    2    0    0 -0.37268845107E+03  0.16645305748E+02 -0.96300439333E+03  0.13696450036E+04  0.89965339251E+03 0.  0.
         23    2    4    4    0    0  0.13141912330E+03  0.30553085149E+03 -0.55128776356E+03  0.65043420362E+03  0.92338333368E+02 0.  0.
         23    2    4    4    0    0 -0.50410757437E+03 -0.28888554575E+03 -0.41171662978E+03  0.71921080002E+03  0.10086766848E+03 0.  0.
          4    1    3    3  502    0  0.23409018052E+03  0.22181310073E+02  0.42935458981E+03  0.48952587973E+03  0.00000000000E+00 0. -1.
         -3    1    3    3    0  502  0.13859827055E+03 -0.38826615820E+02  0.19723297299E+03  0.24416763162E+03  0.00000000000E+00 0.  1.
         13    1    5    5    0    0 -0.94284198313E+01  0.37382122683E+01 -0.31606889240E+02  0.33194348599E+02  0.00000000000E+00 0. -1.
        -13    1    5    5    0    0  0.14084754313E+03  0.30179263923E+03 -0.51968087432E+03  0.61723985502E+03  0.00000000000E+00 0.  1.
          3    1    6    6  503    0 -0.54144574346E+02 -0.10138593470E+02 -0.13176963698E+02  0.56639724407E+02  0.00000000000E+00 0. -1.
         -3    1    6    6    0  503 -0.44996300003E+03 -0.27874695228E+03 -0.39853966608E+03  0.66257107561E+03  0.00000000000E+00 0.  1.
<mgrwt>
<rscale>  0 0.20762602E+04</rscale>
<asrwt>0</asrwt>
<pdfrwt beam="1">  1        2 0.18767349E+00 0.20762602E+04</pdfrwt>
<pdfrwt beam="2">  1       -1 0.13591705E+00 0.20762602E+04</pdfrwt>
<totfact> 0.87831704E+00</totfact>
</mgrwt>
</event>
<event>
12    7  0.1711607E-007  0.1900315E+04  0.7818608E-02  0.8654700E-01
          2   -1    0    0  501    0  0.00000000000E+00  0.00000000000E+00  0.11853954823E+04  0.11853954823E+04  0.00000000000E+00 0. -1.
         -1   -1    0    0    0  501 -0.00000000000E+00 -0.00000000000E+00 -0.76160157638E+03  0.76160157638E+03  0.00000000000E+00 0.  1.
         24    2    1    2    0    0 -0.75449610301E+02  0.59056521781E+03  0.60332050632E+03  0.85230335330E+03  0.89249383898E+02 0.  0.
        254    2    1    2    0    0  0.75449610301E+02 -0.59056521781E+03 -0.17952660043E+03  0.10946937054E+04  0.90092429655E+03 0.  0.
         23    2    4    4    0    0 -0.34971561148E+01 -0.22403729800E+03 -0.52439214946E+03  0.57710175450E+03  0.88624870317E+02 0.  0.
         23    2    4    4    0    0  0.78946766415E+02 -0.36652791981E+03  0.34486554903E+03  0.51759195085E+03  0.91618080929E+02 0.  0.
          2    1    3    3  502    0 -0.85694748371E+02  0.53388297548E+03  0.51410486734E+03  0.74610886339E+03  0.00000000000E+00 0. -1.
         -1    1    3    3    0  502  0.10245138071E+02  0.56682242325E+02  0.89215638975E+02  0.10619448991E+03  0.00000000000E+00 0.  1.
         13    1    5    5    0    0 -0.25704559334E+02 -0.19722327660E+03 -0.38392617857E+03  0.43238530942E+03  0.00000000000E+00 0. -1.
        -13    1    5    5    0    0  0.22207403220E+02 -0.26814021393E+02 -0.14046597089E+03  0.14471644508E+03  0.00000000000E+00 0.  1.
          4    1    6    6  503    0  0.77754992005E+02 -0.33575840387E+03  0.34376585641E+03  0.48677973313E+03  0.00000000000E+00 0. -1.
         -4    1    6    6    0  503  0.11917744103E+01 -0.30769515935E+02  0.10996926206E+01  0.30812217723E+02  0.00000000000E+00 0.  1.
<mgrwt>
<rscale>  0 0.19003148E+04</rscale>
<asrwt>0</asrwt>
<pdfrwt beam="1">  1        2 0.18236854E+00 0.19003148E+04</pdfrwt>
<pdfrwt beam="2">  1       -1 0.11716947E+00 0.19003148E+04</pdfrwt>
<totfact> 0.13543961E+01</totfact>
</mgrwt>
</event>
<event>
12    7  0.1711607E-007  0.1707708E+04  0.7818608E-02  0.8756980E-01
          2   -1    0    0  501    0  0.00000000000E+00  0.00000000000E+00  0.47684708230E+03  0.47684708230E+03  0.00000000000E+00 0. -1.
         -1   -1    0    0    0  501 -0.00000000000E+00 -0.00000000000E+00 -0.15289319231E+04  0.15289319231E+04  0.00000000000E+00 0.  1.
         24    2    1    2    0    0  0.28798729157E+03  0.52165101718E+03 -0.55019901314E+03  0.81483472340E+03  0.78614302570E+02 0.  0.
        254    2    1    2    0    0 -0.28798729157E+03 -0.52165101718E+03 -0.50188582764E+03  0.11909442820E+04  0.90077879358E+03 0.  0.
         23    2    4    4    0    0 -0.18885222126E+03 -0.28431722133E+03 -0.74589346303E+03  0.82482569023E+03  0.86480733358E+02 0.  0.
         23    2    4    4    0    0 -0.99135070308E+02 -0.23733379585E+03  0.24400763539E+03  0.36611859176E+03  0.91367413693E+02 0.  0.
          4    1    3    3  502    0  0.27732075178E+02  0.11338089555E+03 -0.11391198996E+03  0.16309579064E+03  0.00000000000E+00 0. -1.
         -3    1    3    3    0  502  0.26025521639E+03  0.40827012163E+03 -0.43628702318E+03  0.65173893276E+03  0.00000000000E+00 0.  1.
         13    1    5    5    0    0 -0.75078017349E+02 -0.18670800209E+03 -0.45733302494E+03  0.49964995991E+03  0.00000000000E+00 0.  1.
        -13    1    5    5    0    0 -0.11377420392E+03 -0.97609219239E+02 -0.28856043809E+03  0.32517573031E+03  0.00000000000E+00 0. -1.
          3    1    6    6  503    0 -0.42922658527E+01 -0.12486438523E+03  0.12687300314E+03  0.17806262149E+03  0.00000000000E+00 0. -1.
         -3    1    6    6    0  503 -0.94842804455E+02 -0.11246941061E+03  0.11713463225E+03  0.18805597027E+03  0.00000000000E+00 0.  1.
<mgrwt>
<rscale>  0 0.17077081E+04</rscale>
<asrwt>0</asrwt>
<pdfrwt beam="1">  1        2 0.73361088E-01 0.17077081E+04</pdfrwt>
<pdfrwt beam="2">  1       -1 0.23522030E+00 0.17077081E+04</pdfrwt>
<totfact> 0.61653165E+00</totfact>
</mgrwt>
</event>
<event>
12    7  0.1711607E-007  0.1540794E+04  0.7818608E-02  0.8857770E-01
          2   -1    0    0  501    0  0.00000000000E+00  0.00000000000E+00  0.83331243390E+03  0.83331243390E+03  0.00000000000E+00 0. -1.
         -1   -1    0    0    0  501 -0.00000000000E+00 -0.00000000000E+00 -0.71223143968E+03  0.71223143968E+03  0.00000000000E+00 0.  1.
         24    2    1    2    0    0 -0.39375507856E+03 -0.17136490298E+02 -0.27630794780E+03  0.48794106962E+03  0.80023023030E+02 0.  0.
        254    2    1    2    0    0  0.39375507856E+03  0.17136490298E+02  0.39738894202E+03  0.10576028040E+04  0.89736781674E+03 0.  0.
         23    2    4    4    0    0 -0.52126814787E+02 -0.12312438663E+03  0.53714962057E+03  0.56110197282E+03  0.91808984423E+02 0.  0.
         23    2    4    4    0    0  0.44588189334E+03  0.14026087693E+03 -0.13976067855E+03  0.49650083114E+03  0.92175114025E+02 0.  0.
          2    1    3    3  502    0 -0.10429967838E+03  0.49813207099E+01 -0.34028386285E+02  0.10982334696E+03  0.00000000000E+00 0. -1.
         -1    1    3    3    0  502 -0.28945540018E+03 -0.22117811008E+02 -0.24227956152E+03  0.37811772266E+03  0.00000000000E+00 0.  1.
         13    1    5    5    0    0  0.37838962331E+01 -0.62330997676E+02  0.11415027477E+03  0.13011439725E+03  0.00000000000E+00 0.  1.
        -13    1    5    5    0    0 -0.55910711020E+02 -0.60793388956E+02  0.42299934580E+03  0.43098757557E+03  0.00000000000E+00 0. -1.
          3    1    6    6  503    0  0.13486082347E+03 -0.83178577296E+00 -0.36936502407E+02  0.13983003534E+03  0.00000000000E+00 0. -1.
         -3    1    6    6    0  503  0.31102106988E+03  0.14109266270E+03 -0.10282417615E+03  0.35667079580E+03  0.00000000000E+00 0.  1.
<mgrwt>
<rscale>  0 0.15407937E+04</rscale>
<asrwt>0</asrwt>
<pdfrwt beam="1">  1        2 0.12820191E+00 0.15407937E+04</pdfrwt>
<pdfrwt beam="2">  1       -1 0.10957407E+00 0.15407937E+04</pdfrwt>
<totfact> 0.27624791E+01</totfact>
</mgrwt>
</event>
<event>
12    7  0.1711607E-007  0.2531683E+04  0.7818608E-02  0.8391784E-01
          4   -1    0    0  501    0  0.00000000000E+00  0.00000000000E+00  0.10706826542E+04  0.10706826542E+04  0.00000000000E+00 0. -1.
         -3   -1    0    0    0  501 -0.00000000000E+00 -0.00000000000E+00 -0.14965734557E+04  0.14965734557E+04  0.00000000000E+00 0.  1.
         24    2    1    2    0    0 -0.38319772712E+02 -0.10011411739E+04 -0.66072306283E+03  0.12027476032E+04  0.79339626150E+02 0.  0.
        254    2    1    2    0    0  0.38319772712E+02  0.10011411739E+04  0.23483226137E+03  0.13645085066E+04  0.89609442508E+03 0.  0.
         23    2    4    4    0    0  0.15519077402E+03 -0.70783169439E+02  0.20486887534E+03  0.28183412653E+03  0.91459200633E+02 0.  0.
         23    2    4    4    0    0 -0.11687100131E+03  0.10719243433E+04  0.29963386033E+02  0.10826743801E+04  0.92765187663E+02 0.  0.
          2    1    3    3  502    0 -0.12179906274E+01 -0.77869297167E+03 -0.53203101228E+03  0.94309131353E+03  0.00000000000E+00 0. -1.
         -1    1    3    3    0  502 -0.37101782084E+02 -0.22244820224E+03 -0.12869205055E+03  0.25965628971E+03  0.00000000000E+00 0.  1.
         13    1    5    5    0    0  0.12155018397E+03 -0.25291050945E+02  0.88587445826E+02  0.15251826133E+03  0.00000000000E+00 0. -1.
        -13    1    5    5    0    0  0.33640590047E+02 -0.45492118494E+02  0.11628142951E+03  0.12931586520E+03  0.00000000000E+00 0.  1.
          4    1    6    6  503    0 -0.46098070141E+01  0.61438297381E+01 -0.69552689323E+01  0.10362081378E+02  0.00000000000E+00 0. -1.
         -4    1    6    6    0  503 -0.11226119429E+03  0.10657805136E+04  0.36918654966E+02  0.10723122987E+04  0.00000000000E+00 0.  1.
<mgrwt>
<rscale>  0 0.25316834E+04</rscale>
<asrwt>0</asrwt>
<pdfrwt beam="1">  1        4 0.16472041E+00 0.25316834E+04</pdfrwt>
<pdfrwt beam="2">  1       -3 0.23024207E+00 0.25316834E+04</pdfrwt>
<totfact> 0.44736689E-02</totfact>
</mgrwt>
</event>
<event>
12    7  0.1711607E-007  0.2232980E+04  0.7818608E-02  0.8504825E-01
          2   -1    0    0  501    0  0.00000000000E+00  0.00000000000E+00  0.13069311314E+04  0.13069311314E+04  0.00000000000E+00 0. -1.
         -1   -1    0    0    0  501 -0.00000000000E+00 -0.00000000000E+00 -0.95379923324E+03  0.95379923324E+03  0.00000000000E+00 0.  1.
         24    2    1    2    0    0  0.55622256049E+03  0.77287234128E+02  0.92753194048E+03  0.10872971245E+04  0.80886852274E+02 0.  0.
        254    2    1    2    0    0 -0.55622256049E+03 -0.77287234128E+02 -0.57440004230E+03  0.11734332402E+04  0.85536735223E+03 0.  0.
         23    2    4    4    0    0 -0.19555037801E+03  0.65582013166E+01 -0.72995913586E+03  0.76134767188E+03  0.92341632586E+02 0.  0.
         23    2    4    4    0    0 -0.36067218248E+03 -0.83845435445E+02  0.15555909356E+03  0.41208556833E+03  0.92203057292E+02 0.  0.
          4    1    3    3  502    0  0.44473258299E+03  0.35454602013E+02  0.69156877018E+03  0.82298934565E+03  0.00000000000E+00 0. -1.
         -3    1    3    3    0  502  0.11148997750E+03  0.41832632115E+02  0.23596317031E+03  0.26430777880E+03  0.00000000000E+00 0.  1.
         13    1    5    5    0    0 -0.10636031809E+03 -0.40319268781E+02 -0.43630036628E+03  0.45088376586E+03  0.00000000000E+00 0.  1.
        -13    1    5    5    0    0 -0.89190059917E+02  0.46877470097E+02 -0.29365876958E+03  0.31046390602E+03  0.00000000000E+00 0. -1.
          2    1    6    6  503    0 -0.27925772758E+03 -0.10124407638E+03  0.10713435353E+03  0.31577367072E+03  0.00000000000E+00 0.  1.
         -2    1    6    6    0  503 -0.81414454903E+02  0.17398640937E+02  0.48424740029E+02  0.96311897606E+02  0.00000000000E+00 0. -1.
<mgrwt>
<rscale>  0 0.22329800E+04</rscale>
<asrwt>0</asrwt>
<pdfrwt beam="1">  1        2 0.20106633E+00 0.22329800E+04</pdfrwt>
<pdfrwt beam="2">  1       -1 0.14673834E+00 0.22329800E+04</pdfrwt>
<totfact> 0.62982960E+00</totfact>
</mgrwt>
</event>
<event>
12    7  0.1711607E-007  0.1061342E+04  0.7818608E-02  0.9243712E-01
          2   -1    0    0  501    0  0.00000000000E+00  0.00000000000E+00  0.11608756270E+04  0.11608756270E+04  0.00000000000E+00 0. -1.
         -1   -1    0    0    0  501 -0.00000000000E+00 -0.00000000000E+00 -0.24258543628E+03  0.24258543628E+03  0.00000000000E+00 0.  1.
         24    2    1    2    0    0  0.10443193262E+03 -0.25633212201E+02  0.24674812462E+03  0.27802579025E+03  0.69646341794E+02 0.  0.
        254    2    1    2    0    0 -0.10443193262E+03  0.25633212201E+02  0.67154206614E+03  0.11254352731E+04  0.89670101883E+03 0.  0.
         23    2    4    4    0    0 -0.24029217118E+03 -0.35882342735E+03  0.17516933839E+03  0.47658102298E+03  0.99752668158E+02 0.  0.
         23    2    4    4    0    0  0.13586023856E+03  0.38445663956E+03  0.49637272776E+03  0.64885425009E+03  0.91438727481E+02 0.  0.
          2    1    3    3  502    0  0.62887573810E+02 -0.48133481722E+02  0.13203347516E+03  0.15396271485E+03  0.00000000000E+00 0. -1.
         -1    1    3    3    0  502  0.41544358810E+02  0.22500269521E+02  0.11471464946E+03  0.12406307540E+03  0.00000000000E+00 0.  1.
         13    1    5    5    0    0 -0.16570312883E+02  0.12989232087E+01 -0.26714040108E+01  0.16834454845E+02  0.00000000000E+00 0.  1.
        -13    1    5    5    0    0 -0.22372185830E+03 -0.36012235056E+03  0.17784074240E+03  0.45974656814E+03  0.00000000000E+00 0. -1.
          2    1    6    6  503    0  0.13151060493E+03  0.25875799190E+03  0.31741974816E+03  0.43012327780E+03  0.00000000000E+00 0. -1.
         -2    1    6    6    0  503  0.43496336326E+01  0.12569864766E+03  0.17895297959E+03  0.21873097229E+03  0.00000000000E+00 0.  1.
<mgrwt>
<rscale>  0 0.10613416E+04</rscale>
<asrwt>0</asrwt>
<pdfrwt beam="1">  1        2 0.17859625E+00 0.10613416E+04</pdfrwt>
<pdfrwt beam="2">  1       -1 0.37320837E-01 0.10613416E+04</pdfrwt>
<totfact> 0.15659822E+02</totfact>
</mgrwt>
</event>
<event>
12    7  0.1711607E-007  0.1374292E+04  0.7818608E-02  0.8972641E-01
         -1   -1    0    0    0  501 -0.00000000000E+00  0.00000000000E+00  0.69094274747E+03  0.69094274747E+03  0.00000000000E+00 0.  1.
          2   -1    0    0  501    0  0.00000000000E+00 -0.00000000000E+00 -0.68336984787E+03  0.68336984787E+03  0.00000000000E+00 0. -1.
         24    2    1    2    0    0 -0.17564054219E+03  0.24764915526E+03  0.23517891941E+03  0.39212676954E+03  0.79212215522E+02 0.  0.
        254    2    1    2    0    0  0.17564054219E+03 -0.24764915526E+03 -0.22760601981E+03  0.98218582580E+03  0.90592758650E+03 0.  0.
         23    2    4    4    0    0 -0.18980247323E+03 -0.20541854280E+02 -0.44423466573E+03  0.49200496167E+03  0.90980753214E+02 0.  0.
         23    2    4    4    0    0  0.36544301542E+03 -0.22710730098E+03  0.21662864592E+03  0.49018086413E+03  0.90680679564E+02 0.  0.
          2    1    3    3  502    0 -0.52922474138E+02  0.14138925813E+03  0.12412057673E+03  0.19544213504E+03  0.00000000000E+00 0. -1.
         -1    1    3    3    0  502 -0.12271806806E+03  0.10625989713E+03  0.11105834268E+03  0.19668463449E+03  0.00000000000E+00 0.  1.
         13    1    5    5    0    0 -0.18033012296E+03 -0.26188490154E+02 -0.44508728224E+03  0.48094436172E+03  0.00000000000E+00 0.  1.
        -13    1    5    5    0    0 -0.94723502695E+01  0.56466358735E+01  0.85261651117E+00  0.11060599949E+02  0.00000000000E+00 0. -1.
          1    1    6    6  503    0  0.15986021307E+03 -0.64983819146E+02  0.49327767078E+02  0.17947538293E+03  0.00000000000E+00 0. -1.
         -1    1    6    6    0  503  0.20558280235E+03 -0.16212348184E+03  0.16730087884E+03  0.31070548120E+03  0.00000000000E+00 0.  1.
<mgrwt>
<rscale>  0 0.13742917E+04</rscale>
<asrwt>0</asrwt>
<pdfrwt beam="1">  1        2 0.10513382E+00 0.13742917E+04</pdfrwt>
<pdfrwt beam="2">  1       -1 0.10629888E+00 0.13742917E+04</pdfrwt>
<totfact> 0.38936216E+01</totfact>
</mgrwt>
</event>
<event>
12    7  0.1711607E-007  0.1921230E+04  0.7818608E-02  0.8644361E-01
          2   -1    0    0  501    0  0.00000000000E+00  0.00000000000E+00  0.15883024567E+04  0.15883024567E+04  0.00000000000E+00 0. -1.
         -1   -1    0    0    0  501 -0.00000000000E+00 -0.00000000000E+00 -0.58098566023E+03  0.58098566023E+03  0.00000000000E+00 0.  1.
         24    2    1    2    0    0  0.11939653015E+03 -0.49160367554E+03 -0.23673258727E+03  0.56411818121E+03  0.79103092756E+02 0.  0.
        254    2    1    2    0    0 -0.11939653015E+03  0.49160367554E+03  0.12440493837E+04  0.16051699357E+04  0.87919391952E+03 0.  0.
         23    2    4    4    0    0 -0.44390099491E+02 -0.21223584851E+03  0.97906816028E+02  0.25497723876E+03  0.91723014217E+02 0.  0.
         23    2    4    4    0    0 -0.75006430663E+02  0.70383952404E+03  0.11461425677E+04  0.13501926969E+04  0.91441200507E+02 0.  0.
          2    1    3    3  502    0  0.25365191604E+02 -0.12174134351E+03 -0.22194782119E+02  0.12632084554E+03  0.00000000000E+00 0. -1.
         -1    1    3    3    0  502  0.94031338549E+02 -0.36986233203E+03 -0.21453780515E+03  0.43779733567E+03  0.00000000000E+00 0.  1.
         13    1    5    5    0    0 -0.49903728643E+02 -0.14728884303E+03  0.10755946459E+03  0.18908575789E+03  0.00000000000E+00 0.  1.
        -13    1    5    5    0    0  0.55136291518E+01 -0.64947005475E+02 -0.96526485666E+01  0.65891480868E+02  0.00000000000E+00 0. -1.
          3    1    6    6  503    0 -0.72346875354E+02  0.30624409409E+03  0.54902392873E+03  0.63280865185E+03  0.00000000000E+00 0. -1.
         -3    1    6    6    0  503 -0.26595553090E+01  0.39759542995E+03  0.59711863893E+03  0.71738404506E+03  0.00000000000E+00 0.  1.
<mgrwt>
<rscale>  0 0.19212298E+04</rscale>
<asrwt>0</asrwt>
<pdfrwt beam="1">  1        2 0.24435422E+00 0.19212298E+04</pdfrwt>
<pdfrwt beam="2">  1       -1 0.89382410E-01 0.19212298E+04</pdfrwt>
<totfact> 0.14789474E+01</totfact>
</mgrwt>
</event>
<event>
12    7  0.1711607E-007  0.2549942E+04  0.7818608E-02  0.8385406E-01
          2   -1    0    0  501    0  0.00000000000E+00  0.00000000000E+00  0.34739271869E+04  0.34739271869E+04  0.00000000000E+00 0. -1.
         -1   -1    0    0    0  501 -0.00000000000E+00 -0.00000000000E+00 -0.46792904541E+03  0.46792904541E+03  0.00000000000E+00 0.  1.
         24    2    1    2    0    0 -0.49313275024E+03 -0.84318505037E+03  0.21415804719E+04  0.23552083242E+04  0.80612620031E+02 0.  0.
        254    2    1    2    0    0  0.49313275024E+03  0.84318505037E+03  0.86441766966E+03  0.15866479081E+04  0.90337851325E+03 0.  0.
         23    2    4    4    0    0  0.50342690045E+03  0.35411038787E+02  0.39103020920E+03  0.64587841104E+03  0.97784004721E+02 0.  0.
         23    2    4    4    0    0 -0.10294150208E+02  0.80777401158E+03  0.47338746046E+03  0.94076949708E+03  0.91360470691E+02 0.  0.
          2    1    3    3  502    0 -0.40808399029E+03 -0.74974866310E+03  0.18795330559E+04  0.20642916725E+04  0.00000000000E+00 0. -1.
         -1    1    3    3    0  502 -0.85048759954E+02 -0.93436387272E+02  0.26204741593E+03  0.29091665169E+03  0.00000000000E+00 0.  1.
         13    1    5    5    0    0  0.32990655310E+03  0.17854971492E+02  0.19562617355E+03  0.38396189077E+03  0.00000000000E+00 0. -1.
        -13    1    5    5    0    0  0.17352034735E+03  0.17556067295E+02  0.19540403565E+03  0.26191652027E+03  0.00000000000E+00 0.  1.
          4    1    6    6  503    0 -0.15544483655E+01  0.79970110998E+03  0.45887547250E+03  0.92200378572E+03  0.00000000000E+00 0. -1.
         -4    1    6    6    0  503 -0.87397018428E+01  0.80729016019E+01  0.14511987957E+02  0.18765711365E+02  0.00000000000E+00 0.  1.
<mgrwt>
<rscale>  0 0.25499423E+04</rscale>
<asrwt>0</asrwt>
<pdfrwt beam="1">  1        2 0.53445032E+00 0.25499423E+04</pdfrwt>
<pdfrwt beam="2">  1       -1 0.71989086E-01 0.25499423E+04</pdfrwt>
<totfact> 0.16689230E+00</totfact>
</mgrwt>
</event>
<event>
12    7  0.1711607E-007  0.2151177E+04  0.7818608E-02  0.8539029E-01
          2   -1    0    0  501    0  0.00000000000E+00  0.00000000000E+00  0.28623300160E+04  0.28623300160E+04  0.00000000000E+00 0. -1.
         -3   -1    0    0    0  501 -0.00000000000E+00 -0.00000000000E+00 -0.40417797246E+03  0.40417797246E+03  0.00000000000E+00 0.  1.
         24    2    1    2    0    0  0.42959693715E+02  0.38179994776E+03  0.22893014814E+04  0.23226523505E+04  0.78714248450E+02 0.  0.
        254    2    1    2    0    0 -0.42959693715E+02 -0.38179994776E+03  0.16885056206E+03  0.94385563794E+03  0.84542073405E+03 0.  0.
         23    2    4    4    0    0 -0.35377337092E+03 -0.22680150147E+03  0.33964170538E+03  0.54770989940E+03  0.89638868976E+02 0.  0.
         23    2    4    4    0    0  0.31081367720E+03 -0.15499844629E+03 -0.17079114331E+03  0.39614573854E+03  0.84452183165E+02 0.  0.
          2    1    3    3  502    0  0.20910729775E+02  0.35407939581E+03  0.20023155411E+04  0.20334888746E+04  0.00000000000E+00 0. -1.
         -1    1    3    3    0  502  0.22048963940E+02  0.27720551958E+02  0.28698594038E+03  0.28916347589E+03  0.00000000000E+00 0.  1.
         13    1    5    5    0    0 -0.19594748805E+03 -0.16404888699E+03  0.16553782257E+03  0.30448353994E+03  0.00000000000E+00 0. -1.
        -13    1    5    5    0    0 -0.15782588287E+03 -0.62752614484E+02  0.17410388280E+03  0.24322635946E+03  0.00000000000E+00 0.  1.
          2    1    6    6  503    0  0.18859294538E+03 -0.47077674116E+02 -0.94308265723E+02  0.21605012249E+03  0.00000000000E+00 0. -1.
         -2    1    6    6    0  503  0.12222073183E+03 -0.10792077218E+03 -0.76482877590E+02  0.18009561605E+03  0.00000000000E+00 0.  1.
<mgrwt>
<rscale>  0 0.21511771E+04</rscale>
<asrwt>0</asrwt>
<pdfrwt beam="1">  1        2 0.44035845E+00 0.21511771E+04</pdfrwt>
<pdfrwt beam="2">  1       -3 0.62181228E-01 0.21511771E+04</pdfrwt>
<totfact> 0.31525555E+00</totfact>
</mgrwt>
</event>
<event>
12    7  0.1711607E-007  0.2316343E+04  0.7818608E-02  0.8471505E-01
         -1   -1    0    0    0  501 -0.00000000000E+00  0.00000000000E+00  0.43877473688E+03  0.43877473688E+03  0.00000000000E+00 0.  1.
          2   -1    0    0  501    0  0.00000000000E+00 -0.00000000000E+00 -0.30570621061E+04  0.30570621061E+04  0.00000000000E+00 0. -1.
         24    2    1    2    0    0  0.72097263050E+02 -0.26827259980E+03 -0.25370444426E+04  0.25535194879E+04  0.81847834342E+02 0.  0.
        254    2    1    2    0    0 -0.72097263050E+02  0.26827259980E+03 -0.81242926597E+02  0.94231735511E+03  0.89676829865E+03 0.  0.
         23    2    4    4    0    0 -0.22182712787E+03  0.27628328351E+02  0.34585153175E+03  0.42123945159E+03  0.88649841376E+02 0.  0.
         23    2    4    4    0    0  0.14972986482E+03  0.24064427145E+03 -0.42709445835E+03  0.52107790351E+03  0.93721968475E+02 0.  0.
          2    1    3    3  502    0 -0.60274405265E+01 -0.11915459777E+03 -0.12008636959E+04  0.12067757722E+04  0.00000000000E+00 0. -1.
         -1    1    3    3    0  502  0.78124703577E+02 -0.14911800203E+03 -0.13361807468E+04  0.13467437157E+04  0.00000000000E+00 0.  1.
         13    1    5    5    0    0 -0.22632290599E+03  0.15619148753E+02  0.31854041135E+03  0.39106778089E+03  0.00000000000E+00 0.  1.
        -13    1    5    5    0    0  0.44957781225E+01  0.12009179598E+02  0.27311120401E+02  0.30171670704E+02  0.00000000000E+00 0. -1.
          4    1    6    6  503    0  0.89169187717E+02  0.11251170822E+03 -0.29151138560E+03  0.32494448212E+03  0.00000000000E+00 0. -1.
         -4    1    6    6    0  503  0.60560677103E+02  0.12813256323E+03 -0.13558307275E+03  0.19613342139E+03  0.00000000000E+00 0.  1.
<mgrwt>
<rscale>  0 0.23163433E+04</rscale>
<asrwt>0</asrwt>
<pdfrwt beam="1">  1        2 0.47031724E+00 0.23163433E+04</pdfrwt>
<pdfrwt beam="2">  1       -1 0.67503806E-01 0.23163433E+04</pdfrwt>
<totfact> 0.36721855E+00</totfact>
</mgrwt>
</event>
<event>
12    7  0.1711607E-007  0.2582897E+04  0.7818608E-02  0.8374034E-01
         -1   -1    0    0    0  501 -0.00000000000E+00  0.00000000000E+00  0.65293619617E+03  0.65293619617E+03  0.00000000000E+00 0.  1.
          2   -1    0    0  501    0  0.00000000000E+00 -0.00000000000E+00 -0.25543687371E+04  0.25543687371E+04  0.00000000000E+00 0. -1.
         24    2    1    2    0    0 -0.70122014078E+03  0.20302825944E+03 -0.18931461565E+04  0.20305844760E+04  0.79629041945E+02 0.  0.
        254    2    1    2    0    0  0.70122014078E+03 -0.20302825944E+03 -0.82863844133E+01  0.11767204573E+04  0.92286088356E+03 0.  0.
         23    2    4    4    0    0  0.56396197915E+03 -0.54994862169E+03 -0.23397598934E+02  0.79313757318E+03  0.89572104654E+02 0.  0.
         23    2    4    4    0    0  0.13725816163E+03  0.34692036225E+03  0.15111214521E+02  0.38358288407E+03  0.87829035481E+02 0.  0.
          4    1    3    3  502    0 -0.43677457704E+03  0.10691314496E+03 -0.10687963089E+04  0.11595378397E+04  0.00000000000E+00 0. -1.
         -3    1    3    3    0  502 -0.26444556373E+03  0.96115114482E+02 -0.82434984759E+03  0.87104663631E+03  0.00000000000E+00 0.  1.
         13    1    5    5    0    0  0.43550417276E+03 -0.47227723311E+03 -0.26819993897E+02  0.64298443331E+03  0.00000000000E+00 0. -1.
        -13    1    5    5    0    0  0.12845780639E+03 -0.77671388583E+02  0.34223949630E+01  0.15015313988E+03  0.00000000000E+00 0.  1.
          3    1    6    6  503    0  0.96736653320E+02  0.15393836517E+03 -0.21317542945E+02  0.18305583302E+03  0.00000000000E+00 0. -1.
         -3    1    6    6    0  503  0.40521508309E+02  0.19298199708E+03  0.36428757466E+02  0.20052705105E+03  0.00000000000E+00 0.  1.
<mgrwt>
<rscale>  0 0.25828974E+04</rscale>
<asrwt>0</asrwt>
<pdfrwt beam="1">  1        2 0.39297980E+00 0.25828974E+04</pdfrwt>
<pdfrwt beam="2">  1       -1 0.10045172E+00 0.25828974E+04</pdfrwt>
<totfact> 0.30746783E+00</totfact>
</mgrwt>
</event>
<event>
12    7  0.1711607E-007  0.2222892E+04  0.7818608E-02  0.8508960E-01
         -1   -1    0    0    0  501 -0.00000000000E+00  0.00000000000E+00  0.14386788967E+04  0.14386788967E+04  0.00000000000E+00 0.  1.
          2   -1    0    0  501    0  0.00000000000E+00 -0.00000000000E+00 -0.85864362789E+03  0.85864362789E+03  0.00000000000E+00 0. -1.
         24    2    1    2    0    0  0.65181422980E+02 -0.88152157514E+03  0.53073799767E+03  0.10340528263E+04  0.79079200644E+02 0.  0.
        254    2    1    2    0    0 -0.65181422980E+02  0.88152157514E+03  0.49297271129E+02  0.12632696983E+04  0.90116103133E+03 0.  0.
         23    2    4    4    0    0  0.17690238186E+03  0.93084359274E+03  0.18079807404E+03  0.96880051070E+03  0.90123465858E+02 0.  0.
         23    2    4    4    0    0 -0.24208380484E+03 -0.49322017597E+02 -0.13150080291E+03  0.29446918761E+03  0.91555509394E+02 0.  0.
          2    1    3    3  502    0  0.21798568206E+02 -0.69669320399E+03  0.40168912407E+03  0.80449409598E+03  0.00000000000E+00 0. -1.
         -1    1    3    3    0  502  0.43382854774E+02 -0.18482837115E+03  0.12904887360E+03  0.22955873028E+03  0.00000000000E+00 0.  1.
         13    1    5    5    0    0  0.15513769749E+02  0.20858910098E+03  0.69516174040E+02  0.22041458334E+03  0.00000000000E+00 0. -1.
        -13    1    5    5    0    0  0.16138861211E+03  0.72225449177E+03  0.11128190000E+03  0.74838592736E+03  0.00000000000E+00 0.  1.
          2    1    6    6  503    0 -0.23548709479E+03 -0.47888204251E+02 -0.14408209371E+03  0.28019118767E+03  0.00000000000E+00 0. -1.
         -2    1    6    6    0  503 -0.65967100488E+01 -0.14338133465E+01  0.12581290799E+02  0.14277999942E+02  0.00000000000E+00 0.  1.
<mgrwt>
<rscale>  0 0.22228922E+04</rscale>
<asrwt>0</asrwt>
<pdfrwt beam="1">  1        2 0.13209902E+00 0.22228922E+04</pdfrwt>
<pdfrwt beam="2">  1       -1 0.22133522E+00 0.22228922E+04</pdfrwt>
<totfact> 0.35117684E+00</totfact>
</mgrwt>
</event>
<event>
12    7  0.1711607E-007  0.2659399E+04  0.7818608E-02  0.8348300E-01
          2   -1    0    0  501    0  0.00000000000E+00  0.00000000000E+00  0.10981104742E+04  0.10981104742E+04  0.00000000000E+00 0. -1.
         -1   -1    0    0    0  501 -0.00000000000E+00 -0.00000000000E+00 -0.16101296942E+04  0.16101296942E+04  0.00000000000E+00 0.  1.
         24    2    1    2    0    0  0.48745382418E+03  0.90969967416E+03 -0.79150181040E+03  0.13029856784E+04  0.78306030127E+02 0.  0.
        254    2    1    2    0    0 -0.48745382418E+03 -0.90969967416E+03  0.27948259046E+03  0.14052544900E+04  0.91184699128E+03 0.  0.
         23    2    4    4    0    0 -0.55208144909E+03 -0.11272960753E+03  0.14797520766E+03  0.58984896037E+03  0.92321412062E+02 0.  0.
         23    2    4    4    0    0  0.64627624908E+02 -0.79697006663E+03  0.13150738281E+03  0.81540552966E+03  0.90851356977E+02 0.  0.
          2    1    3    3  502    0  0.32011974707E+03  0.54668121692E+03 -0.44763175774E+03  0.77570045503E+03  0.00000000000E+00 0. -1.
         -1    1    3    3    0  502  0.16733407711E+03  0.36301845725E+03 -0.34387005266E+03  0.52728522336E+03  0.00000000000E+00 0.  1.
         13    1    5    5    0    0 -0.16199352208E+03  0.77916316047E-01  0.69456342636E+02  0.17625575394E+03  0.00000000000E+00 0. -1.
        -13    1    5    5    0    0 -0.39008792701E+03 -0.11280752385E+03  0.78518865020E+02  0.41359320642E+03  0.00000000000E+00 0.  1.
          3    1    6    6  503    0 -0.11093683023E+02 -0.36310313315E+03  0.80017533095E+02  0.37198086068E+03  0.00000000000E+00 0. -1.
         -3    1    6    6    0  503  0.75721307931E+02 -0.43386693348E+03  0.51489849714E+02  0.44342466898E+03  0.00000000000E+00 0.  1.
<mgrwt>
<rscale>  0 0.26593986E+04</rscale>
<asrwt>0</asrwt>
<pdfrwt beam="1">  1        2 0.16894007E+00 0.26593986E+04</pdfrwt>
<pdfrwt beam="2">  1       -1 0.24771226E+00 0.26593986E+04</pdfrwt>
<totfact> 0.15814287E+00</totfact>
</mgrwt>
</event>
<event>
12    7  0.1711607E-007  0.2129889E+04  0.7818608E-02  0.8548190E-01
         -1   -1    0    0    0  501 -0.00000000000E+00  0.00000000000E+00  0.14649654774E+04  0.14649654774E+04  0.00000000000E+00 0.  1.
          2   -1    0    0  501    0  0.00000000000E+00 -0.00000000000E+00 -0.77415221142E+03  0.77415221142E+03  0.00000000000E+00 0. -1.
         24    2    1    2    0    0  0.46832321815E+03 -0.68911435880E+02 -0.48560754450E+03  0.68285436210E+03  0.79999811912E+02 0.  0.
        254    2    1    2    0    0 -0.46832321815E+03  0.68911435880E+02  0.11764208104E+04  0.15562633267E+04  0.90217193269E+03 0.  0.
         23    2    4    4    0    0 -0.20826847688E+03 -0.40673009765E+03  0.47856719155E+03  0.66781861728E+03  0.90277449873E+02 0.  0.
         23    2    4    4    0    0 -0.26005474127E+03  0.47564153353E+03  0.69785361889E+03  0.88844470942E+03  0.92037989008E+02 0.  0.
          2    1    3    3  502    0  0.23055989141E+03 -0.99677358760E+00 -0.20144033799E+03  0.30616509739E+03  0.00000000000E+00 0. -1.
         -1    1    3    3    0  502  0.23776332674E+03 -0.67914662292E+02 -0.28416720650E+03  0.37668926471E+03  0.00000000000E+00 0.  1.
         13    1    5    5    0    0 -0.82936144607E+02 -0.11459030932E+03  0.20110978859E+03  0.24587494817E+03  0.00000000000E+00 0.  1.
        -13    1    5    5    0    0 -0.12533233227E+03 -0.29213978833E+03  0.27745740296E+03  0.42194366910E+03  0.00000000000E+00 0. -1.
          3    1    6    6  503    0 -0.17586144515E+03  0.24327408824E+03  0.42468298987E+03  0.52006266140E+03  0.00000000000E+00 0. -1.
         -3    1    6    6    0  503 -0.84193296123E+02  0.23236744529E+03  0.27317062903E+03  0.36838204802E+03  0.00000000000E+00 0.  1.
<mgrwt>
<rscale>  0 0.21298885E+04</rscale>
<asrwt>0</asrwt>
<pdfrwt beam="1">  1        2 0.11910034E+00 0.21298885E+04</pdfrwt>
<pdfrwt beam="2">  1       -1 0.22537930E+00 0.21298885E+04</pdfrwt>
<totfact> 0.38232881E+00</totfact>
</mgrwt>
</event>
<event>
12    7  0.1711607E-007  0.1130549E+04  0.7818608E-02  0.9175918E-01
          2   -1    0    0  501    0  0.00000000000E+00  0.00000000000E+00  0.13722200552E+04  0.13722200552E+04  0.00000000000E+00 0. -1.
         -1   -1    0    0    0  501 -0.00000000000E+00 -0.00000000000E+00 -0.23285993767E+03  0.23285993767E+03  0.00000000000E+00 0.  1.
         24    2    1    2    0    0 -0.14712881575E+03 -0.88310513058E+02  0.91316956745E+02  0.21073666764E+03  0.81397305594E+02 0.  0.
        254    2    1    2    0    0  0.14712881575E+03  0.88310513058E+02  0.10480431608E+04  0.13943433252E+04  0.90352266524E+03 0.  0.
         23    2    4    4    0    0 -0.13945476960E+03 -0.26342122113E+03  0.82240987309E+03  0.87942049840E+03  0.90465690506E+02 0.  0.
         23    2    4    4    0    0  0.28658358535E+03  0.35173173418E+03  0.22563328768E+03  0.51492282681E+03  0.91595703173E+02 0.  0.
          4    1    3    3  502    0 -0.39054050635E+02 -0.42372982428E+02 -0.63810917486E+01  0.57977640886E+02  0.00000000000E+00 0. -1.
         -3    1    3    3    0  502 -0.10807476511E+03 -0.45937530630E+02  0.97698048494E+02  0.15275902675E+03  0.00000000000E+00 0.  1.
         13    1    5    5    0    0 -0.38817550562E+02 -0.16782353871E+03  0.43247007018E+03  0.46551251753E+03  0.00000000000E+00 0.  1.
        -13    1    5    5    0    0 -0.10063721904E+03 -0.95597682415E+02  0.38993980291E+03  0.41390798087E+03  0.00000000000E+00 0. -1.
          4    1    6    6  503    0  0.47557262704E+01  0.35580562575E+02  0.36124205973E+02  0.50926924339E+02  0.00000000000E+00 0. -1.
         -4    1    6    6    0  503  0.28182785907E+03  0.31615117161E+03  0.18950908171E+03  0.46399590247E+03  0.00000000000E+00 0.  1.
<mgrwt>
<rscale>  0 0.11305487E+04</rscale>
<asrwt>0</asrwt>
<pdfrwt beam="1">  1        2 0.21111077E+00 0.11305487E+04</pdfrwt>
<pdfrwt beam="2">  1       -1 0.35824607E-01 0.11305487E+04</pdfrwt>
<totfact> 0.12606704E+02</totfact>
</mgrwt>
</event>
<event>
12    7  0.1711607E-007  0.1815016E+04  0.7818608E-02  0.8698354E-01
          2   -1    0    0  501    0  0.00000000000E+00  0.00000000000E+00  0.79365128163E+03  0.79365128163E+03  0.00000000000E+00 0. -1.
         -1   -1    0    0    0  501 -0.00000000000E+00 -0.00000000000E+00 -0.10376990798E+04  0.10376990798E+04  0.00000000000E+00 0.  1.
         24    2    1    2    0    0  0.38121412146E+03 -0.42997076073E+03  0.26780085064E+03  0.63909342856E+03  0.80771612249E+02 0.  0.
        254    2    1    2    0    0 -0.38121412146E+03  0.42997076073E+03 -0.51184864883E+03  0.11922569329E+04  0.91065278413E+03 0.  0.
         23    2    4    4    0    0 -0.31583192764E+03  0.21740954681E+03 -0.75381345106E+03  0.85038032582E+03  0.88855286678E+02 0.  0.
         23    2    4    4    0    0 -0.65382193817E+02  0.21256121392E+03  0.24196480223E+03  0.34187660708E+03  0.94210126960E+02 0.  0.
          4    1    3    3  502    0  0.79252216048E+02 -0.85658652696E+02  0.91783902694E+02  0.14846751606E+03  0.00000000000E+00 0. -1.
         -3    1    3    3    0  502  0.30196190541E+03 -0.34431210803E+03  0.17601694795E+03  0.49062591251E+03  0.00000000000E+00 0.  1.
         13    1    5    5    0    0 -0.30005622195E+03  0.21755843941E+03 -0.67553319923E+03  0.77052612814E+03  0.00000000000E+00 0.  1.
        -13    1    5    5    0    0 -0.15775705696E+02 -0.14889260098E+00 -0.78280251835E+02  0.79854197676E+02  0.00000000000E+00 0. -1.
          1    1    6    6  503    0  0.10774896069E+02 -0.33939385483E+01  0.19969199395E+02  0.22943106342E+02  0.00000000000E+00 0. -1.
         -1    1    6    6    0  503 -0.76157089885E+02  0.21595515247E+03  0.22199560283E+03  0.31893350074E+03  0.00000000000E+00 0.  1.
<mgrwt>
<rscale>  0 0.18150165E+04</rscale>
<asrwt>0</asrwt>
<pdfrwt beam="1">  1        2 0.12210020E+00 0.18150165E+04</pdfrwt>
<pdfrwt beam="2">  1       -1 0.15964601E+00 0.18150165E+04</pdfrwt>
<totfact> 0.11018897E+01</totfact>
</mgrwt>
</event>
<event>
12    7  0.1711607E-007  0.3829821E+04  0.7818608E-02  0.8039785E-01
          2   -1    0    0  501    0  0.00000000000E+00  0.00000000000E+00  0.33069172513E+04  0.33069172513E+04  0.00000000000E+00 0. -1.
         -1   -1    0    0    0  501 -0.00000000000E+00 -0.00000000000E+00 -0.11088523440E+04  0.11088523440E+04  0.00000000000E+00 0.  1.
         24    2    1    2    0    0  0.43449100605E+03  0.49134699504E+03 -0.90585066660E+03  0.11213280220E+04  0.81282217709E+02 0.  0.
        254    2    1    2    0    0 -0.43449100605E+03 -0.49134699504E+03  0.31039155740E+04  0.32944415733E+04  0.88817176599E+03 0.  0.
         23    2    4    4    0    0  0.22249224735E+03 -0.28076779219E+03  0.69795466193E+03  0.78983934203E+03  0.91499305186E+02 0.  0.
         23    2    4    4    0    0 -0.65698325340E+03 -0.21057920285E+03  0.24059609120E+04  0.25046022313E+04  0.91726936367E+02 0.  0.
          2    1    3    3  502    0  0.20427163463E+03  0.19497756445E+03 -0.33461735746E+03  0.43784920609E+03  0.00000000000E+00 0. -1.
         -1    1    3    3    0  502  0.23021937142E+03  0.29636943059E+03 -0.57123330914E+03  0.68347881593E+03  0.00000000000E+00 0.  1.
         13    1    5    5    0    0  0.71681472193E+02 -0.14279445478E+03  0.23977170817E+03  0.28813011264E+03  0.00000000000E+00 0.  1.
        -13    1    5    5    0    0  0.15081077516E+03 -0.13797333741E+03  0.45818295376E+03  0.50170922939E+03  0.00000000000E+00 0. -1.
          4    1    6    6  503    0 -0.46689307319E+03 -0.17744066443E+03  0.16167362145E+04  0.16921318856E+04  0.00000000000E+00 0. -1.
         -4    1    6    6    0  503 -0.19009018021E+03 -0.33138538415E+02  0.78922469757E+03  0.81247034567E+03  0.00000000000E+00 0.  1.
<mgrwt>
<rscale>  0 0.38298214E+04</rscale>
<asrwt>0</asrwt>
<pdfrwt beam="1">  1        2 0.50875650E+00 0.38298214E+04</pdfrwt>
<pdfrwt beam="2">  1       -1 0.17059267E+00 0.38298214E+04</pdfrwt>
<totfact> 0.24344452E-01</totfact>
</mgrwt>
</event>
<event>
12    7  0.1711607E-007  0.1317523E+04  0.7818608E-02  0.9015784E-01
          2   -1    0    0  501    0  0.00000000000E+00  0.00000000000E+00  0.12978788065E+04  0.12978788065E+04  0.00000000000E+00 0. -1.
         -1   -1    0    0    0  501 -0.00000000000E+00 -0.00000000000E+00 -0.33436600023E+03  0.33436600023E+03  0.00000000000E+00 0.  1.
         24    2    1    2    0    0 -0.46791410211E+02 -0.34242042296E+03  0.23736261239E+03  0.42646227782E+03  0.78024883939E+02 0.  0.
        254    2    1    2    0    0  0.46791410211E+02  0.34242042296E+03  0.72615019383E+03  0.12057825289E+04  0.89842986415E+03 0.  0.
         23    2    4    4    0    0 -0.22748932864E+03 -0.29228163414E+01  0.71394104639E+03  0.75480840976E+03  0.90906436657E+02 0.  0.
         23    2    4    4    0    0  0.27428073885E+03  0.34534323930E+03  0.12209147443E+02  0.45097411911E+03  0.93470402756E+02 0.  0.
          2    1    3    3  502    0 -0.51672993843E+02 -0.34366966074E+03  0.23823442614E+03  0.42134852059E+03  0.00000000000E+00 0. -1.
         -1    1    3    3    0  502  0.48815836312E+01  0.12492377800E+01 -0.87181375167E+00  0.51137572290E+01  0.00000000000E+00 0.  1.
         13    1    5    5    0    0 -0.21515043963E+03 -0.26199711507E+02  0.60259339716E+03  0.64038655425E+03  0.00000000000E+00 0.  1.
        -13    1    5    5    0    0 -0.12338889001E+02  0.23276895165E+02  0.11134764923E+03  0.11442185551E+03  0.00000000000E+00 0. -1.
          1    1    6    6  503    0  0.62689100858E+02  0.26549259503E+02 -0.16599245763E+01  0.68099499970E+02  0.00000000000E+00 0. -1.
         -1    1    6    6    0  503  0.21159163799E+03  0.31879397980E+03  0.13869072020E+02  0.38287461914E+03  0.00000000000E+00 0.  1.
<mgrwt>
<rscale>  0 0.13175227E+04</rscale>
<asrwt>0</asrwt>
<pdfrwt beam="1">  1        2 0.19967366E+00 0.13175227E+04</pdfrwt>
<pdfrwt beam="2">  1       -1 0.51440924E-01 0.13175227E+04</pdfrwt>
<totfact> 0.70318257E+01</totfact>
</mgrwt>
</event>
<event>
12    7  0.1711607E-007  0.1951182E+04  0.7818608E-02  0.8629791E-01
         -1   -1    0    0    0  501 -0.00000000000E+00  0.00000000000E+00  0.49192856631E+03  0.49192856631E+03  0.00000000000E+00 0.  1.
          2   -1    0    0  501    0  0.00000000000E+00 -0.00000000000E+00 -0.19347886961E+04  0.19347886961E+04  0.00000000000E+00 0. -1.
         24    2    1    2    0    0  0.58889967882E+03 -0.42934843747E+03 -0.30019921390E+03  0.79224090409E+03  0.79894740850E+02 0.  0.
        254    2    1    2    0    0 -0.58889967882E+03  0.42934843747E+03 -0.11426609159E+04  0.16344763583E+04  0.91361703396E+03 0.  0.
         23    2    4    4    0    0 -0.55258897878E+03  0.16103128653E+03 -0.15054814753E+03  0.60192969286E+03  0.91481996616E+02 0.  0.
         23    2    4    4    0    0 -0.36310700035E+02  0.26831715094E+03 -0.99211276834E+03  0.10325466655E+04  0.92478704631E+02 0.  0.
          2    1    3    3  502    0  0.24195255723E+03 -0.19905563250E+03 -0.16697090482E+03  0.35502601008E+03  0.00000000000E+00 0. -1.
         -1    1    3    3    0  502  0.34694712158E+03 -0.23029280498E+03 -0.13322830908E+03  0.43721489400E+03  0.00000000000E+00 0.  1.
         13    1    5    5    0    0 -0.12393228016E+03  0.73732679928E+02 -0.21241341271E+02  0.14576320775E+03  0.00000000000E+00 0. -1.
        -13    1    5    5    0    0 -0.42865669862E+03  0.87298606604E+02 -0.12930680626E+03  0.45616648511E+03  0.00000000000E+00 0.  1.
          3    1    6    6  503    0  0.17491177267E+01  0.19281468935E+03 -0.79527608937E+03  0.81831816683E+03  0.00000000000E+00 0. -1.
         -3    1    6    6    0  503 -0.38059817761E+02  0.75502461588E+02 -0.19683667897E+03  0.21422849862E+03  0.00000000000E+00 0.  1.
<mgrwt>
<rscale>  0 0.19511820E+04</rscale>
<asrwt>0</asrwt>
<pdfrwt beam="1">  1        2 0.29765980E+00 0.19511820E+04</pdfrwt>
<pdfrwt beam="2">  1       -1 0.75681317E-01 0.19511820E+04</pdfrwt>
<totfact> 0.13531859E+01</totfact>
</mgrwt>
</event>
<event>
12    7  0.1711607E-007  0.1488069E+04  0.7818608E-02  0.8892426E-01
          2   -1    0    0  501    0  0.00000000000E+00  0.00000000000E+00  0.28181712203E+04  0.28181712203E+04  0.00000000000E+00 0. -1.
         -1   -1    0    0    0  501 -0.00000000000E+00 -0.00000000000E+00 -0.19643487674E+03  0.19643487674E+03  0.00000000000E+00 0.  1.
         24    2    1    2    0    0 -0.25103778767E+03 -0.31198748673E+03  0.13130493707E+04  0.13751521591E+04  0.81170488544E+02 0.  0.
        254    2    1    2    0    0  0.25103778767E+03  0.31198748673E+03  0.13086869729E+04  0.16394539379E+04  0.90265799659E+03 0.  0.
         23    2    4    4    0    0  0.55541780139E+03  0.24439610182E+03  0.59532205182E+03  0.85526628627E+03  0.94094029340E+02 0.  0.
         23    2    4    4    0    0 -0.30438001372E+03  0.67591384908E+02  0.71336492108E+03  0.78418765165E+03  0.94047723579E+02 0.  0.
          2    1    3    3  502    0 -0.20660130610E+03 -0.19792896740E+03  0.93101739900E+03  0.97398838446E+03  0.00000000000E+00 0. -1.
         -1    1    3    3    0  502 -0.44436481572E+02 -0.11405851933E+03  0.38203197167E+03  0.40116377466E+03  0.00000000000E+00 0.  1.
         13    1    5    5    0    0  0.15271641728E+03  0.33538284606E+02  0.19160836311E+03  0.24730726931E+03  0.00000000000E+00 0.  1.
        -13    1    5    5    0    0  0.40270138411E+03  0.21085781722E+03  0.40371368871E+03  0.60795901696E+03  0.00000000000E+00 0. -1.
          2    1    6    6  503    0 -0.74314921377E+02 -0.23819104647E+02  0.16406101082E+03  0.18167573464E+03  0.00000000000E+00 0. -1.
         -2    1    6    6    0  503 -0.23006509234E+03  0.91410489556E+02  0.54930391026E+03  0.60251191701E+03  0.00000000000E+00 0.  1.
<mgrwt>
<rscale>  0 0.14880687E+04</rscale>
<asrwt>0</asrwt>
<pdfrwt beam="1">  1        2 0.43356477E+00 0.14880687E+04</pdfrwt>
<pdfrwt beam="2">  1       -1 0.30220752E-01 0.14880687E+04</pdfrwt>
<totfact> 0.25149697E+01</totfact>
</mgrwt>
</event>
<event>
12    7  0.1711607E-007  0.2347872E+04  0.7818608E-02  0.8459282E-01
          2   -1    0    0  501    0  0.00000000000E+00  0.00000000000E+00  0.16868359903E+04  0.16868359903E+04  0.00000000000E+00 0. -1.
         -1   -1    0    0    0  501 -0.00000000000E+00 -0.00000000000E+00 -0.81698825555E+03  0.81698825555E+03  0.00000000000E+00 0.  1.
         24    2    1    2    0    0 -0.13149675509E+03  0.61938505589E+03  0.11671043050E+04  0.13301867148E+04  0.79592670467E+02 0.  0.
        254    2    1    2    0    0  0.13149675509E+03 -0.61938505589E+03 -0.29725657026E+03  0.11736375311E+04  0.94240879765E+03 0.  0.
         23    2    4    4    0    0  0.48601697384E+03 -0.12539503610E+03 -0.21408596097E+03  0.55317184865E+03  0.90718694455E+02 0.  0.
         23    2    4    4    0    0 -0.35452021874E+03 -0.49399001978E+03 -0.83170609293E+02  0.62046568249E+03  0.91376078677E+02 0.  0.
          4    1    3    3  502    0 -0.19361117442E+02  0.11353115261E+03  0.28147243785E+03  0.30412318022E+03  0.00000000000E+00 0. -1.
         -3    1    3    3    0  502 -0.11213563765E+03  0.50585390328E+03  0.88563186720E+03  0.10260635345E+04  0.00000000000E+00 0.  1.
         13    1    5    5    0    0  0.22632927926E+03 -0.25530203969E+02 -0.13124795858E+03  0.26287403941E+03  0.00000000000E+00 0.  1.
        -13    1    5    5    0    0  0.25968769458E+03 -0.99864832135E+02 -0.82838002387E+02  0.29029780924E+03  0.00000000000E+00 0. -1.
          2    1    6    6  503    0 -0.29958904868E+03 -0.40238015772E+03 -0.10220572185E+03  0.51196620885E+03  0.00000000000E+00 0. -1.
         -2    1    6    6    0  503 -0.54931170056E+02 -0.91609862059E+02  0.19035112561E+02  0.10849947364E+03  0.00000000000E+00 0.  1.
<mgrwt>
<rscale>  0 0.23478715E+04</rscale>
<asrwt>0</asrwt>
<pdfrwt beam="1">  1        2 0.25951323E+00 0.23478715E+04</pdfrwt>
<pdfrwt beam="2">  1       -1 0.12569050E+00 0.23478715E+04</pdfrwt>
<totfact> 0.56613023E+00</totfact>
</mgrwt>
</event>
<event>
12    7  0.1711607E-007  0.3678817E+04  0.7818608E-02  0.8072673E-01
         -1   -1    0    0    0  501 -0.00000000000E+00  0.00000000000E+00  0.17451801703E+04  0.17451801703E+04  0.00000000000E+00 0.  1.
          2   -1    0    0  501    0  0.00000000000E+00 -0.00000000000E+00 -0.19387242861E+04  0.19387242861E+04  0.00000000000E+00 0. -1.
         24    2    1    2    0    0 -0.11318622156E+04 -0.79729602370E+03 -0.11299509553E+04  0.17888722595E+04  0.80509470090E+02 0.  0.
        254    2    1    2    0    0  0.11318622156E+04  0.79729602370E+03  0.93640683956E+03  0.18950321969E+04  0.89302644627E+03 0.  0.
         23    2    4    4    0    0  0.10474664761E+04  0.27463205158E+03  0.77048375693E+03  0.13322967141E+04  0.93597715154E+02 0.  0.
         23    2    4    4    0    0  0.84395739482E+02  0.52266397212E+03  0.16592308262E+03  0.56273548287E+03  0.94023857252E+02 0.  0.
          2    1    3    3  502    0 -0.10622524988E+04 -0.72320804319E+03 -0.10523895596E+04  0.16610039224E+04  0.00000000000E+00 0. -1.
         -1    1    3    3    0  502 -0.69609716772E+02 -0.74087980516E+02 -0.77561395703E+02  0.12786833709E+03  0.00000000000E+00 0.  1.
         13    1    5    5    0    0  0.77598311722E+03  0.23070146063E+03  0.61235223951E+03  0.10150607013E+04  0.00000000000E+00 0. -1.
        -13    1    5    5    0    0  0.27148335888E+03  0.43930590946E+02  0.15813151743E+03  0.31723601273E+03  0.00000000000E+00 0.  1.
          4    1    6    6  503    0  0.60410949990E+02  0.43119638404E+03  0.97975727725E+02  0.44629479911E+03  0.00000000000E+00 0. -1.
         -4    1    6    6    0  503  0.23984789491E+02  0.91467588083E+02  0.67947354896E+02  0.11644068376E+03  0.00000000000E+00 0.  1.
<mgrwt>
<rscale>  0 0.36788168E+04</rscale>
<asrwt>0</asrwt>
<pdfrwt beam="1">  1        2 0.29826527E+00 0.36788168E+04</pdfrwt>
<pdfrwt beam="2">  1       -1 0.26848926E+00 0.36788168E+04</pdfrwt>
<totfact> 0.35185150E-01</totfact>
</mgrwt>
</event>
<event>
12    7  0.1711607E-007  0.1350678E+04  0.7818608E-02  0.8990315E-01
         -1   -1    0    0    0  501 -0.00000000000E+00  0.00000000000E+00  0.20454450690E+03  0.20454450690E+03  0.00000000000E+00 0.  1.
          2   -1    0    0  501    0  0.00000000000E+00 -0.00000000000E+00 -0.22297487574E+04  0.22297487574E+04  0.00000000000E+00 0. -1.
         24    2    1    2    0    0 -0.44849645786E+02 -0.12689358933E+03 -0.12038062986E+04  0.12139378050E+04  0.79886896559E+02 0.  0.
        254    2    1    2    0    0  0.44849645786E+02  0.12689358933E+03 -0.82139795194E+03  0.12203554593E+04  0.89244572823E+03 0.  0.
         23    2    4    4    0    0 -0.40120794392E+03  0.20845913556E+02 -0.52343471723E+03  0.66602330413E+03  0.90558114322E+02 0.  0.
         23    2    4    4    0    0  0.44605758970E+03  0.10604767578E+03 -0.29796323471E+03  0.55433215517E+03  0.91041562715E+02 0.  0.
          2    1    3    3  502    0 -0.67477406061E+02 -0.10633369168E+03 -0.96825540242E+03  0.97641107052E+03  0.00000000000E+00 0. -1.
         -1    1    3    3    0  502  0.22627760275E+02 -0.20559897652E+02 -0.23555089617E+03  0.23752673452E+03  0.00000000000E+00 0.  1.
         13    1    5    5    0    0 -0.19187958611E+03  0.41639195837E+02 -0.30526487543E+03  0.36295763164E+03  0.00000000000E+00 0. -1.
        -13    1    5    5    0    0 -0.20932835781E+03 -0.20793282281E+02 -0.21816984180E+03  0.30306567249E+03  0.00000000000E+00 0.  1.
          1    1    6    6  503    0  0.33707329828E+03  0.40392997486E+02 -0.23026982229E+03  0.41021237636E+03  0.00000000000E+00 0. -1.
         -1    1    6    6    0  503  0.10898429142E+03  0.65654678290E+02 -0.67693412419E+02  0.14411977880E+03  0.00000000000E+00 0.  1.
<mgrwt>
<rscale>  0 0.13506781E+04</rscale>
<asrwt>0</asrwt>
<pdfrwt beam="1">  1        2 0.34303830E+00 0.13506781E+04</pdfrwt>
<pdfrwt beam="2">  1       -1 0.31468383E-01 0.13506781E+04</pdfrwt>
<totfact> 0.51945061E+01</totfact>
</mgrwt>
</event>
<event>
12    7  0.1711607E-007  0.2857467E+04  0.7818608E-02  0.8285646E-01
          2   -1    0    0  501    0  0.00000000000E+00  0.00000000000E+00  0.11053439562E+04  0.11053439562E+04  0.00000000000E+00 0. -1.
         -1   -1    0    0    0  501 -0.00000000000E+00 -0.00000000000E+00 -0.18467371682E+04  0.18467371682E+04  0.00000000000E+00 0.  1.
         24    2    1    2    0    0 -0.52208814972E+03  0.73920170241E+03  0.60758936456E+03  0.10940699602E+04  0.93963019413E+02 0.  0.
        254    2    1    2    0    0  0.52208814972E+03 -0.73920170241E+03 -0.13489825765E+04  0.18580111641E+04  0.90191812339E+03 0.  0.
         23    2    4    4    0    0  0.17648801603E+03  0.42724836798E+02  0.56506967636E+02  0.21074867786E+03  0.90821453128E+02 0.  0.
         23    2    4    4    0    0  0.34560013369E+03 -0.78192653920E+03 -0.14054895442E+04  0.16472624863E+04  0.84995733786E+02 0.  0.
          4    1    3    3  502    0 -0.43076055399E+02  0.25658644742E+02  0.27320179392E+02  0.57099078808E+02  0.00000000000E+00 0. -1.
         -3    1    3    3    0  502 -0.47901209432E+03  0.71354305766E+03  0.58026918517E+03  0.10369708814E+04  0.00000000000E+00 0.  1.
         13    1    5    5    0    0  0.10002921462E+03  0.26392449522E+02  0.78117652110E+02  0.12963322390E+03  0.00000000000E+00 0.  1.
        -13    1    5    5    0    0  0.76458801411E+02  0.16332387276E+02 -0.21610684474E+02  0.81115453958E+02  0.00000000000E+00 0. -1.
          2    1    6    6  503    0  0.29201543420E+02 -0.13541041110E+03 -0.20150876219E+03  0.24452912058E+03  0.00000000000E+00 0. -1.
         -2    1    6    6    0  503  0.31639859027E+03 -0.64651612810E+03 -0.12039807820E+04  0.14027333657E+04  0.00000000000E+00 0.  1.
<mgrwt>
<rscale>  0 0.28574672E+04</rscale>
<asrwt>0</asrwt>
<pdfrwt beam="1">  1        2 0.17005292E+00 0.28574672E+04</pdfrwt>
<pdfrwt beam="2">  1       -1 0.28411341E+00 0.28574672E+04</pdfrwt>
<totfact> 0.89318230E-01</totfact>
</mgrwt>
</event>
<event>
12    7  0.1711607E-007  0.1394988E+04  0.7818608E-02  0.8957455E-01
         -1   -1    0    0    0  501 -0.00000000000E+00  0.00000000000E+00  0.14714859977E+04  0.14714859977E+04  0.00000000000E+00 0.  1.
          2   -1    0    0  501    0  0.00000000000E+00 -0.00000000000E+00 -0.33061662682E+03  0.33061662682E+03  0.00000000000E+00 0. -1.
         24    2    1    2    0    0  0.14535303538E+03  0.33878072440E+03  0.54910335287E+03  0.66611184246E+03  0.79313368435E+02 0.  0.
        254    2    1    2    0    0 -0.14535303538E+03 -0.33878072440E+03  0.59176601800E+03  0.11359907821E+04  0.89687688829E+03 0.  0.
         23    2    4    4    0    0 -0.10432746648E+03 -0.61929033752E+03  0.24753440948E+03  0.68096044756E+03  0.89605272496E+02 0.  0.
         23    2    4    4    0    0 -0.41025568896E+02  0.28050961312E+03  0.34423160851E+03  0.45503033450E+03  0.90490135701E+02 0.  0.
          4    1    3    3  502    0  0.22448591106E+02  0.63052745968E+02  0.16150332840E+03  0.17482251886E+03  0.00000000000E+00 0. -1.
         -3    1    3    3    0  502  0.12290444427E+03  0.27572797843E+03  0.38760002447E+03  0.49128932360E+03  0.00000000000E+00 0.  1.
         13    1    5    5    0    0 -0.97605089545E+02 -0.46354288996E+03  0.14921278088E+03  0.49665200927E+03  0.00000000000E+00 0. -1.
        -13    1    5    5    0    0 -0.67223769351E+01 -0.15574744756E+03  0.98321628607E+02  0.18430843829E+03  0.00000000000E+00 0.  1.
          2    1    6    6  503    0 -0.65533626845E+02  0.21430494643E+03  0.28713181938E+03  0.36423337026E+03  0.00000000000E+00 0. -1.
         -2    1    6    6    0  503  0.24508057949E+02  0.66204666683E+02  0.57099789137E+02  0.90796964236E+02  0.00000000000E+00 0.  1.
<mgrwt>
<rscale>  0 0.13949878E+04</rscale>
<asrwt>0</asrwt>
<pdfrwt beam="1">  1        2 0.50864097E-01 0.13949878E+04</pdfrwt>
<pdfrwt beam="2">  1       -1 0.22638246E+00 0.13949878E+04</pdfrwt>
<totfact> 0.10958230E+01</totfact>
</mgrwt>
</event>
<event>
12    7  0.1711607E-007  0.1314819E+04  0.7818608E-02  0.9017895E-01
          2   -1    0    0  501    0  0.00000000000E+00  0.00000000000E+00  0.20098831814E+04  0.20098831814E+04  0.00000000000E+00 0. -1.
         -1   -1    0    0    0  501 -0.00000000000E+00 -0.00000000000E+00 -0.21503115511E+03  0.21503115511E+03  0.00000000000E+00 0.  1.
         24    2    1    2    0    0  0.21874435255E+02 -0.17562341309E+03  0.98153404879E+03  0.10006303585E+04  0.80808114537E+02 0.  0.
        254    2    1    2    0    0 -0.21874435255E+02  0.17562341309E+03  0.81331797748E+03  0.12242839779E+04  0.89781014252E+03 0.  0.
         23    2    4    4    0    0 -0.18584991655E+03 -0.28787561754E+03  0.55988249142E+03  0.66366291564E+03  0.97813591758E+02 0.  0.
         23    2    4    4    0    0  0.16397548130E+03  0.46349903063E+03  0.25343548605E+03  0.56062106230E+03  0.91362574628E+02 0.  0.
          2    1    3    3  502    0  0.41086899837E+02 -0.99858703601E+02  0.70654007201E+03  0.71474384739E+03  0.00000000000E+00 0. -1.
         -1    1    3    3    0  502 -0.19212464583E+02 -0.75764709485E+02  0.27499397677E+03  0.28588651116E+03  0.00000000000E+00 0.  1.
         13    1    5    5    0    0 -0.17255863673E+03 -0.21205765432E+03  0.48214367044E+03  0.55426297983E+03  0.00000000000E+00 0. -1.
        -13    1    5    5    0    0 -0.13291279823E+02 -0.75817963224E+02  0.77738820981E+02  0.10939993581E+03  0.00000000000E+00 0.  1.
          1    1    6    6  503    0  0.14359280888E+03  0.35450929168E+03  0.23302200135E+03  0.44787831580E+03  0.00000000000E+00 0. -1.
         -1    1    6    6    0  503  0.20382672416E+02  0.10898973895E+03  0.20413484707E+02  0.11274274651E+03  0.00000000000E+00 0.  1.
<mgrwt>
<rscale>  0 0.13148194E+04</rscale>
<asrwt>0</asrwt>
<pdfrwt beam="1">  1        2 0.30921278E+00 0.13148194E+04</pdfrwt>
<pdfrwt beam="2">  1       -1 0.33081717E-01 0.13148194E+04</pdfrwt>
<totfact> 0.63211833E+01</totfact>
</mgrwt>
</event>
<event>
12    7  0.1711607E-007  0.2349325E+04  0.7818608E-02  0.8458723E-01
         -1   -1    0    0    0  501 -0.00000000000E+00  0.00000000000E+00  0.11847947265E+04  0.11847947265E+04  0.00000000000E+00 0.  1.
          2   -1    0    0  501    0  0.00000000000E+00 -0.00000000000E+00 -0.11646165111E+04  0.11646165111E+04  0.00000000000E+00 0. -1.
         24    2    1    2    0    0  0.56333546012E+03 -0.81575883857E+03 -0.15910208075E+03  0.10064789963E+04  0.69836771057E+02 0.  0.
        254    2    1    2    0    0 -0.56333546012E+03  0.81575883857E+03  0.17928029617E+03  0.13429322413E+04  0.88798437869E+03 0.  0.
         23    2    4    4    0    0 -0.33172460323E+03  0.22419189040E+03 -0.32717811513E+03  0.52529244199E+03  0.92646718686E+02 0.  0.
         23    2    4    4    0    0 -0.23161085689E+03  0.59156694816E+03  0.50645841130E+03  0.81763979931E+03  0.91867708401E+02 0.  0.
          4    1    3    3  502    0  0.23427844138E+03 -0.35709702833E+03 -0.35093032949E+02  0.42852794156E+03  0.00000000000E+00 0. -1.
         -3    1    3    3    0  502  0.32905701873E+03 -0.45866181024E+03 -0.12400904780E+03  0.57795105475E+03  0.00000000000E+00 0.  1.
         13    1    5    5    0    0 -0.12739831482E+03  0.48563688263E+02 -0.15062163339E+03  0.20316406887E+03  0.00000000000E+00 0. -1.
        -13    1    5    5    0    0 -0.20432628841E+03  0.17562820214E+03 -0.17655648174E+03  0.32212837312E+03  0.00000000000E+00 0.  1.
          1    1    6    6  503    0 -0.49131036855E+02  0.11632356918E+03  0.56985040735E+02  0.13853637211E+03  0.00000000000E+00 0. -1.
         -1    1    6    6    0  503 -0.18247982003E+03  0.47524337898E+03  0.44947337056E+03  0.67910342720E+03  0.00000000000E+00 0.  1.
<mgrwt>
<rscale>  0 0.23493246E+04</rscale>
<asrwt>0</asrwt>
<pdfrwt beam="1">  1        2 0.17917177E+00 0.23493246E+04</pdfrwt>
<pdfrwt beam="2">  1       -1 0.18227611E+00 0.23493246E+04</pdfrwt>
<totfact> 0.41040882E+00</totfact>
</mgrwt>
</event>
<event>
12    7  0.1711607E-007  0.2906415E+04  0.7818608E-02  0.8270971E-01
          2   -1    0    0  501    0  0.00000000000E+00  0.00000000000E+00  0.21357380959E+04  0.21357380959E+04  0.00000000000E+00 0. -1.
         -1   -1    0    0    0  501 -0.00000000000E+00 -0.00000000000E+00 -0.98879731590E+03  0.98879731590E+03  0.00000000000E+00 0.  1.
         24    2    1    2    0    0  0.67252851160E+03  0.56919659349E+03  0.15640959909E+04  0.17968235466E+04  0.76806433157E+02 0.  0.
        254    2    1    2    0    0 -0.67252851160E+03 -0.56919659349E+03 -0.41715521083E+03  0.13277118652E+04  0.90139944867E+03 0.  0.
         23    2    4    4    0    0 -0.56376790576E+03  0.75867826508E+02 -0.66689419881E+02  0.57997624578E+03  0.91295061660E+02 0.  0.
         23    2    4    4    0    0 -0.10876060584E+03 -0.64506442000E+03 -0.35046579095E+03  0.74773561940E+03  0.91352671323E+02 0.  0.
          4    1    3    3  502    0  0.14908619619E+03  0.16226284308E+03  0.35335614376E+03  0.41643305401E+03  0.00000000000E+00 0. -1.
         -1    1    3    3    0  502  0.52344231541E+03  0.40693375041E+03  0.12107398471E+04  0.13803904926E+04  0.00000000000E+00 0.  1.
         13    1    5    5    0    0 -0.44790508235E+03  0.97161348059E+02 -0.53900379857E+02  0.46148081358E+03  0.00000000000E+00 0. -1.
        -13    1    5    5    0    0 -0.11586282341E+03 -0.21293521551E+02 -0.12789040024E+02  0.11849543220E+03  0.00000000000E+00 0.  1.
          2    1    6    6  503    0 -0.81130150971E+02 -0.31067452620E+03 -0.21195310055E+03  0.38474001541E+03  0.00000000000E+00 0. -1.
         -2    1    6    6    0  503 -0.27630454870E+02 -0.33438989381E+03 -0.13851269041E+03  0.36299560399E+03  0.00000000000E+00 0.  1.
<mgrwt>
<rscale>  0 0.29064150E+04</rscale>
<asrwt>0</asrwt>
<pdfrwt beam="1">  1        2 0.32857509E+00 0.29064150E+04</pdfrwt>
<pdfrwt beam="2">  1       -1 0.15212266E+00 0.29064150E+04</pdfrwt>
<totfact> 0.18488479E+00</totfact>
</mgrwt>
</event>
<event>
12    7  0.1711607E-007  0.2445276E+04  0.7818608E-02  0.8422745E-01
         -1   -1    0    0    0  501 -0.00000000000E+00  0.00000000000E+00  0.16923553742E+04  0.16923553742E+04  0.00000000000E+00 0.  1.
          2   -1    0    0  501    0  0.00000000000E+00 -0.00000000000E+00 -0.88329173560E+03  0.88329173560E+03  0.00000000000E+00 0. -1.
         24    2    1    2    0    0  0.84332086758E+02  0.33862353439E+03 -0.69394762332E+03  0.78084108846E+03  0.79822945377E+02 0.  0.
        254    2    1    2    0    0 -0.84332086758E+02 -0.33862353439E+03  0.15030112619E+04  0.17948060213E+04  0.91679223483E+03 0.  0.
         23    2    4    4    0    0 -0.35059489109E+03 -0.17976838785E+03  0.19740275824E+03  0.44973346297E+03  0.89771308506E+02 0.  0.
         23    2    4    4    0    0  0.26626280433E+03 -0.15885514654E+03  0.13056085036E+04  0.13450725583E+04  0.92064020279E+02 0.  0.
          4    1    3    3  502    0  0.39994365959E+02  0.22634584427E+03 -0.52584199741E+03  0.57388308632E+03  0.00000000000E+00 0. -1.
         -3    1    3    3    0  502  0.44337720798E+02  0.11227769012E+03 -0.16810562591E+03  0.20695800213E+03  0.00000000000E+00 0.  1.
         13    1    5    5    0    0 -0.29366072467E+03 -0.17516848968E+03  0.19251206375E+03  0.39240478550E+03  0.00000000000E+00 0. -1.
        -13    1    5    5    0    0 -0.56934166416E+02 -0.45998981720E+01  0.48906944878E+01  0.57328677477E+02  0.00000000000E+00 0.  1.
          1    1    6    6  503    0  0.15905696025E+03 -0.10651110875E+03  0.97458476749E+03  0.99320652531E+03  0.00000000000E+00 0. -1.
         -1    1    6    6    0  503  0.10720584407E+03 -0.52344037793E+02  0.33102373616E+03  0.35186603302E+03  0.00000000000E+00 0.  1.
<mgrwt>
<rscale>  0 0.24452759E+04</rscale>
<asrwt>0</asrwt>
<pdfrwt beam="1">  1        2 0.13589104E+00 0.24452759E+04</pdfrwt>
<pdfrwt beam="2">  1       -1 0.26036237E+00 0.24452759E+04</pdfrwt>
<totfact> 0.18352260E+00</totfact>
</mgrwt>
</event>
<event>
12    7  0.1711607E-007  0.1141459E+04  0.7818608E-02  0.9165700E-01
          2   -1    0    0  501    0  0.00000000000E+00  0.00000000000E+00  0.25914685936E+04  0.25914685936E+04  0.00000000000E+00 0. -1.
         -1   -1    0    0    0  501 -0.00000000000E+00 -0.00000000000E+00 -0.12569395914E+03  0.12569395914E+03  0.00000000000E+00 0.  1.
         24    2    1    2    0    0 -0.14798038146E+02 -0.15759697972E+03  0.16830020538E+03  0.24418209287E+03  0.79019905057E+02 0.  0.
        254    2    1    2    0    0  0.14798038146E+02  0.15759697972E+03  0.22974744291E+04  0.24729804599E+04  0.90121463186E+03 0.  0.
         23    2    4    4    0    0  0.57545304203E+02 -0.35279136836E+03  0.68802827508E+03  0.78155255651E+03  0.98327410531E+02 0.  0.
         23    2    4    4    0    0 -0.42747266058E+02  0.51038834807E+03  0.16094461540E+04  0.16914279034E+04  0.91037547310E+02 0.  0.
          2    1    3    3  502    0 -0.17009501148E+02 -0.56376788449E+02  0.11631368805E+03  0.13037077676E+03  0.00000000000E+00 0. -1.
         -3    1    3    3    0  502  0.22114630018E+01 -0.10122019127E+03  0.51986517331E+02  0.11381131611E+03  0.00000000000E+00 0.  1.
         13    1    5    5    0    0 -0.10063785412E+02 -0.55984711313E+02  0.18540220242E+03  0.19393180332E+03  0.00000000000E+00 0.  1.
        -13    1    5    5    0    0  0.67609089615E+02 -0.29680665704E+03  0.50262607265E+03  0.58762075319E+03  0.00000000000E+00 0. -1.
          3    1    6    6  503    0 -0.36674601205E+02  0.50937414895E+03  0.15568246333E+04  0.16384474324E+04  0.00000000000E+00 0. -1.
         -3    1    6    6    0  503 -0.60726648527E+01  0.10141991272E+01  0.52621520787E+02  0.52980471008E+02  0.00000000000E+00 0.  1.
<mgrwt>
<rscale>  0 0.11414586E+04</rscale>
<asrwt>0</asrwt>
<pdfrwt beam="1">  1        2 0.39868744E+00 0.11414586E+04</pdfrwt>
<pdfrwt beam="2">  1       -1 0.19337534E-01 0.11414586E+04</pdfrwt>
<totfact> 0.75847175E+01</totfact>
</mgrwt>
</event>
<event>
12    7  0.1711607E-007  0.1705105E+04  0.7818608E-02  0.8758458E-01
         -1   -1    0    0    0  501 -0.00000000000E+00  0.00000000000E+00  0.55494557953E+03  0.55494557953E+03  0.00000000000E+00 0.  1.
          2   -1    0    0  501    0  0.00000000000E+00 -0.00000000000E+00 -0.13097602864E+04  0.13097602864E+04  0.00000000000E+00 0. -1.
         24    2    1    2    0    0 -0.34437373311E+03  0.41755605644E+03 -0.57653318244E+03  0.79732490418E+03  0.10193215414E+03 0.  0.
        254    2    1    2    0    0  0.34437373311E+03 -0.41755605644E+03 -0.17828152439E+03  0.10673809617E+04  0.90253614175E+03 0.  0.
         23    2    4    4    0    0 -0.93402741619E+02 -0.56069390099E+03 -0.15636466483E+03  0.59617837364E+03  0.88752588882E+02 0.  0.
         23    2    4    4    0    0  0.43777647473E+03  0.14313784455E+03 -0.21916859564E+02  0.47120258808E+03  0.97030128852E+02 0.  0.
          4    1    3    3  502    0 -0.28656721660E+03  0.36174266252E+03 -0.53608407639E+03  0.70736458809E+03  0.00000000000E+00 0. -1.
         -3    1    3    3    0  502 -0.57806516510E+02  0.55813393920E+02 -0.40449106046E+02  0.89960316095E+02  0.00000000000E+00 0.  1.
         13    1    5    5    0    0 -0.45427932358E+02 -0.39977335585E+03 -0.73800907323E+02  0.40905868407E+03  0.00000000000E+00 0. -1.
        -13    1    5    5    0    0 -0.47974809261E+02 -0.16092054514E+03 -0.82563757507E+02  0.18711968957E+03  0.00000000000E+00 0.  1.
          1    1    6    6  503    0  0.34578734763E+03  0.14628278283E+03  0.43620715412E+01  0.37548178385E+03  0.00000000000E+00 0. -1.
         -1    1    6    6    0  503  0.91989127105E+02 -0.31449382821E+01 -0.26278931105E+02  0.95720804230E+02  0.00000000000E+00 0.  1.
<mgrwt>
<rscale>  0 0.17051049E+04</rscale>
<asrwt>0</asrwt>
<pdfrwt beam="1">  1        2 0.20150158E+00 0.17051049E+04</pdfrwt>
<pdfrwt beam="2">  1       -1 0.85376244E-01 0.17051049E+04</pdfrwt>
<totfact> 0.23991572E+01</totfact>
</mgrwt>
</event>
<event>
12    7  0.1711607E-007  0.1217556E+04  0.7818608E-02  0.9097627E-01
         -1   -1    0    0    0  501 -0.00000000000E+00  0.00000000000E+00  0.36685578780E+03  0.36685578780E+03  0.00000000000E+00 0.  1.
          2   -1    0    0  501    0  0.00000000000E+00 -0.00000000000E+00 -0.10102358104E+04  0.10102358104E+04  0.00000000000E+00 0. -1.
         24    2    1    2    0    0  0.87666951605E+02 -0.84375235697E+02  0.12150671118E+03  0.18965697479E+03  0.80007577267E+02 0.  0.
        254    2    1    2    0    0 -0.87666951605E+02  0.84375235697E+02 -0.76488673382E+03  0.11874346235E+04  0.90008032676E+03 0.  0.
         23    2    4    4    0    0 -0.10105290944E+02 -0.38159314384E+03 -0.50510512360E+03  0.63981677445E+03  0.92297749939E+02 0.  0.
         23    2    4    4    0    0 -0.77561660661E+02  0.46596837953E+03 -0.25978161022E+03  0.54761784901E+03  0.96210610748E+02 0.  0.
          4    1    3    3  502    0  0.38186904981E+02 -0.14127016800E+02 -0.14925166628E+00  0.40716514976E+02  0.00000000000E+00 0. -1.
         -3    1    3    3    0  502  0.49480046624E+02 -0.70248218896E+02  0.12165596285E+03  0.14894045981E+03  0.00000000000E+00 0.  1.
         13    1    5    5    0    0 -0.64506148166E+01 -0.34734795058E+03 -0.40306665864E+03  0.53212305015E+03  0.00000000000E+00 0.  1.
        -13    1    5    5    0    0 -0.36546761279E+01 -0.34245193262E+02 -0.10203846497E+03  0.10769372429E+03  0.00000000000E+00 0. -1.
          2    1    6    6  503    0 -0.13695509698E+02  0.13707902631E+03 -0.28968844662E+02  0.14077435988E+03  0.00000000000E+00 0. -1.
         -2    1    6    6    0  503 -0.63866150963E+02  0.32888935323E+03 -0.23081276555E+03  0.40684348913E+03  0.00000000000E+00 0.  1.
<mgrwt>
<rscale>  0 0.12175563E+04</rscale>
<asrwt>0</asrwt>
<pdfrwt beam="1">  1        2 0.15542089E+00 0.12175563E+04</pdfrwt>
<pdfrwt beam="2">  1       -1 0.56439353E-01 0.12175563E+04</pdfrwt>
<totfact> 0.88609945E+01</totfact>
</mgrwt>
</event>
<event>
12    7  0.1711607E-007  0.1980905E+04  0.7818608E-02  0.8615601E-01
         -1   -1    0    0    0  501 -0.00000000000E+00  0.00000000000E+00  0.63042547530E+03  0.63042547530E+03  0.00000000000E+00 0.  1.
          2   -1    0    0  501    0  0.00000000000E+00 -0.00000000000E+00 -0.15560858643E+04  0.15560858643E+04  0.00000000000E+00 0. -1.
         24    2    1    2    0    0  0.54109402604E+03 -0.53246300329E+03 -0.21772936677E+03  0.79378925833E+03  0.79973211802E+02 0.  0.
        254    2    1    2    0    0 -0.54109402604E+03  0.53246300329E+03 -0.70793102226E+03  0.13927220813E+04  0.92855202794E+03 0.  0.
         23    2    4    4    0    0 -0.29356863246E+03  0.65752560610E+02  0.17506162376E+03  0.35977735048E+03  0.91034216712E+02 0.  0.
         23    2    4    4    0    0 -0.24752539358E+03  0.46671044268E+03 -0.88299264602E+03  0.10329447308E+04  0.90616478896E+02 0.  0.
          2    1    3    3  502    0  0.26324832699E+03 -0.28516221451E+03 -0.14794713667E+03  0.41533784501E+03  0.00000000000E+00 0. -1.
         -1    1    3    3    0  502  0.27784569904E+03 -0.24730078878E+03 -0.69782230100E+02  0.37845141332E+03  0.00000000000E+00 0.  1.
         13    1    5    5    0    0 -0.16089093703E+03  0.87506132533E+01  0.13422142547E+03  0.20970898385E+03  0.00000000000E+00 0.  1.
        -13    1    5    5    0    0 -0.13267769543E+03  0.57001947357E+02  0.40840198290E+02  0.15006836663E+03  0.00000000000E+00 0. -1.
          3    1    6    6  503    0 -0.18002138439E+03  0.29961176331E+03 -0.50472715622E+03  0.61394169900E+03  0.00000000000E+00 0. -1.
         -3    1    6    6    0  503 -0.67504009195E+02  0.16709867937E+03 -0.37826548980E+03  0.41900303182E+03  0.00000000000E+00 0.  1.
<mgrwt>
<rscale>  0 0.19809050E+04</rscale>
<asrwt>0</asrwt>
<pdfrwt beam="1">  1        2 0.23939783E+00 0.19809050E+04</pdfrwt>
<pdfrwt beam="2">  1       -1 0.96988534E-01 0.19809050E+04</pdfrwt>
<totfact> 0.12785113E+01</totfact>
</mgrwt>
</event>
<event>
12    7  0.1711607E-007  0.1133996E+04  0.7818608E-02  0.9172676E-01
          2   -1    0    0  501    0  0.00000000000E+00  0.00000000000E+00  0.97071508864E+03  0.97071508864E+03  0.00000000000E+00 0. -1.
         -1   -1    0    0    0  501 -0.00000000000E+00 -0.00000000000E+00 -0.33118568514E+03  0.33118568514E+03  0.00000000000E+00 0.  1.
         24    2    1    2    0    0  0.62349686441E+02  0.38166264306E+02  0.32714162436E+03  0.34470370004E+03  0.80342089242E+02 0.  0.
        254    2    1    2    0    0 -0.62349686441E+02 -0.38166264306E+02  0.31238777915E+03  0.95719707374E+03  0.90182923344E+03 0.  0.
         23    2    4    4    0    0 -0.18107851079E+03 -0.30078142615E+03 -0.16028675031E+03  0.39623551038E+03  0.89732067721E+02 0.  0.
         23    2    4    4    0    0  0.11872882435E+03  0.26261516184E+03  0.47267452946E+03  0.56096156335E+03  0.90517444733E+02 0.  0.
          2    1    3    3  502    0  0.77498205134E+02  0.21264132503E+02  0.19981380148E+03  0.21536873123E+03  0.00000000000E+00 0. -1.
         -1    1    3    3    0  502 -0.15148518694E+02  0.16902131803E+02  0.12732782288E+03  0.12933496881E+03  0.00000000000E+00 0.  1.
         13    1    5    5    0    0 -0.14461497824E+03 -0.19748323662E+03 -0.14791787336E+03  0.28599443689E+03  0.00000000000E+00 0.  1.
        -13    1    5    5    0    0 -0.36463532553E+02 -0.10329818953E+03 -0.12368876949E+02  0.11024107349E+03  0.00000000000E+00 0. -1.
          2    1    6    6  503    0  0.86103812144E+02  0.14019757207E+03  0.19089944516E+03  0.25201552302E+03  0.00000000000E+00 0. -1.
         -2    1    6    6    0  503  0.32625012204E+02  0.12241758977E+03  0.28177508430E+03  0.30894604033E+03  0.00000000000E+00 0.  1.
<mgrwt>
<rscale>  0 0.11339964E+04</rscale>
<asrwt>0</asrwt>
<pdfrwt beam="1">  1        2 0.14934078E+00 0.11339964E+04</pdfrwt>
<pdfrwt beam="2">  1       -1 0.50951645E-01 0.11339964E+04</pdfrwt>
<totfact> 0.11512021E+02</totfact>
</mgrwt>
</event>
<event>
12    7  0.1711607E-007  0.2579439E+04  0.7818608E-02  0.8375219E-01
         -1   -1    0    0    0  501 -0.00000000000E+00  0.00000000000E+00  0.77990267478E+03  0.77990267478E+03  0.00000000000E+00 0.  1.
          2   -1    0    0  501    0  0.00000000000E+00 -0.00000000000E+00 -0.21327999127E+04  0.21327999127E+04  0.00000000000E+00 0. -1.
         24    2    1    2    0    0  0.23491619135E+03  0.11003452617E+04 -0.45207754951E+03  0.12150566368E+04  0.77738073403E+02 0.  0.
        254    2    1    2    0    0 -0.23491619135E+03 -0.11003452617E+04 -0.90081968840E+03  0.16976459507E+04  0.89698403050E+03 0.  0.
         23    2    4    4    0    0  0.24224701125E+03 -0.27192137680E+02 -0.13570031619E+03  0.29254587378E+03  0.88008440751E+02 0.  0.
         23    2    4    4    0    0 -0.47716320261E+03 -0.10731531240E+04 -0.76511937221E+03  0.14051000769E+04  0.97755935214E+02 0.  0.
          2    1    3    3  502    0  0.15609508882E+00  0.52956111957E+00  0.21327353355E+01  0.22030344227E+01  0.00000000000E+00 0. -1.
         -1    1    3    3    0  502  0.23476009627E+03  0.10998157005E+04 -0.45421028485E+03  0.12128536024E+04  0.00000000000E+00 0.  1.
         13    1    5    5    0    0  0.99273877681E+02 -0.50522356772E+02 -0.37494033209E+02  0.11753133135E+03  0.00000000000E+00 0. -1.
        -13    1    5    5    0    0  0.14297313357E+03  0.23330219092E+02 -0.98206282978E+02  0.17501454243E+03  0.00000000000E+00 0.  1.
          3    1    6    6  503    0 -0.23682616320E+02 -0.12365465438E+03 -0.93008447547E+02  0.15653086335E+03  0.00000000000E+00 0. -1.
         -3    1    6    6    0  503 -0.45348058629E+03 -0.94949846961E+03 -0.67211092466E+03  0.12485692135E+04  0.00000000000E+00 0.  1.
<mgrwt>
<rscale>  0 0.25794390E+04</rscale>
<asrwt>0</asrwt>
<pdfrwt beam="1">  1        2 0.32812306E+00 0.25794390E+04</pdfrwt>
<pdfrwt beam="2">  1       -1 0.11998503E+00 0.25794390E+04</pdfrwt>
<totfact> 0.35155999E+00</totfact>
</mgrwt>
</event>
<event>
12    7  0.1711607E-007  0.1590349E+04  0.7818608E-02  0.8826499E-01
         -1   -1    0    0    0  501 -0.00000000000E+00  0.00000000000E+00  0.19252643121E+04  0.19252643121E+04  0.00000000000E+00 0.  1.
          2   -1    0    0  501    0  0.00000000000E+00 -0.00000000000E+00 -0.32842359160E+03  0.32842359160E+03  0.00000000000E+00 0. -1.
         24    2    1    2    0    0  0.15937141501E+03  0.38520645026E+03  0.68580594849E+02  0.43005659923E+03  0.80387333018E+02 0.  0.
        254    2    1    2    0    0 -0.15937141501E+03 -0.38520645026E+03  0.15282601256E+04  0.18236313045E+04  0.90347599070E+03 0.  0.
         23    2    4    4    0    0 -0.16871013675E+03  0.26961479240E+03  0.43722044377E+03  0.54777414007E+03  0.87974687012E+02 0.  0.
         23    2    4    4    0    0  0.93387217482E+01 -0.65482124266E+03  0.10910396819E+04  0.12758571644E+04  0.92551850222E+02 0.  0.
          2    1    3    3  502    0  0.13614027998E+03  0.36342007921E+03  0.79962716861E+02  0.39623524060E+03  0.00000000000E+00 0. -1.
         -1    1    3    3    0  502  0.23231135028E+02  0.21786371051E+02 -0.11382122012E+02  0.33821358633E+02  0.00000000000E+00 0.  1.
         13    1    5    5    0    0 -0.97943532034E+02  0.77217653636E+02  0.17624594690E+03  0.21591233244E+03  0.00000000000E+00 0.  1.
        -13    1    5    5    0    0 -0.70766604720E+02  0.19239713876E+03  0.26097449687E+03  0.33186180763E+03  0.00000000000E+00 0. -1.
          3    1    6    6  503    0 -0.13265804894E+02 -0.49099984371E+03  0.74521804643E+03  0.89252829918E+03  0.00000000000E+00 0. -1.
         -3    1    6    6    0  503  0.22604526642E+02 -0.16382139895E+03  0.34582163544E+03  0.38332886523E+03  0.00000000000E+00 0.  1.
<mgrwt>
<rscale>  0 0.15903487E+04</rscale>
<asrwt>0</asrwt>
<pdfrwt beam="1">  1        2 0.50526707E-01 0.15903487E+04</pdfrwt>
<pdfrwt beam="2">  1       -1 0.29619450E+00 0.15903487E+04</pdfrwt>
<totfact> 0.38169334E+00</totfact>
</mgrwt>
</event>
<event>
12    7  0.1711607E-007  0.2727749E+04  0.7818608E-02  0.8326057E-01
          2   -1    0    0  501    0  0.00000000000E+00  0.00000000000E+00  0.24567615260E+04  0.24567615260E+04  0.00000000000E+00 0. -1.
         -1   -1    0    0    0  501 -0.00000000000E+00 -0.00000000000E+00 -0.75715656026E+03  0.75715656026E+03  0.00000000000E+00 0.  1.
         24    2    1    2    0    0  0.10571277681E+04  0.50105663859E+03  0.38638869342E+03  0.12353045684E+04  0.90023781607E+02 0.  0.
        254    2    1    2    0    0 -0.10571277681E+04 -0.50105663859E+03  0.13132162723E+04  0.19786135178E+04  0.90653053012E+03 0.  0.
         23    2    4    4    0    0 -0.50002292455E+03 -0.53023078877E+02  0.11219058199E+04  0.12328418442E+04  0.91607707882E+02 0.  0.
         23    2    4    4    0    0 -0.55710484351E+03 -0.44803355971E+03  0.19131045242E+03  0.74577167364E+03  0.92064231458E+02 0.  0.
          2    1    3    3  502    0  0.75788622235E+03  0.34217970354E+03  0.31395403903E+03  0.88884510134E+03  0.00000000000E+00 0. -1.
         -1    1    3    3    0  502  0.29924154570E+03  0.15887693505E+03  0.72434654383E+02  0.34645946707E+03  0.00000000000E+00 0.  1.
         13    1    5    5    0    0 -0.41500695995E+03 -0.43952967036E+02  0.83521708651E+03  0.93367565124E+03  0.00000000000E+00 0.  1.
        -13    1    5    5    0    0 -0.85015964600E+02 -0.90701118414E+01  0.28668873336E+03  0.29916619294E+03  0.00000000000E+00 0. -1.
          3    1    6    6  503    0 -0.15372609549E+03 -0.10014608523E+03  0.12526218261E+02  0.18389632124E+03  0.00000000000E+00 0. -1.
         -3    1    6    6    0  503 -0.40337874802E+03 -0.34788747448E+03  0.17878423416E+03  0.56187535240E+03  0.00000000000E+00 0.  1.
<mgrwt>
<rscale>  0 0.27277486E+04</rscale>
<asrwt>0</asrwt>
<pdfrwt beam="1">  1        2 0.37796331E+00 0.27277486E+04</pdfrwt>
<pdfrwt beam="2">  1       -1 0.11648563E+00 0.27277486E+04</pdfrwt>
<totfact> 0.24418391E+00</totfact>
</mgrwt>
</event>
<event>
12    7  0.1711607E-007  0.1997589E+04  0.7818608E-02  0.8607748E-01
         -1   -1    0    0    0  501 -0.00000000000E+00  0.00000000000E+00  0.89993788150E+03  0.89993788150E+03  0.00000000000E+00 0.  1.
          2   -1    0    0  501    0  0.00000000000E+00 -0.00000000000E+00 -0.11085108633E+04  0.11085108633E+04  0.00000000000E+00 0. -1.
         24    2    1    2    0    0 -0.48810728749E+03  0.62070896052E+03 -0.10032654253E+02  0.79375370716E+03  0.80099661162E+02 0.  0.
        254    2    1    2    0    0  0.48810728749E+03 -0.62070896052E+03 -0.19854032758E+03  0.12146950377E+04  0.90140858391E+03 0.  0.
         23    2    4    4    0    0  0.42619768309E+03 -0.35552344239E+03 -0.53216697821E+03  0.77409706286E+03  0.89348681461E+02 0.  0.
         23    2    4    4    0    0  0.61909604398E+02 -0.26518551813E+03  0.33362665063E+03  0.44059797482E+03  0.93078865827E+02 0.  0.
          4    1    3    3  502    0 -0.44717313568E+03  0.53391576258E+03 -0.23582613949E+02  0.69684000637E+03  0.00000000000E+00 0. -1.
         -3    1    3    3    0  502 -0.40934151807E+02  0.86793197939E+02  0.13549959696E+02  0.96913700788E+02  0.00000000000E+00 0.  1.
         13    1    5    5    0    0  0.16327441645E+02 -0.77317360815E+01 -0.54837508947E+00  0.18073898548E+02  0.00000000000E+00 0. -1.
        -13    1    5    5    0    0  0.40987024144E+03 -0.34779170630E+03 -0.53161860312E+03  0.75602316432E+03  0.00000000000E+00 0.  1.
          3    1    6    6  503    0  0.36076565919E+02 -0.76465736003E+02  0.47825918853E+02  0.97138282387E+02  0.00000000000E+00 0. -1.
         -3    1    6    6    0  503  0.25833038480E+02 -0.18871978213E+03  0.28580073178E+03  0.34345969243E+03  0.00000000000E+00 0.  1.
<mgrwt>
<rscale>  0 0.19975895E+04</rscale>
<asrwt>0</asrwt>
<pdfrwt beam="1">  1        2 0.17054013E+00 0.19975895E+04</pdfrwt>
<pdfrwt beam="2">  1       -1 0.13845198E+00 0.19975895E+04</pdfrwt>
<totfact> 0.98435570E+00</totfact>
</mgrwt>
</event>
<event>
12    7  0.1711607E-007  0.1934415E+04  0.7818608E-02  0.8637913E-01
          2   -1    0    0  501    0  0.00000000000E+00  0.00000000000E+00  0.84904838236E+03  0.84904838236E+03  0.00000000000E+00 0. -1.
         -1   -1    0    0    0  501 -0.00000000000E+00 -0.00000000000E+00 -0.11018107293E+04  0.11018107293E+04  0.00000000000E+00 0.  1.
         24    2    1    2    0    0  0.43646749603E+03 -0.26201279830E+02 -0.71106450222E+03  0.83838491772E+03  0.78013856426E+02 0.  0.
        254    2    1    2    0    0 -0.43646749603E+03  0.26201279830E+02  0.45830215524E+03  0.11124741940E+04  0.91453134700E+03 0.  0.
         23    2    4    4    0    0  0.46406278357E+02 -0.36759729770E+03  0.20806144000E+03  0.43463136725E+03  0.91288261228E+02 0.  0.
         23    2    4    4    0    0 -0.48287377438E+03  0.39379857753E+03  0.25024071523E+03  0.67784282674E+03  0.92768963269E+02 0.  0.
          2    1    3    3  502    0  0.21747283640E+03 -0.23331068559E+01 -0.28251676853E+03  0.35653275089E+03  0.00000000000E+00 0. -1.
         -1    1    3    3    0  502  0.21899465963E+03 -0.23868172974E+02 -0.42854773369E+03  0.48185216683E+03  0.00000000000E+00 0.  1.
         13    1    5    5    0    0 -0.14018060019E+02 -0.23327502598E+03  0.13953234105E+03  0.27218195743E+03  0.00000000000E+00 0. -1.
        -13    1    5    5    0    0  0.60424338376E+02 -0.13432227172E+03  0.68529098950E+02  0.16244940982E+03  0.00000000000E+00 0.  1.
          1    1    6    6  503    0 -0.25195457606E+03  0.24945389484E+03  0.17458877853E+03  0.39520829399E+03  0.00000000000E+00 0. -1.
         -1    1    6    6    0  503 -0.23091919832E+03  0.14434468269E+03  0.75651936706E+02  0.28263453275E+03  0.00000000000E+00 0.  1.
<mgrwt>
<rscale>  0 0.19344153E+04</rscale>
<asrwt>0</asrwt>
<pdfrwt beam="1">  1        2 0.13062283E+00 0.19344153E+04</pdfrwt>
<pdfrwt beam="2">  1       -1 0.16950934E+00 0.19344153E+04</pdfrwt>
<totfact> 0.84063574E+00</totfact>
</mgrwt>
</event>
<event>
12    7  0.1711607E-007  0.3284859E+04  0.7818608E-02  0.8166759E-01
         -1   -1    0    0    0  501 -0.00000000000E+00  0.00000000000E+00  0.96060073087E+03  0.96060073087E+03  0.00000000000E+00 0.  1.
          2   -1    0    0  501    0  0.00000000000E+00 -0.00000000000E+00 -0.28082166417E+04  0.28082166417E+04  0.00000000000E+00 0. -1.
         24    2    1    2    0    0  0.10660820889E+04  0.10267341898E+04 -0.48018096329E+03  0.15582071208E+04  0.81985101384E+02 0.  0.
        254    2    1    2    0    0 -0.10660820889E+04 -0.10267341898E+04 -0.13674349475E+04  0.22106102518E+04  0.90895832285E+03 0.  0.
         23    2    4    4    0    0 -0.10910714268E+04 -0.55088892866E+03 -0.80023491510E+03  0.14637948347E+04  0.91672943000E+02 0.  0.
         23    2    4    4    0    0  0.24989337885E+02 -0.47584526114E+03 -0.56720003239E+03  0.74681541709E+03  0.94679516821E+02 0.  0.
          4    1    3    3  502    0  0.31382183835E+02  0.27131792000E+02  0.66955555119E-01  0.41484696967E+02  0.00000000000E+00 0. -1.
         -3    1    3    3    0  502  0.10346999051E+04  0.99960239780E+03 -0.48024791885E+03  0.15167224238E+04  0.00000000000E+00 0.  1.
         13    1    5    5    0    0 -0.10085553457E+04 -0.51697413995E+03 -0.76752518040E+03  0.13687735566E+04  0.00000000000E+00 0.  1.
        -13    1    5    5    0    0 -0.82516081168E+02 -0.33914788707E+02 -0.32709734694E+02  0.95021278081E+02  0.00000000000E+00 0. -1.
          1    1    6    6  503    0 -0.31190480451E+02 -0.83187297049E+02 -0.11446587258E+03  0.14489792423E+03  0.00000000000E+00 0. -1.
         -1    1    6    6    0  503  0.56179818336E+02 -0.39265796409E+03 -0.45273415981E+03  0.60191749286E+03  0.00000000000E+00 0.  1.
<mgrwt>
<rscale>  0 0.32848592E+04</rscale>
<asrwt>0</asrwt>
<pdfrwt beam="1">  1        2 0.43203332E+00 0.32848592E+04</pdfrwt>
<pdfrwt beam="2">  1       -1 0.14778473E+00 0.32848592E+04</pdfrwt>
<totfact> 0.78825138E-01</totfact>
</mgrwt>
</event>
<event>
12    7  0.1711607E-007  0.1151711E+04  0.7818608E-02  0.9156207E-01
          2   -1    0    0  501    0  0.00000000000E+00  0.00000000000E+00  0.98925004768E+02  0.98925004768E+02  0.00000000000E+00 0. -1.
         -1   -1    0    0    0  501 -0.00000000000E+00 -0.00000000000E+00 -0.33521290335E+04  0.33521290335E+04  0.00000000000E+00 0.  1.
         24    2    1    2    0    0 -0.11466549795E+03  0.11315016991E+03 -0.10933149343E+04  0.11080059660E+04  0.79928329769E+02 0.  0.
        254    2    1    2    0    0  0.11466549795E+03 -0.11315016991E+03 -0.21598890944E+04  0.23430480722E+04  0.89375736698E+03 0.  0.
         23    2    4    4    0    0  0.42330929655E+03 -0.13394623372E+03 -0.61282051687E+03  0.76279329360E+03  0.95771962461E+02 0.  0.
         23    2    4    4    0    0 -0.30864379860E+03  0.20796063801E+02 -0.15470685775E+04  0.15802547786E+04  0.89947267493E+02 0.  0.
          2    1    3    3  502    0 -0.71640388816E+02  0.29565163562E+02 -0.33291841370E+03  0.34182029545E+03  0.00000000000E+00 0. -1.
         -1    1    3    3    0  502 -0.43025109131E+02  0.83585006353E+02 -0.76039652058E+03  0.76618567059E+03  0.00000000000E+00 0.  1.
         13    1    5    5    0    0  0.14578526227E+03 -0.92088500947E+02 -0.25946178598E+03  0.31153499496E+03  0.00000000000E+00 0. -1.
        -13    1    5    5    0    0  0.27752403427E+03 -0.41857732770E+02 -0.35335873089E+03  0.45125829864E+03  0.00000000000E+00 0.  1.
          4    1    6    6  503    0 -0.23607189088E+02  0.26415748278E+02 -0.12684340743E+03  0.13169791624E+03  0.00000000000E+00 0. -1.
         -4    1    6    6    0  503 -0.28503660951E+03 -0.56196844770E+01 -0.14202251701E+04  0.14485568623E+04  0.00000000000E+00 0.  1.
<mgrwt>
<rscale>  0 0.11517107E+04</rscale>
<asrwt>0</asrwt>
<pdfrwt beam="1">  1        2 0.15219232E-01 0.11517107E+04</pdfrwt>
<pdfrwt beam="2">  1       -1 0.51571216E+00 0.11517107E+04</pdfrwt>
<totfact> 0.53657625E-01</totfact>
</mgrwt>
</event>
<event>
12    7  0.1711607E-007  0.1564008E+04  0.7818608E-02  0.8842970E-01
         -1   -1    0    0    0  501 -0.00000000000E+00  0.00000000000E+00  0.17922701897E+03  0.17922701897E+03  0.00000000000E+00 0.  1.
          2   -1    0    0  501    0  0.00000000000E+00 -0.00000000000E+00 -0.34120427552E+04  0.34120427552E+04  0.00000000000E+00 0. -1.
         24    2    1    2    0    0 -0.25454928537E+03  0.31685034921E+03 -0.18280465651E+04  0.18743252694E+04  0.78431426620E+02 0.  0.
        254    2    1    2    0    0  0.25454928537E+03 -0.31685034921E+03 -0.14047691711E+04  0.17169445048E+04  0.89962910468E+03 0.  0.
         23    2    4    4    0    0  0.32041292783E+03 -0.37299485318E+01 -0.69181820228E+02  0.34047743097E+03  0.91980432222E+02 0.  0.
         23    2    4    4    0    0 -0.65863642458E+02 -0.31312040068E+03 -0.13355873509E+04  0.13764670738E+04  0.92117472783E+02 0.  0.
          2    1    3    3  502    0 -0.24609070641E+03  0.30199928760E+03 -0.16457601228E+04  0.16912393642E+04  0.00000000000E+00 0. -1.
         -1    1    3    3    0  502 -0.84585789628E+01  0.14851061604E+02 -0.18228644237E+03  0.18308590514E+03  0.00000000000E+00 0.  1.
         13    1    5    5    0    0  0.27858031077E+03  0.28852650845E+02 -0.63236146404E+02  0.28712066318E+03  0.00000000000E+00 0. -1.
        -13    1    5    5    0    0  0.41832617061E+02 -0.32582599376E+02 -0.59456738250E+01  0.53356767795E+02  0.00000000000E+00 0.  1.
          3    1    6    6  503    0 -0.67717248315E+02 -0.16440394449E+03 -0.59082735923E+03  0.61700182423E+03  0.00000000000E+00 0. -1.
         -3    1    6    6    0  503  0.18536058565E+01 -0.14871645619E+03 -0.74475999165E+03  0.75946524961E+03  0.00000000000E+00 0.  1.
<mgrwt>
<rscale>  0 0.15640080E+04</rscale>
<asrwt>0</asrwt>
<pdfrwt beam="1">  1        2 0.52492967E+00 0.15640080E+04</pdfrwt>
<pdfrwt beam="2">  1       -1 0.27573387E-01 0.15640080E+04</pdfrwt>
<totfact> 0.12250861E+01</totfact>
</mgrwt>
</event>
<event>
12    7  0.1711607E-007  0.3013681E+04  0.7818608E-02  0.8239835E-01
         -1   -1    0    0    0  501 -0.00000000000E+00  0.00000000000E+00  0.12412083817E+04  0.12412083817E+04  0.00000000000E+00 0.  1.
          2   -1    0    0  501    0  0.00000000000E+00 -0.00000000000E+00 -0.18293207433E+04  0.18293207433E+04  0.00000000000E+00 0. -1.
         24    2    1    2    0    0  0.12909063768E+04  0.44386206163E+03 -0.42995227773E+03  0.14333768874E+04  0.79104594038E+02 0.  0.
        254    2    1    2    0    0 -0.12909063768E+04 -0.44386206163E+03 -0.15816008387E+03  0.16371522377E+04  0.88983146376E+03 0.  0.
         23    2    4    4    0    0 -0.16007753247E+03  0.51197557592E+02  0.26687264711E+03  0.32827291699E+03  0.91082885057E+02 0.  0.
         23    2    4    4    0    0 -0.11308288443E+04 -0.49505961922E+03 -0.42503273098E+03  0.13088793207E+04  0.93028769983E+02 0.  0.
          4    1    3    3  502    0  0.63853424051E+03  0.22845191558E+03 -0.25409887976E+03  0.72421163670E+03  0.00000000000E+00 0. -1.
         -3    1    3    3    0  502  0.65237213626E+03  0.21541014605E+03 -0.17585339798E+03  0.70916525067E+03  0.00000000000E+00 0.  1.
         13    1    5    5    0    0 -0.11408735195E+03  0.28546687540E+01  0.21625887209E+03  0.24452397176E+03  0.00000000000E+00 0.  1.
        -13    1    5    5    0    0 -0.45990180517E+02  0.48342888838E+02  0.50613775020E+02  0.83748945229E+02  0.00000000000E+00 0. -1.
          1    1    6    6  503    0 -0.57117844234E+03 -0.21281034661E+03 -0.17613552473E+03  0.63447362411E+03  0.00000000000E+00 0.  1.
         -1    1    6    6    0  503 -0.55965040196E+03 -0.28224927261E+03 -0.24889720625E+03  0.67440569658E+03  0.00000000000E+00 0. -1.
<mgrwt>
<rscale>  0 0.30136810E+04</rscale>
<asrwt>0</asrwt>
<pdfrwt beam="1">  1        2 0.28143396E+00 0.30136810E+04</pdfrwt>
<pdfrwt beam="2">  1       -1 0.19095514E+00 0.30136810E+04</pdfrwt>
<totfact> 0.14070824E+00</totfact>
</mgrwt>
</event>
<event>
12    7  0.1711607E-007  0.1733227E+04  0.7818608E-02  0.8742638E-01
          2   -1    0    0  501    0  0.00000000000E+00  0.00000000000E+00  0.65162928398E+03  0.65162928398E+03  0.00000000000E+00 0. -1.
         -3   -1    0    0    0  501 -0.00000000000E+00 -0.00000000000E+00 -0.11525243343E+04  0.11525243343E+04  0.00000000000E+00 0.  1.
         24    2    1    2    0    0  0.34809362659E+03 -0.97481879273E+02 -0.72424640921E+03  0.81587452696E+03  0.10220808595E+03 0.  0.
        254    2    1    2    0    0 -0.34809362659E+03  0.97481879273E+02  0.22335135888E+03  0.98827909133E+03  0.89226556764E+03 0.  0.
         23    2    4    4    0    0 -0.20258493087E+03  0.16367366016E+03  0.54869181564E+03  0.61423628328E+03  0.91617585099E+02 0.  0.
         23    2    4    4    0    0 -0.14550869572E+03 -0.66191780890E+02 -0.32534045676E+03  0.37404280805E+03  0.92235985735E+02 0.  0.
          4    1    3    3  502    0  0.29931844776E+03 -0.86676281329E+02 -0.52550135114E+03  0.61094679062E+03  0.00000000000E+00 0. -1.
         -3    1    3    3    0  502  0.48775178830E+02 -0.10805597944E+02 -0.19874505806E+03  0.20492773634E+03  0.00000000000E+00 0.  1.
         13    1    5    5    0    0 -0.18958988230E+03  0.10768539858E+03  0.41749473079E+03  0.47100139997E+03  0.00000000000E+00 0. -1.
        -13    1    5    5    0    0 -0.12995048565E+02  0.55988261587E+02  0.13119708485E+03  0.14323488330E+03  0.00000000000E+00 0.  1.
          1    1    6    6  503    0 -0.11497507499E+03 -0.34205273878E+02 -0.14414177266E+03  0.18752631617E+03  0.00000000000E+00 0. -1.
         -1    1    6    6    0  503 -0.30533620729E+02 -0.31986507012E+02 -0.18119868410E+03  0.18651649188E+03  0.00000000000E+00 0.  1.
<mgrwt>
<rscale>  0 0.17332266E+04</rscale>
<asrwt>0</asrwt>
<pdfrwt beam="1">  1        2 0.10025066E+00 0.17332266E+04</pdfrwt>
<pdfrwt beam="2">  1       -3 0.17731143E+00 0.17332266E+04</pdfrwt>
<totfact> 0.55047955E+00</totfact>
</mgrwt>
</event>
<event>
12    7  0.1711607E-007  0.2250428E+04  0.7818608E-02  0.8497727E-01
         -1   -1    0    0    0  501 -0.00000000000E+00  0.00000000000E+00  0.96110346542E+03  0.96110346542E+03  0.00000000000E+00 0.  1.
          2   -1    0    0  501    0  0.00000000000E+00 -0.00000000000E+00 -0.13173472163E+04  0.13173472163E+04  0.00000000000E+00 0. -1.
         24    2    1    2    0    0 -0.75791534720E+03 -0.46190247895E+03 -0.47804017162E+03  0.10108256154E+04  0.73867757141E+02 0.  0.
        254    2    1    2    0    0  0.75791534720E+03  0.46190247895E+03  0.12179642071E+03  0.12676250663E+04  0.89679951331E+03 0.  0.
         23    2    4    4    0    0  0.35393835435E+03  0.62058312317E+03 -0.16492423793E+03  0.73887006895E+03  0.91286379535E+02 0.  0.
         23    2    4    4    0    0  0.40397699285E+03 -0.15868064422E+03  0.28672065864E+03  0.52875499737E+03  0.94848055041E+02 0.  0.
          4    1    3    3  502    0 -0.71539729098E+03 -0.45428557401E+03 -0.45466680109E+03  0.96171230974E+03  0.00000000000E+00 0. -1.
         -3    1    3    3    0  502 -0.42518056218E+02 -0.76169049362E+01 -0.23373370528E+02  0.49113305684E+02  0.00000000000E+00 0.  1.
         13    1    5    5    0    0  0.31295093965E+03  0.51473801893E+03 -0.10844212022E+03  0.61208921915E+03  0.00000000000E+00 0.  1.
        -13    1    5    5    0    0  0.40987414703E+02  0.10584510424E+03 -0.56482117710E+02  0.12678084980E+03  0.00000000000E+00 0. -1.
          4    1    6    6  503    0  0.47848729828E+02  0.68189750017E-01  0.63372800495E+02  0.79407917984E+02  0.00000000000E+00 0. -1.
         -4    1    6    6    0  503  0.35612826302E+03 -0.15874883397E+03  0.22334785814E+03  0.44934707938E+03  0.00000000000E+00 0.  1.
<mgrwt>
<rscale>  0 0.22504284E+04</rscale>
<asrwt>0</asrwt>
<pdfrwt beam="1">  1        2 0.20266880E+00 0.22504284E+04</pdfrwt>
<pdfrwt beam="2">  1       -1 0.14786207E+00 0.22504284E+04</pdfrwt>
<totfact> 0.60764624E+00</totfact>
</mgrwt>
</event>
<event>
12    7  0.1711607E-007  0.1997259E+04  0.7818608E-02  0.8607903E-01
          2   -1    0    0  501    0  0.00000000000E+00  0.00000000000E+00  0.32530454587E+04  0.32530454587E+04  0.00000000000E+00 0. -1.
         -1   -1    0    0    0  501 -0.00000000000E+00 -0.00000000000E+00 -0.30656237967E+03  0.30656237967E+03  0.00000000000E+00 0.  1.
         24    2    1    2    0    0 -0.67766089794E+02 -0.36003450664E+03 -0.74361545416E+02  0.38403309341E+03  0.87947077817E+02 0.  0.
        254    2    1    2    0    0  0.67766089794E+02  0.36003450664E+03  0.30208446244E+04  0.31755747449E+04  0.90805045393E+03 0.  0.
         23    2    4    4    0    0 -0.13259098910E+03  0.40633367734E+03  0.28738318403E+04  0.29068695189E+04  0.91068798668E+02 0.  0.
         23    2    4    4    0    0  0.20035707890E+03 -0.46299170695E+02  0.14701278417E+03  0.26870522604E+03  0.91121718165E+02 0.  0.
          2    1    3    3  502    0  0.94270573668E+01 -0.13061598651E+03 -0.49658852516E+00  0.13095667964E+03  0.00000000000E+00 0. -1.
         -1    1    3    3    0  502 -0.77193147161E+02 -0.22941852013E+03 -0.73864956890E+02  0.25307641377E+03  0.00000000000E+00 0.  1.
         13    1    5    5    0    0 -0.31811605104E+02  0.11131618870E+03  0.53731252738E+03  0.54964354283E+03  0.00000000000E+00 0. -1.
        -13    1    5    5    0    0 -0.10077938400E+03  0.29501748864E+03  0.23365193129E+04  0.23572259761E+04  0.00000000000E+00 0.  1.
          1    1    6    6  503    0  0.89260564510E+02  0.22255612338E+02  0.41825410077E+02  0.10105506215E+03  0.00000000000E+00 0. -1.
         -1    1    6    6    0  503  0.11109651439E+03 -0.68554783033E+02  0.10518737409E+03  0.16765016389E+03  0.00000000000E+00 0.  1.
<mgrwt>
<rscale>  0 0.19972595E+04</rscale>
<asrwt>0</asrwt>
<pdfrwt beam="1">  1        2 0.50046851E+00 0.19972595E+04</pdfrwt>
<pdfrwt beam="2">  1       -1 0.47163445E-01 0.19972595E+04</pdfrwt>
<totfact> 0.56980029E+00</totfact>
</mgrwt>
</event>
<event>
12    7  0.1711607E-007  0.1129846E+04  0.7818608E-02  0.9176581E-01
         -3   -1    0    0    0  501 -0.00000000000E+00  0.00000000000E+00  0.26197104868E+03  0.26197104868E+03  0.00000000000E+00 0.  1.
          2   -1    0    0  501    0  0.00000000000E+00 -0.00000000000E+00 -0.12182180245E+04  0.12182180245E+04  0.00000000000E+00 0. -1.
         24    2    1    2    0    0 -0.29058377685E+02  0.69985453238E+02 -0.40375412101E+03  0.41865290927E+03  0.80687763844E+02 0.  0.
        254    2    1    2    0    0  0.29058377685E+02 -0.69985453238E+02 -0.55249285486E+03  0.10615361640E+04  0.90325429406E+03 0.  0.
         23    2    4    4    0    0  0.43923691873E+03  0.63938909650E+02 -0.20501137853E+03  0.49840647573E+03  0.96757918419E+02 0.  0.
         23    2    4    4    0    0 -0.41017854104E+03 -0.13392436289E+03 -0.34748147633E+03  0.56312968823E+03  0.10094304763E+03 0.  0.
          4    1    3    3  502    0 -0.18703331413E+02  0.80670576749E+02 -0.23349366163E+03  0.24774350967E+03  0.00000000000E+00 0. -1.
         -3    1    3    3    0  502 -0.10355046272E+02 -0.10685123511E+02 -0.17026045937E+03  0.17090939961E+03  0.00000000000E+00 0.  1.
         13    1    5    5    0    0  0.21297576647E+03 -0.17782521792E+02 -0.95164373124E+02  0.23394690231E+03  0.00000000000E+00 0. -1.
        -13    1    5    5    0    0  0.22626115225E+03  0.81721431442E+02 -0.10984700541E+03  0.26445957342E+03  0.00000000000E+00 0.  1.
          3    1    6    6  503    0 -0.38607295934E+03 -0.14996570195E+03 -0.32554763036E+03  0.52680480382E+03  0.00000000000E+00 0. -1.
         -3    1    6    6    0  503 -0.24105581704E+02  0.16041339065E+02 -0.21933845968E+02  0.36324884408E+02  0.00000000000E+00 0.  1.
<mgrwt>
<rscale>  0 0.11298457E+04</rscale>
<asrwt>0</asrwt>
<pdfrwt beam="1">  1        2 0.18741816E+00 0.11298457E+04</pdfrwt>
<pdfrwt beam="2">  1       -3 0.40303239E-01 0.11298457E+04</pdfrwt>
<totfact> 0.71745254E+01</totfact>
</mgrwt>
</event>
<event>
12    7  0.1711607E-007  0.2483239E+04  0.7818608E-02  0.8408981E-01
          2   -1    0    0  501    0  0.00000000000E+00  0.00000000000E+00  0.97378284852E+03  0.97378284852E+03  0.00000000000E+00 0. -1.
         -1   -1    0    0    0  501 -0.00000000000E+00 -0.00000000000E+00 -0.15831245221E+04  0.15831245221E+04  0.00000000000E+00 0.  1.
         24    2    1    2    0    0 -0.19921818558E+03 -0.98801765102E+03 -0.65235348440E+03  0.12032533706E+04  0.79917714324E+02 0.  0.
        254    2    1    2    0    0  0.19921818558E+03  0.98801765102E+03  0.43011810782E+02  0.13536540001E+04  0.90258648993E+03 0.  0.
         23    2    4    4    0    0 -0.13341087186E+03 -0.11403081587E+03  0.19344901213E+02  0.19868748846E+03  0.91109852204E+02 0.  0.
         23    2    4    4    0    0  0.33262905744E+03  0.11020484669E+04  0.23666909569E+02  0.11549665116E+04  0.90744735705E+02 0.  0.
          4    1    3    3  502    0 -0.20022192504E+03 -0.96208563488E+03 -0.64753097459E+03  0.11768576597E+04  0.00000000000E+00 0. -1.
         -3    1    3    3    0  502  0.10037394631E+01 -0.25932016136E+02 -0.48225098167E+01  0.26395710915E+02  0.00000000000E+00 0.  1.
         13    1    5    5    0    0 -0.79912012911E+02 -0.15121198160E+02  0.27721815680E+02  0.85924848012E+02  0.00000000000E+00 0. -1.
        -13    1    5    5    0    0 -0.53498858953E+02 -0.98909617714E+02 -0.83769144670E+01  0.11276264045E+03  0.00000000000E+00 0.  1.
          1    1    6    6  503    0  0.52024412565E+02  0.25422265672E+03 -0.24283266439E+02  0.26062497141E+03  0.00000000000E+00 0. -1.
         -1    1    6    6    0  503  0.28060464488E+03  0.84782581017E+03  0.47950176008E+02  0.89434154018E+03  0.00000000000E+00 0.  1.
<mgrwt>
<rscale>  0 0.24832394E+04</rscale>
<asrwt>0</asrwt>
<pdfrwt beam="1">  1        2 0.14981275E+00 0.24832394E+04</pdfrwt>
<pdfrwt beam="2">  1       -1 0.24355762E+00 0.24832394E+04</pdfrwt>
<totfact> 0.20490872E+00</totfact>
</mgrwt>
</event>
<event>
12    7  0.1711607E-007  0.2344585E+04  0.7818608E-02  0.8460546E-01
          2   -1    0    0  501    0  0.00000000000E+00  0.00000000000E+00  0.12540090421E+04  0.12540090421E+04  0.00000000000E+00 0. -1.
         -1   -1    0    0    0  501 -0.00000000000E+00 -0.00000000000E+00 -0.10959013461E+04  0.10959013461E+04  0.00000000000E+00 0.  1.
         24    2    1    2    0    0 -0.78849981417E+03  0.27624577380E+03  0.61342619233E+03  0.10397904747E+04  0.82636876050E+02 0.  0.
        254    2    1    2    0    0  0.78849981417E+03 -0.27624577380E+03 -0.45531849626E+03  0.13101199135E+04  0.90058623700E+03 0.  0.
         23    2    4    4    0    0  0.30138160952E+03  0.29613760718E+02 -0.62712701283E+03  0.70249453625E+03  0.92208643055E+02 0.  0.
         23    2    4    4    0    0  0.48711820465E+03 -0.30585953452E+03  0.17180851658E+03  0.60762537727E+03  0.94107558560E+02 0.  0.
          2    1    3    3  502    0 -0.12202506499E+02  0.28731547755E+01  0.25269908045E+02  0.28208587980E+02  0.00000000000E+00 0. -1.
         -1    1    3    3    0  502 -0.77629730767E+03  0.27337261903E+03  0.58815628428E+03  0.10115818867E+04  0.00000000000E+00 0.  1.
         13    1    5    5    0    0  0.93851307387E+01  0.75057332993E+01 -0.89389504972E+02  0.90193682209E+02  0.00000000000E+00 0.  1.
        -13    1    5    5    0    0  0.29199647878E+03  0.22108027419E+02 -0.53773750786E+03  0.61230085404E+03  0.00000000000E+00 0. -1.
          3    1    6    6  503    0  0.37894723531E+03 -0.28043967685E+03  0.14639773271E+03  0.49363925658E+03  0.00000000000E+00 0. -1.
         -3    1    6    6    0  503  0.10817096934E+03 -0.25419857668E+02  0.25410783867E+02  0.11398612068E+03  0.00000000000E+00 0.  1.
<mgrwt>
<rscale>  0 0.23445854E+04</rscale>
<asrwt>0</asrwt>
<pdfrwt beam="1">  1        2 0.19292447E+00 0.23445854E+04</pdfrwt>
<pdfrwt beam="2">  1       -1 0.16860021E+00 0.23445854E+04</pdfrwt>
<totfact> 0.45638486E+00</totfact>
</mgrwt>
</event>
<event>
12    7  0.1711607E-007  0.1665724E+04  0.7818608E-02  0.8781158E-01
         -1   -1    0    0    0  501 -0.00000000000E+00  0.00000000000E+00  0.97348915089E+03  0.97348915089E+03  0.00000000000E+00 0.  1.
          2   -1    0    0  501    0  0.00000000000E+00 -0.00000000000E+00 -0.71254953155E+03  0.71254953155E+03  0.00000000000E+00 0. -1.
         24    2    1    2    0    0 -0.18929234418E+03 -0.52141949358E+02  0.65078033353E+03  0.68402219081E+03  0.76295088714E+02 0.  0.
        254    2    1    2    0    0  0.18929234418E+03  0.52141949358E+02 -0.38984071419E+03  0.10020164916E+04  0.90194838688E+03 0.  0.
         23    2    4    4    0    0  0.51475621377E+03 -0.13055000776E+03 -0.24048042729E+03  0.59002001736E+03  0.90969889779E+02 0.  0.
         23    2    4    4    0    0 -0.32546386958E+03  0.18269195712E+03 -0.14936028690E+03  0.41199647426E+03  0.90163839183E+02 0.  0.
          4    1    3    3  502    0  0.36929636549E+01  0.77302690690E+01  0.28313161967E+02  0.29580909063E+02  0.00000000000E+00 0. -1.
         -3    1    3    3    0  502 -0.19298530784E+03 -0.59872218427E+02  0.62246717156E+03  0.65444128175E+03  0.00000000000E+00 0.  1.
         13    1    5    5    0    0  0.29730142377E+03 -0.29153755270E+02 -0.13974860668E+03  0.32979956199E+03  0.00000000000E+00 0. -1.
        -13    1    5    5    0    0  0.21745479000E+03 -0.10139625249E+03 -0.10073182061E+03  0.26022045537E+03  0.00000000000E+00 0.  1.
          4    1    6    6  503    0 -0.91967216028E+02  0.53706379265E+02 -0.46692149785E+00  0.10650146484E+03  0.00000000000E+00 0. -1.
         -4    1    6    6    0  503 -0.23349665356E+03  0.12898557785E+03 -0.14889336541E+03  0.30549500941E+03  0.00000000000E+00 0.  1.
<mgrwt>
<rscale>  0 0.16657242E+04</rscale>
<asrwt>0</asrwt>
<pdfrwt beam="1">  1        2 0.10962300E+00 0.16657242E+04</pdfrwt>
<pdfrwt beam="2">  1       -1 0.14976756E+00 0.16657242E+04</pdfrwt>
<totfact> 0.15292271E+01</totfact>
</mgrwt>
</event>
<event>
12    7  0.1711607E-007  0.1749988E+04  0.7818608E-02  0.8733357E-01
         -1   -1    0    0    0  501 -0.00000000000E+00  0.00000000000E+00  0.15179485220E+04  0.15179485220E+04  0.00000000000E+00 0.  1.
          2   -1    0    0  501    0  0.00000000000E+00 -0.00000000000E+00 -0.50437454213E+03  0.50437454213E+03  0.00000000000E+00 0. -1.
         24    2    1    2    0    0 -0.89732321304E+02  0.29708597525E+02  0.10399923098E+04  0.10466089962E+04  0.69798970402E+02 0.  0.
        254    2    1    2    0    0  0.89732321304E+02 -0.29708597525E+02 -0.26418329858E+02  0.97571406798E+03  0.97076543204E+03 0.  0.
         23    2    4    4    0    0 -0.94345734401E+02 -0.52972816783E+02 -0.46744782261E+03  0.48833432150E+03  0.90860914437E+02 0.  0.
         23    2    4    4    0    0  0.18407805571E+03  0.23264219258E+02  0.44102949275E+03  0.48737974648E+03  0.92768794913E+02 0.  0.
          4    1    3    3  502    0 -0.36286771737E+01 -0.73239508597E+01  0.13051360636E+02  0.15399531444E+02  0.00000000000E+00 0. -1.
         -3    1    3    3    0  502 -0.86103644130E+02  0.37032548385E+02  0.10269409491E+04  0.10312094648E+04  0.00000000000E+00 0.  1.
         13    1    5    5    0    0  0.68265961336E+00  0.20889854060E+02 -0.72875553514E+02  0.75813576137E+02  0.00000000000E+00 0.  1.
        -13    1    5    5    0    0 -0.95028394014E+02 -0.73862670843E+02 -0.39457226910E+03  0.41252074536E+03  0.00000000000E+00 0. -1.
          1    1    6    6  503    0  0.19287274404E+03  0.24111139873E+02  0.39181929452E+03  0.43738267229E+03  0.00000000000E+00 0. -1.
         -1    1    6    6    0  503 -0.87946883362E+01 -0.84692061553E+00  0.49210198230E+02  0.49997074188E+02  0.00000000000E+00 0.  1.
<mgrwt>
<rscale>  0 0.17499881E+04</rscale>
<asrwt>0</asrwt>
<pdfrwt beam="1">  1        2 0.77596084E-01 0.17499881E+04</pdfrwt>
<pdfrwt beam="2">  1       -1 0.23353054E+00 0.17499881E+04</pdfrwt>
<totfact> 0.59056105E+00</totfact>
</mgrwt>
</event>
<event>
12    7  0.1711607E-007  0.2959499E+04  0.7818608E-02  0.8255392E-01
         -1   -1    0    0    0  501 -0.00000000000E+00  0.00000000000E+00  0.17791085817E+04  0.17791085817E+04  0.00000000000E+00 0.  1.
          2   -1    0    0  501    0  0.00000000000E+00 -0.00000000000E+00 -0.12307613435E+04  0.12307613435E+04  0.00000000000E+00 0. -1.
         24    2    1    2    0    0  0.10983652742E+04  0.31159988596E+03 -0.46797004015E+03  0.12364051323E+04  0.78745972027E+02 0.  0.
        254    2    1    2    0    0 -0.10983652742E+04 -0.31159988596E+03  0.10163172783E+04  0.17734647929E+04  0.89931963006E+03 0.  0.
         23    2    4    4    0    0 -0.15457869101E+03 -0.40946914397E+03  0.55995825390E+03  0.71652212424E+03  0.91055789703E+02 0.  0.
         23    2    4    4    0    0 -0.94378658322E+03  0.97869258013E+02  0.45635902439E+03  0.10569426687E+04  0.92481021845E+02 0.  0.
          2    1    3    3  502    0  0.82349192897E+03  0.26460560688E+03 -0.37095637850E+03  0.94115021066E+03  0.00000000000E+00 0. -1.
         -1    1    3    3    0  502  0.27487334527E+03  0.46994279075E+02 -0.97013661644E+02  0.29525492164E+03  0.00000000000E+00 0.  1.
         13    1    5    5    0    0 -0.92547881449E+02 -0.19707939639E+03  0.34551000317E+03  0.40839020695E+03  0.00000000000E+00 0. -1.
        -13    1    5    5    0    0 -0.62030809565E+02 -0.21238974758E+03  0.21444825073E+03  0.30813191729E+03  0.00000000000E+00 0.  1.
          1    1    6    6  503    0 -0.23337143072E+03  0.42261475298E+02  0.75110905861E+02  0.24877681795E+03  0.00000000000E+00 0. -1.
         -1    1    6    6    0  503 -0.71041515250E+03  0.55607782715E+02  0.38124811853E+03  0.80816585073E+03  0.00000000000E+00 0.  1.
<mgrwt>
<rscale>  0 0.29594987E+04</rscale>
<asrwt>0</asrwt>
<pdfrwt beam="1">  1        2 0.18934790E+00 0.29594987E+04</pdfrwt>
<pdfrwt beam="2">  1       -1 0.27370901E+00 0.29594987E+04</pdfrwt>
<totfact> 0.86846325E-01</totfact>
</mgrwt>
</event>
<event>
12    7  0.1711607E-007  0.2040459E+04  0.7818608E-02  0.8587935E-01
          4   -1    0    0  501    0  0.00000000000E+00  0.00000000000E+00  0.37864220489E+03  0.37864220489E+03  0.00000000000E+00 0. -1.
         -3   -1    0    0    0  501 -0.00000000000E+00 -0.00000000000E+00 -0.27489484935E+04  0.27489484935E+04  0.00000000000E+00 0.  1.
         24    2    1    2    0    0  0.22352049821E+03  0.37311544907E+03 -0.20192951016E+04  0.20671343076E+04  0.79466890763E+02 0.  0.
        254    2    1    2    0    0 -0.22352049821E+03 -0.37311544907E+03 -0.35101118693E+03  0.10604563908E+04  0.90121160217E+03 0.  0.
         23    2    4    4    0    0  0.34070066101E+03 -0.18835740937E+03 -0.14400842845E+03  0.42492647217E+03  0.90931981236E+02 0.  0.
         23    2    4    4    0    0 -0.56422115922E+03 -0.18475803970E+03 -0.20700275848E+03  0.63552991858E+03  0.92558552510E+02 0.  0.
          4    1    3    3  502    0  0.88319126137E+02  0.11233003253E+03 -0.82225216577E+03  0.83457589731E+03  0.00000000000E+00 0. -1.
         -3    1    3    3    0  502  0.13520137208E+03  0.26078541654E+03 -0.11970429359E+04  0.12325584103E+04  0.00000000000E+00 0.  1.
         13    1    5    5    0    0  0.23809382088E+03 -0.12326204798E+03 -0.14201117850E+03  0.30339639884E+03  0.00000000000E+00 0.  1.
        -13    1    5    5    0    0  0.10260684013E+03 -0.65095361388E+02 -0.19972499535E+01  0.12153007333E+03  0.00000000000E+00 0. -1.
          3    1    6    6  503    0 -0.27561946469E+03 -0.10095282060E+03 -0.15005888400E+03  0.32965926344E+03  0.00000000000E+00 0. -1.
         -3    1    6    6    0  503 -0.28860169453E+03 -0.83805219100E+02 -0.56943874477E+02  0.30587065514E+03  0.00000000000E+00 0.  1.
<mgrwt>
<rscale>  0 0.20404587E+04</rscale>
<asrwt>0</asrwt>
<pdfrwt beam="1">  1        4 0.58252649E-01 0.20404587E+04</pdfrwt>
<pdfrwt beam="2">  1       -3 0.42291514E+00 0.20404587E+04</pdfrwt>
<totfact> 0.47073800E-02</totfact>
</mgrwt>
</event>
<event>
12    7  0.1711607E-007  0.1866455E+04  0.7818608E-02  0.8671736E-01
          2   -1    0    0  501    0  0.00000000000E+00  0.00000000000E+00  0.17483721672E+04  0.17483721672E+04  0.00000000000E+00 0. -1.
         -1   -1    0    0    0  501 -0.00000000000E+00 -0.00000000000E+00 -0.49812824704E+03  0.49812824704E+03  0.00000000000E+00 0.  1.
         24    2    1    2    0    0 -0.22942389635E+03  0.52367362429E+03 -0.35881546468E+02  0.57806457898E+03  0.77471175983E+02 0.  0.
        254    2    1    2    0    0  0.22942389635E+03 -0.52367362429E+03  0.12861254666E+04  0.16684358353E+04  0.89592970230E+03 0.  0.
         23    2    4    4    0    0 -0.26787447198E+03 -0.84931695123E+02  0.10907171892E+03  0.31473724078E+03  0.90513895561E+02 0.  0.
         23    2    4    4    0    0  0.49729836834E+03 -0.43874192916E+03  0.11770537477E+04  0.13536985945E+04  0.85112937475E+02 0.  0.
          4    1    3    3  502    0 -0.11035488646E+01  0.30358986851E+02  0.11343078218E+02  0.32427632139E+02  0.00000000000E+00 0. -1.
         -3    1    3    3    0  502 -0.22832034749E+03  0.49331463744E+03 -0.47224624686E+02  0.54563694685E+03  0.00000000000E+00 0.  1.
         13    1    5    5    0    0 -0.22145467721E+03 -0.10330525269E+03  0.80870838978E+02  0.25739899356E+03  0.00000000000E+00 0. -1.
        -13    1    5    5    0    0 -0.46419794779E+02  0.18373557564E+02  0.28200879945E+02  0.57338247223E+02  0.00000000000E+00 0.  1.
          3    1    6    6  503    0  0.25175540739E+03 -0.16571655871E+03  0.53507361832E+03  0.61412257734E+03  0.00000000000E+00 0. -1.
         -3    1    6    6    0  503  0.24554296094E+03 -0.27302537046E+03  0.64198012939E+03  0.73957601713E+03  0.00000000000E+00 0.  1.
<mgrwt>
<rscale>  0 0.18664550E+04</rscale>
<asrwt>0</asrwt>
<pdfrwt beam="1">  1        2 0.26898033E+00 0.18664550E+04</pdfrwt>
<pdfrwt beam="2">  1       -1 0.76635116E-01 0.18664550E+04</pdfrwt>
<totfact> 0.16845500E+01</totfact>
</mgrwt>
</event>
<event>
12    7  0.1711607E-007  0.2804677E+04  0.7818608E-02  0.8301818E-01
         -1   -1    0    0    0  501 -0.00000000000E+00  0.00000000000E+00  0.18187905876E+04  0.18187905876E+04  0.00000000000E+00 0.  1.
          2   -1    0    0  501    0  0.00000000000E+00 -0.00000000000E+00 -0.10812421470E+04  0.10812421470E+04  0.00000000000E+00 0. -1.
         24    2    1    2    0    0  0.65262927947E+03 -0.78488542387E+03  0.10993625538E+04  0.15024047106E+04  0.81558472938E+02 0.  0.
        254    2    1    2    0    0 -0.65262927947E+03  0.78488542387E+03 -0.36181411331E+03  0.13976280240E+04  0.88345035852E+03 0.  0.
         23    2    4    4    0    0 -0.74517985979E+03  0.80823206472E+03 -0.10400396251E+03  0.11077141626E+04  0.87645580983E+02 0.  0.
         23    2    4    4    0    0  0.92550580316E+02 -0.23346640843E+02 -0.25781015080E+03  0.28991386148E+03  0.92050516908E+02 0.  0.
          2    1    3    3  502    0  0.40954212417E+03 -0.47807839482E+03  0.73368000420E+03  0.96673163372E+03  0.00000000000E+00 0. -1.
         -1    1    3    3    0  502  0.24308715530E+03 -0.30680702906E+03  0.36568254964E+03  0.53567307685E+03  0.00000000000E+00 0.  1.
         13    1    5    5    0    0 -0.72414586162E+03  0.75773361898E+03 -0.99126515538E+02  0.10527932049E+04  0.00000000000E+00 0.  1.
        -13    1    5    5    0    0 -0.21033998175E+02  0.50498445735E+02 -0.48774469713E+01  0.54920957656E+02  0.00000000000E+00 0. -1.
          2    1    6    6  503    0  0.42710556539E+02  0.20471369420E+00 -0.22582705118E+02  0.48313684583E+02  0.00000000000E+00 0. -1.
         -2    1    6    6    0  503  0.49840023777E+02 -0.23551354537E+02 -0.23522744569E+03  0.24160017689E+03  0.00000000000E+00 0.  1.
<mgrwt>
<rscale>  0 0.28046768E+04</rscale>
<asrwt>0</asrwt>
<pdfrwt beam="1">  1        2 0.16634495E+00 0.28046768E+04</pdfrwt>
<pdfrwt beam="2">  1       -1 0.27981394E+00 0.28046768E+04</pdfrwt>
<totfact> 0.98996278E-01</totfact>
</mgrwt>
</event>
<event>
12    7  0.1711607E-007  0.1455571E+04  0.7818608E-02  0.8914547E-01
         -3   -1    0    0    0  501 -0.00000000000E+00  0.00000000000E+00  0.23550842624E+03  0.23550842624E+03  0.00000000000E+00 0.  1.
          2   -1    0    0  501    0  0.00000000000E+00 -0.00000000000E+00 -0.22490573713E+04  0.22490573713E+04  0.00000000000E+00 0. -1.
         24    2    1    2    0    0 -0.40605618893E+03  0.13126091809E+03 -0.44149029815E+03  0.61946540856E+03  0.81930774751E+02 0.  0.
        254    2    1    2    0    0  0.40605618893E+03 -0.13126091809E+03 -0.15720586469E+04  0.18651003890E+04  0.90836116962E+03 0.  0.
         23    2    4    4    0    0  0.52387832073E+03 -0.28355224098E+03 -0.53455466103E+03  0.80594577935E+03  0.94602036627E+02 0.  0.
         23    2    4    4    0    0 -0.11782213180E+03  0.15229132288E+03 -0.10375039859E+04  0.10591546096E+04  0.91210002841E+02 0.  0.
          4    1    3    3  502    0 -0.38407189632E+03  0.10400667395E+03 -0.38971979619E+03  0.55696510601E+03  0.00000000000E+00 0. -1.
         -3    1    3    3    0  502 -0.21984292611E+02  0.27254244143E+02 -0.51770501966E+02  0.62500302553E+02  0.00000000000E+00 0.  1.
         13    1    5    5    0    0  0.47224963310E+03 -0.22456586193E+03 -0.44237592369E+03  0.68494233346E+03  0.00000000000E+00 0.  1.
        -13    1    5    5    0    0  0.51628687625E+02 -0.58986379047E+02 -0.92178737345E+02  0.12100344589E+03  0.00000000000E+00 0. -1.
          3    1    6    6  503    0 -0.13420976508E+02 -0.11609474246E+02 -0.11927650478E+03  0.12058933242E+03  0.00000000000E+00 0. -1.
         -3    1    6    6    0  503 -0.10440115529E+03  0.16390079713E+03 -0.91822748111E+03  0.93856527721E+03  0.00000000000E+00 0.  1.
<mgrwt>
<rscale>  0 0.14555713E+04</rscale>
<asrwt>0</asrwt>
<pdfrwt beam="1">  1        2 0.34600884E+00 0.14555713E+04</pdfrwt>
<pdfrwt beam="2">  1       -3 0.36232064E-01 0.14555713E+04</pdfrwt>
<totfact> 0.22931273E+01</totfact>
</mgrwt>
</event>
<event>
12    7  0.1711607E-007  0.1184456E+04  0.7818608E-02  0.9126572E-01
          2   -1    0    0  501    0  0.00000000000E+00  0.00000000000E+00  0.12126689767E+04  0.12126689767E+04  0.00000000000E+00 0. -1.
         -1   -1    0    0    0  501 -0.00000000000E+00 -0.00000000000E+00 -0.28922462936E+03  0.28922462936E+03  0.00000000000E+00 0.  1.
         24    2    1    2    0    0  0.10580515609E+03  0.50705387522E+02 -0.65205854626E+02  0.15555063093E+03  0.78602976571E+02 0.  0.
        254    2    1    2    0    0 -0.10580515609E+03 -0.50705387522E+02  0.98865020196E+03  0.13463429751E+04  0.90633570902E+03 0.  0.
         23    2    4    4    0    0 -0.48897646215E+03  0.71504399482E+02  0.55356292702E+03  0.74737197559E+03  0.89006157339E+02 0.  0.
         23    2    4    4    0    0  0.38317130606E+03 -0.12220978700E+03  0.43508727495E+03  0.59897099954E+03  0.87805692543E+02 0.  0.
          2    1    3    3  502    0  0.20017095605E+02  0.54652102540E-01  0.17098413800E+02  0.26325707166E+02  0.00000000000E+00 0. -1.
         -1    1    3    3    0  502  0.85788060485E+02  0.50650735419E+02 -0.82304268426E+02  0.12922492376E+03  0.00000000000E+00 0.  1.
         13    1    5    5    0    0 -0.47686981121E+03  0.53355859034E+02  0.53562240928E+03  0.71912657430E+03  0.00000000000E+00 0. -1.
        -13    1    5    5    0    0 -0.12106650937E+02  0.18148540448E+02  0.17940517737E+02  0.28245401289E+02  0.00000000000E+00 0.  1.
          3    1    6    6  503    0  0.19987728149E+03 -0.20939395801E+02  0.23670039268E+03  0.31051000281E+03  0.00000000000E+00 0. -1.
         -3    1    6    6    0  503  0.18329402457E+03 -0.10127039120E+03  0.19838688227E+03  0.28846099673E+03  0.00000000000E+00 0.  1.
<mgrwt>
<rscale>  0 0.11844555E+04</rscale>
<asrwt>0</asrwt>
<pdfrwt beam="1">  1        2 0.18656446E+00 0.11844555E+04</pdfrwt>
<pdfrwt beam="2">  1       -1 0.44496097E-01 0.11844555E+04</pdfrwt>
<totfact> 0.10477108E+02</totfact>
</mgrwt>
</event>
<event>
12    7  0.1711607E-007  0.1654943E+04  0.7818608E-02  0.8787488E-01
         -1   -1    0    0    0  501 -0.00000000000E+00  0.00000000000E+00  0.14801624656E+03  0.14801624656E+03  0.00000000000E+00 0.  1.
          2   -1    0    0  501    0  0.00000000000E+00 -0.00000000000E+00 -0.46259046705E+04  0.46259046705E+04  0.00000000000E+00 0. -1.
         24    2    1    2    0    0  0.34094531631E+03 -0.23437955339E+03 -0.25390237508E+04  0.25737248515E+04  0.78996964145E+02 0.  0.
        254    2    1    2    0    0 -0.34094531631E+03  0.23437955339E+03 -0.19388646731E+04  0.22001960655E+04  0.95419548435E+03 0.  0.
         23    2    4    4    0    0 -0.49704256334E+03  0.49928830665E+03 -0.11957503014E+04  0.13908029741E+04  0.90410213169E+02 0.  0.
         23    2    4    4    0    0  0.15609724703E+03 -0.26490875326E+03 -0.74311437171E+03  0.80939309139E+03  0.91406831537E+02 0.  0.
          4    1    3    3  502    0  0.19134010523E+03 -0.13392423943E+03 -0.11883586628E+04  0.12110916766E+04  0.00000000000E+00 0. -1.
         -3    1    3    3    0  502  0.14960521108E+03 -0.10045531395E+03 -0.13506650881E+04  0.13626331749E+04  0.00000000000E+00 0.  1.
         13    1    5    5    0    0 -0.50061672986E+03  0.49873935060E+03 -0.11888303559E+04  0.13829951791E+04  0.00000000000E+00 0.  1.
        -13    1    5    5    0    0  0.35741665234E+01  0.54895605064E+00 -0.69199454122E+01  0.78077950531E+01  0.00000000000E+00 0. -1.
          4    1    6    6  503    0 -0.87909769176E+01 -0.18047461542E+02 -0.23240053426E+02  0.30709806683E+02  0.00000000000E+00 0. -1.
         -4    1    6    6    0  503  0.16488822395E+03 -0.24686129172E+03 -0.71987431829E+03  0.77868328470E+03  0.00000000000E+00 0.  1.
<mgrwt>
<rscale>  0 0.16549430E+04</rscale>
<asrwt>0</asrwt>
<pdfrwt beam="1">  1        2 0.71167758E+00 0.16549430E+04</pdfrwt>
<pdfrwt beam="2">  1       -1 0.22771732E-01 0.16549430E+04</pdfrwt>
<totfact> 0.16936154E+00</totfact>
</mgrwt>
</event>
<event>
12    7  0.1711607E-007  0.1174078E+04  0.7818608E-02  0.9135854E-01
         -1   -1    0    0    0  501 -0.00000000000E+00  0.00000000000E+00  0.45670793979E+03  0.45670793979E+03  0.00000000000E+00 0.  1.
          2   -1    0    0  501    0  0.00000000000E+00 -0.00000000000E+00 -0.75456212237E+03  0.75456212237E+03  0.00000000000E+00 0. -1.
         24    2    1    2    0    0  0.13086991298E+03  0.19125527464E+03 -0.74279036338E+02  0.25628181345E+03  0.80358437416E+02 0.  0.
        254    2    1    2    0    0 -0.13086991298E+03 -0.19125527464E+03 -0.22357514624E+03  0.95498824872E+03  0.89906128544E+03 0.  0.
         23    2    4    4    0    0  0.20706656658E+03 -0.36069338675E+03  0.11338688405E+03  0.44066965692E+03  0.91415965853E+02 0.  0.
         23    2    4    4    0    0 -0.33793647956E+03  0.16943811211E+03 -0.33696203029E+03  0.51431859180E+03  0.89832432705E+02 0.  0.
          4    1    3    3  502    0 -0.17546581796E+01 -0.38816943570E+01 -0.11306866360E+02  0.12082698511E+02  0.00000000000E+00 0. -1.
         -3    1    3    3    0  502  0.13262457116E+03  0.19513696900E+03 -0.62972169977E+02  0.24419911494E+03  0.00000000000E+00 0.  1.
         13    1    5    5    0    0  0.16641098905E+03 -0.28144685480E+03  0.48652425231E+02  0.33056316770E+03  0.00000000000E+00 0.  1.
        -13    1    5    5    0    0  0.40655577525E+02 -0.79246531944E+02  0.64734458824E+02  0.11010648922E+03  0.00000000000E+00 0. -1.
          4    1    6    6  503    0 -0.33592014474E+02 -0.72743800400E+01 -0.47563200874E+02  0.58682178886E+02  0.00000000000E+00 0. -1.
         -4    1    6    6    0  503 -0.30434446508E+03  0.17671249215E+03 -0.28939882942E+03  0.45563641292E+03  0.00000000000E+00 0.  1.
<mgrwt>
<rscale>  0 0.11740775E+04</rscale>
<asrwt>0</asrwt>
<pdfrwt beam="1">  1        2 0.11608648E+00 0.11740775E+04</pdfrwt>
<pdfrwt beam="2">  1       -1 0.70262760E-01 0.11740775E+04</pdfrwt>
<totfact> 0.85997096E+01</totfact>
</mgrwt>
</event>
<event>
12    7  0.1711607E-007  0.2084265E+04  0.7818608E-02  0.8568207E-01
          2   -1    0    0  501    0  0.00000000000E+00  0.00000000000E+00  0.25461280042E+04  0.25461280042E+04  0.00000000000E+00 0. -1.
         -1   -1    0    0    0  501 -0.00000000000E+00 -0.00000000000E+00 -0.42654560015E+03  0.42654560015E+03  0.00000000000E+00 0.  1.
         24    2    1    2    0    0 -0.52358126517E+03  0.61252530678E+03  0.54811400889E+03  0.97770410465E+03  0.78433135900E+02 0.  0.
        254    2    1    2    0    0  0.52358126517E+03 -0.61252530678E+03  0.15714683952E+04  0.19949694997E+04  0.92793630984E+03 0.  0.
         23    2    4    4    0    0  0.78345689331E+03 -0.45990258290E+03  0.11588429698E+04  0.14752957613E+04  0.90914603924E+02 0.  0.
         23    2    4    4    0    0 -0.25987562814E+03 -0.15262272389E+03  0.41262542539E+03  0.51967373844E+03  0.94720720035E+02 0.  0.
          2    1    3    3  502    0 -0.12852595069E+03  0.17627107545E+03  0.11226490504E+03  0.24534429063E+03  0.00000000000E+00 0. -1.
         -1    1    3    3    0  502 -0.39505531449E+03  0.43625423134E+03  0.43584910385E+03  0.73235981402E+03  0.00000000000E+00 0.  1.
         13    1    5    5    0    0  0.82204397837E+02 -0.72088556769E+02  0.17568653605E+03  0.20693013794E+03  0.00000000000E+00 0. -1.
        -13    1    5    5    0    0  0.70125249547E+03 -0.38781402613E+03  0.98315643373E+03  0.12683656233E+04  0.00000000000E+00 0.  1.
          3    1    6    6  503    0 -0.17116070062E+02  0.11959005065E+02  0.15590498509E+02  0.26058420909E+02  0.00000000000E+00 0. -1.
         -3    1    6    6    0  503 -0.24275955808E+03 -0.16458172895E+03  0.39703492688E+03  0.49361531753E+03  0.00000000000E+00 0.  1.
<mgrwt>
<rscale>  0 0.20842646E+04</rscale>
<asrwt>0</asrwt>
<pdfrwt beam="1">  1        2 0.39171199E+00 0.20842646E+04</pdfrwt>
<pdfrwt beam="2">  1       -1 0.65622401E-01 0.20842646E+04</pdfrwt>
<totfact> 0.80935373E+00</totfact>
</mgrwt>
</event>
<event>
12    7  0.1711607E-007  0.1211533E+04  0.7818608E-02  0.9102821E-01
          2   -1    0    0  501    0  0.00000000000E+00  0.00000000000E+00  0.17086286506E+04  0.17086286506E+04  0.00000000000E+00 0. -1.
         -1   -1    0    0    0  501 -0.00000000000E+00 -0.00000000000E+00 -0.21476480935E+03  0.21476480935E+03  0.00000000000E+00 0.  1.
         24    2    1    2    0    0 -0.15031499754E+03 -0.69458849304E+02  0.67311903631E+03  0.69776425892E+03  0.79790937794E+02 0.  0.
        254    2    1    2    0    0  0.15031499754E+03  0.69458849304E+02  0.82074480494E+03  0.12256292010E+04  0.89505629618E+03 0.  0.
         23    2    4    4    0    0 -0.95135527367E+02  0.50373641900E+02  0.93158034813E+03  0.94167734384E+03  0.85592070470E+02 0.  0.
         23    2    4    4    0    0  0.24545052491E+03  0.19085207404E+02 -0.11083554318E+03  0.28395185718E+03  0.87942789627E+02 0.  0.
          2    1    3    3  502    0 -0.71296205774E+02 -0.27737941839E+02  0.46532806253E+03  0.47157475351E+03  0.00000000000E+00 0. -1.
         -1    1    3    3    0  502 -0.79018791765E+02 -0.41720907465E+02  0.20779097379E+03  0.22618950541E+03  0.00000000000E+00 0.  1.
         13    1    5    5    0    0  0.14813050924E+02  0.11267745486E+01  0.16751719856E+03  0.16817463516E+03  0.00000000000E+00 0.  1.
        -13    1    5    5    0    0 -0.10994857829E+03  0.49246867352E+02  0.76406314957E+03  0.77350270868E+03  0.00000000000E+00 0. -1.
          3    1    6    6  503    0  0.18160703839E+03  0.86552938521E+01 -0.12110117105E+03  0.21845256724E+03  0.00000000000E+00 0. -1.
         -3    1    6    6    0  503  0.63843486515E+02  0.10429913551E+02  0.10265627871E+02  0.65499289941E+02  0.00000000000E+00 0.  1.
<mgrwt>
<rscale>  0 0.12115334E+04</rscale>
<asrwt>0</asrwt>
<pdfrwt beam="1">  1        2 0.26286594E+00 0.12115334E+04</pdfrwt>
<pdfrwt beam="2">  1       -1 0.33040741E-01 0.12115334E+04</pdfrwt>
<totfact> 0.93708501E+01</totfact>
</mgrwt>
</event>
<event>
12    7  0.1711607E-007  0.2704109E+04  0.7818608E-02  0.8333673E-01
          2   -1    0    0  501    0  0.00000000000E+00  0.00000000000E+00  0.13082675219E+04  0.13082675219E+04  0.00000000000E+00 0. -1.
         -1   -1    0    0    0  501 -0.00000000000E+00 -0.00000000000E+00 -0.13973069238E+04  0.13973069238E+04  0.00000000000E+00 0.  1.
         24    2    1    2    0    0 -0.46889193452E+03 -0.96507169646E+03 -0.58100283848E+03  0.12228124208E+04  0.80516411305E+02 0.  0.
        254    2    1    2    0    0  0.46889193452E+03  0.96507169646E+03  0.49196343663E+03  0.14827620250E+04  0.89740301654E+03 0.  0.
         23    2    4    4    0    0  0.44425743214E+03  0.80700563337E+03 -0.33657467793E+02  0.92579806137E+03  0.85711533595E+02 0.  0.
         23    2    4    4    0    0  0.24634502376E+02  0.15806606309E+03  0.52562090442E+03  0.55696396358E+03  0.91322409941E+02 0.  0.
          4    1    3    3  502    0 -0.41778292554E+02 -0.14975093717E+03 -0.89142500313E+02  0.17921259519E+03  0.00000000000E+00 0. -1.
         -3    1    3    3    0  502 -0.42711364196E+03 -0.81532075929E+03 -0.49186033817E+03  0.10435998256E+04  0.00000000000E+00 0.  1.
         13    1    5    5    0    0  0.44159675834E+03  0.80891494560E+03 -0.34980439175E+02  0.92226607728E+03  0.00000000000E+00 0.  1.
        -13    1    5    5    0    0  0.26606738033E+01 -0.19093122292E+01  0.13229713821E+01  0.35319840818E+01  0.00000000000E+00 0. -1.
          3    1    6    6  503    0  0.24253688337E+02  0.11173694668E+03  0.22086171238E+03  0.24870320192E+03  0.00000000000E+00 0. -1.
         -3    1    6    6    0  503  0.38081403921E+00  0.46329116415E+02  0.30475919204E+03  0.30826076166E+03  0.00000000000E+00 0.  1.
<mgrwt>
<rscale>  0 0.27041089E+04</rscale>
<asrwt>0</asrwt>
<pdfrwt beam="1">  1        2 0.20127193E+00 0.27041089E+04</pdfrwt>
<pdfrwt beam="2">  1       -1 0.21497029E+00 0.27041089E+04</pdfrwt>
<totfact> 0.19433323E+00</totfact>
</mgrwt>
</event>
<event>
12    7  0.1711607E-007  0.1587463E+04  0.7818608E-02  0.8828287E-01
          2   -1    0    0  501    0  0.00000000000E+00  0.00000000000E+00  0.65736136792E+03  0.65736136792E+03  0.00000000000E+00 0. -1.
         -1   -1    0    0    0  501 -0.00000000000E+00 -0.00000000000E+00 -0.95839125073E+03  0.95839125073E+03  0.00000000000E+00 0.  1.
         24    2    1    2    0    0 -0.12393362905E+02 -0.53053891590E+03 -0.14601749402E+03  0.55632737986E+03  0.80956212186E+02 0.  0.
        254    2    1    2    0    0  0.12393362905E+02  0.53053891590E+03 -0.15501238879E+03  0.10594252388E+04  0.90372997028E+03 0.  0.
         23    2    4    4    0    0 -0.43050354793E+03  0.34320681439E+03 -0.64392930414E+02  0.56174515063E+03  0.91032645475E+02 0.  0.
         23    2    4    4    0    0  0.44289691083E+03  0.18733210151E+03 -0.90619458376E+02  0.49768008816E+03  0.90678520271E+02 0.  0.
          2    1    3    3  502    0  0.16399444853E+02 -0.99480221089E+02 -0.16885970283E+01  0.10083703456E+03  0.00000000000E+00 0. -1.
         -1    1    3    3    0  502 -0.28792807758E+02 -0.43105869481E+03 -0.14432889699E+03  0.45549034530E+03  0.00000000000E+00 0.  1.
         13    1    5    5    0    0 -0.18390000711E+02  0.39533608152E+02 -0.19820721938E+02  0.47895295362E+02  0.00000000000E+00 0. -1.
        -13    1    5    5    0    0 -0.41211354722E+03  0.30367320624E+03 -0.44572208476E+02  0.51384985527E+03  0.00000000000E+00 0.  1.
          3    1    6    6  503    0  0.42522268436E+03  0.19062361475E+03 -0.10114715305E+03  0.47684634880E+03  0.00000000000E+00 0.  1.
         -3    1    6    6    0  503  0.17674226476E+02 -0.32915132382E+01  0.10527694673E+02  0.20833739368E+02  0.00000000000E+00 0. -1.
<mgrwt>
<rscale>  0 0.15874626E+04</rscale>
<asrwt>0</asrwt>
<pdfrwt beam="1">  1        2 0.10113252E+00 0.15874626E+04</pdfrwt>
<pdfrwt beam="2">  1       -1 0.14744481E+00 0.15874626E+04</pdfrwt>
<totfact> 0.17765041E+01</totfact>
</mgrwt>
</event>
<event>
12    7  0.1711607E-007  0.1109151E+04  0.7818608E-02  0.9196318E-01
         -1   -1    0    0    0  501 -0.00000000000E+00  0.00000000000E+00  0.93988368152E+02  0.93988368152E+02  0.00000000000E+00 0.  1.
          2   -1    0    0  501    0  0.00000000000E+00 -0.00000000000E+00 -0.32722584755E+04  0.32722584755E+04  0.00000000000E+00 0. -1.
         24    2    1    2    0    0 -0.15259136802E+03 -0.24287305592E+02 -0.49880412943E+03  0.52827528124E+03  0.79970084579E+02 0.  0.
        254    2    1    2    0    0  0.15259136802E+03  0.24287305592E+02 -0.26794659779E+04  0.28379715624E+04  0.92231809232E+03 0.  0.
         23    2    4    4    0    0 -0.13723623417E+03 -0.19915575325E+03 -0.19201889533E+03  0.32212089494E+03  0.91617775425E+02 0.  0.
         23    2    4    4    0    0  0.28982760218E+03  0.22344305884E+03 -0.24874470826E+04  0.25158506674E+04  0.90469623582E+02 0.  0.
          4    1    3    3  502    0  0.87575043858E+01 -0.44619119245E+01 -0.15398344245E+02  0.18267773443E+02  0.00000000000E+00 0. -1.
         -3    1    3    3    0  502 -0.16134887240E+03 -0.19825393668E+02 -0.48340578518E+03  0.51000750780E+03  0.00000000000E+00 0.  1.
         13    1    5    5    0    0  0.59152761669E+01 -0.49697380699E+01 -0.31300644090E+02  0.32240023403E+02  0.00000000000E+00 0.  1.
        -13    1    5    5    0    0 -0.14315151034E+03 -0.19418601518E+03 -0.16071825124E+03  0.28988087154E+03  0.00000000000E+00 0. -1.
          4    1    6    6  503    0  0.24961859500E+03  0.21583941717E+03 -0.23263041065E+04  0.23495929207E+04  0.00000000000E+00 0. -1.
         -4    1    6    6    0  503  0.40209007185E+02  0.76036416667E+01 -0.16114297606E+03  0.16625774676E+03  0.00000000000E+00 0.  1.
<mgrwt>
<rscale>  0 0.11091514E+04</rscale>
<asrwt>0</asrwt>
<pdfrwt beam="1">  1        2 0.50342443E+00 0.11091514E+04</pdfrwt>
<pdfrwt beam="2">  1       -1 0.14459748E-01 0.11091514E+04</pdfrwt>
<totfact> 0.47042566E+01</totfact>
</mgrwt>
</event>
<event>
12    7  0.1711607E-007  0.1047590E+04  0.7818608E-02  0.9257836E-01
          4   -1    0    0  501    0  0.00000000000E+00  0.00000000000E+00  0.36609614738E+03  0.36609614738E+03  0.00000000000E+00 0. -1.
         -3   -1    0    0    0  501 -0.00000000000E+00 -0.00000000000E+00 -0.74942355950E+03  0.74942355950E+03  0.00000000000E+00 0.  1.
         24    2    1    2    0    0  0.10068920467E+02 -0.11522493294E+03 -0.42977460668E+02  0.14825036702E+03  0.82176279209E+02 0.  0.
        254    2    1    2    0    0 -0.10068920467E+02  0.11522493294E+03 -0.34034995146E+03  0.96726933987E+03  0.89799427507E+03 0.  0.
         23    2    4    4    0    0 -0.36223821986E+03  0.24082481177E+03 -0.37168918519E+03  0.57923612123E+03  0.90269130167E+02 0.  0.
         23    2    4    4    0    0  0.35216929939E+03 -0.12559987883E+03  0.31339233738E+02  0.38803321863E+03  0.98939810974E+02 0.  0.
          4    1    3    3  502    0 -0.49162985445E+01 -0.96782979354E+02  0.24988366202E+01  0.96939977659E+02  0.00000000000E+00 0. -1.
         -3    1    3    3    0  502  0.14985219012E+02 -0.18441953585E+02 -0.45476297288E+02  0.51310389356E+02  0.00000000000E+00 0.  1.
         13    1    5    5    0    0 -0.36550409154E+03  0.23438841558E+03 -0.37234412064E+03  0.57198891114E+03  0.00000000000E+00 0.  1.
        -13    1    5    5    0    0  0.32658716805E+01  0.64363961910E+01  0.65493544338E+00  0.72472100974E+01  0.00000000000E+00 0. -1.
          2    1    6    6  503    0  0.94364538920E+02 -0.47951873032E+02  0.52125368191E+02  0.11798772115E+03  0.00000000000E+00 0. -1.
         -2    1    6    6    0  503  0.25780476047E+03 -0.77648005801E+02 -0.20786134453E+02  0.27004549748E+03  0.00000000000E+00 0.  1.
<mgrwt>
<rscale>  0 0.10475898E+04</rscale>
<asrwt>0</asrwt>
<pdfrwt beam="1">  1        4 0.56322485E-01 0.10475898E+04</pdfrwt>
<pdfrwt beam="2">  1       -3 0.11529593E+00 0.10475898E+04</pdfrwt>
<totfact> 0.42529358E+00</totfact>
</mgrwt>
</event>
<event>
12    7  0.1711607E-007  0.1378580E+04  0.7818608E-02  0.8969471E-01
         -1   -1    0    0    0  501 -0.00000000000E+00  0.00000000000E+00  0.33605441806E+03  0.33605441806E+03  0.00000000000E+00 0.  1.
          2   -1    0    0  501    0  0.00000000000E+00 -0.00000000000E+00 -0.14138201243E+04  0.14138201243E+04  0.00000000000E+00 0. -1.
         24    2    1    2    0    0 -0.39424999002E+03  0.58894643523E+02 -0.20187344864E+03  0.45371571271E+03  0.78761824684E+02 0.  0.
        254    2    1    2    0    0  0.39424999002E+03 -0.58894643523E+02 -0.87589225763E+03  0.12961588297E+04  0.86829651105E+03 0.  0.
         23    2    4    4    0    0 -0.23423689360E+03 -0.15656775192E+03 -0.16925945953E+03  0.34099592751E+03  0.90824416718E+02 0.  0.
         23    2    4    4    0    0  0.62848688362E+03  0.97673108399E+02 -0.70663279810E+03  0.95516290217E+03  0.92035098427E+02 0.  0.
          4    1    3    3  502    0 -0.31752156803E+03  0.25993971808E+02 -0.18545597109E+03  0.36863199800E+03  0.00000000000E+00 0. -1.
         -3    1    3    3    0  502 -0.76728421992E+02  0.32900671715E+02 -0.16417477555E+02  0.85083714717E+02  0.00000000000E+00 0.  1.
         13    1    5    5    0    0 -0.13719365332E+03 -0.38193691413E+02 -0.91912360127E+02  0.16949554129E+03  0.00000000000E+00 0. -1.
        -13    1    5    5    0    0 -0.97043240282E+02 -0.11837406051E+03 -0.77347099402E+02  0.17150038621E+03  0.00000000000E+00 0.  1.
          3    1    6    6  503    0  0.29996469837E+03  0.60565917633E+01 -0.36412884303E+03  0.47181067909E+03  0.00000000000E+00 0. -1.
         -3    1    6    6    0  503  0.32852218525E+03  0.91616516635E+02 -0.34250395507E+03  0.48335222308E+03  0.00000000000E+00 0.  1.
<mgrwt>
<rscale>  0 0.13785797E+04</rscale>
<asrwt>0</asrwt>
<pdfrwt beam="1">  1        2 0.21751078E+00 0.13785797E+04</pdfrwt>
<pdfrwt beam="2">  1       -1 0.51700681E-01 0.13785797E+04</pdfrwt>
<totfact> 0.59425298E+01</totfact>
</mgrwt>
</event>
<event>
12    7  0.1711607E-007  0.1224988E+04  0.7818608E-02  0.9091262E-01
          2   -1    0    0  501    0  0.00000000000E+00  0.00000000000E+00  0.23382384577E+04  0.23382384577E+04  0.00000000000E+00 0. -1.
         -1   -1    0    0    0  501 -0.00000000000E+00 -0.00000000000E+00 -0.16044073757E+03  0.16044073757E+03  0.00000000000E+00 0.  1.
         24    2    1    2    0    0  0.22367917712E+03  0.14878475241E+02  0.79046521073E+03  0.82554328485E+03  0.80204254821E+02 0.  0.
        254    2    1    2    0    0 -0.22367917712E+03 -0.14878475241E+02  0.13873325094E+04  0.16731359104E+04  0.90798597993E+03 0.  0.
         23    2    4    4    0    0 -0.32443878646E+03 -0.40277772505E+02  0.66432691164E+02  0.34507471838E+03  0.88206766687E+02 0.  0.
         23    2    4    4    0    0  0.10075960935E+03  0.25399297264E+02  0.13208998182E+04  0.13280611920E+04  0.90402305185E+02 0.  0.
          2    1    3    3  502    0  0.22140878115E+03  0.23244571774E+02  0.69731744469E+03  0.73199301715E+03  0.00000000000E+00 0. -1.
         -1    1    3    3    0  502  0.22703959637E+01 -0.83660965336E+01  0.93147766037E+02  0.93550267700E+02  0.00000000000E+00 0.  1.
         13    1    5    5    0    0 -0.17371680588E+03 -0.20389371005E+02  0.80208968163E+02  0.19242331893E+03  0.00000000000E+00 0.  1.
        -13    1    5    5    0    0 -0.15072198058E+03 -0.19888401500E+02 -0.13776276999E+02  0.15265139944E+03  0.00000000000E+00 0. -1.
          2    1    6    6  503    0  0.11106003045E+03  0.19019901186E+01  0.11297427995E+04  0.11351901783E+04  0.00000000000E+00 0.  1.
         -2    1    6    6    0  503 -0.10300421100E+02  0.23497307146E+02  0.19115701873E+03  0.19287101370E+03  0.00000000000E+00 0. -1.
<mgrwt>
<rscale>  0 0.12249877E+04</rscale>
<asrwt>0</asrwt>
<pdfrwt beam="1">  1        2 0.35972897E+00 0.12249877E+04</pdfrwt>
<pdfrwt beam="2">  1       -1 0.24683192E-01 0.12249877E+04</pdfrwt>
<totfact> 0.69559129E+01</totfact>
</mgrwt>
</event>
<event>
12    7  0.1711607E-007  0.2026024E+04  0.7818608E-02  0.8594549E-01
          2   -1    0    0  501    0  0.00000000000E+00  0.00000000000E+00  0.31487511935E+04  0.31487511935E+04  0.00000000000E+00 0. -1.
         -1   -1    0    0    0  501 -0.00000000000E+00 -0.00000000000E+00 -0.32590475985E+03  0.32590475985E+03  0.00000000000E+00 0.  1.
         24    2    1    2    0    0  0.54760984539E+03  0.50262047826E+03  0.55326105510E+03  0.93001312480E+03  0.79515591392E+02 0.  0.
        254    2    1    2    0    0 -0.54760984539E+03 -0.50262047826E+03  0.22695853786E+04  0.25446428286E+04  0.87845628604E+03 0.  0.
         23    2    4    4    0    0 -0.12396095586E+03  0.15788711396E+03  0.11687488881E+04  0.11897045954E+04  0.95542668801E+02 0.  0.
         23    2    4    4    0    0 -0.42364888953E+03 -0.66050759221E+03  0.11008364905E+04  0.13549382332E+04  0.90928411393E+02 0.  0.
          2    1    3    3  502    0  0.28479421118E+03  0.27086050641E+03  0.24370307817E+03  0.46245469720E+03  0.00000000000E+00 0. -1.
         -1    1    3    3    0  502  0.26281563421E+03  0.23175997185E+03  0.30955797692E+03  0.46755842759E+03  0.00000000000E+00 0.  1.
         13    1    5    5    0    0 -0.41798363338E+02 -0.27153000465E+01  0.21301383345E+03  0.21709299683E+03  0.00000000000E+00 0.  1.
        -13    1    5    5    0    0 -0.82162592520E+02  0.16060241400E+03  0.95573505464E+03  0.97261159857E+03  0.00000000000E+00 0. -1.
          1    1    6    6  503    0 -0.28344635266E+03 -0.36368771046E+03  0.66857230540E+03  0.81215732043E+03  0.00000000000E+00 0. -1.
         -1    1    6    6    0  503 -0.14020253687E+03 -0.29681988175E+03  0.43226418507E+03  0.54278091274E+03  0.00000000000E+00 0.  1.
<mgrwt>
<rscale>  0 0.20260237E+04</rscale>
<asrwt>0</asrwt>
<pdfrwt beam="1">  1        2 0.48442324E+00 0.20260237E+04</pdfrwt>
<pdfrwt beam="2">  1       -1 0.50139196E-01 0.20260237E+04</pdfrwt>
<totfact> 0.59163342E+00</totfact>
</mgrwt>
</event>
<event>
12    7  0.1711607E-007  0.2335683E+04  0.7818608E-02  0.8463983E-01
          2   -1    0    0  501    0  0.00000000000E+00  0.00000000000E+00  0.12487175664E+04  0.12487175664E+04  0.00000000000E+00 0. -1.
         -1   -1    0    0    0  501 -0.00000000000E+00 -0.00000000000E+00 -0.10922033141E+04  0.10922033141E+04  0.00000000000E+00 0.  1.
         24    2    1    2    0    0 -0.66142888416E+02  0.22319704072E+03 -0.90072223953E+03  0.93367969493E+03  0.79154401436E+02 0.  0.
        254    2    1    2    0    0  0.66142888416E+02 -0.22319704072E+03  0.10572364918E+04  0.14072411856E+04  0.89910341680E+03 0.  0.
         23    2    4    4    0    0  0.18560999767E+02 -0.56072510494E+03  0.73498990715E+03  0.92919861487E+03  0.91884428655E+02 0.  0.
         23    2    4    4    0    0  0.47581888650E+02  0.33752806421E+03  0.32224658469E+03  0.47804257074E+03  0.92155346210E+02 0.  0.
          4    1    3    3  502    0 -0.25607268110E+02  0.57899901054E+02 -0.39614381227E+03  0.40117084979E+03  0.00000000000E+00 0. -1.
         -1    1    3    3    0  502 -0.40535620306E+02  0.16529713967E+03 -0.50457842727E+03  0.53250884515E+03  0.00000000000E+00 0.  1.
         13    1    5    5    0    0  0.12693218988E+02 -0.15474867032E+03  0.14122319818E+03  0.20988630370E+03  0.00000000000E+00 0. -1.
        -13    1    5    5    0    0  0.58677807787E+01 -0.40597643461E+03  0.59376670897E+03  0.71931231117E+03  0.00000000000E+00 0.  1.
          2    1    6    6  503    0  0.31410523040E+02  0.20882642247E+03  0.25764994224E+03  0.33313448998E+03  0.00000000000E+00 0. -1.
         -2    1    6    6    0  503  0.16171365609E+02  0.12870164174E+03  0.64596642455E+02  0.14490808076E+03  0.00000000000E+00 0.  1.
<mgrwt>
<rscale>  0 0.23356827E+04</rscale>
<asrwt>0</asrwt>
<pdfrwt beam="1">  1        2 0.19211040E+00 0.23356827E+04</pdfrwt>
<pdfrwt beam="2">  1       -1 0.16803128E+00 0.23356827E+04</pdfrwt>
<totfact> 0.46450157E+00</totfact>
</mgrwt>
</event>
<event>
12    7  0.1711607E-007  0.1452062E+04  0.7818608E-02  0.8916972E-01
          2   -1    0    0  501    0  0.00000000000E+00  0.00000000000E+00  0.86091138976E+03  0.86091138976E+03  0.00000000000E+00 0. -1.
         -1   -1    0    0    0  501 -0.00000000000E+00 -0.00000000000E+00 -0.61228230323E+03  0.61228230323E+03  0.00000000000E+00 0.  1.
         24    2    1    2    0    0 -0.45510827750E+02 -0.78570590138E+02 -0.36621508956E+03  0.38533623037E+03  0.78268419789E+02 0.  0.
        254    2    1    2    0    0  0.45510827750E+02  0.78570590138E+02  0.61484417609E+03  0.10878574626E+04  0.89283588920E+03 0.  0.
         23    2    4    4    0    0 -0.28122535077E+03  0.22402255101E+03  0.61559244632E+03  0.71869300410E+03  0.91059172470E+02 0.  0.
         23    2    4    4    0    0  0.32673617852E+03 -0.14545196088E+03 -0.74827022939E+00  0.36916445853E+03  0.91482425956E+02 0.  0.
          2    1    3    3  502    0 -0.53951313456E+02 -0.49732710608E+02 -0.14937411163E+03  0.16642329150E+03  0.00000000000E+00 0. -1.
         -1    1    3    3    0  502  0.84404857069E+01 -0.28837879530E+02 -0.21684097793E+03  0.21891293887E+03  0.00000000000E+00 0.  1.
         13    1    5    5    0    0 -0.43887544738E+02  0.44159921316E+02  0.18469593677E+03  0.19490716840E+03  0.00000000000E+00 0. -1.
        -13    1    5    5    0    0 -0.23733780603E+03  0.17986262970E+03  0.43089650955E+03  0.52378583569E+03  0.00000000000E+00 0.  1.
          1    1    6    6  503    0  0.21357184798E+03 -0.12634457305E+03 -0.32050397327E+02  0.25020614173E+03  0.00000000000E+00 0. -1.
         -1    1    6    6    0  503  0.11316433054E+03 -0.19107387821E+02  0.31302127098E+02  0.11895831680E+03  0.00000000000E+00 0.  1.
<mgrwt>
<rscale>  0 0.14520617E+04</rscale>
<asrwt>0</asrwt>
<pdfrwt beam="1">  1        2 0.13244791E+00 0.14520617E+04</pdfrwt>
<pdfrwt beam="2">  1       -1 0.94197278E-01 0.14520617E+04</pdfrwt>
<totfact> 0.37686034E+01</totfact>
</mgrwt>
</event>
<event>
12    7  0.1711607E-007  0.2389729E+04  0.7818608E-02  0.8443359E-01
         -1   -1    0    0    0  501 -0.00000000000E+00  0.00000000000E+00  0.12978264087E+04  0.12978264087E+04  0.00000000000E+00 0.  1.
          2   -1    0    0  501    0  0.00000000000E+00 -0.00000000000E+00 -0.11000712008E+04  0.11000712008E+04  0.00000000000E+00 0. -1.
         24    2    1    2    0    0 -0.48000060990E+03 -0.58109910669E+03 -0.61101451760E+03  0.97349909792E+03  0.79277964348E+02 0.  0.
        254    2    1    2    0    0  0.48000060990E+03  0.58109910669E+03  0.80876972546E+03  0.14243985116E+04  0.89817921027E+03 0.  0.
         23    2    4    4    0    0  0.22944764797E+03 -0.21834858235E+03  0.21077223261E+03  0.39110272019E+03  0.90631545975E+02 0.  0.
         23    2    4    4    0    0  0.25055296193E+03  0.79944768904E+03  0.59799749285E+03  0.10332957914E+04  0.90585853605E+02 0.  0.
          4    1    3    3  502    0 -0.35381877288E+03 -0.39883265235E+03 -0.39093381649E+03  0.66112363254E+03  0.00000000000E+00 0. -1.
         -3    1    3    3    0  502 -0.12618183702E+03 -0.18226645434E+03 -0.22008070111E+03  0.31237546538E+03  0.00000000000E+00 0.  1.
         13    1    5    5    0    0  0.11732357310E+03 -0.79022515264E+02  0.48276385766E+02  0.14946567548E+03  0.00000000000E+00 0.  1.
        -13    1    5    5    0    0  0.11212407487E+03 -0.13932606709E+03  0.16249584684E+03  0.24163704471E+03  0.00000000000E+00 0. -1.
          3    1    6    6  503    0  0.18556074454E+03  0.44778692209E+03  0.32945232631E+03  0.58607572277E+03  0.00000000000E+00 0. -1.
         -3    1    6    6    0  503  0.64992217385E+02  0.35166076695E+03  0.26854516654E+03  0.44722006865E+03  0.00000000000E+00 0.  1.
<mgrwt>
<rscale>  0 0.23897292E+04</rscale>
<asrwt>0</asrwt>
<pdfrwt beam="1">  1        2 0.16924172E+00 0.23897292E+04</pdfrwt>
<pdfrwt beam="2">  1       -1 0.19966560E+00 0.23897292E+04</pdfrwt>
<totfact> 0.33817290E+00</totfact>
</mgrwt>
</event>
<event>
12    7  0.1711607E-007  0.1484413E+04  0.7818608E-02  0.8894885E-01
         -3   -1    0    0    0  501 -0.00000000000E+00  0.00000000000E+00  0.14095436133E+04  0.14095436133E+04  0.00000000000E+00 0.  1.
          4   -1    0    0  501    0  0.00000000000E+00 -0.00000000000E+00 -0.39081480566E+03  0.39081480566E+03  0.00000000000E+00 0. -1.
         24    2    1    2    0    0 -0.17154339349E+03  0.16569252624E+03  0.80270355037E+03  0.84111752805E+03  0.79148955298E+02 0.  0.
        254    2    1    2    0    0  0.17154339349E+03 -0.16569252624E+03  0.21602525725E+03  0.95924089089E+03  0.90365647559E+03 0.  0.
         23    2    4    4    0    0 -0.10668632547E+03 -0.23190053456E+03 -0.27379255038E+03  0.38513877115E+03  0.90607297890E+02 0.  0.
         23    2    4    4    0    0  0.27822971895E+03  0.66208008314E+02  0.48981780763E+03  0.57410211974E+03  0.88749548412E+02 0.  0.
          4    1    3    3  502    0 -0.37439622614E+00  0.29246798821E+02  0.14572429878E+03  0.14863070567E+03  0.00000000000E+00 0. -1.
         -3    1    3    3    0  502 -0.17116899726E+03  0.13644572742E+03  0.65697925159E+03  0.69248682238E+03  0.00000000000E+00 0.  1.
         13    1    5    5    0    0 -0.26215633754E+02 -0.16241965920E+03 -0.16911707922E+03  0.23594065277E+03  0.00000000000E+00 0. -1.
        -13    1    5    5    0    0 -0.80470691711E+02 -0.69480875363E+02 -0.10467547116E+03  0.14919811838E+03  0.00000000000E+00 0.  1.
          2    1    6    6  503    0  0.17130092201E+03  0.73261765096E+02  0.25329097249E+03  0.31443220072E+03  0.00000000000E+00 0. -1.
         -2    1    6    6    0  503  0.10692879694E+03 -0.70537567820E+01  0.23652683514E+03  0.25966991901E+03  0.00000000000E+00 0.  1.
<mgrwt>
<rscale>  0 0.14844130E+04</rscale>
<asrwt>0</asrwt>
<pdfrwt beam="1">  1        4 0.60125355E-01 0.14844130E+04</pdfrwt>
<pdfrwt beam="2">  1       -3 0.21685286E+00 0.14844130E+04</pdfrwt>
<totfact> 0.66579297E-01</totfact>
</mgrwt>
</event>
<event>
12    7  0.1711607E-007  0.1421136E+04  0.7818608E-02  0.8938659E-01
         -1   -1    0    0    0  501 -0.00000000000E+00  0.00000000000E+00  0.52842997172E+03  0.52842997172E+03  0.00000000000E+00 0.  1.
          2   -1    0    0  501    0  0.00000000000E+00 -0.00000000000E+00 -0.95548554620E+03  0.95548554620E+03  0.00000000000E+00 0. -1.
         24    2    1    2    0    0 -0.14373253701E+03  0.26203946792E+03 -0.41708091168E+03  0.51919256410E+03  0.79250910337E+02 0.  0.
        254    2    1    2    0    0  0.14373253701E+03 -0.26203946792E+03 -0.99746628043E+01  0.96472295383E+03  0.91720617028E+03 0.  0.
         23    2    4    4    0    0  0.39824615588E+03 -0.12257045369E+03 -0.31762549475E+03  0.53209088468E+03  0.92796755621E+02 0.  0.
         23    2    4    4    0    0 -0.25451361887E+03 -0.13946901423E+03  0.30765083194E+03  0.43263206915E+03  0.91064179245E+02 0.  0.
          2    1    3    3  502    0 -0.35646294122E+02  0.14683396849E+03 -0.19639826098E+03  0.24779658897E+03  0.00000000000E+00 0. -1.
         -1    1    3    3    0  502 -0.10808624289E+03  0.11520549943E+03 -0.22068265069E+03  0.27139597513E+03  0.00000000000E+00 0.  1.
         13    1    5    5    0    0  0.62969410524E+02  0.29247908816E+01 -0.82341915956E+02  0.10370097486E+03  0.00000000000E+00 0.  1.
        -13    1    5    5    0    0  0.33527674535E+03 -0.12549524457E+03 -0.23528357879E+03  0.42838990982E+03  0.00000000000E+00 0. -1.
          4    1    6    6  503    0 -0.24410575922E+03 -0.11752710175E+03  0.24437248485E+03  0.36485360445E+03  0.00000000000E+00 0. -1.
         -4    1    6    6    0  503 -0.10407859647E+02 -0.21941912482E+02  0.63278347096E+02  0.67778464699E+02  0.00000000000E+00 0.  1.
<mgrwt>
<rscale>  0 0.14211364E+04</rscale>
<asrwt>0</asrwt>
<pdfrwt beam="1">  1        2 0.14699778E+00 0.14211364E+04</pdfrwt>
<pdfrwt beam="2">  1       -1 0.81296918E-01 0.14211364E+04</pdfrwt>
<totfact> 0.45013222E+01</totfact>
</mgrwt>
</event>
<event>
12    7  0.1711607E-007  0.1413225E+04  0.7818608E-02  0.8944301E-01
         -1   -1    0    0    0  501 -0.00000000000E+00  0.00000000000E+00  0.24552872860E+04  0.24552872860E+04  0.00000000000E+00 0.  1.
          2   -1    0    0  501    0  0.00000000000E+00 -0.00000000000E+00 -0.20335746849E+03  0.20335746849E+03  0.00000000000E+00 0. -1.
         24    2    1    2    0    0  0.26010744508E+03 -0.28703356165E+03  0.98198876715E+03  0.10586984868E+04  0.80600239900E+02 0.  0.
        254    2    1    2    0    0 -0.26010744508E+03  0.28703356165E+03  0.12699410504E+04  0.15999462677E+04  0.89276740507E+03 0.  0.
         23    2    4    4    0    0  0.45765853215E+02 -0.33042708983E+02 -0.10542465092E+03  0.15209790485E+03  0.93984475858E+02 0.  0.
         23    2    4    4    0    0 -0.30587329829E+03  0.32007627063E+03  0.13753657013E+04  0.14478483628E+04  0.92880438499E+02 0.  0.
          2    1    3    3  502    0  0.48492070839E+02 -0.20646555806E+02  0.17937759770E+03  0.18696011274E+03  0.00000000000E+00 0. -1.
         -1    1    3    3    0  502  0.21161537424E+03 -0.26638700584E+03  0.80261116945E+03  0.87173837407E+03  0.00000000000E+00 0.  1.
         13    1    5    5    0    0  0.62882590519E+02 -0.82217130908E+01 -0.10412733300E+03  0.12191931034E+03  0.00000000000E+00 0. -1.
        -13    1    5    5    0    0 -0.17116737303E+02 -0.24820995892E+02 -0.12973179182E+01  0.30178594513E+02  0.00000000000E+00 0.  1.
          2    1    6    6  503    0 -0.20233786750E+03  0.18003353675E+03  0.95938008450E+03  0.99687653876E+03  0.00000000000E+00 0. -1.
         -2    1    6    6    0  503 -0.10353543079E+03  0.14004273388E+03  0.41598561677E+03  0.45097182406E+03  0.00000000000E+00 0.  1.
<mgrwt>
<rscale>  0 0.14132247E+04</rscale>
<asrwt>0</asrwt>
<pdfrwt beam="1">  1        2 0.31285766E-01 0.14132247E+04</pdfrwt>
<pdfrwt beam="2">  1       -1 0.37773648E+00 0.14132247E+04</pdfrwt>
<totfact> 0.19339642E+00</totfact>
</mgrwt>
</event>
<event>
12    7  0.1711607E-007  0.3380537E+04  0.7818608E-02  0.8142700E-01
         -3   -1    0    0    0  501 -0.00000000000E+00  0.00000000000E+00  0.10456397581E+04  0.10456397581E+04  0.00000000000E+00 0.  1.
          2   -1    0    0  501    0  0.00000000000E+00 -0.00000000000E+00 -0.27323056056E+04  0.27323056056E+04  0.00000000000E+00 0. -1.
         24    2    1    2    0    0 -0.38878424350E+02  0.51973947230E+03  0.87231118133E+03  0.10200624614E+04  0.89218704228E+02 0.  0.
        254    2    1    2    0    0  0.38878424350E+02 -0.51973947230E+03 -0.25589770289E+04  0.27578829023E+04  0.88651791700E+03 0.  0.
         23    2    4    4    0    0  0.80318673489E+02 -0.31013534572E+03 -0.24972252204E+04  0.25193911742E+04  0.92536832605E+02 0.  0.
         23    2    4    4    0    0 -0.41440249139E+02 -0.20960412658E+03 -0.61751808493E+02  0.23849172802E+03  0.86103625662E+02 0.  0.
          2    1    3    3  502    0 -0.83270587661E+01  0.13181247116E+03  0.15201674467E+03  0.20137765050E+03  0.00000000000E+00 0. -1.
         -1    1    3    3    0  502 -0.30551365583E+02  0.38792700114E+03  0.72029443666E+03  0.81868481092E+03  0.00000000000E+00 0.  1.
         13    1    5    5    0    0  0.35056107490E+02 -0.25925255187E+03 -0.18116038606E+04  0.18303959583E+04  0.00000000000E+00 0. -1.
        -13    1    5    5    0    0  0.45262565998E+02 -0.50882793851E+02 -0.68562135983E+03  0.68899521598E+03  0.00000000000E+00 0.  1.
          2    1    6    6  503    0 -0.43321663127E+01 -0.83728434703E+02  0.16856219376E+02  0.85518130092E+02  0.00000000000E+00 0. -1.
         -2    1    6    6    0  503 -0.37108082827E+02 -0.12587569188E+03 -0.78608027869E+02  0.15297359793E+03  0.00000000000E+00 0.  1.
<mgrwt>
<rscale>  0 0.33805369E+04</rscale>
<asrwt>0</asrwt>
<pdfrwt beam="1">  1        2 0.42035471E+00 0.33805369E+04</pdfrwt>
<pdfrwt beam="2">  1       -3 0.16086766E+00 0.33805369E+04</pdfrwt>
<totfact> 0.35940966E-01</totfact>
</mgrwt>
</event>
<event>
12    7  0.1711607E-007  0.2074360E+04  0.7818608E-02  0.8572623E-01
         -1   -1    0    0    0  501 -0.00000000000E+00  0.00000000000E+00  0.47898409473E+03  0.47898409473E+03  0.00000000000E+00 0.  1.
          2   -1    0    0  501    0  0.00000000000E+00 -0.00000000000E+00 -0.22458830248E+04  0.22458830248E+04  0.00000000000E+00 0. -1.
         24    2    1    2    0    0 -0.52130286744E+03 -0.53179415914E+03 -0.10549485522E+04  0.12936029852E+04  0.77009923135E+02 0.  0.
        254    2    1    2    0    0  0.52130286744E+03  0.53179415914E+03 -0.71195037789E+03  0.14312641343E+04  0.99351999194E+03 0.  0.
         23    2    4    4    0    0  0.75956713657E+03  0.26073741872E+03 -0.68325374838E+03  0.10577258842E+04  0.83798120298E+02 0.  0.
         23    2    4    4    0    0 -0.23826426913E+03  0.27105674042E+03 -0.28696629504E+02  0.37353825013E+03  0.92009289163E+02 0.  0.
          2    1    3    3  502    0 -0.50538357561E+03 -0.52559924293E+03 -0.10436029309E+04  0.12730963043E+04  0.00000000000E+00 0. -1.
         -1    1    3    3    0  502 -0.15919291826E+02 -0.61949162074E+01 -0.11345621326E+02  0.20506680920E+02  0.00000000000E+00 0.  1.
         13    1    5    5    0    0  0.50252532111E+03  0.18452051716E+03 -0.50373595734E+03  0.73507104032E+03  0.00000000000E+00 0. -1.
        -13    1    5    5    0    0  0.25704181547E+03  0.76216901552E+02 -0.17951779104E+03  0.32265484388E+03  0.00000000000E+00 0.  1.
          2    1    6    6  503    0 -0.18740354656E+03  0.24145352450E+03  0.50729925230E+01  0.30568877802E+03  0.00000000000E+00 0. -1.
         -2    1    6    6    0  503 -0.50860722577E+02  0.29603215929E+02 -0.33769622027E+02  0.67849472115E+02  0.00000000000E+00 0.  1.
<mgrwt>
<rscale>  0 0.20743599E+04</rscale>
<asrwt>0</asrwt>
<pdfrwt beam="1">  1        2 0.34552047E+00 0.20743599E+04</pdfrwt>
<pdfrwt beam="2">  1       -1 0.73689860E-01 0.20743599E+04</pdfrwt>
<totfact> 0.94868337E+00</totfact>
</mgrwt>
</event>
<event>
12    7  0.1711607E-007  0.3487632E+04  0.7818608E-02  0.8116727E-01
         -1   -1    0    0    0  501 -0.00000000000E+00  0.00000000000E+00  0.17037376301E+04  0.17037376301E+04  0.00000000000E+00 0.  1.
          2   -1    0    0  501    0  0.00000000000E+00 -0.00000000000E+00 -0.17848373665E+04  0.17848373665E+04  0.00000000000E+00 0. -1.
         24    2    1    2    0    0 -0.14134007440E+03 -0.11196898819E+04 -0.12227722983E+04  0.16673812536E+04  0.10632827942E+03 0.  0.
        254    2    1    2    0    0  0.14134007440E+03  0.11196898819E+04  0.11416725619E+04  0.18211937430E+04  0.86002788485E+03 0.  0.
         23    2    4    4    0    0  0.78783487554E+02  0.11452375176E+04  0.12238594802E+04  0.16804229080E+04  0.90627328998E+02 0.  0.
         23    2    4    4    0    0  0.62556586844E+02 -0.25547635670E+02 -0.82186918329E+02  0.14077083503E+03  0.92172285448E+02 0.  0.
          2    1    3    3  502    0 -0.15110022391E+03 -0.92310454169E+03 -0.97831921234E+03  0.13535367575E+04  0.00000000000E+00 0. -1.
         -1    1    3    3    0  502  0.97601495149E+01 -0.19658534020E+03 -0.24445308596E+03  0.31384449610E+03  0.00000000000E+00 0.  1.
         13    1    5    5    0    0  0.88762318151E+02  0.64609897171E+03  0.70470539826E+03  0.96017307227E+03  0.00000000000E+00 0. -1.
        -13    1    5    5    0    0 -0.99788305969E+01  0.49913854584E+03  0.51915408198E+03  0.72024983571E+03  0.00000000000E+00 0.  1.
          1    1    6    6  503    0 -0.18637334906E+02 -0.13957537703E+02 -0.45105185730E+02  0.50760623428E+02  0.00000000000E+00 0. -1.
         -1    1    6    6    0  503  0.81193921749E+02 -0.11590097967E+02 -0.37081732599E+02  0.90010211601E+02  0.00000000000E+00 0.  1.
<mgrwt>
<rscale>  0 0.34876322E+04</rscale>
<asrwt>0</asrwt>
<pdfrwt beam="1">  1        2 0.27459036E+00 0.34876322E+04</pdfrwt>
<pdfrwt beam="2">  1       -1 0.26211348E+00 0.34876322E+04</pdfrwt>
<totfact> 0.47870823E-01</totfact>
</mgrwt>
</event>
<event>
12    7  0.1711607E-007  0.1604656E+04  0.7818608E-02  0.8817693E-01
          2   -1    0    0  501    0  0.00000000000E+00  0.00000000000E+00  0.23222447508E+04  0.23222447508E+04  0.00000000000E+00 0. -1.
         -1   -1    0    0    0  501 -0.00000000000E+00 -0.00000000000E+00 -0.27720157544E+03  0.27720157544E+03  0.00000000000E+00 0.  1.
         24    2    1    2    0    0  0.54806270779E+03 -0.17243057724E+03  0.71392723527E+03  0.91969780918E+03  0.77761991411E+02 0.  0.
        254    2    1    2    0    0 -0.54806270779E+03  0.17243057724E+03  0.13311159401E+04  0.16797485171E+04  0.84828084914E+03 0.  0.
         23    2    4    4    0    0 -0.29615111738E+03  0.81348270589E+02  0.19675234893E+01  0.32084112444E+03  0.92801565360E+02 0.  0.
         23    2    4    4    0    0 -0.25191159041E+03  0.91082306650E+02  0.13291484166E+04  0.13589073927E+04  0.90765370106E+02 0.  0.
          2    1    3    3  502    0  0.22364045499E+03 -0.74920624092E+02  0.35447599147E+03  0.42577151331E+03  0.00000000000E+00 0. -1.
         -1    1    3    3    0  502  0.32442225280E+03 -0.97509953147E+02  0.35945124381E+03  0.49392629587E+03  0.00000000000E+00 0.  1.
         13    1    5    5    0    0 -0.16357942169E+03  0.92155675825E+02 -0.21827899805E+01  0.18776490715E+03  0.00000000000E+00 0. -1.
        -13    1    5    5    0    0 -0.13257169569E+03 -0.10807405236E+02  0.41503134697E+01  0.13307621729E+03  0.00000000000E+00 0.  1.
          1    1    6    6  503    0 -0.19304021457E+03  0.66250225620E+02  0.11653770981E+04  0.11831134339E+04  0.00000000000E+00 0. -1.
         -1    1    6    6    0  503 -0.58871375835E+02  0.24832081029E+02  0.16377131856E+03  0.17579395872E+03  0.00000000000E+00 0.  1.
<mgrwt>
<rscale>  0 0.16046556E+04</rscale>
<asrwt>0</asrwt>
<pdfrwt beam="1">  1        2 0.35726841E+00 0.16046556E+04</pdfrwt>
<pdfrwt beam="2">  1       -1 0.42646398E-01 0.16046556E+04</pdfrwt>
<totfact> 0.26051884E+01</totfact>
</mgrwt>
</event>
<event>
12    7  0.1711607E-007  0.1469632E+04  0.7818608E-02  0.8904903E-01
         -1   -1    0    0    0  501 -0.00000000000E+00  0.00000000000E+00  0.57611588833E+03  0.57611588833E+03  0.00000000000E+00 0.  1.
          2   -1    0    0  501    0  0.00000000000E+00 -0.00000000000E+00 -0.93723202770E+03  0.93723202770E+03  0.00000000000E+00 0. -1.
         24    2    1    2    0    0 -0.32843472132E+03  0.12292260175E+03  0.18031070452E+03  0.40243844965E+03  0.80407856592E+02 0.  0.
        254    2    1    2    0    0  0.32843472132E+03 -0.12292260175E+03 -0.54142684389E+03  0.11109094664E+04  0.90443213289E+03 0.  0.
         23    2    4    4    0    0  0.90501438380E+02  0.21530166873E+03 -0.62974135324E+03  0.67809307725E+03  0.93224087703E+02 0.  0.
         23    2    4    4    0    0  0.23793328294E+03 -0.33822427048E+03  0.88314509349E+02  0.43281638912E+03  0.92318307270E+02 0.  0.
          4    1    3    3  502    0 -0.27050448345E+03  0.10594450221E+03  0.11219792478E+03  0.31142460956E+03  0.00000000000E+00 0. -1.
         -3    1    3    3    0  502 -0.57930237871E+02  0.16978099540E+02  0.68112779740E+02  0.91013840088E+02  0.00000000000E+00 0.  1.
         13    1    5    5    0    0  0.99128903092E+02  0.20246903625E+03 -0.51320265289E+03  0.56053297227E+03  0.00000000000E+00 0.  1.
        -13    1    5    5    0    0 -0.86274647120E+01  0.12832632477E+02 -0.11653870035E+03  0.11756010498E+03  0.00000000000E+00 0. -1.
          2    1    6    6  503    0  0.21517672619E+02 -0.13961754523E+01 -0.40480729071E+01  0.21939608818E+02  0.00000000000E+00 0. -1.
         -2    1    6    6    0  503  0.21641561033E+03 -0.33682809503E+03  0.92362582256E+02  0.41087678030E+03  0.00000000000E+00 0.  1.
<mgrwt>
<rscale>  0 0.14696316E+04</rscale>
<asrwt>0</asrwt>
<pdfrwt beam="1">  1        2 0.14418954E+00 0.14696316E+04</pdfrwt>
<pdfrwt beam="2">  1       -1 0.88633214E-01 0.14696316E+04</pdfrwt>
<totfact> 0.38232637E+01</totfact>
</mgrwt>
</event>
<event>
12    7  0.1711607E-007  0.1496495E+04  0.7818608E-02  0.8886787E-01
         -1   -1    0    0    0  501 -0.00000000000E+00  0.00000000000E+00  0.31789639120E+03  0.31789639120E+03  0.00000000000E+00 0.  1.
          2   -1    0    0  501    0  0.00000000000E+00 -0.00000000000E+00 -0.17611838785E+04  0.17611838785E+04  0.00000000000E+00 0. -1.
         24    2    1    2    0    0  0.28543419538E+02  0.37019104255E+03 -0.56585204994E+02  0.38205073745E+03  0.70033890247E+02 0.  0.
        254    2    1    2    0    0 -0.28543419538E+02 -0.37019104255E+03 -0.13867022823E+04  0.16970295323E+04  0.90504689317E+03 0.  0.
         23    2    4    4    0    0  0.11564219900E+03  0.24471959361E+03 -0.19833726819E+03  0.34816714672E+03  0.92854145956E+02 0.  0.
         23    2    4    4    0    0 -0.14418561854E+03 -0.61491063615E+03 -0.11883650142E+04  0.13488623856E+04  0.91179741672E+02 0.  0.
          4    1    3    3  502    0  0.11661109602E+01  0.74021559815E+02 -0.40025095982E+02  0.84157943419E+02  0.00000000000E+00 0. -1.
         -3    1    3    3    0  502  0.27377308577E+02  0.29616948273E+03 -0.16560109012E+02  0.29789279403E+03  0.00000000000E+00 0.  1.
         13    1    5    5    0    0  0.10026160133E+03  0.23170062587E+03 -0.14497672082E+03  0.29112852541E+03  0.00000000000E+00 0.  1.
        -13    1    5    5    0    0  0.15380597671E+02  0.13018967735E+02 -0.53360547365E+02  0.57038621308E+02  0.00000000000E+00 0. -1.
          1    1    6    6  503    0 -0.89171001188E+02 -0.19248541776E+03 -0.39804398777E+03  0.45104447641E+03  0.00000000000E+00 0. -1.
         -1    1    6    6    0  503 -0.55014617347E+02 -0.42242521839E+03 -0.79032102639E+03  0.89781790916E+03  0.00000000000E+00 0.  1.
<mgrwt>
<rscale>  0 0.14964946E+04</rscale>
<asrwt>0</asrwt>
<pdfrwt beam="1">  1        2 0.27095136E+00 0.14964946E+04</pdfrwt>
<pdfrwt beam="2">  1       -1 0.48907137E-01 0.14964946E+04</pdfrwt>
<totfact> 0.41793894E+01</totfact>
</mgrwt>
</event>
<event>
12    7  0.1711607E-007  0.1508384E+04  0.7818608E-02  0.8878897E-01
         -1   -1    0    0    0  501 -0.00000000000E+00  0.00000000000E+00  0.18431070482E+03  0.18431070482E+03  0.00000000000E+00 0.  1.
          2   -1    0    0  501    0  0.00000000000E+00 -0.00000000000E+00 -0.30861237396E+04  0.30861237396E+04  0.00000000000E+00 0. -1.
         24    2    1    2    0    0 -0.42770524978E+03 -0.16339512726E+03 -0.13227151217E+04  0.14019995561E+04  0.79985709810E+02 0.  0.
        254    2    1    2    0    0  0.42770524978E+03  0.16339512726E+03 -0.15790979131E+04  0.18684348883E+04  0.88761983108E+03 0.  0.
         23    2    4    4    0    0  0.52615725176E+03 -0.37452517981E+02 -0.15336841135E+04  0.16246351228E+04  0.94911420054E+02 0.  0.
         23    2    4    4    0    0 -0.98452001984E+02  0.20084764524E+03 -0.45413799588E+02  0.24379976551E+03  0.85693285474E+02 0.  0.
          2    1    3    3  502    0 -0.18645621438E+03 -0.10213962977E+03 -0.69299375074E+03  0.72487154890E+03  0.00000000000E+00 0. -1.
         -1    1    3    3    0  502 -0.24124903540E+03 -0.61255497491E+02 -0.62972137094E+03  0.67712800716E+03  0.00000000000E+00 0.  1.
         13    1    5    5    0    0  0.56235366849E+02  0.24645745505E+02 -0.20064681004E+03  0.20983081670E+03  0.00000000000E+00 0.  1.
        -13    1    5    5    0    0  0.46992188491E+03 -0.62098263486E+02 -0.13330373034E+04  0.14148043061E+04  0.00000000000E+00 0. -1.
          4    1    6    6  503    0 -0.58946547751E+02  0.42383301792E+02  0.52926338804E+01  0.72794585897E+02  0.00000000000E+00 0. -1.
         -4    1    6    6    0  503 -0.39505454234E+02  0.15846434345E+03 -0.50706433468E+02  0.17100517961E+03  0.00000000000E+00 0.  1.
<mgrwt>
<rscale>  0 0.15083841E+04</rscale>
<asrwt>0</asrwt>
<pdfrwt beam="1">  1        2 0.47478826E+00 0.15083841E+04</pdfrwt>
<pdfrwt beam="2">  1       -1 0.28355494E-01 0.15083841E+04</pdfrwt>
<totfact> 0.19177328E+01</totfact>
</mgrwt>
</event>
<event>
12    7  0.1711607E-007  0.1674161E+04  0.7818608E-02  0.8776240E-01
         -1   -1    0    0    0  501 -0.00000000000E+00  0.00000000000E+00  0.14267248576E+03  0.14267248576E+03  0.00000000000E+00 0.  1.
          2   -1    0    0  501    0  0.00000000000E+00 -0.00000000000E+00 -0.49112745550E+04  0.49112745550E+04  0.00000000000E+00 0. -1.
         24    2    1    2    0    0 -0.22342204421E+03  0.27556442804E+03 -0.27094902041E+03  0.45299102745E+03  0.77034637979E+02 0.  0.
        254    2    1    2    0    0  0.22342204421E+03 -0.27556442804E+03 -0.44976530489E+04  0.46009560133E+04  0.90225280548E+03 0.  0.
         23    2    4    4    0    0  0.57206237701E+02 -0.47937084707E+03 -0.40067996920E+04  0.40368759888E+04  0.94101086372E+02 0.  0.
         23    2    4    4    0    0  0.16621580651E+03  0.20380641903E+03 -0.49085335682E+03  0.56408002451E+03  0.89913877587E+02 0.  0.
          4    1    3    3  502    0 -0.52766746652E+02  0.24666001222E+02 -0.29961659494E+02  0.65501467221E+02  0.00000000000E+00 0. -1.
         -3    1    3    3    0  502 -0.17065529755E+03  0.25089842682E+03 -0.24098736092E+03  0.38748956023E+03  0.00000000000E+00 0.  1.
         13    1    5    5    0    0 -0.90582573378E+01 -0.15041832167E+03 -0.97737815125E+03  0.98892657668E+03  0.00000000000E+00 0.  1.
        -13    1    5    5    0    0  0.66264495039E+02 -0.32895252540E+03 -0.30294215408E+04  0.30479494122E+04  0.00000000000E+00 0. -1.
          3    1    6    6  503    0  0.12323772113E+03  0.16832168643E+03 -0.30107265619E+03  0.36628468483E+03  0.00000000000E+00 0. -1.
         -3    1    6    6    0  503  0.42978085376E+02  0.35484732594E+02 -0.18978070063E+03  0.19779533968E+03  0.00000000000E+00 0.  1.
<mgrwt>
<rscale>  0 0.16741610E+04</rscale>
<asrwt>0</asrwt>
<pdfrwt beam="1">  1        2 0.75558065E+00 0.16741610E+04</pdfrwt>
<pdfrwt beam="2">  1       -1 0.21949615E-01 0.16741610E+04</pdfrwt>
<totfact> 0.87073345E-01</totfact>
</mgrwt>
</event>
<event>
12    7  0.1711607E-007  0.1298031E+04  0.7818608E-02  0.9031128E-01
          2   -1    0    0  501    0  0.00000000000E+00  0.00000000000E+00  0.95919645412E+03  0.95919645412E+03  0.00000000000E+00 0. -1.
         -1   -1    0    0    0  501 -0.00000000000E+00 -0.00000000000E+00 -0.43913975688E+03  0.43913975688E+03  0.00000000000E+00 0.  1.
         24    2    1    2    0    0  0.10814563416E+03 -0.26546977623E+03 -0.37963887677E+02  0.29985380499E+03  0.79381152163E+02 0.  0.
        254    2    1    2    0    0 -0.10814563416E+03  0.26546977623E+03  0.55802058492E+03  0.10984824060E+04  0.90172442734E+03 0.  0.
         23    2    4    4    0    0 -0.34736137770E+03  0.14315116235E+03 -0.84387208625E+02  0.39624416465E+03  0.93466865999E+02 0.  0.
         23    2    4    4    0    0  0.23921574354E+03  0.12231861388E+03  0.64240779354E+03  0.70223824136E+03  0.90910720866E+02 0.  0.
          2    1    3    3  502    0  0.93555106933E+01 -0.51962259311E+02  0.21807881005E+02  0.57124299969E+02  0.00000000000E+00 0. -1.
         -1    1    3    3    0  502  0.98790123465E+02 -0.21350751692E+03 -0.59771768682E+02  0.24272950502E+03  0.00000000000E+00 0.  1.
         13    1    5    5    0    0 -0.13542454354E+03  0.94492222910E+02 -0.64825966271E+01  0.16525922438E+03  0.00000000000E+00 0. -1.
        -13    1    5    5    0    0 -0.21193683417E+03  0.48658939444E+02 -0.77904611998E+02  0.23098494028E+03  0.00000000000E+00 0.  1.
          4    1    6    6  503    0  0.37990634001E+02  0.22872498430E+02  0.41329258987E+02  0.60618042732E+02  0.00000000000E+00 0. -1.
         -4    1    6    6    0  503  0.20122510954E+03  0.99446115446E+02  0.60107853456E+03  0.64162019863E+03  0.00000000000E+00 0.  1.
<mgrwt>
<rscale>  0 0.12980313E+04</rscale>
<asrwt>0</asrwt>
<pdfrwt beam="1">  1        2 0.14756868E+00 0.12980313E+04</pdfrwt>
<pdfrwt beam="2">  1       -1 0.67559963E-01 0.12980313E+04</pdfrwt>
<totfact> 0.66456818E+01</totfact>
</mgrwt>
</event>
<event>
12    7  0.1711607E-007  0.1603276E+04  0.7818608E-02  0.8818538E-01
         -1   -1    0    0    0  501 -0.00000000000E+00  0.00000000000E+00  0.16632448793E+04  0.16632448793E+04  0.00000000000E+00 0.  1.
          2   -1    0    0  501    0  0.00000000000E+00 -0.00000000000E+00 -0.38636741388E+03  0.38636741388E+03  0.00000000000E+00 0. -1.
         24    2    1    2    0    0  0.53835738817E+03 -0.42806104166E+02  0.55385536612E+03  0.77774562105E+03  0.80445289103E+02 0.  0.
        254    2    1    2    0    0 -0.53835738817E+03  0.42806104166E+02  0.72302209932E+03  0.12718666721E+04  0.89622700008E+03 0.  0.
         23    2    4    4    0    0 -0.70721938236E+03 -0.14741936772E+03  0.68361982817E+03  0.99867336869E+03  0.90114943735E+02 0.  0.
         23    2    4    4    0    0  0.16886199419E+03  0.19022547189E+03  0.39402271144E+02  0.27319330346E+03  0.91552929226E+02 0.  0.
          4    1    3    3  502    0  0.26333649039E+03  0.91965840278E+01  0.30671154376E+03  0.40435461591E+03  0.00000000000E+00 0. -1.
         -3    1    3    3    0  502  0.27502089778E+03 -0.52002688193E+02  0.24714382235E+03  0.37339100514E+03  0.00000000000E+00 0.  1.
         13    1    5    5    0    0 -0.57571989677E+03 -0.91716219322E+02  0.57893879776E+03  0.82160537728E+03  0.00000000000E+00 0. -1.
        -13    1    5    5    0    0 -0.13149948559E+03 -0.55703148398E+02  0.10468103042E+03  0.17706799141E+03  0.00000000000E+00 0.  1.
          1    1    6    6  503    0  0.16546343468E+03  0.13693775204E+03  0.45199002697E+02  0.21948358935E+03  0.00000000000E+00 0. -1.
         -1    1    6    6    0  503  0.33985595073E+01  0.53287719846E+02 -0.57967315524E+01  0.53709714110E+02  0.00000000000E+00 0.  1.
<mgrwt>
<rscale>  0 0.16032762E+04</rscale>
<asrwt>0</asrwt>
<pdfrwt beam="1">  1        2 0.59441141E-01 0.16032762E+04</pdfrwt>
<pdfrwt beam="2">  1       -1 0.25588382E+00 0.16032762E+04</pdfrwt>
<totfact> 0.57907436E+00</totfact>
</mgrwt>
</event>
<event>
12    7  0.1711607E-007  0.2695727E+04  0.7818608E-02  0.8336393E-01
          2   -1    0    0  501    0  0.00000000000E+00  0.00000000000E+00  0.31825856584E+04  0.31825856584E+04  0.00000000000E+00 0. -1.
         -1   -1    0    0    0  501 -0.00000000000E+00 -0.00000000000E+00 -0.57083637120E+03  0.57083637120E+03  0.00000000000E+00 0.  1.
         24    2    1    2    0    0 -0.12839649611E+03  0.44511290611E+03  0.26924988059E+04  0.27333356043E+04  0.83441875019E+02 0.  0.
        254    2    1    2    0    0  0.12839649611E+03 -0.44511290611E+03 -0.80749518672E+02  0.10200864253E+04  0.90523183274E+03 0.  0.
         23    2    4    4    0    0  0.13615162320E+03 -0.68545609319E+03 -0.20621380720E+03  0.73411442499E+03  0.89512761678E+02 0.  0.
         23    2    4    4    0    0 -0.77551270965E+01  0.24034318708E+03  0.12546428853E+03  0.28597200035E+03  0.90629507988E+02 0.  0.
          2    1    3    3  502    0 -0.90788405826E+02  0.36256630959E+03  0.19677385477E+04  0.20029208310E+04  0.00000000000E+00 0. -1.
         -1    1    3    3    0  502 -0.37608090280E+02  0.82546596522E+02  0.72476025826E+03  0.73041477326E+03  0.00000000000E+00 0.  1.
         13    1    5    5    0    0  0.98098001203E+02 -0.54967686391E+03 -0.19954141455E+03  0.59294573840E+03  0.00000000000E+00 0. -1.
        -13    1    5    5    0    0  0.38053621999E+02 -0.13577922928E+03 -0.66723926503E+01  0.14116868659E+03  0.00000000000E+00 0.  1.
          1    1    6    6  503    0 -0.37333665086E+02  0.18458367449E+03  0.11842376920E+03  0.22246151251E+03  0.00000000000E+00 0. -1.
         -1    1    6    6    0  503  0.29578537990E+02  0.55759512588E+02  0.70405193343E+01  0.63510487844E+02  0.00000000000E+00 0.  1.
<mgrwt>
<rscale>  0 0.26957267E+04</rscale>
<asrwt>0</asrwt>
<pdfrwt beam="1">  1        2 0.48962855E+00 0.26957267E+04</pdfrwt>
<pdfrwt beam="2">  1       -1 0.87820982E-01 0.26957267E+04</pdfrwt>
<totfact> 0.16927381E+00</totfact>
</mgrwt>
</event>
<event>
12    7  0.1711607E-007  0.2914234E+04  0.7818608E-02  0.8268655E-01
          2   -1    0    0  501    0  0.00000000000E+00  0.00000000000E+00  0.18079250445E+04  0.18079250445E+04  0.00000000000E+00 0. -1.
         -1   -1    0    0    0  501 -0.00000000000E+00 -0.00000000000E+00 -0.11743795868E+04  0.11743795868E+04  0.00000000000E+00 0.  1.
         24    2    1    2    0    0 -0.26537789768E+03 -0.72694585093E+03  0.13705470936E+04  0.15751454563E+04  0.61710404373E+02 0.  0.
        254    2    1    2    0    0  0.26537789768E+03  0.72694585093E+03 -0.73700163592E+03  0.14071591750E+04  0.91545061775E+03 0.  0.
         23    2    4    4    0    0  0.38053383773E+03  0.46006333236E+02 -0.56717878072E+03  0.69015733682E+03  0.87765573639E+02 0.  0.
         23    2    4    4    0    0 -0.11515594005E+03  0.68093951770E+03 -0.16982285520E+03  0.71700183813E+03  0.91171905993E+02 0.  0.
          2    1    3    3  502    0 -0.16606432877E+03 -0.48056322403E+03  0.95569740257E+03  0.10825321699E+04  0.00000000000E+00 0. -1.
         -1    1    3    3    0  502 -0.99313568915E+02 -0.24638262690E+03  0.41484969104E+03  0.49261328642E+03  0.00000000000E+00 0.  1.
         13    1    5    5    0    0  0.80482761500E+01 -0.13726071571E+02 -0.25579475679E+02  0.30124564159E+02  0.00000000000E+00 0.  1.
        -13    1    5    5    0    0  0.37248556158E+03  0.59732404806E+02 -0.54159930504E+03  0.66003277266E+03  0.00000000000E+00 0. -1.
          3    1    6    6  503    0 -0.12368855835E+03  0.50409454017E+03 -0.11471228885E+03  0.53157226612E+03  0.00000000000E+00 0. -1.
         -3    1    6    6    0  503  0.85326183019E+01  0.17684497752E+03 -0.55110566352E+02  0.18542957200E+03  0.00000000000E+00 0.  1.
<mgrwt>
<rscale>  0 0.29142342E+04</rscale>
<asrwt>0</asrwt>
<pdfrwt beam="1">  1        2 0.27814232E+00 0.29142342E+04</pdfrwt>
<pdfrwt beam="2">  1       -1 0.18067378E+00 0.29142342E+04</pdfrwt>
<totfact> 0.17246349E+00</totfact>
</mgrwt>
</event>
<event>
12    7  0.1711607E-007  0.1742549E+04  0.7818608E-02  0.8737462E-01
         -1   -1    0    0    0  501 -0.00000000000E+00  0.00000000000E+00  0.48300341979E+03  0.48300341979E+03  0.00000000000E+00 0.  1.
          2   -1    0    0  501    0  0.00000000000E+00 -0.00000000000E+00 -0.15716644537E+04  0.15716644537E+04  0.00000000000E+00 0. -1.
         24    2    1    2    0    0 -0.49778866497E+03 -0.32595208182E+02 -0.85498336585E+03  0.99309654142E+03  0.79926104170E+02 0.  0.
        254    2    1    2    0    0  0.49778866497E+03  0.32595208182E+02 -0.23367766806E+03  0.10615713321E+04  0.90745382139E+03 0.  0.
         23    2    4    4    0    0  0.62585450953E+02 -0.42295581949E+02 -0.51618468065E+03  0.52967266434E+03  0.91655070217E+02 0.  0.
         23    2    4    4    0    0  0.43520321401E+03  0.74890790131E+02  0.28250701259E+03  0.53189866772E+03  0.89975066694E+02 0.  0.
          4    1    3    3  502    0 -0.49306108606E+03 -0.27795567367E+02 -0.81806899009E+03  0.95557244660E+03  0.00000000000E+00 0. -1.
         -3    1    3    3    0  502 -0.47275789114E+01 -0.47996408149E+01 -0.36914375762E+02  0.37524094822E+02  0.00000000000E+00 0.  1.
         13    1    5    5    0    0 -0.72783962246E+01 -0.57141768250E+00 -0.19257151366E+00  0.73033316752E+01  0.00000000000E+00 0. -1.
        -13    1    5    5    0    0  0.69863847178E+02 -0.41724164267E+02 -0.51599210913E+03  0.52236933267E+03  0.00000000000E+00 0.  1.
          3    1    6    6  503    0  0.20639135934E+03 -0.70910851729E+01  0.11128282262E+03  0.23458802891E+03  0.00000000000E+00 0. -1.
         -3    1    6    6    0  503  0.22881185468E+03  0.81981875304E+02  0.17122418997E+03  0.29731063881E+03  0.00000000000E+00 0.  1.
<mgrwt>
<rscale>  0 0.17425491E+04</rscale>
<asrwt>0</asrwt>
<pdfrwt beam="1">  1        2 0.24179453E+00 0.17425491E+04</pdfrwt>
<pdfrwt beam="2">  1       -1 0.74308218E-01 0.17425491E+04</pdfrwt>
<totfact> 0.22783739E+01</totfact>
</mgrwt>
</event>
<event>
12    7  0.1711607E-007  0.1795092E+04  0.7818608E-02  0.8708914E-01
          2   -1    0    0  501    0  0.00000000000E+00  0.00000000000E+00  0.18883324287E+04  0.18883324287E+04  0.00000000000E+00 0. -1.
         -1   -1    0    0    0  501 -0.00000000000E+00 -0.00000000000E+00 -0.42661379871E+03  0.42661379871E+03  0.00000000000E+00 0.  1.
         24    2    1    2    0    0 -0.41204756299E+03  0.42719832740E+03  0.92571930616E+03  0.11025879738E+04  0.80389060829E+02 0.  0.
        254    2    1    2    0    0  0.41204756299E+03 -0.42719832740E+03  0.53599932380E+03  0.12123582536E+04  0.91117268111E+03 0.  0.
         23    2    4    4    0    0 -0.49952817570E+02  0.24440292556E+03  0.15978380630E+03  0.31002337112E+03  0.91408707921E+02 0.  0.
         23    2    4    4    0    0  0.46200038056E+03 -0.67160125296E+03  0.37621551750E+03  0.90233488245E+03  0.90429695707E+02 0.  0.
          4    1    3    3  502    0 -0.34302490334E+03  0.32001208342E+03  0.76586300139E+03  0.89812023401E+03  0.00000000000E+00 0. -1.
         -3    1    3    3    0  502 -0.69022659654E+02  0.10718624399E+03  0.15985630476E+03  0.20446773980E+03  0.00000000000E+00 0.  1.
         13    1    5    5    0    0 -0.52424592050E+02  0.15442504250E+03  0.14614610296E+03  0.21898428029E+03  0.00000000000E+00 0.  1.
        -13    1    5    5    0    0  0.24717744797E+01  0.89977883054E+02  0.13637703344E+02  0.91039090838E+02  0.00000000000E+00 0. -1.
          4    1    6    6  503    0  0.36555697056E+02 -0.68947937050E+02  0.65458261498E+02  0.10185735619E+03  0.00000000000E+00 0. -1.
         -4    1    6    6    0  503  0.42544468351E+03 -0.60265331591E+03  0.31075725600E+03  0.80047752627E+03  0.00000000000E+00 0.  1.
<mgrwt>
<rscale>  0 0.17950918E+04</rscale>
<asrwt>0</asrwt>
<pdfrwt beam="1">  1        2 0.29051268E+00 0.17950918E+04</pdfrwt>
<pdfrwt beam="2">  1       -1 0.65632893E-01 0.17950918E+04</pdfrwt>
<totfact> 0.19507778E+01</totfact>
</mgrwt>
</event>
<event>
12    7  0.1711607E-007  0.1756109E+04  0.7818608E-02  0.8729995E-01
          4   -1    0    0  501    0  0.00000000000E+00  0.00000000000E+00  0.17880260817E+04  0.17880260817E+04  0.00000000000E+00 0. -1.
         -3   -1    0    0    0  501 -0.00000000000E+00 -0.00000000000E+00 -0.43119065548E+03  0.43119065548E+03  0.00000000000E+00 0.  1.
         24    2    1    2    0    0 -0.40644455610E+03 -0.19462177533E+03 -0.84018944537E+02  0.46527996697E+03  0.79695997428E+02 0.  0.
        254    2    1    2    0    0  0.40644455610E+03  0.19462177533E+03  0.14408543707E+04  0.17539367702E+04  0.89283708676E+03 0.  0.
         23    2    4    4    0    0  0.23094337229E+03  0.97671441006E+02 -0.28532811238E+02  0.26804171464E+03  0.90319919613E+02 0.  0.
         23    2    4    4    0    0  0.17550118381E+03  0.96950334326E+02  0.14693871820E+04  0.14858950555E+04  0.92657394054E+02 0.  0.
          2    1    3    3  502    0 -0.89260361526E+02 -0.30001464595E+02  0.12810155941E+02  0.95034731087E+02  0.00000000000E+00 0. -1.
         -1    1    3    3    0  502 -0.31718419458E+03 -0.16462031074E+03 -0.96829100478E+02  0.37024523589E+03  0.00000000000E+00 0.  1.
         13    1    5    5    0    0  0.52132899528E+02 -0.94922801557E+01  0.15018104260E+02  0.55077091892E+02  0.00000000000E+00 0. -1.
        -13    1    5    5    0    0  0.17881047276E+03  0.10716372116E+03 -0.43550915498E+02  0.21296462275E+03  0.00000000000E+00 0.  1.
          3    1    6    6  503    0 -0.54117699128E+01  0.21688076035E+02  0.23399344208E+03  0.23505869657E+03  0.00000000000E+00 0. -1.
         -3    1    6    6    0  503  0.18091295373E+03  0.75262258290E+02  0.12353937399E+04  0.12508363590E+04  0.00000000000E+00 0.  1.
<mgrwt>
<rscale>  0 0.17561095E+04</rscale>
<asrwt>0</asrwt>
<pdfrwt beam="1">  1        4 0.27508093E+00 0.17561095E+04</pdfrwt>
<pdfrwt beam="2">  1       -3 0.66337025E-01 0.17561095E+04</pdfrwt>
<totfact> 0.20968101E-01</totfact>
</mgrwt>
</event>
<event>
12    7  0.1711607E-007  0.1685790E+04  0.7818608E-02  0.8769510E-01
         -1   -1    0    0    0  501 -0.00000000000E+00  0.00000000000E+00  0.35771147983E+03  0.35771147983E+03  0.00000000000E+00 0.  1.
          2   -1    0    0  501    0  0.00000000000E+00 -0.00000000000E+00 -0.19861602465E+04  0.19861602465E+04  0.00000000000E+00 0. -1.
         24    2    1    2    0    0  0.37415735334E+02 -0.48308381288E+03 -0.10976460674E+04  0.12026370502E+04  0.82091884844E+02 0.  0.
        254    2    1    2    0    0 -0.37415735334E+02  0.48308381288E+03 -0.53080269922E+03  0.11412346762E+04  0.88650728877E+03 0.  0.
         23    2    4    4    0    0  0.26295698242E+03  0.57542788028E+03 -0.50369729925E+03  0.81371713035E+03  0.90338136682E+02 0.  0.
         23    2    4    4    0    0 -0.30037271775E+03 -0.92344067402E+02 -0.27105399967E+02  0.32751754581E+03  0.88214759261E+02 0.  0.
          2    1    3    3  502    0 -0.58586176904E+01 -0.36987512544E+03 -0.84502091377E+03  0.92244364409E+03  0.00000000000E+00 0. -1.
         -3    1    3    3    0  502  0.43274353025E+02 -0.11320868744E+03 -0.25262515366E+03  0.28019340607E+03  0.00000000000E+00 0.  1.
         13    1    5    5    0    0  0.16533636229E+02  0.34510149619E+02 -0.65646831534E+01  0.38825334752E+02  0.00000000000E+00 0.  1.
        -13    1    5    5    0    0  0.24642334619E+03  0.54091773066E+03 -0.49713261610E+03  0.77489179560E+03  0.00000000000E+00 0. -1.
          1    1    6    6  503    0 -0.20374355951E+03 -0.10429552090E+03 -0.14589018477E+02  0.22935089531E+03  0.00000000000E+00 0. -1.
         -1    1    6    6    0  503 -0.96629158248E+02  0.11951453501E+02 -0.12516381490E+02  0.98166650498E+02  0.00000000000E+00 0.  1.
<mgrwt>
<rscale>  0 0.16857904E+04</rscale>
<asrwt>0</asrwt>
<pdfrwt beam="1">  1        2 0.30556311E+00 0.16857904E+04</pdfrwt>
<pdfrwt beam="2">  1       -1 0.55032536E-01 0.16857904E+04</pdfrwt>
<totfact> 0.24627387E+01</totfact>
</mgrwt>
</event>
<event>
12    7  0.2273516E-007  0.2347120E+04  0.7818608E-02  0.8459571E-01
         -3   -1    0    0    0  501 -0.00000000000E+00  0.00000000000E+00  0.70732989187E+03  0.70732989187E+03  0.00000000000E+00 0.  1.
          2   -1    0    0  501    0  0.00000000000E+00 -0.00000000000E+00 -0.19471020281E+04  0.19471020281E+04  0.00000000000E+00 0. -1.
         24    2    1    2    0    0 -0.57957097287E+03 -0.60933422168E+03  0.78734493581E+02  0.84834214191E+03  0.79338281851E+02 0.  0.
        254    2    1    2    0    0  0.57957097287E+03  0.60933422168E+03 -0.13185066298E+04  0.18060897781E+04  0.90349867031E+03 0.  0.
         23    2    4    4    0    0 -0.17857055567E+03  0.27035397737E+03 -0.66549375126E+03  0.74560931523E+03  0.89847657509E+02 0.  0.
         23    2    4    4    0    0  0.75814152855E+03  0.33898024431E+03 -0.65301287854E+03  0.10604804628E+04  0.92232364970E+02 0.  0.
          4    1    3    3  502    0 -0.94414779700E+02 -0.68300991325E+02  0.28160285350E+02  0.11988401775E+03  0.00000000000E+00 0. -1.
         -3    1    3    3    0  502 -0.48515619317E+03 -0.54103323035E+03  0.50574208231E+02  0.72845812416E+03  0.00000000000E+00 0.  1.
         13    1    5    5    0    0 -0.89032660297E+02  0.12767354859E+03 -0.22137228142E+03  0.27061603166E+03  0.00000000000E+00 0.  1.
        -13    1    5    5    0    0 -0.89537895377E+02  0.14268042877E+03 -0.44412146985E+03  0.47499328358E+03  0.00000000000E+00 0. -1.
          3    1    6    6  503    0  0.52019716838E+03  0.22683143521E+03 -0.39066192628E+03  0.68896613461E+03  0.00000000000E+00 0. -1.
         -3    1    6    6    0  503  0.23794436017E+03  0.11214880910E+03 -0.26235095226E+03  0.37151432821E+03  0.00000000000E+00 0.  1.
<mgrwt>
<rscale>  0 0.23471203E+04</rscale>
<asrwt>0</asrwt>
<pdfrwt beam="1">  1        2 0.29955416E+00 0.23471203E+04</pdfrwt>
<pdfrwt beam="2">  1       -3 0.10881998E+00 0.23471203E+04</pdfrwt>
<totfact> 0.29431952E+00</totfact>
</mgrwt>
</event>
<event>
12    7  0.1711607E-007  0.1655791E+04  0.7818608E-02  0.8786988E-01
          2   -1    0    0  501    0  0.00000000000E+00  0.00000000000E+00  0.22081381260E+04  0.22081381260E+04  0.00000000000E+00 0. -1.
         -1   -1    0    0    0  501 -0.00000000000E+00 -0.00000000000E+00 -0.31040220471E+03  0.31040220471E+03  0.00000000000E+00 0.  1.
         24    2    1    2    0    0 -0.44013495137E+02  0.21262833087E+03  0.14476485946E+04  0.14660554677E+04  0.80524444804E+02 0.  0.
        254    2    1    2    0    0  0.44013495137E+02 -0.21262833087E+03  0.45008732672E+03  0.10524848630E+04  0.92628170139E+03 0.  0.
         23    2    4    4    0    0 -0.31052303304E+03  0.16699705275E+03  0.64465721177E+01  0.36385880833E+03  0.89661053046E+02 0.  0.
         23    2    4    4    0    0  0.35453652818E+03 -0.37962538361E+03  0.44364075460E+03  0.68862605467E+03  0.87046782421E+02 0.  0.
          4    1    3    3  502    0  0.71502121158E+01  0.11691758487E+03  0.58543933826E+03  0.59704276729E+03  0.00000000000E+00 0. -1.
         -3    1    3    3    0  502 -0.51163707253E+02  0.95710745996E+02  0.86220925633E+03  0.86901270044E+03  0.00000000000E+00 0.  1.
         13    1    5    5    0    0 -0.17087679806E+03  0.14103294984E+03  0.98350331174E+01  0.22177894610E+03  0.00000000000E+00 0.  1.
        -13    1    5    5    0    0 -0.13964623498E+03  0.25964102903E+02 -0.33884609996E+01  0.14207986223E+03  0.00000000000E+00 0. -1.
          2    1    6    6  503    0  0.90907471145E+02 -0.58153273762E+02  0.63064489696E+02  0.12499240545E+03  0.00000000000E+00 0. -1.
         -2    1    6    6    0  503  0.26362905703E+03 -0.32147210985E+03  0.38057626490E+03  0.56363364922E+03  0.00000000000E+00 0.  1.
<mgrwt>
<rscale>  0 0.16557910E+04</rscale>
<asrwt>0</asrwt>
<pdfrwt beam="1">  1        2 0.33971355E+00 0.16557910E+04</pdfrwt>
<pdfrwt beam="2">  1       -1 0.47754187E-01 0.16557910E+04</pdfrwt>
<totfact> 0.24351574E+01</totfact>
</mgrwt>
</event>
<event>
12    7  0.1711607E-007  0.2028005E+04  0.7818608E-02  0.8593638E-01
         -1   -1    0    0    0  501 -0.00000000000E+00  0.00000000000E+00  0.93527008933E+03  0.93527008933E+03  0.00000000000E+00 0.  1.
          2   -1    0    0  501    0  0.00000000000E+00 -0.00000000000E+00 -0.10993622680E+04  0.10993622680E+04  0.00000000000E+00 0. -1.
         24    2    1    2    0    0 -0.71606637882E+03 -0.30604424434E+03 -0.31156990664E+03  0.84243487401E+03  0.78781799052E+02 0.  0.
        254    2    1    2    0    0  0.71606637882E+03  0.30604424434E+03  0.14747772801E+03  0.11921974833E+04  0.89060149367E+03 0.  0.
         23    2    4    4    0    0  0.28174644797E+01 -0.23502547083E+03  0.14757662516E+03  0.29258788010E+03  0.92649324025E+02 0.  0.
         23    2    4    4    0    0  0.71324891434E+03  0.54106971517E+03 -0.98897151471E-01  0.89960960319E+03  0.88413674814E+02 0.  0.
          2    1    3    3  502    0 -0.32242632864E+03 -0.11528828722E+03 -0.10124588865E+03  0.35707262082E+03  0.00000000000E+00 0. -1.
         -1    1    3    3    0  502 -0.39364005018E+03 -0.19075595712E+03 -0.21032401799E+03  0.48536225319E+03  0.00000000000E+00 0.  1.
         13    1    5    5    0    0 -0.28465542390E+02 -0.17178172998E+03  0.69848649510E+02  0.18761152336E+03  0.00000000000E+00 0. -1.
        -13    1    5    5    0    0  0.31283006870E+02 -0.63243740843E+02  0.77727975649E+02  0.10497635673E+03  0.00000000000E+00 0.  1.
          1    1    6    6  503    0  0.62221811689E+03  0.43234044902E+03  0.54498542741E+01  0.75769608008E+03  0.00000000000E+00 0. -1.
         -1    1    6    6    0  503  0.91030797443E+02  0.10872926615E+03 -0.55487514256E+01  0.14191352311E+03  0.00000000000E+00 0.  1.
<mgrwt>
<rscale>  0 0.20280046E+04</rscale>
<asrwt>0</asrwt>
<pdfrwt beam="1">  1        2 0.16913266E+00 0.20280046E+04</pdfrwt>
<pdfrwt beam="2">  1       -1 0.14388771E+00 0.20280046E+04</pdfrwt>
<totfact> 0.89900372E+00</totfact>
</mgrwt>
</event>
<event>
12    7  0.1711607E-007  0.2602668E+04  0.7818608E-02  0.8367295E-01
         -1   -1    0    0    0  501 -0.00000000000E+00  0.00000000000E+00  0.15141436143E+04  0.15141436143E+04  0.00000000000E+00 0.  1.
          2   -1    0    0  501    0  0.00000000000E+00 -0.00000000000E+00 -0.11184345520E+04  0.11184345520E+04  0.00000000000E+00 0. -1.
         24    2    1    2    0    0  0.11264020786E+04  0.19756955839E+03  0.20139234413E+03  0.11641055331E+04  0.82264469508E+02 0.  0.
        254    2    1    2    0    0 -0.11264020786E+04 -0.19756955839E+03  0.19431671822E+03  0.14684726332E+04  0.90046516566E+03 0.  0.
         23    2    4    4    0    0 -0.10374464272E+04  0.16042470947E+03  0.25541030721E+03  0.10834538303E+04  0.81280998156E+02 0.  0.
         23    2    4    4    0    0 -0.88955651336E+02 -0.35799426786E+03 -0.61093588983E+02  0.38501880289E+03  0.91837074452E+02 0.  0.
          4    1    3    3  502    0  0.54711470518E+03  0.10780846460E+03  0.58160200832E+02  0.56066012399E+03  0.00000000000E+00 0. -1.
         -3    1    3    3    0  502  0.57928737338E+03  0.89761093783E+02  0.14323214330E+03  0.60344540912E+03  0.00000000000E+00 0.  1.
         13    1    5    5    0    0 -0.29907912863E+03  0.29066790141E+02  0.39784656722E+02  0.30311057781E+03  0.00000000000E+00 0. -1.
        -13    1    5    5    0    0 -0.73836729860E+03  0.13135791933E+03  0.21562565048E+03  0.78034325252E+03  0.00000000000E+00 0.  1.
          1    1    6    6  503    0 -0.46143245715E+02 -0.13879001796E+03  0.19548666048E+02  0.14756022009E+03  0.00000000000E+00 0. -1.
         -1    1    6    6    0  503 -0.42812405621E+02 -0.21920424990E+03 -0.80642255031E+02  0.23745858280E+03  0.00000000000E+00 0.  1.
<mgrwt>
<rscale>  0 0.26026683E+04</rscale>
<asrwt>0</asrwt>
<pdfrwt beam="1">  1        2 0.17206685E+00 0.26026683E+04</pdfrwt>
<pdfrwt beam="2">  1       -1 0.23294517E+00 0.26026683E+04</pdfrwt>
<totfact> 0.19305086E+00</totfact>
</mgrwt>
</event>
<event>
12    7  0.1711607E-007  0.5925171E+04  0.7818608E-02  0.7699749E-01
         -1   -1    0    0    0  501 -0.00000000000E+00  0.00000000000E+00  0.19956795766E+04  0.19956795766E+04  0.00000000000E+00 0.  1.
          2   -1    0    0  501    0  0.00000000000E+00 -0.00000000000E+00 -0.43979568886E+04  0.43979568886E+04  0.00000000000E+00 0. -1.
         24    2    1    2    0    0 -0.14015514950E+04  0.67751731247E+03 -0.38037277582E+04  0.41107231171E+04  0.79519712003E+02 0.  0.
        254    2    1    2    0    0  0.14015514950E+04 -0.67751731247E+03  0.14014504462E+04  0.22829133481E+04  0.90788418864E+03 0.  0.
         23    2    4    4    0    0  0.45723743270E+03 -0.70033236445E+03  0.52774891913E+03  0.99300183307E+03  0.89455174710E+02 0.  0.
         23    2    4    4    0    0  0.94431406234E+03  0.22815051986E+02  0.87370152709E+03  0.12899115151E+04  0.90927352019E+02 0.  0.
          2    1    3    3  502    0 -0.11435253163E+04  0.56485318652E+03 -0.30376181121E+04  0.32945156042E+04  0.00000000000E+00 0. -1.
         -1    1    3    3    0  502 -0.25802617878E+03  0.11266412595E+03 -0.76610964608E+03  0.81620751285E+03  0.00000000000E+00 0.  1.
         13    1    5    5    0    0  0.12561383287E+03 -0.19233245262E+03  0.99092020127E+02  0.25017960707E+03  0.00000000000E+00 0.  1.
        -13    1    5    5    0    0  0.33162359982E+03 -0.50799991183E+03  0.42865689900E+03  0.74282222600E+03  0.00000000000E+00 0. -1.
          3    1    6    6  503    0  0.23193782739E+03  0.19016693159E+02  0.16683181324E+03  0.28633833886E+03  0.00000000000E+00 0. -1.
         -3    1    6    6    0  503  0.71237623495E+03  0.37983588273E+01  0.70686971385E+03  0.10035731762E+04  0.00000000000E+00 0.  1.
<mgrwt>
<rscale>  0 0.59251710E+04</rscale>
<asrwt>0</asrwt>
<pdfrwt beam="1">  1        2 0.67660875E+00 0.59251710E+04</pdfrwt>
<pdfrwt beam="2">  1       -1 0.30702763E+00 0.59251710E+04</pdfrwt>
<totfact> 0.34878313E-03</totfact>
</mgrwt>
</event>
<event>
12    7  0.1711607E-007  0.2295378E+04  0.7818608E-02  0.8479746E-01
         -1   -1    0    0    0  501 -0.00000000000E+00  0.00000000000E+00  0.60012173114E+03  0.60012173114E+03  0.00000000000E+00 0.  1.
          2   -1    0    0  501    0  0.00000000000E+00 -0.00000000000E+00 -0.21948712806E+04  0.21948712806E+04  0.00000000000E+00 0. -1.
         24    2    1    2    0    0  0.72589393086E+03  0.57806303745E+03 -0.10479083687E+04  0.14019539516E+04  0.79272057989E+02 0.  0.
        254    2    1    2    0    0 -0.72589393086E+03 -0.57806303745E+03 -0.54684118079E+03  0.13930390601E+04  0.88342723069E+03 0.  0.
         23    2    4    4    0    0  0.18815168430E+03 -0.14585539515E+03 -0.42651687074E+02  0.25853955513E+03  0.91371125404E+02 0.  0.
         23    2    4    4    0    0 -0.91404561516E+03 -0.43220764230E+03 -0.50418949372E+03  0.11344995050E+04  0.10295265239E+03 0.  0.
          4    1    3    3  502    0  0.69672463571E+03  0.53384893020E+03 -0.97578978053E+03  0.13124730832E+04  0.00000000000E+00 0. -1.
         -3    1    3    3    0  502  0.29169295146E+02  0.44214107255E+02 -0.72118588150E+02  0.89480868438E+02  0.00000000000E+00 0.  1.
         13    1    5    5    0    0  0.18338270053E+03 -0.10161452943E+03 -0.27075391453E+02  0.21139490123E+03  0.00000000000E+00 0. -1.
        -13    1    5    5    0    0  0.47689837701E+01 -0.44240865721E+02 -0.15576295620E+02  0.47144653898E+02  0.00000000000E+00 0.  1.
          1    1    6    6  503    0 -0.48192532408E+03 -0.25545301896E+03 -0.22142899847E+03  0.58867568682E+03  0.00000000000E+00 0. -1.
         -1    1    6    6    0  503 -0.43212029108E+03 -0.17675462335E+03 -0.28276049524E+03  0.54582381819E+03  0.00000000000E+00 0.  1.
<mgrwt>
<rscale>  0 0.22953779E+04</rscale>
<asrwt>0</asrwt>
<pdfrwt beam="1">  1        2 0.33767251E+00 0.22953779E+04</pdfrwt>
<pdfrwt beam="2">  1       -1 0.92326419E-01 0.22953779E+04</pdfrwt>
<totfact> 0.61228549E+00</totfact>
</mgrwt>
</event>
<event>
12    7  0.1711607E-007  0.1951253E+04  0.7818608E-02  0.8629757E-01
         -1   -1    0    0    0  501 -0.00000000000E+00  0.00000000000E+00  0.32711652442E+03  0.32711652442E+03  0.00000000000E+00 0.  1.
          2   -1    0    0  501    0  0.00000000000E+00 -0.00000000000E+00 -0.29098090150E+04  0.29098090150E+04  0.00000000000E+00 0. -1.
         24    2    1    2    0    0 -0.11008015332E+03 -0.18485112490E+03  0.20089441140E+03  0.30528542618E+03  0.80950901006E+02 0.  0.
        254    2    1    2    0    0  0.11008015332E+03  0.18485112490E+03 -0.27835869020E+04  0.29316401132E+04  0.89435459082E+03 0.  0.
         23    2    4    4    0    0  0.14572994366E+03 -0.10629154326E+03 -0.25156676050E+04  0.25238656716E+04  0.93698029736E+02 0.  0.
         23    2    4    4    0    0 -0.35649790335E+02  0.29114266816E+03 -0.26791929692E+03  0.40777444157E+03  0.92001547644E+02 0.  0.
          4    1    3    3  502    0  0.64240057869E+01 -0.12788241765E+02 -0.24839212997E+01  0.14525041921E+02  0.00000000000E+00 0. -1.
         -3    1    3    3    0  502 -0.11650415911E+03 -0.17206288313E+03  0.20337833270E+03  0.29076038426E+03  0.00000000000E+00 0.  1.
         13    1    5    5    0    0  0.57682286391E+01 -0.49640255485E+02 -0.47573410683E+03  0.47835171979E+03  0.00000000000E+00 0. -1.
        -13    1    5    5    0    0  0.13996171502E+03 -0.56651287774E+02 -0.20399334982E+04  0.20455139518E+04  0.00000000000E+00 0.  1.
          2    1    6    6  503    0 -0.42311230960E+02  0.19103455019E+03 -0.12163343516E+03  0.23038908868E+03  0.00000000000E+00 0.  1.
         -2    1    6    6    0  503  0.66614406245E+01  0.10010811797E+03 -0.14628586175E+03  0.17738535290E+03  0.00000000000E+00 0. -1.
<mgrwt>
<rscale>  0 0.19512525E+04</rscale>
<asrwt>0</asrwt>
<pdfrwt beam="1">  1        2 0.44766292E+00 0.19512525E+04</pdfrwt>
<pdfrwt beam="2">  1       -1 0.50325620E-01 0.19512525E+04</pdfrwt>
<totfact> 0.83582813E+00</totfact>
</mgrwt>
</event>
<event>
12    7  0.1711607E-007  0.2118436E+04  0.7818608E-02  0.8553165E-01
          2   -1    0    0  501    0  0.00000000000E+00  0.00000000000E+00  0.11267508065E+04  0.11267508065E+04  0.00000000000E+00 0. -1.
         -1   -1    0    0    0  501 -0.00000000000E+00 -0.00000000000E+00 -0.99573269746E+03  0.99573269746E+03  0.00000000000E+00 0.  1.
         24    2    1    2    0    0 -0.42458695030E+03  0.64593879989E+03  0.47743325461E+03  0.91231429944E+03  0.82848396430E+02 0.  0.
        254    2    1    2    0    0  0.42458695030E+03 -0.64593879989E+03 -0.34641514554E+03  0.12101692045E+04  0.86428874747E+03 0.  0.
         23    2    4    4    0    0 -0.14614799998E+03  0.48718305390E+02 -0.24024454521E+03  0.30030771263E+03  0.93458919256E+02 0.  0.
         23    2    4    4    0    0  0.57073495028E+03 -0.69465710528E+03 -0.10617060034E+03  0.90986149191E+03  0.91043180438E+02 0.  0.
          2    1    3    3  502    0 -0.13279322098E+03  0.17549171866E+03  0.96363785821E+02  0.24024437990E+03  0.00000000000E+00 0. -1.
         -1    1    3    3    0  502 -0.29179372932E+03  0.47044708124E+03  0.38106946879E+03  0.67206991954E+03  0.00000000000E+00 0.  1.
         13    1    5    5    0    0 -0.17515391446E+02  0.34505821247E+02 -0.11038951885E+03  0.11697558083E+03  0.00000000000E+00 0. -1.
        -13    1    5    5    0    0 -0.12863260853E+03  0.14212484143E+02 -0.12985502635E+03  0.18333213180E+03  0.00000000000E+00 0.  1.
          1    1    6    6  503    0  0.37657430876E+03 -0.49579997493E+03 -0.38322745698E+02  0.62377436465E+03  0.00000000000E+00 0. -1.
         -1    1    6    6    0  503  0.19416064152E+03 -0.19885713036E+03 -0.67847854638E+02  0.28608712726E+03  0.00000000000E+00 0.  1.
<mgrwt>
<rscale>  0 0.21184359E+04</rscale>
<asrwt>0</asrwt>
<pdfrwt beam="1">  1        2 0.17334628E+00 0.21184359E+04</pdfrwt>
<pdfrwt beam="2">  1       -1 0.15318965E+00 0.21184359E+04</pdfrwt>
<totfact> 0.72531760E+00</totfact>
</mgrwt>
</event>
<event>
12    7  0.1711607E-007  0.1295301E+04  0.7818608E-02  0.9033300E-01
         -1   -1    0    0    0  501 -0.00000000000E+00  0.00000000000E+00  0.90542794108E+03  0.90542794108E+03  0.00000000000E+00 0.  1.
          2   -1    0    0  501    0  0.00000000000E+00 -0.00000000000E+00 -0.46326294926E+03  0.46326294926E+03  0.00000000000E+00 0. -1.
         24    2    1    2    0    0 -0.22191482277E+03 -0.10768432596E+03  0.36743863087E+03  0.44978742019E+03  0.80345960022E+02 0.  0.
        254    2    1    2    0    0  0.22191482277E+03  0.10768432596E+03  0.74726360950E+02  0.91890347015E+03  0.88201896567E+03 0.  0.
         23    2    4    4    0    0  0.48234066884E+03 -0.34265027964E+02  0.26083518102E+03  0.55693839815E+03  0.91207317240E+02 0.  0.
         23    2    4    4    0    0 -0.26042584607E+03  0.14194935392E+03 -0.18610882007E+03  0.36196507200E+03  0.91711395465E+02 0.  0.
          4    1    3    3  502    0 -0.91464683774E+02 -0.81178818743E+02  0.13682719235E+03  0.18351422168E+03  0.00000000000E+00 0. -1.
         -3    1    3    3    0  502 -0.13045013899E+03 -0.26505507216E+02  0.23061143851E+03  0.26627319852E+03  0.00000000000E+00 0.  1.
         13    1    5    5    0    0 -0.38595750769E+01 -0.29715506447E+01  0.23253196367E+01  0.53975498535E+01  0.00000000000E+00 0.  1.
        -13    1    5    5    0    0  0.48620024391E+03 -0.31293477319E+02  0.25850986138E+03  0.55154084829E+03  0.00000000000E+00 0. -1.
          1    1    6    6  503    0 -0.23049959901E+03  0.12984655790E+03 -0.12444789853E+03  0.29236530778E+03  0.00000000000E+00 0. -1.
         -1    1    6    6    0  503 -0.29926247058E+02  0.12102796024E+02 -0.61660921538E+02  0.69599764220E+02  0.00000000000E+00 0.  1.
<mgrwt>
<rscale>  0 0.12953011E+04</rscale>
<asrwt>0</asrwt>
<pdfrwt beam="1">  1        2 0.71271223E-01 0.12953011E+04</pdfrwt>
<pdfrwt beam="2">  1       -1 0.13929661E+00 0.12953011E+04</pdfrwt>
<totfact> 0.32047254E+01</totfact>
</mgrwt>
</event>
<event>
12    7  0.1711607E-007  0.1337124E+04  0.7818608E-02  0.9000633E-01
          2   -1    0    0  501    0  0.00000000000E+00  0.00000000000E+00  0.98673591277E+03  0.98673591277E+03  0.00000000000E+00 0. -1.
         -1   -1    0    0    0  501 -0.00000000000E+00 -0.00000000000E+00 -0.45298346443E+03  0.45298346443E+03  0.00000000000E+00 0.  1.
         24    2    1    2    0    0  0.60186172234E+02  0.25020235703E+03  0.40769725537E+03  0.48863499312E+03  0.79520498443E+02 0.  0.
        254    2    1    2    0    0 -0.60186172234E+02 -0.25020235703E+03  0.12605519298E+03  0.95108438408E+03  0.90688918793E+03 0.  0.
         23    2    4    4    0    0 -0.12819962823E+03 -0.52225934291E+03 -0.12999907523E+03  0.56078146637E+03  0.91575802129E+02 0.  0.
         23    2    4    4    0    0  0.68013455992E+02  0.27205698588E+03  0.25605426821E+03  0.39030291771E+03  0.90176191667E+02 0.  0.
          2    1    3    3  502    0  0.34457769093E+02  0.23010835662E+03  0.38115753971E+03  0.44656272092E+03  0.00000000000E+00 0. -1.
         -1    1    3    3    0  502  0.25728403141E+02  0.20094000404E+02  0.26539715658E+02  0.42072272194E+02  0.00000000000E+00 0.  1.
         13    1    5    5    0    0 -0.43443682600E+02 -0.52968792851E+02 -0.12503910912E+02  0.69637593023E+02  0.00000000000E+00 0.  1.
        -13    1    5    5    0    0 -0.84755945626E+02 -0.46929055005E+03 -0.11749516432E+03  0.49114387335E+03  0.00000000000E+00 0. -1.
          3    1    6    6  503    0  0.12593509712E+02  0.21357490231E+03  0.18937646741E+03  0.28572063592E+03  0.00000000000E+00 0. -1.
         -3    1    6    6    0  503  0.55419946280E+02  0.58482083564E+02  0.66677800801E+02  0.10458228179E+03  0.00000000000E+00 0.  1.
<mgrwt>
<rscale>  0 0.13371239E+04</rscale>
<asrwt>0</asrwt>
<pdfrwt beam="1">  1        2 0.15180552E+00 0.13371239E+04</pdfrwt>
<pdfrwt beam="2">  1       -1 0.69689764E-01 0.13371239E+04</pdfrwt>
<totfact> 0.59675012E+01</totfact>
</mgrwt>
</event>
<event>
12    7  0.1711607E-007  0.1546400E+04  0.7818608E-02  0.8854170E-01
         -1   -1    0    0    0  501 -0.00000000000E+00  0.00000000000E+00  0.23383976843E+03  0.23383976843E+03  0.00000000000E+00 0.  1.
          2   -1    0    0  501    0  0.00000000000E+00 -0.00000000000E+00 -0.25566149328E+04  0.25566149328E+04  0.00000000000E+00 0. -1.
         24    2    1    2    0    0  0.19683662723E+03 -0.13278581150E+03 -0.15988930790E+04  0.16184292684E+04  0.80482850404E+02 0.  0.
        254    2    1    2    0    0 -0.19683662723E+03  0.13278581150E+03 -0.72388208538E+03  0.11720254328E+04  0.89065235199E+03 0.  0.
         23    2    4    4    0    0  0.34673541242E+03  0.20563291685E+02 -0.30959517101E+03  0.47345684588E+03  0.87543816489E+02 0.  0.
         23    2    4    4    0    0 -0.54357203965E+03  0.11222251981E+03 -0.41428691437E+03  0.69856858695E+03  0.91104154752E+02 0.  0.
          2    1    3    3  502    0  0.31732932928E+02 -0.41257339102E+02 -0.56918773488E+03  0.57156261652E+03  0.00000000000E+00 0. -1.
         -1    1    3    3    0  502  0.16510369430E+03 -0.91528472397E+02 -0.10297053441E+04  0.10468666519E+04  0.00000000000E+00 0.  1.
         13    1    5    5    0    0  0.30322655165E+03  0.46455778265E+02 -0.25409748753E+03  0.39833404842E+03  0.00000000000E+00 0.  1.
        -13    1    5    5    0    0  0.43508860774E+02 -0.25892486580E+02 -0.55497683481E+02  0.75122797464E+02  0.00000000000E+00 0. -1.
          1    1    6    6  503    0 -0.66033820960E+01  0.14304837688E+02 -0.56898951155E+01  0.16751356447E+02  0.00000000000E+00 0. -1.
         -1    1    6    6    0  503 -0.53696865755E+03  0.97917682126E+02 -0.40859701925E+03  0.68181723050E+03  0.00000000000E+00 0.  1.
<mgrwt>
<rscale>  0 0.15464000E+04</rscale>
<asrwt>0</asrwt>
<pdfrwt beam="1">  1        2 0.39332538E+00 0.15464000E+04</pdfrwt>
<pdfrwt beam="2">  1       -1 0.35975349E-01 0.15464000E+04</pdfrwt>
<totfact> 0.26204183E+01</totfact>
</mgrwt>
</event>
<event>
12    7  0.1711607E-007  0.2166442E+04  0.7818608E-02  0.8532527E-01
         -1   -1    0    0    0  501 -0.00000000000E+00  0.00000000000E+00  0.89649522157E+03  0.89649522157E+03  0.00000000000E+00 0.  1.
          2   -1    0    0  501    0  0.00000000000E+00 -0.00000000000E+00 -0.13088390473E+04  0.13088390473E+04  0.00000000000E+00 0. -1.
         24    2    1    2    0    0 -0.50015892445E+03 -0.94704774565E+02  0.57440970483E+03  0.77210634634E+03  0.84105630099E+02 0.  0.
        254    2    1    2    0    0  0.50015892445E+03  0.94704774565E+02 -0.98675353055E+03  0.14332279225E+04  0.90627358112E+03 0.  0.
         23    2    4    4    0    0  0.59526085416E+03 -0.23576869045E+03 -0.80720106422E+03  0.10344138414E+04  0.92282595129E+02 0.  0.
         23    2    4    4    0    0 -0.95101929706E+02  0.33047346501E+03 -0.17955246633E+03  0.39881408111E+03  0.92501324382E+02 0.  0.
          4    1    3    3  502    0 -0.41363361690E+02 -0.16764532373E+02  0.21869834608E+02  0.49701779665E+02  0.00000000000E+00 0. -1.
         -3    1    3    3    0  502 -0.45879556276E+03 -0.77940242191E+02  0.55253987022E+03  0.72240456667E+03  0.00000000000E+00 0.  1.
         13    1    5    5    0    0  0.55147052987E+03 -0.19765705309E+03 -0.70263277404E+03  0.91481193210E+03  0.00000000000E+00 0. -1.
        -13    1    5    5    0    0  0.43790324284E+02 -0.38111637357E+02 -0.10456829018E+03  0.11960190933E+03  0.00000000000E+00 0.  1.
          1    1    6    6  503    0 -0.78321380013E+02  0.14300138056E+03 -0.11620639295E+03  0.20021877827E+03  0.00000000000E+00 0. -1.
         -1    1    6    6    0  503 -0.16780549694E+02  0.18747208445E+03 -0.63346073385E+02  0.19859530284E+03  0.00000000000E+00 0.  1.
<mgrwt>
<rscale>  0 0.21664422E+04</rscale>
<asrwt>0</asrwt>
<pdfrwt beam="1">  1        2 0.20135985E+00 0.21664422E+04</pdfrwt>
<pdfrwt beam="2">  1       -1 0.13792234E+00 0.21664422E+04</pdfrwt>
<totfact> 0.74384277E+00</totfact>
</mgrwt>
</event>
<event>
12    7  0.1711607E-007  0.3122284E+04  0.7818608E-02  0.8209649E-01
          2   -1    0    0  501    0  0.00000000000E+00  0.00000000000E+00  0.28334200858E+04  0.28334200858E+04  0.00000000000E+00 0. -1.
         -1   -1    0    0    0  501 -0.00000000000E+00 -0.00000000000E+00 -0.86014953718E+03  0.86014953718E+03  0.00000000000E+00 0.  1.
         24    2    1    2    0    0 -0.86113577876E+03  0.63514880374E+03  0.20305201790E+04  0.22966399490E+04  0.81080364794E+02 0.  0.
        254    2    1    2    0    0  0.86113577876E+03 -0.63514880374E+03 -0.57249630395E+02  0.13969296740E+04  0.89619538135E+03 0.  0.
         23    2    4    4    0    0  0.17606851279E+03 -0.24446073851E+03 -0.41931859159E+03  0.52520967860E+03  0.96207855055E+02 0.  0.
         23    2    4    4    0    0  0.68506726598E+03 -0.39068806523E+03  0.36206896119E+03  0.87171999540E+03  0.82749589077E+02 0.  0.
          4    1    3    3  502    0 -0.78243826509E+03  0.57658312503E+03  0.18899872687E+04  0.21252551881E+04  0.00000000000E+00 0. -1.
         -3    1    3    3    0  502 -0.78697513669E+02  0.58565678711E+02  0.14053291035E+03  0.17138476091E+03  0.00000000000E+00 0.  1.
         13    1    5    5    0    0  0.14965439204E+03 -0.16489363830E+03 -0.24077088153E+03  0.32795878766E+03  0.00000000000E+00 0. -1.
        -13    1    5    5    0    0  0.26414120748E+02 -0.79567100206E+02 -0.17854771005E+03  0.19725089094E+03  0.00000000000E+00 0.  1.
          3    1    6    6  503    0  0.58406309393E+03 -0.31334754836E+03  0.33053971895E+03  0.74065706610E+03  0.00000000000E+00 0. -1.
         -3    1    6    6    0  503  0.10100417204E+03 -0.77340516872E+02  0.31529242237E+02  0.13106292930E+03  0.00000000000E+00 0.  1.
<mgrwt>
<rscale>  0 0.31222844E+04</rscale>
<asrwt>0</asrwt>
<pdfrwt beam="1">  1        2 0.43591078E+00 0.31222844E+04</pdfrwt>
<pdfrwt beam="2">  1       -1 0.13233070E+00 0.31222844E+04</pdfrwt>
<totfact> 0.10295194E+00</totfact>
</mgrwt>
</event>
<event>
12    7  0.1711607E-007  0.2342614E+04  0.7818608E-02  0.8461306E-01
         -1   -1    0    0    0  501 -0.00000000000E+00  0.00000000000E+00  0.13470316744E+04  0.13470316744E+04  0.00000000000E+00 0.  1.
          2   -1    0    0  501    0  0.00000000000E+00 -0.00000000000E+00 -0.10185060935E+04  0.10185060935E+04  0.00000000000E+00 0. -1.
         24    2    1    2    0    0  0.12153623646E+03 -0.72403994162E+03  0.81832619667E+03  0.11024103469E+04  0.81522480867E+02 0.  0.
        254    2    1    2    0    0 -0.12153623646E+03  0.72403994162E+03 -0.48980061574E+03  0.12631274211E+04  0.90364890577E+03 0.  0.
         23    2    4    4    0    0 -0.47096782781E+03  0.62530964271E+03 -0.29786830449E+03  0.84245112152E+03  0.90418589019E+02 0.  0.
         23    2    4    4    0    0  0.34943159135E+03  0.98730298914E+02 -0.19193231125E+03  0.42067629957E+03  0.90996856891E+02 0.  0.
          4    1    3    3  502    0  0.75930420723E+01 -0.13834001112E+03  0.19834579388E+03  0.24194352009E+03  0.00000000000E+00 0. -1.
         -3    1    3    3    0  502  0.11394319439E+03 -0.58569993050E+03  0.61998040279E+03  0.86046682678E+03  0.00000000000E+00 0.  1.
         13    1    5    5    0    0 -0.14406330748E+03  0.26249121337E+03 -0.12332999076E+03  0.32383044990E+03  0.00000000000E+00 0. -1.
        -13    1    5    5    0    0 -0.32690452033E+03  0.36281842934E+03 -0.17453831372E+03  0.51862067162E+03  0.00000000000E+00 0.  1.
          3    1    6    6  503    0  0.63843118133E+02  0.19710092158E+02  0.14599631443E+01  0.66832349638E+02  0.00000000000E+00 0. -1.
         -3    1    6    6    0  503  0.28558847321E+03  0.79020206756E+02 -0.19339227439E+03  0.35384394993E+03  0.00000000000E+00 0.  1.
<mgrwt>
<rscale>  0 0.23426139E+04</rscale>
<asrwt>0</asrwt>
<pdfrwt beam="1">  1        2 0.15669325E+00 0.23426139E+04</pdfrwt>
<pdfrwt beam="2">  1       -1 0.20723564E+00 0.23426139E+04</pdfrwt>
<totfact> 0.33895780E+00</totfact>
</mgrwt>
</event>
<event>
12    7  0.1711607E-007  0.1428865E+04  0.7818608E-02  0.8933185E-01
         -1   -1    0    0    0  501 -0.00000000000E+00  0.00000000000E+00  0.36614487000E+03  0.36614487000E+03  0.00000000000E+00 0.  1.
          2   -1    0    0  501    0  0.00000000000E+00 -0.00000000000E+00 -0.13940223206E+04  0.13940223206E+04  0.00000000000E+00 0. -1.
         24    2    1    2    0    0  0.33030753584E+03  0.88101053450E+01  0.32883942420E+02  0.34560067854E+03  0.95800778426E+02 0.  0.
        254    2    1    2    0    0 -0.33030753584E+03 -0.88101053450E+01 -0.10607613930E+04  0.14145665121E+04  0.87555867762E+03 0.  0.
         23    2    4    4    0    0 -0.26776997896E+03  0.40773533582E+03 -0.48063572788E+03  0.69181019251E+03  0.98192534551E+02 0.  0.
         23    2    4    4    0    0 -0.62537556883E+02 -0.41654544116E+03 -0.58012566513E+03  0.72275631955E+03  0.91705286260E+02 0.  0.
          2    1    3    3  502    0  0.99283555320E+02 -0.34176511199E+02 -0.14150949852E+02  0.10595049625E+03  0.00000000000E+00 0. -1.
         -1    1    3    3    0  502  0.23102398052E+03  0.42986616544E+02  0.47034892272E+02  0.23965018228E+03  0.00000000000E+00 0.  1.
         13    1    5    5    0    0 -0.16499446327E+03  0.25144129812E+03 -0.36059885617E+03  0.46955024692E+03  0.00000000000E+00 0.  1.
        -13    1    5    5    0    0 -0.10277551569E+03  0.15629403770E+03 -0.12003687171E+03  0.22225994559E+03  0.00000000000E+00 0. -1.
          4    1    6    6  503    0 -0.77354445629E+02 -0.39122257164E+03 -0.55869026214E+03  0.68642087659E+03  0.00000000000E+00 0.  1.
         -4    1    6    6    0  503  0.14816888746E+02 -0.25322869529E+02 -0.21435402994E+02  0.36335442956E+02  0.00000000000E+00 0. -1.
<mgrwt>
<rscale>  0 0.14288655E+04</rscale>
<asrwt>0</asrwt>
<pdfrwt beam="1">  1        2 0.21446497E+00 0.14288655E+04</pdfrwt>
<pdfrwt beam="2">  1       -1 0.56329981E-01 0.14288655E+04</pdfrwt>
<totfact> 0.51485147E+01</totfact>
</mgrwt>
</event>
<event>
12    7  0.1711607E-007  0.1989782E+04  0.7818608E-02  0.8611413E-01
          2   -1    0    0  501    0  0.00000000000E+00  0.00000000000E+00  0.71486954114E+03  0.71486954114E+03  0.00000000000E+00 0. -1.
         -1   -1    0    0    0  501 -0.00000000000E+00 -0.00000000000E+00 -0.13845996752E+04  0.13845996752E+04  0.00000000000E+00 0.  1.
         24    2    1    2    0    0 -0.41940207195E+03 -0.43938621107E+03  0.26574370753E+03  0.66783643829E+03  0.80171377564E+02 0.  0.
        254    2    1    2    0    0  0.41940207195E+03  0.43938621107E+03 -0.93547384156E+03  0.14316327780E+04  0.89749805707E+03 0.  0.
         23    2    4    4    0    0  0.20209475805E+03  0.57135728197E+03 -0.98258360933E+03  0.11579783963E+04  0.90288327142E+02 0.  0.
         23    2    4    4    0    0  0.21730731389E+03 -0.13197107090E+03  0.47109767774E+02  0.27365438175E+03  0.89602222106E+02 0.  0.
          4    1    3    3  502    0 -0.50899010269E+02 -0.94639296708E+02  0.58124972902E+02  0.12217126586E+03  0.00000000000E+00 0. -1.
         -3    1    3    3    0  502 -0.36850306168E+03 -0.34474691436E+03  0.20761873463E+03  0.54566517242E+03  0.00000000000E+00 0.  1.
         13    1    5    5    0    0  0.84807294287E+02  0.36124258629E+03 -0.56279851148E+03  0.67411471415E+03  0.00000000000E+00 0.  1.
        -13    1    5    5    0    0  0.11728746377E+03  0.21011469568E+03 -0.41978509785E+03  0.48386368212E+03  0.00000000000E+00 0. -1.
          3    1    6    6  503    0  0.46970010892E+02 -0.42203510612E+02 -0.25189821052E+02  0.67984154888E+02  0.00000000000E+00 0. -1.
         -3    1    6    6    0  503  0.17033730300E+03 -0.89767560289E+02  0.72299588826E+02  0.20567022686E+03  0.00000000000E+00 0.  1.
<mgrwt>
<rscale>  0 0.19897820E+04</rscale>
<asrwt>0</asrwt>
<pdfrwt beam="1">  1        2 0.10997993E+00 0.19897820E+04</pdfrwt>
<pdfrwt beam="2">  1       -1 0.21301533E+00 0.19897820E+04</pdfrwt>
<totfact> 0.51923062E+00</totfact>
</mgrwt>
</event>
<event>
12    7  0.1711607E-007  0.1185436E+04  0.7818608E-02  0.9125701E-01
         -1   -1    0    0    0  501 -0.00000000000E+00  0.00000000000E+00  0.50557242129E+03  0.50557242129E+03  0.00000000000E+00 0.  1.
          2   -1    0    0  501    0  0.00000000000E+00 -0.00000000000E+00 -0.69488467502E+03  0.69488467502E+03  0.00000000000E+00 0. -1.
         24    2    1    2    0    0  0.25461824755E+02 -0.19601321565E+03 -0.10848725788E+03  0.23955210801E+03  0.80908850588E+02 0.  0.
        254    2    1    2    0    0 -0.25461824755E+02  0.19601321565E+03 -0.80824995856E+02  0.96090498829E+03  0.93687578224E+03 0.  0.
         23    2    4    4    0    0  0.79269880572E+02  0.41779322264E+03  0.27811281030E+03  0.51641373452E+03  0.92203682665E+02 0.  0.
         23    2    4    4    0    0 -0.10473170533E+03 -0.22178000699E+03 -0.35893780616E+03  0.44449125377E+03  0.92633818805E+02 0.  0.
          4    1    3    3  502    0  0.87448281561E+01 -0.11588551035E+03 -0.18109492154E+02  0.11761750395E+03  0.00000000000E+00 0. -1.
         -3    1    3    3    0  502  0.16716996599E+02 -0.80127705296E+02 -0.90377765722E+02  0.12193460406E+03  0.00000000000E+00 0.  1.
         13    1    5    5    0    0 -0.46984091587E+00  0.51077484280E+02  0.31457109045E+01  0.51176416912E+02  0.00000000000E+00 0.  1.
        -13    1    5    5    0    0  0.79739721488E+02  0.36671573836E+03  0.27496709940E+03  0.46523731761E+03  0.00000000000E+00 0. -1.
          4    1    6    6  503    0 -0.83206726887E+02 -0.22271729966E+03 -0.30727241967E+03  0.38851344231E+03  0.00000000000E+00 0. -1.
         -4    1    6    6    0  503 -0.21524978440E+02  0.93729267262E+00 -0.51665386489E+02  0.55977811457E+02  0.00000000000E+00 0.  1.
<mgrwt>
<rscale>  0 0.11854358E+04</rscale>
<asrwt>0</asrwt>
<pdfrwt beam="1">  1        2 0.10690534E+00 0.11854358E+04</pdfrwt>
<pdfrwt beam="2">  1       -1 0.77780372E-01 0.11854358E+04</pdfrwt>
<totfact> 0.77295476E+01</totfact>
</mgrwt>
</event>
<event>
12    7  0.1711607E-007  0.2133366E+04  0.7818608E-02  0.8546686E-01
         -1   -1    0    0    0  501 -0.00000000000E+00  0.00000000000E+00  0.12617836180E+04  0.12617836180E+04  0.00000000000E+00 0.  1.
          2   -1    0    0  501    0  0.00000000000E+00 -0.00000000000E+00 -0.90174943470E+03  0.90174943470E+03  0.00000000000E+00 0. -1.
         24    2    1    2    0    0 -0.78755871166E+03 -0.24472114051E+03  0.45182167653E+03  0.94394116381E+03  0.82127537574E+02 0.  0.
        254    2    1    2    0    0  0.78755871166E+03  0.24472114051E+03 -0.91787493224E+02  0.12195918889E+04  0.89377976627E+03 0.  0.
         23    2    4    4    0    0  0.40219973436E+03  0.17505682733E+03  0.38865892563E+03  0.59306239892E+03  0.90872049777E+02 0.  0.
         23    2    4    4    0    0  0.38535897730E+03  0.69664313180E+02 -0.48044641885E+03  0.62652948997E+03  0.91409969347E+02 0.  0.
          2    1    3    3  502    0 -0.11128792312E+03 -0.64905915553E+02  0.63133283541E+02  0.14346982678E+03  0.00000000000E+00 0. -1.
         -1    1    3    3    0  502 -0.67627078854E+03 -0.17981522496E+03  0.38868839299E+03  0.80047133703E+03  0.00000000000E+00 0.  1.
         13    1    5    5    0    0  0.96133528233E+02  0.11084564610E+02  0.11928574056E+03  0.15360211823E+03  0.00000000000E+00 0. -1.
        -13    1    5    5    0    0  0.30606620613E+03  0.16397226272E+03  0.26937318507E+03  0.43946028070E+03  0.00000000000E+00 0.  1.
          1    1    6    6  503    0  0.31218621942E+03  0.90393180881E+02 -0.37060750638E+03  0.49293111743E+03  0.00000000000E+00 0. -1.
         -1    1    6    6    0  503  0.73172757878E+02 -0.20728867701E+02 -0.10983891247E+03  0.13359837254E+03  0.00000000000E+00 0.  1.
<mgrwt>
<rscale>  0 0.21333660E+04</rscale>
<asrwt>0</asrwt>
<pdfrwt beam="1">  1        2 0.13873068E+00 0.21333660E+04</pdfrwt>
<pdfrwt beam="2">  1       -1 0.19412056E+00 0.21333660E+04</pdfrwt>
<totfact> 0.50686454E+00</totfact>
</mgrwt>
</event>
<event>
12    7  0.1711607E-007  0.1377866E+04  0.7818608E-02  0.8969998E-01
          2   -1    0    0  501    0  0.00000000000E+00  0.00000000000E+00  0.13152502302E+04  0.13152502302E+04  0.00000000000E+00 0. -1.
         -1   -1    0    0    0  501 -0.00000000000E+00 -0.00000000000E+00 -0.36086585494E+03  0.36086585494E+03  0.00000000000E+00 0.  1.
         24    2    1    2    0    0 -0.24949366571E+03  0.25556941590E+03  0.98153318589E+02  0.37871682054E+03  0.78927439045E+02 0.  0.
        254    2    1    2    0    0  0.24949366571E+03 -0.25556941590E+03  0.85623105667E+03  0.12973992646E+04  0.90694565098E+03 0.  0.
         23    2    4    4    0    0  0.17020499836E+03 -0.39829055003E+03  0.24924279897E+02  0.44462397777E+03  0.97283904987E+02 0.  0.
         23    2    4    4    0    0  0.79288667356E+02  0.14272113413E+03  0.83130677678E+03  0.85277528684E+03  0.97461365841E+02 0.  0.
          4    1    3    3  502    0 -0.34632307505E+02  0.65226444604E+02  0.45901466972E+02  0.86953035996E+02  0.00000000000E+00 0. -1.
         -3    1    3    3    0  502 -0.21486135821E+03  0.19034297130E+03  0.52251851617E+02  0.29176378454E+03  0.00000000000E+00 0.  1.
         13    1    5    5    0    0  0.11142938606E+03 -0.15254936827E+03 -0.11879501370E+02  0.18928534119E+03  0.00000000000E+00 0. -1.
        -13    1    5    5    0    0  0.58775612297E+02 -0.24574118176E+03  0.36803781267E+02  0.25533863658E+03  0.00000000000E+00 0.  1.
          3    1    6    6  503    0  0.33639505104E+02  0.82587195629E+02  0.65417385997E+03  0.66022397734E+03  0.00000000000E+00 0. -1.
         -3    1    6    6    0  503  0.45649162252E+02  0.60133938503E+02  0.17713291681E+03  0.19255130950E+03  0.00000000000E+00 0.  1.
<mgrwt>
<rscale>  0 0.13778663E+04</rscale>
<asrwt>0</asrwt>
<pdfrwt beam="1">  1        2 0.20234619E+00 0.13778663E+04</pdfrwt>
<pdfrwt beam="2">  1       -1 0.55517825E-01 0.13778663E+04</pdfrwt>
<totfact> 0.59038583E+01</totfact>
</mgrwt>
</event>
<event>
12    7  0.1711607E-007  0.1673310E+04  0.7818608E-02  0.8776735E-01
          2   -1    0    0  501    0  0.00000000000E+00  0.00000000000E+00  0.23420124219E+04  0.23420124219E+04  0.00000000000E+00 0. -1.
         -3   -1    0    0    0  501 -0.00000000000E+00 -0.00000000000E+00 -0.29888448382E+03  0.29888448382E+03  0.00000000000E+00 0.  1.
         24    2    1    2    0    0 -0.10909681811E+03 -0.49091762480E+03  0.22709904402E+03  0.55738722579E+03  0.78767465472E+02 0.  0.
        254    2    1    2    0    0  0.10909681811E+03  0.49091762480E+03  0.18160288941E+04  0.20835096800E+04  0.88890348873E+03 0.  0.
         23    2    4    4    0    0  0.42185553390E+03  0.47450885211E+03  0.14920533250E+04  0.16241419879E+04  0.92159263938E+02 0.  0.
         23    2    4    4    0    0 -0.31275871579E+03  0.16408772689E+02  0.32397556911E+03  0.45936769211E+03  0.89281829313E+02 0.  0.
          4    1    3    3  502    0 -0.35233129274E+02 -0.13920911927E+03  0.27199564579E+02  0.14615186827E+03  0.00000000000E+00 0. -1.
         -3    1    3    3    0  502 -0.73863688833E+02 -0.35170850553E+03  0.19989947944E+03  0.41123535752E+03  0.00000000000E+00 0.  1.
         13    1    5    5    0    0  0.18244533034E+03  0.24998526938E+03  0.81339540453E+03  0.87028214826E+03  0.00000000000E+00 0.  1.
        -13    1    5    5    0    0  0.23941020356E+03  0.22452358273E+03  0.67865792045E+03  0.75385983960E+03  0.00000000000E+00 0. -1.
          3    1    6    6  503    0 -0.95755934444E+02  0.72322053295E+01  0.45657074272E+02  0.10633001555E+03  0.00000000000E+00 0.  1.
         -3    1    6    6    0  503 -0.21700278135E+03  0.91765673598E+01  0.27831849484E+03  0.35303767656E+03  0.00000000000E+00 0. -1.
<mgrwt>
<rscale>  0 0.16733095E+04</rscale>
<asrwt>0</asrwt>
<pdfrwt beam="1">  1        2 0.36030959E+00 0.16733095E+04</pdfrwt>
<pdfrwt beam="2">  1       -3 0.45982230E-01 0.16733095E+04</pdfrwt>
<totfact> 0.12414877E+01</totfact>
</mgrwt>
</event>
<event>
12    7  0.1711607E-007  0.2789619E+04  0.7818608E-02  0.8306498E-01
         -1   -1    0    0    0  501 -0.00000000000E+00  0.00000000000E+00  0.44668682333E+03  0.44668682333E+03  0.00000000000E+00 0.  1.
          2   -1    0    0  501    0  0.00000000000E+00 -0.00000000000E+00 -0.43553871567E+04  0.43553871567E+04  0.00000000000E+00 0. -1.
         24    2    1    2    0    0 -0.82606206201E+03 -0.90221628301E+03 -0.18782539089E+04  0.22428921725E+04  0.79716996187E+02 0.  0.
        254    2    1    2    0    0  0.82606206201E+03  0.90221628301E+03 -0.20304464244E+04  0.25591818075E+04  0.96453413092E+03 0.  0.
         23    2    4    4    0    0 -0.11728811444E+03 -0.31315471743E+02 -0.54189726803E+03  0.56292979025E+03  0.92196198956E+02 0.  0.
         23    2    4    4    0    0  0.94335017646E+03  0.93353175476E+03 -0.14885491564E+04  0.19962520172E+04  0.88613953472E+02 0.  0.
          4    1    3    3  502    0 -0.36478180136E+03 -0.44901403731E+03 -0.92426836526E+03  0.10903904710E+04  0.00000000000E+00 0. -1.
         -3    1    3    3    0  502 -0.46128026065E+03 -0.45320224570E+03 -0.95398554368E+03  0.11525017015E+04  0.00000000000E+00 0.  1.
         13    1    5    5    0    0 -0.12871090631E+03 -0.11808342792E+02 -0.44224142993E+03  0.46074224542E+03  0.00000000000E+00 0. -1.
        -13    1    5    5    0    0  0.11422791867E+02 -0.19507128951E+02 -0.99655838092E+02  0.10218754484E+03  0.00000000000E+00 0.  1.
          3    1    6    6  503    0  0.71592950246E+03  0.65535789317E+03 -0.10697416213E+04  0.14444362766E+04  0.00000000000E+00 0. -1.
         -3    1    6    6    0  503  0.22742067399E+03  0.27817386158E+03 -0.41880753503E+03  0.55181574064E+03  0.00000000000E+00 0.  1.
<mgrwt>
<rscale>  0 0.27896194E+04</rscale>
<asrwt>0</asrwt>
<pdfrwt beam="1">  1        2 0.67005959E+00 0.27896194E+04</pdfrwt>
<pdfrwt beam="2">  1       -1 0.68721047E-01 0.27896194E+04</pdfrwt>
<totfact> 0.35868779E-01</totfact>
</mgrwt>
</event>
<event>
12    7  0.1711607E-007  0.1862095E+04  0.7818608E-02  0.8673958E-01
          2   -1    0    0  501    0  0.00000000000E+00  0.00000000000E+00  0.12216965056E+04  0.12216965056E+04  0.00000000000E+00 0. -1.
         -1   -1    0    0    0  501 -0.00000000000E+00 -0.00000000000E+00 -0.70954541303E+03  0.70954541303E+03  0.00000000000E+00 0.  1.
         24    2    1    2    0    0  0.23190040785E+03  0.37514606743E+03  0.77665327013E+03  0.89685010867E+03  0.81470512097E+02 0.  0.
        254    2    1    2    0    0 -0.23190040785E+03 -0.37514606743E+03 -0.26450217757E+03  0.10343918099E+04  0.89749241973E+03 0.  0.
         23    2    4    4    0    0  0.19258446349E+03  0.13349416493E+03  0.10457011112E+03  0.27110454319E+03  0.87483127232E+02 0.  0.
         23    2    4    4    0    0 -0.42448487134E+03 -0.50864023236E+03 -0.36907228869E+03  0.76328726676E+03  0.86549438754E+02 0.  0.
          2    1    3    3  502    0  0.23621886607E+03  0.35423385456E+03  0.75257235958E+03  0.86466532995E+03  0.00000000000E+00 0. -1.
         -1    1    3    3    0  502 -0.43184582192E+01  0.20912212866E+02  0.24080910549E+02  0.32184778720E+02  0.00000000000E+00 0.  1.
         13    1    5    5    0    0  0.17263412890E+03  0.74866264090E+02  0.76941012082E+02  0.20329146391E+03  0.00000000000E+00 0.  1.
        -13    1    5    5    0    0  0.19950334587E+02  0.58627900839E+02  0.27629099037E+02  0.67813079273E+02  0.00000000000E+00 0. -1.
          3    1    6    6  503    0 -0.16122304124E+03 -0.17099612250E+03 -0.87140997646E+02  0.25065134431E+03  0.00000000000E+00 0. -1.
         -3    1    6    6    0  503 -0.26326183010E+03 -0.33764410986E+03 -0.28193129105E+03  0.51263592245E+03  0.00000000000E+00 0.  1.
<mgrwt>
<rscale>  0 0.18620947E+04</rscale>
<asrwt>0</asrwt>
<pdfrwt beam="1">  1        2 0.18795331E+00 0.18620947E+04</pdfrwt>
<pdfrwt beam="2">  1       -1 0.10916083E+00 0.18620947E+04</pdfrwt>
<totfact> 0.15304062E+01</totfact>
</mgrwt>
</event>
<event>
12    7  0.1711607E-007  0.2050367E+04  0.7818608E-02  0.8583428E-01
         -1   -1    0    0    0  501 -0.00000000000E+00  0.00000000000E+00  0.10851738699E+04  0.10851738699E+04  0.00000000000E+00 0.  1.
          2   -1    0    0  501    0  0.00000000000E+00 -0.00000000000E+00 -0.96850996929E+03  0.96850996929E+03  0.00000000000E+00 0. -1.
         24    2    1    2    0    0  0.51746707526E+03  0.49037526130E+03  0.46454775658E+03  0.85450872200E+03  0.78361131723E+02 0.  0.
        254    2    1    2    0    0 -0.51746707526E+03 -0.49037526130E+03 -0.34788385596E+03  0.11991751172E+04  0.89930957606E+03 0.  0.
         23    2    4    4    0    0  0.10762544858E+03 -0.43417507973E+03  0.35746216620E+02  0.45785602695E+03  0.90901663206E+02 0.  0.
         23    2    4    4    0    0 -0.62509252384E+03 -0.56200181570E+02 -0.38363007258E+03  0.74131909024E+03  0.92102319212E+02 0.  0.
          4    1    3    3  502    0  0.49209227835E+02  0.62082289041E+02  0.79545309293E+02  0.11226404120E+03  0.00000000000E+00 0. -1.
         -3    1    3    3    0  502  0.46825784742E+03  0.42829297225E+03  0.38500244729E+03  0.74224468080E+03  0.00000000000E+00 0.  1.
         13    1    5    5    0    0  0.86390393999E+02 -0.37973207397E+03  0.15912056700E+00  0.38943519807E+03  0.00000000000E+00 0.  1.
        -13    1    5    5    0    0  0.21235054582E+02 -0.54443005753E+02  0.35587096053E+02  0.68420828876E+02  0.00000000000E+00 0. -1.
          4    1    6    6  503    0 -0.26468606232E+03 -0.69201820948E+02 -0.17239476575E+03  0.32336907531E+03  0.00000000000E+00 0. -1.
         -4    1    6    6    0  503 -0.36040646152E+03  0.13001639378E+02 -0.21123530683E+03  0.41795001494E+03  0.00000000000E+00 0.  1.
<mgrwt>
<rscale>  0 0.20503675E+04</rscale>
<asrwt>0</asrwt>
<pdfrwt beam="1">  1        2 0.14900153E+00 0.20503675E+04</pdfrwt>
<pdfrwt beam="2">  1       -1 0.16694983E+00 0.20503675E+04</pdfrwt>
<totfact> 0.72222750E+00</totfact>
</mgrwt>
</event>
<event>
12    7  0.1711607E-007  0.1855583E+04  0.7818608E-02  0.8677287E-01
         -1   -1    0    0    0  501 -0.00000000000E+00  0.00000000000E+00  0.59314004817E+03  0.59314004817E+03  0.00000000000E+00 0.  1.
          2   -1    0    0  501    0  0.00000000000E+00 -0.00000000000E+00 -0.14512548237E+04  0.14512548237E+04  0.00000000000E+00 0. -1.
         24    2    1    2    0    0  0.43207963983E+03 -0.19272786846E+03  0.25070833681E+03  0.54129242882E+03  0.79410181452E+02 0.  0.
        254    2    1    2    0    0 -0.43207963983E+03  0.19272786846E+03 -0.11088231123E+04  0.15031024431E+04  0.89777024534E+03 0.  0.
         23    2    4    4    0    0 -0.18646248343E+03  0.50256987320E+03 -0.36226737744E+03  0.65332899239E+03  0.90864648558E+02 0.  0.
         23    2    4    4    0    0 -0.24561715640E+03 -0.30984200475E+03 -0.74655573491E+03  0.84977345067E+03  0.91867277724E+02 0.  0.
          4    1    3    3  502    0  0.79939516303E+02 -0.80806302777E+01  0.25332133558E+02  0.84245711126E+02  0.00000000000E+00 0. -1.
         -3    1    3    3    0  502  0.35214012353E+03 -0.18464723818E+03  0.22537620325E+03  0.45704671770E+03  0.00000000000E+00 0.  1.
         13    1    5    5    0    0 -0.12169870572E+03  0.23977440520E+03 -0.22079988609E+03  0.34792949007E+03  0.00000000000E+00 0.  1.
        -13    1    5    5    0    0 -0.64763777711E+02  0.26279546800E+03 -0.14146749134E+03  0.30539950231E+03  0.00000000000E+00 0. -1.
          1    1    6    6  503    0 -0.23894485979E+03 -0.25047229785E+03 -0.63472679046E+03  0.72298624920E+03  0.00000000000E+00 0. -1.
         -1    1    6    6    0  503 -0.66722966069E+01 -0.59369706897E+02 -0.11182894445E+03  0.12678720147E+03  0.00000000000E+00 0.  1.
<mgrwt>
<rscale>  0 0.18555833E+04</rscale>
<asrwt>0</asrwt>
<pdfrwt beam="1">  1        2 0.22326997E+00 0.18555833E+04</pdfrwt>
<pdfrwt beam="2">  1       -1 0.91252317E-01 0.18555833E+04</pdfrwt>
<totfact> 0.16974700E+01</totfact>
</mgrwt>
</event>
<event>
12    7  0.1711607E-007  0.1747042E+04  0.7818608E-02  0.8734980E-01
          2   -1    0    0  501    0  0.00000000000E+00  0.00000000000E+00  0.12015333011E+04  0.12015333011E+04  0.00000000000E+00 0. -1.
         -1   -1    0    0    0  501 -0.00000000000E+00 -0.00000000000E+00 -0.63505455034E+03  0.63505455034E+03  0.00000000000E+00 0.  1.
         24    2    1    2    0    0 -0.30741989314E+02 -0.62465430953E+03  0.28684946569E+03  0.69257334619E+03  0.78975613702E+02 0.  0.
        254    2    1    2    0    0  0.30741989314E+02  0.62465430953E+03  0.27962928503E+03  0.11440145052E+04  0.91620880521E+03 0.  0.
         23    2    4    4    0    0 -0.14168280254E+02  0.62143832871E+03 -0.19587217626E+03  0.65778466735E+03  0.89041690303E+02 0.  0.
         23    2    4    4    0    0  0.44910269568E+02  0.32159808211E+01  0.47550146129E+03  0.48622983785E+03  0.91052406258E+02 0.  0.
          4    1    3    3  502    0 -0.10369251750E+02 -0.14319555306E+02 -0.46507656997E+00  0.17685794928E+02  0.00000000000E+00 0. -1.
         -3    1    3    3    0  502 -0.20372737564E+02 -0.61033475423E+03  0.28731454226E+03  0.67488755126E+03  0.00000000000E+00 0.  1.
         13    1    5    5    0    0  0.55322008532E+01  0.24760243178E+02  0.85189739737E+01  0.26762806394E+02  0.00000000000E+00 0. -1.
        -13    1    5    5    0    0 -0.19700481107E+02  0.59667808554E+03 -0.20439115023E+03  0.63102186096E+03  0.00000000000E+00 0.  1.
          1    1    6    6  503    0 -0.98468698483E+01  0.19415930062E+02  0.29907504252E+02  0.36991863924E+02  0.00000000000E+00 0. -1.
         -1    1    6    6    0  503  0.54757139416E+02 -0.16199949240E+02  0.44559395704E+03  0.44923797393E+03  0.00000000000E+00 0.  1.
<mgrwt>
<rscale>  0 0.17470423E+04</rscale>
<asrwt>0</asrwt>
<pdfrwt beam="1">  1        2 0.18485128E+00 0.17470423E+04</pdfrwt>
<pdfrwt beam="2">  1       -1 0.97700700E-01 0.17470423E+04</pdfrwt>
<totfact> 0.20537359E+01</totfact>
</mgrwt>
</event>
<event>
12    7  0.1711607E-007  0.1422711E+04  0.7818608E-02  0.8937541E-01
         -1   -1    0    0    0  501 -0.00000000000E+00  0.00000000000E+00  0.99501693792E+03  0.99501693792E+03  0.00000000000E+00 0.  1.
          2   -1    0    0  501    0  0.00000000000E+00 -0.00000000000E+00 -0.50856101434E+03  0.50856101434E+03  0.00000000000E+00 0. -1.
         24    2    1    2    0    0 -0.18081642967E+03  0.30849531535E+02  0.55197673268E+03  0.58718287123E+03  0.80368750160E+02 0.  0.
        254    2    1    2    0    0  0.18081642967E+03 -0.30849531535E+02 -0.65520809102E+02  0.91639508103E+03  0.89545557862E+03 0.  0.
         23    2    4    4    0    0 -0.62140046261E+02 -0.42302339835E+03 -0.76683468453E+02  0.44611659448E+03  0.10163405254E+03 0.  0.
         23    2    4    4    0    0  0.24295647594E+03  0.39217386681E+03  0.11162659351E+02  0.47027848656E+03  0.90603857223E+02 0.  0.
          2    1    3    3  502    0  0.71105391563E+01 -0.39875791377E+01  0.36865214193E+02  0.37755854804E+02  0.00000000000E+00 0. -1.
         -1    1    3    3    0  502 -0.18792696883E+03  0.34837110673E+02  0.51511151849E+03  0.54942701642E+03  0.00000000000E+00 0.  1.
         13    1    5    5    0    0 -0.29254758622E+02 -0.39503646924E+03 -0.72882764938E+02  0.40276736506E+03  0.00000000000E+00 0. -1.
        -13    1    5    5    0    0 -0.32885287639E+02 -0.27986929109E+02 -0.38007035145E+01  0.43349229419E+02  0.00000000000E+00 0.  1.
          3    1    6    6  503    0  0.23546758017E+03  0.35236053360E+03  0.31468907055E+02  0.42496260902E+03  0.00000000000E+00 0. -1.
         -3    1    6    6    0  503  0.74888957612E+01  0.39813333209E+02 -0.20306247704E+02  0.45315877535E+02  0.00000000000E+00 0.  1.
<mgrwt>
<rscale>  0 0.14227112E+04</rscale>
<asrwt>0</asrwt>
<pdfrwt beam="1">  1        2 0.78240156E-01 0.14227112E+04</pdfrwt>
<pdfrwt beam="2">  1       -1 0.15307953E+00 0.14227112E+04</pdfrwt>
<totfact> 0.22147689E+01</totfact>
</mgrwt>
</event>
<event>
12    7  0.1711607E-007  0.3221066E+04  0.7818608E-02  0.8183276E-01
          2   -1    0    0  501    0  0.00000000000E+00  0.00000000000E+00  0.21282629278E+04  0.21282629278E+04  0.00000000000E+00 0. -1.
         -1   -1    0    0    0  501 -0.00000000000E+00 -0.00000000000E+00 -0.12187484657E+04  0.12187484657E+04  0.00000000000E+00 0.  1.
         24    2    1    2    0    0 -0.13381705421E+04  0.59587190674E+03  0.17628502453E+03  0.14776100627E+04  0.80568968412E+02 0.  0.
        254    2    1    2    0    0  0.13381705421E+04 -0.59587190674E+03  0.73322943755E+03  0.18694013308E+04  0.90070649962E+03 0.  0.
         23    2    4    4    0    0  0.31273574617E+03 -0.57214821549E+03  0.11461250803E+03  0.66819289095E+03  0.90490248634E+02 0.  0.
         23    2    4    4    0    0  0.10254347959E+04 -0.23723691243E+02  0.61861692952E+03  0.12012084398E+04  0.90196874673E+02 0.  0.
          2    1    3    3  502    0 -0.23860201875E+03  0.89690376848E+02  0.57539273814E+02  0.26131600617E+03  0.00000000000E+00 0. -1.
         -1    1    3    3    0  502 -0.10995685233E+04  0.50618152989E+03  0.11874575072E+03  0.12162940566E+04  0.00000000000E+00 0.  1.
         13    1    5    5    0    0  0.10086575371E+02 -0.11252288405E+02 -0.10875056443E+02  0.18617729446E+02  0.00000000000E+00 0. -1.
        -13    1    5    5    0    0  0.30264917080E+03 -0.56089592709E+03  0.12548756447E+03  0.64957516151E+03  0.00000000000E+00 0.  1.
          1    1    6    6  503    0  0.63209788446E+02  0.18657356331E+02  0.50022623523E+02  0.82739574357E+02  0.00000000000E+00 0. -1.
         -1    1    6    6    0  503  0.96222500748E+03 -0.42381047574E+02  0.56859430600E+03  0.11184688655E+04  0.00000000000E+00 0.  1.
<mgrwt>
<rscale>  0 0.32210664E+04</rscale>
<asrwt>0</asrwt>
<pdfrwt beam="1">  1        2 0.32742507E+00 0.32210664E+04</pdfrwt>
<pdfrwt beam="2">  1       -1 0.18749976E+00 0.32210664E+04</pdfrwt>
<totfact> 0.99658189E-01</totfact>
</mgrwt>
</event>
<event>
12    7  0.1711607E-007  0.1818721E+04  0.7818608E-02  0.8696407E-01
          2   -1    0    0  501    0  0.00000000000E+00  0.00000000000E+00  0.30051598706E+04  0.30051598706E+04  0.00000000000E+00 0. -1.
         -1   -1    0    0    0  501 -0.00000000000E+00 -0.00000000000E+00 -0.27517232532E+03  0.27517232532E+03  0.00000000000E+00 0.  1.
         24    2    1    2    0    0 -0.11762970831E+03  0.26149107895E+03 -0.85746732907E+02  0.30941490146E+03  0.78554098505E+02 0.  0.
        254    2    1    2    0    0  0.11762970831E+03 -0.26149107895E+03  0.28157342782E+04  0.29709172945E+04  0.90320302952E+03 0.  0.
         23    2    4    4    0    0 -0.35624548293E+02 -0.48795933788E+03  0.85646846880E+03  0.99057366114E+03  0.91238786870E+02 0.  0.
         23    2    4    4    0    0  0.15325425660E+03  0.22646825893E+03  0.19592658094E+04  0.19803436334E+04  0.90904646460E+02 0.  0.
          4    1    3    3  502    0 -0.21083475026E+02  0.17458371431E+02  0.11293269267E+02  0.29611578528E+02  0.00000000000E+00 0. -1.
         -3    1    3    3    0  502 -0.96546233283E+02  0.24403270752E+03 -0.97040002174E+02  0.27980332293E+03  0.00000000000E+00 0.  1.
         13    1    5    5    0    0  0.18965806858E+01 -0.41996180054E+03  0.71697100280E+03  0.83091451413E+03  0.00000000000E+00 0. -1.
        -13    1    5    5    0    0 -0.37521128979E+02 -0.67997537333E+02  0.13949746600E+03  0.15965914701E+03  0.00000000000E+00 0.  1.
          3    1    6    6  503    0  0.50820465348E+02  0.84498725926E+02  0.10317321355E+04  0.10364332848E+04  0.00000000000E+00 0. -1.
         -3    1    6    6    0  503  0.10243379125E+03  0.14196953300E+03  0.92753367392E+03  0.94391034857E+03  0.00000000000E+00 0.  1.
<mgrwt>
<rscale>  0 0.18187213E+04</rscale>
<asrwt>0</asrwt>
<pdfrwt beam="1">  1        2 0.46233227E+00 0.18187213E+04</pdfrwt>
<pdfrwt beam="2">  1       -1 0.42334206E-01 0.18187213E+04</pdfrwt>
<totfact> 0.10214100E+01</totfact>
</mgrwt>
</event>
<event>
12    7  0.1711607E-007  0.2339132E+04  0.7818608E-02  0.8462650E-01
          2   -1    0    0  501    0  0.00000000000E+00  0.00000000000E+00  0.35312625907E+04  0.35312625907E+04  0.00000000000E+00 0. -1.
         -1   -1    0    0    0  501 -0.00000000000E+00 -0.00000000000E+00 -0.38736428166E+03  0.38736428166E+03  0.00000000000E+00 0.  1.
         24    2    1    2    0    0  0.31950265992E+03  0.85487988633E+03  0.20224721525E+04  0.22202719930E+04  0.79451529024E+02 0.  0.
        254    2    1    2    0    0 -0.31950265992E+03 -0.85487988633E+03  0.11214261565E+04  0.16983548793E+04  0.89101689203E+03 0.  0.
         23    2    4    4    0    0 -0.30473014642E+03 -0.29195285786E+03  0.10338695934E+04  0.11201950370E+04  0.88620829608E+02 0.  0.
         23    2    4    4    0    0 -0.14772513502E+02 -0.56292702847E+03  0.87556563068E+02  0.57815984228E+03  0.97455553744E+02 0.  0.
          2    1    3    3  502    0  0.29473539708E+03  0.70527408047E+03  0.16971608778E+04  0.18613531444E+04  0.00000000000E+00 0. -1.
         -1    1    3    3    0  502  0.24767262839E+02  0.14960580586E+03  0.32531127470E+03  0.35891884863E+03  0.00000000000E+00 0.  1.
         13    1    5    5    0    0 -0.15840486069E+03 -0.12753996586E+03  0.39157682222E+03  0.44123797488E+03  0.00000000000E+00 0.  1.
        -13    1    5    5    0    0 -0.14632528573E+03 -0.16441289200E+03  0.64229277119E+03  0.67895706214E+03  0.00000000000E+00 0. -1.
          1    1    6    6  503    0  0.21488310543E+02 -0.34461051654E+03  0.16302425170E+02  0.34566446833E+03  0.00000000000E+00 0. -1.
         -1    1    6    6    0  503 -0.36260824045E+02 -0.21831651193E+03  0.71254137898E+02  0.23249537395E+03  0.00000000000E+00 0.  1.
<mgrwt>
<rscale>  0 0.23391323E+04</rscale>
<asrwt>0</asrwt>
<pdfrwt beam="1">  1        2 0.54327115E+00 0.23391323E+04</pdfrwt>
<pdfrwt beam="2">  1       -1 0.59594507E-01 0.23391323E+04</pdfrwt>
<totfact> 0.22738224E+00</totfact>
</mgrwt>
</event>
<event>
12    7  0.1711607E-007  0.1845886E+04  0.7818608E-02  0.8682271E-01
          2   -1    0    0  501    0  0.00000000000E+00  0.00000000000E+00  0.12232697075E+04  0.12232697075E+04  0.00000000000E+00 0. -1.
         -1   -1    0    0    0  501 -0.00000000000E+00 -0.00000000000E+00 -0.69634980704E+03  0.69634980704E+03  0.00000000000E+00 0.  1.
         24    2    1    2    0    0  0.27532655528E+03 -0.48182470543E+03  0.63410484324E+03  0.84641087709E+03  0.79766295173E+02 0.  0.
        254    2    1    2    0    0 -0.27532655528E+03  0.48182470543E+03 -0.10718494274E+03  0.10732086375E+04  0.91232034330E+03 0.  0.
         23    2    4    4    0    0  0.20927007555E+03  0.51495532011E+03 -0.13216384013E+03  0.57837722621E+03  0.89888758654E+02 0.  0.
         23    2    4    4    0    0 -0.48459663082E+03 -0.33130614679E+02  0.24978897387E+02  0.49483141126E+03  0.91118867547E+02 0.  0.
          4    1    3    3  502    0  0.26410771897E+03 -0.47222070961E+03  0.63120028553E+03  0.83135978148E+03  0.00000000000E+00 0. -1.
         -3    1    3    3    0  502  0.11218836306E+02 -0.96039958215E+01  0.29045577034E+01  0.15051095617E+02  0.00000000000E+00 0.  1.
         13    1    5    5    0    0  0.97105078878E+02  0.32390043512E+03 -0.11065688580E+03  0.35578903101E+03  0.00000000000E+00 0. -1.
        -13    1    5    5    0    0  0.11216499667E+03  0.19105488499E+03 -0.21506954328E+02  0.22258819520E+03  0.00000000000E+00 0.  1.
          3    1    6    6  503    0 -0.21196053197E+03 -0.51508055011E+02  0.37317011389E+02  0.22129822905E+03  0.00000000000E+00 0. -1.
         -3    1    6    6    0  503 -0.27263609886E+03  0.18377440332E+02 -0.12338114002E+02  0.27353318221E+03  0.00000000000E+00 0.  1.
<mgrwt>
<rscale>  0 0.18458858E+04</rscale>
<asrwt>0</asrwt>
<pdfrwt beam="1">  1        2 0.18819534E+00 0.18458858E+04</pdfrwt>
<pdfrwt beam="2">  1       -1 0.10713074E+00 0.18458858E+04</pdfrwt>
<totfact> 0.15982029E+01</totfact>
</mgrwt>
</event>
<event>
12    7  0.1711607E-007  0.1965266E+04  0.7818608E-02  0.8623034E-01
          2   -1    0    0  501    0  0.00000000000E+00  0.00000000000E+00  0.18016979856E+04  0.18016979856E+04  0.00000000000E+00 0. -1.
         -1   -1    0    0    0  501 -0.00000000000E+00 -0.00000000000E+00 -0.53592105763E+03  0.53592105763E+03  0.00000000000E+00 0.  1.
         24    2    1    2    0    0 -0.61434268080E+02 -0.38278483069E+03  0.12935493847E+04  0.13527462053E+04  0.79711287748E+02 0.  0.
        254    2    1    2    0    0  0.61434268080E+02  0.38278483069E+03 -0.27772456739E+02  0.98487283792E+03  0.90493358962E+03 0.  0.
         23    2    4    4    0    0  0.37258763968E+03 -0.10468926994E+03  0.24470256651E+02  0.39717606603E+03  0.85840791485E+02 0.  0.
         23    2    4    4    0    0 -0.31115337160E+03  0.48747410063E+03 -0.52242713390E+02  0.58769677190E+03  0.90613327698E+02 0.  0.
          4    1    3    3  502    0 -0.79468475152E+02 -0.26929214569E+03  0.90368244493E+03  0.94629565124E+03  0.00000000000E+00 0. -1.
         -3    1    3    3    0  502  0.18034207073E+02 -0.11349268499E+03  0.38986693975E+03  0.40645055404E+03  0.00000000000E+00 0.  1.
         13    1    5    5    0    0  0.17928656399E+03 -0.29980528004E+02  0.49601624339E+02  0.18842193403E+03  0.00000000000E+00 0.  1.
        -13    1    5    5    0    0  0.19330107569E+03 -0.74708741933E+02 -0.25131367688E+02  0.20875413199E+03  0.00000000000E+00 0. -1.
          3    1    6    6  503    0 -0.24095604137E+03  0.37463565579E+03 -0.14711807148E+01  0.44543669902E+03  0.00000000000E+00 0. -1.
         -3    1    6    6    0  503 -0.70197330228E+02  0.11283844483E+03 -0.50771532675E+02  0.14226007287E+03  0.00000000000E+00 0.  1.
<mgrwt>
<rscale>  0 0.19652663E+04</rscale>
<asrwt>0</asrwt>
<pdfrwt beam="1">  1        2 0.27718430E+00 0.19652663E+04</pdfrwt>
<pdfrwt beam="2">  1       -1 0.82449394E-01 0.19652663E+04</pdfrwt>
<totfact> 0.13357909E+01</totfact>
</mgrwt>
</event>
<event>
12    7  0.1711607E-007  0.2177814E+04  0.7818608E-02  0.8527720E-01
          2   -1    0    0  501    0  0.00000000000E+00  0.00000000000E+00  0.13220013635E+04  0.13220013635E+04  0.00000000000E+00 0. -1.
         -1   -1    0    0    0  501 -0.00000000000E+00 -0.00000000000E+00 -0.89691154523E+03  0.89691154523E+03  0.00000000000E+00 0.  1.
         24    2    1    2    0    0  0.68130309109E+02  0.90134360219E+03  0.20606565567E+03  0.93059103610E+03  0.80464860633E+02 0.  0.
        254    2    1    2    0    0 -0.68130309109E+02 -0.90134360219E+03  0.21902416262E+03  0.12883218726E+04  0.89148170787E+03 0.  0.
         23    2    4    4    0    0 -0.13667338771E+03 -0.94781000287E+03  0.42125688243E+03  0.10499453013E+04  0.88906458429E+02 0.  0.
         23    2    4    4    0    0  0.68543078600E+02  0.46466400683E+02 -0.20223271981E+03  0.23837657130E+03  0.95226239893E+02 0.  0.
          2    1    3    3  502    0  0.44498861713E+02  0.69881377044E+03  0.19264613202E+03  0.72624607857E+03  0.00000000000E+00 0. -1.
         -1    1    3    3    0  502  0.23631447396E+02  0.20252983174E+03  0.13419523646E+02  0.20434495753E+03  0.00000000000E+00 0.  1.
         13    1    5    5    0    0 -0.87932081896E+02 -0.81964235644E+03  0.36968829979E+03  0.90344622557E+03  0.00000000000E+00 0.  1.
        -13    1    5    5    0    0 -0.48741305814E+02 -0.12816764643E+03  0.51568582636E+02  0.14649907576E+03  0.00000000000E+00 0. -1.
          3    1    6    6  503    0  0.79868462311E+02  0.18591202657E+02 -0.88160397457E+02  0.12040290598E+03  0.00000000000E+00 0. -1.
         -3    1    6    6    0  503 -0.11325383711E+02  0.27875198026E+02 -0.11407232236E+03  0.11797366532E+03  0.00000000000E+00 0.  1.
<mgrwt>
<rscale>  0 0.21778138E+04</rscale>
<asrwt>0</asrwt>
<pdfrwt beam="1">  1        2 0.20338483E+00 0.21778138E+04</pdfrwt>
<pdfrwt beam="2">  1       -1 0.13798639E+00 0.21778138E+04</pdfrwt>
<totfact> 0.72924489E+00</totfact>
</mgrwt>
</event>
<event>
12    7  0.1711607E-007  0.2533613E+04  0.7818608E-02  0.8391108E-01
         -1   -1    0    0    0  501 -0.00000000000E+00  0.00000000000E+00  0.52542515382E+03  0.52542515382E+03  0.00000000000E+00 0.  1.
          2   -1    0    0  501    0  0.00000000000E+00 -0.00000000000E+00 -0.30542871161E+04  0.30542871161E+04  0.00000000000E+00 0. -1.
         24    2    1    2    0    0  0.38606383146E+03  0.55127007169E+03  0.12844812644E+03  0.68982266971E+03  0.80077590838E+02 0.  0.
        254    2    1    2    0    0 -0.38606383146E+03 -0.55127007169E+03 -0.26573100887E+04  0.28898896002E+04  0.91499782506E+03 0.  0.
         23    2    4    4    0    0 -0.12303215915E+03  0.50416612383E+02 -0.17950411702E+04  0.18022444718E+04  0.90739111218E+02 0.  0.
         23    2    4    4    0    0 -0.26303167231E+03 -0.60168668408E+03 -0.86226891848E+03  0.10876451284E+04  0.90838929580E+02 0.  0.
          2    1    3    3  502    0  0.21033802902E+02  0.54929701536E+02 -0.62584282774E+01  0.59151169894E+02  0.00000000000E+00 0. -1.
         -1    1    3    3    0  502  0.36503002856E+03  0.49634037016E+03  0.13470655471E+03  0.63067149982E+03  0.00000000000E+00 0.  1.
         13    1    5    5    0    0 -0.12500680259E+03  0.24947605635E+02 -0.12211790219E+04  0.12278140280E+04  0.00000000000E+00 0.  1.
        -13    1    5    5    0    0  0.19746434379E+01  0.25469006749E+02 -0.57386214832E+03  0.57443044383E+03  0.00000000000E+00 0. -1.
          2    1    6    6  503    0 -0.27033887015E+03 -0.59091023752E+03 -0.84767026428E+03  0.10680837469E+04  0.00000000000E+00 0. -1.
         -2    1    6    6    0  503  0.73071978332E+01 -0.10776446556E+02 -0.14598654199E+02  0.19561381468E+02  0.00000000000E+00 0.  1.
<mgrwt>
<rscale>  0 0.25336134E+04</rscale>
<asrwt>0</asrwt>
<pdfrwt beam="1">  1        2 0.46989033E+00 0.25336134E+04</pdfrwt>
<pdfrwt beam="2">  1       -1 0.80834638E-01 0.25336134E+04</pdfrwt>
<totfact> 0.24834603E+00</totfact>
</mgrwt>
</event>
<event>
12    7  0.1711607E-007  0.2890882E+04  0.7818608E-02  0.8275596E-01
          2   -1    0    0  501    0  0.00000000000E+00  0.00000000000E+00  0.14125603778E+04  0.14125603778E+04  0.00000000000E+00 0. -1.
         -1   -1    0    0    0  501 -0.00000000000E+00 -0.00000000000E+00 -0.14790866854E+04  0.14790866854E+04  0.00000000000E+00 0.  1.
         24    2    1    2    0    0 -0.75703102999E+03  0.93218893793E+02  0.10288830677E+04  0.12835370709E+04  0.84150476964E+02 0.  0.
        254    2    1    2    0    0  0.75703102999E+03 -0.93218893793E+02 -0.10954093754E+04  0.16081099923E+04  0.89683348792E+03 0.  0.
         23    2    4    4    0    0  0.32628044286E+03 -0.39289462633E+03 -0.18067831235E+03  0.54942307598E+03  0.91629411640E+02 0.  0.
         23    2    4    4    0    0  0.43075058714E+03  0.29967573254E+03 -0.91473106301E+03  0.10586869163E+04  0.93452961837E+02 0.  0.
          2    1    3    3  502    0 -0.68238934612E+03  0.88497175647E+02  0.96482612579E+03  0.11850638898E+04  0.00000000000E+00 0. -1.
         -1    1    3    3    0  502 -0.74641683874E+02  0.47217181460E+01  0.64056941948E+02  0.98473181149E+02  0.00000000000E+00 0.  1.
         13    1    5    5    0    0  0.22727570570E+03 -0.23229312384E+03 -0.76346137336E+02  0.33383090700E+03  0.00000000000E+00 0. -1.
        -13    1    5    5    0    0  0.99004737158E+02 -0.16060150250E+03 -0.10433217501E+03  0.21559216898E+03  0.00000000000E+00 0.  1.
          1    1    6    6  503    0  0.42620871739E+03  0.28624385192E+03 -0.90775498058E+03  0.10428847100E+04  0.00000000000E+00 0. -1.
         -1    1    6    6    0  503  0.45418697465E+01  0.13431880621E+02 -0.69760824217E+01  0.15802206294E+02  0.00000000000E+00 0.  1.
<mgrwt>
<rscale>  0 0.28908817E+04</rscale>
<asrwt>0</asrwt>
<pdfrwt beam="1">  1        2 0.21731698E+00 0.28908817E+04</pdfrwt>
<pdfrwt beam="2">  1       -1 0.22755180E+00 0.28908817E+04</pdfrwt>
<totfact> 0.13719834E+00</totfact>
</mgrwt>
</event>
<event>
12    7  0.1711607E-007  0.1580643E+04  0.7818608E-02  0.8832529E-01
         -1   -1    0    0    0  501 -0.00000000000E+00  0.00000000000E+00  0.34444231629E+03  0.34444231629E+03  0.00000000000E+00 0.  1.
          2   -1    0    0  501    0  0.00000000000E+00 -0.00000000000E+00 -0.18133897236E+04  0.18133897236E+04  0.00000000000E+00 0. -1.
         24    2    1    2    0    0 -0.68517824787E+02  0.25905342737E+03 -0.11404574295E+04  0.11742176494E+04  0.79627690556E+02 0.  0.
        254    2    1    2    0    0  0.68517824787E+02 -0.25905342737E+03 -0.32848997779E+03  0.98361439047E+03  0.88757435355E+03 0.  0.
         23    2    4    4    0    0 -0.16693325664E+03 -0.41989829338E+03 -0.46460639311E+03  0.65443486375E+03  0.90799787577E+02 0.  0.
         23    2    4    4    0    0  0.23545108143E+03  0.16084486601E+03  0.13611641532E+03  0.32917952671E+03  0.92321176448E+02 0.  0.
          4    1    3    3  502    0 -0.31946494418E+02  0.17094214421E+03 -0.87561995669E+03  0.89272173924E+03  0.00000000000E+00 0. -1.
         -3    1    3    3    0  502 -0.36571330368E+02  0.88111283162E+02 -0.26483747282E+03  0.28149591016E+03  0.00000000000E+00 0.  1.
         13    1    5    5    0    0 -0.13212920284E+03 -0.32172223516E+03 -0.40715206212E+03  0.53547747340E+03  0.00000000000E+00 0. -1.
        -13    1    5    5    0    0 -0.34804053806E+02 -0.98176058221E+02 -0.57454330990E+02  0.11895739035E+03  0.00000000000E+00 0.  1.
          1    1    6    6  503    0  0.76292712548E+02  0.20593772805E+02  0.73685814456E+02  0.10804758544E+03  0.00000000000E+00 0. -1.
         -1    1    6    6    0  503  0.15915836888E+03  0.14025109320E+03  0.62430600862E+02  0.22113194128E+03  0.00000000000E+00 0.  1.
<mgrwt>
<rscale>  0 0.15806431E+04</rscale>
<asrwt>0</asrwt>
<pdfrwt beam="1">  1        2 0.27898303E+00 0.15806431E+04</pdfrwt>
<pdfrwt beam="2">  1       -1 0.52991127E-01 0.15806431E+04</pdfrwt>
<totfact> 0.33319525E+01</totfact>
</mgrwt>
</event>
<event>
12    7  0.1711607E-007  0.2943901E+04  0.7818608E-02  0.8259934E-01
          2   -1    0    0  501    0  0.00000000000E+00  0.00000000000E+00  0.64514340720E+03  0.64514340720E+03  0.00000000000E+00 0. -1.
         -1   -1    0    0    0  501 -0.00000000000E+00 -0.00000000000E+00 -0.33583824430E+04  0.33583824430E+04  0.00000000000E+00 0.  1.
         24    2    1    2    0    0  0.61250410240E+03 -0.11344461684E+04 -0.77970950406E+03  0.15088194066E+04  0.80372298680E+02 0.  0.
        254    2    1    2    0    0 -0.61250410240E+03  0.11344461684E+04 -0.19335295317E+04  0.24947064436E+04  0.90713527393E+03 0.  0.
         23    2    4    4    0    0 -0.27406630058E+02  0.17791854557E+02 -0.76944225957E+03  0.77635248926E+03  0.98051635937E+02 0.  0.
         23    2    4    4    0    0 -0.58509747234E+03  0.11166543139E+04 -0.11640872722E+04  0.17183539544E+04  0.91570881872E+02 0.  0.
          4    1    3    3  502    0  0.59925469218E+03 -0.11079096065E+04 -0.74603926245E+03  0.14639482448E+04  0.00000000000E+00 0. -1.
         -3    1    3    3    0  502  0.13249410217E+02 -0.26536561928E+02 -0.33670241609E+02  0.44871161787E+02  0.00000000000E+00 0.  1.
         13    1    5    5    0    0  0.39151497591E+01 -0.30397691036E+01 -0.67023073335E+03  0.67024906156E+03  0.00000000000E+00 0. -1.
        -13    1    5    5    0    0 -0.31321779817E+02  0.20831623661E+02 -0.99211526220E+02  0.10610342770E+03  0.00000000000E+00 0.  1.
          2    1    6    6  503    0 -0.23817046959E+03  0.54109663488E+03 -0.51524102489E+03  0.78420919058E+03  0.00000000000E+00 0. -1.
         -2    1    6    6    0  503 -0.34692700275E+03  0.57555767899E+03 -0.64884624729E+03  0.93414476378E+03  0.00000000000E+00 0.  1.
<mgrwt>
<rscale>  0 0.29439010E+04</rscale>
<asrwt>0</asrwt>
<pdfrwt beam="1">  1        2 0.99252830E-01 0.29439010E+04</pdfrwt>
<pdfrwt beam="2">  1       -1 0.51667423E+00 0.29439010E+04</pdfrwt>
<totfact> 0.51813124E-02</totfact>
</mgrwt>
</event>
<event>
12    7  0.1711607E-007  0.2496693E+04  0.7818608E-02  0.8404165E-01
          2   -1    0    0  501    0  0.00000000000E+00  0.00000000000E+00  0.23593533839E+04  0.23593533839E+04  0.00000000000E+00 0. -1.
         -1   -1    0    0    0  501 -0.00000000000E+00 -0.00000000000E+00 -0.66050691597E+03  0.66050691597E+03  0.00000000000E+00 0.  1.
         24    2    1    2    0    0 -0.84909192064E+02  0.77952954576E+00 -0.56779106492E+03  0.57980617957E+03  0.81106928827E+02 0.  0.
        254    2    1    2    0    0  0.84909192064E+02 -0.77952954576E+00  0.22666375329E+04  0.24400541203E+04  0.89944884572E+03 0.  0.
         23    2    4    4    0    0  0.17798326966E+03  0.41442003121E+03  0.13279360396E+04  0.14054389630E+04  0.91774435295E+02 0.  0.
         23    2    4    4    0    0 -0.93074077597E+02 -0.41519956076E+03  0.93870149331E+03  0.10346151573E+04  0.90634270793E+02 0.  0.
          2    1    3    3  502    0  0.16546984663E+01 -0.92843580876E+01 -0.57422403637E+01  0.11041315887E+02  0.00000000000E+00 0. -1.
         -1    1    3    3    0  502 -0.86563890531E+02  0.10063887633E+02 -0.56204882456E+03  0.56876486369E+03  0.00000000000E+00 0.  1.
         13    1    5    5    0    0  0.11305738882E+03  0.22875583338E+03  0.61416952812E+03  0.66506797678E+03  0.00000000000E+00 0. -1.
        -13    1    5    5    0    0  0.64925880838E+02  0.18566419783E+03  0.71376651143E+03  0.74037098620E+03  0.00000000000E+00 0.  1.
          4    1    6    6  503    0 -0.48413174222E+02 -0.68272356010E+02  0.21797763836E+03  0.23349347070E+03  0.00000000000E+00 0. -1.
         -4    1    6    6    0  503 -0.44660903375E+02 -0.34692720475E+03  0.72072385495E+03  0.80112168662E+03  0.00000000000E+00 0.  1.
<mgrwt>
<rscale>  0 0.24966932E+04</rscale>
<asrwt>0</asrwt>
<pdfrwt beam="1">  1        2 0.36297744E+00 0.24966932E+04</pdfrwt>
<pdfrwt beam="2">  1       -1 0.10161645E+00 0.24966932E+04</pdfrwt>
<totfact> 0.39089434E+00</totfact>
</mgrwt>
</event>
<event>
12    7  0.1711607E-007  0.1702849E+04  0.7818608E-02  0.8759741E-01
         -1   -1    0    0    0  501 -0.00000000000E+00  0.00000000000E+00  0.17104216790E+03  0.17104216790E+03  0.00000000000E+00 0.  1.
          2   -1    0    0  501    0  0.00000000000E+00 -0.00000000000E+00 -0.42382756983E+04  0.42382756983E+04  0.00000000000E+00 0. -1.
         24    2    1    2    0    0  0.38711820794E+03  0.13224928315E+03 -0.30063205462E+03  0.51396078563E+03  0.80160321181E+02 0.  0.
        254    2    1    2    0    0 -0.38711820794E+03 -0.13224928315E+03 -0.37666014757E+04  0.38953570805E+04  0.90507995667E+03 0.  0.
         23    2    4    4    0    0  0.90109497614E+02  0.27951757994E+03 -0.71136002488E+03  0.77451726966E+03  0.87144230680E+02 0.  0.
         23    2    4    4    0    0 -0.47722770555E+03 -0.41176686309E+03 -0.30552414509E+04  0.31208398109E+04  0.88558283632E+02 0.  0.
          4    1    3    3  502    0  0.81997430898E+02  0.54639963619E+02 -0.10135481919E+03  0.14135736157E+03  0.00000000000E+00 0. -1.
         -3    1    3    3    0  502  0.30512077704E+03  0.77609319532E+02 -0.19927723543E+03  0.37260342406E+03  0.00000000000E+00 0.  1.
         13    1    5    5    0    0  0.37798345449E+02  0.21687103667E+03 -0.57363923395E+03  0.61442959905E+03  0.00000000000E+00 0. -1.
        -13    1    5    5    0    0  0.52311152165E+02  0.62646543273E+02 -0.13772079093E+03  0.16008767060E+03  0.00000000000E+00 0.  1.
          2    1    6    6  503    0 -0.29492335163E+03 -0.29473035553E+03 -0.18644576094E+04  0.19105098647E+04  0.00000000000E+00 0. -1.
         -2    1    6    6    0  503 -0.18230435392E+03 -0.11703650756E+03 -0.11907838415E+04  0.12103299462E+04  0.00000000000E+00 0.  1.
<mgrwt>
<rscale>  0 0.17028492E+04</rscale>
<asrwt>0</asrwt>
<pdfrwt beam="1">  1        2 0.65204238E+00 0.17028492E+04</pdfrwt>
<pdfrwt beam="2">  1       -1 0.26314181E-01 0.17028492E+04</pdfrwt>
<totfact> 0.30545253E+00</totfact>
</mgrwt>
</event>
<event>
12    7  0.1711607E-007  0.1616968E+04  0.7818608E-02  0.8810191E-01
         -1   -1    0    0    0  501 -0.00000000000E+00  0.00000000000E+00  0.31634356698E+03  0.31634356698E+03  0.00000000000E+00 0.  1.
          2   -1    0    0  501    0  0.00000000000E+00 -0.00000000000E+00 -0.20662541945E+04  0.20662541945E+04  0.00000000000E+00 0. -1.
         24    2    1    2    0    0  0.15074611805E+03  0.24680929419E+03 -0.12958108121E+04  0.13300160749E+04  0.78599482970E+02 0.  0.
        254    2    1    2    0    0 -0.15074611805E+03 -0.24680929419E+03 -0.45409981533E+03  0.10525816866E+04  0.90447904610E+03 0.  0.
         23    2    4    4    0    0 -0.11446053832E+03 -0.14543943780E+03  0.25585534874E+03  0.32906776912E+03  0.92573172658E+02 0.  0.
         23    2    4    4    0    0 -0.36285579724E+02 -0.10136985639E+03 -0.70995516406E+03  0.72351391745E+03  0.88563890447E+02 0.  0.
          2    1    3    3  502    0  0.12785313463E+03  0.14626670635E+03 -0.92195592096E+03  0.94220119593E+03  0.00000000000E+00 0. -1.
         -1    1    3    3    0  502  0.22892983419E+02  0.10054258784E+03 -0.37385489118E+03  0.38781487893E+03  0.00000000000E+00 0.  1.
         13    1    5    5    0    0 -0.11561917367E+03 -0.14031653145E+03  0.26328947238E+03  0.31996541780E+03  0.00000000000E+00 0. -1.
        -13    1    5    5    0    0  0.11586353502E+01 -0.51229063482E+01 -0.74341236417E+01  0.91023513252E+01  0.00000000000E+00 0.  1.
          3    1    6    6  503    0 -0.61482293118E+02 -0.44280707344E+02 -0.34073847209E+03  0.34906096856E+03  0.00000000000E+00 0. -1.
         -3    1    6    6    0  503  0.25196713394E+02 -0.57089149045E+02 -0.36921669198E+03  0.37445294890E+03  0.00000000000E+00 0.  1.
<mgrwt>
<rscale>  0 0.16169678E+04</rscale>
<asrwt>0</asrwt>
<pdfrwt beam="1">  1        2 0.31788526E+00 0.16169678E+04</pdfrwt>
<pdfrwt beam="2">  1       -1 0.48668242E-01 0.16169678E+04</pdfrwt>
<totfact> 0.28293134E+01</totfact>
</mgrwt>
</event>
<event>
12    7  0.1711607E-007  0.2034238E+04  0.7818608E-02  0.8590778E-01
          2   -1    0    0  501    0  0.00000000000E+00  0.00000000000E+00  0.21378520312E+04  0.21378520312E+04  0.00000000000E+00 0. -1.
         -1   -1    0    0    0  501 -0.00000000000E+00 -0.00000000000E+00 -0.48391159013E+03  0.48391159013E+03  0.00000000000E+00 0.  1.
         24    2    1    2    0    0 -0.31612374887E+03 -0.80996461195E+02 -0.30432892853E+03  0.45290830111E+03  0.77557598889E+02 0.  0.
        254    2    1    2    0    0  0.31612374887E+03  0.80996461195E+02  0.19582693696E+04  0.21688553202E+04  0.87328106863E+03 0.  0.
         23    2    4    4    0    0  0.42501391620E+03 -0.25414950285E+03  0.15070454884E+04  0.15888989526E+04  0.90470873391E+02 0.  0.
         23    2    4    4    0    0 -0.10889016733E+03  0.33514596404E+03  0.45122388119E+03  0.57995636754E+03  0.92555451195E+02 0.  0.
          2    1    3    3  502    0 -0.10916001636E+03 -0.33975622998E+02 -0.59462932696E+02  0.12886462857E+03  0.00000000000E+00 0. -1.
         -1    1    3    3    0  502 -0.20696373251E+03 -0.47020838196E+02 -0.24486599584E+03  0.32404367254E+03  0.00000000000E+00 0.  1.
         13    1    5    5    0    0  0.26138284462E+00  0.55367163711E+01  0.17790379249E+02  0.18633870854E+02  0.00000000000E+00 0. -1.
        -13    1    5    5    0    0  0.42475253336E+03 -0.25968621922E+03  0.14892551091E+04  0.15702650818E+04  0.00000000000E+00 0.  1.
          3    1    6    6  503    0 -0.92746064079E+01  0.17805115812E+03  0.21681073617E+03  0.28070469991E+03  0.00000000000E+00 0. -1.
         -3    1    6    6    0  503 -0.99615560924E+02  0.15709480592E+03  0.23441314502E+03  0.29925166764E+03  0.00000000000E+00 0.  1.
<mgrwt>
<rscale>  0 0.20342383E+04</rscale>
<asrwt>0</asrwt>
<pdfrwt beam="1">  1        2 0.32890031E+00 0.20342383E+04</pdfrwt>
<pdfrwt beam="2">  1       -1 0.74447938E-01 0.20342383E+04</pdfrwt>
<totfact> 0.10716969E+01</totfact>
</mgrwt>
</event>
<event>
12    7  0.1711607E-007  0.1733056E+04  0.7818608E-02  0.8742733E-01
          2   -1    0    0  501    0  0.00000000000E+00  0.00000000000E+00  0.71675497213E+03  0.71675497213E+03  0.00000000000E+00 0. -1.
         -1   -1    0    0    0  501 -0.00000000000E+00 -0.00000000000E+00 -0.10475976193E+04  0.10475976193E+04  0.00000000000E+00 0.  1.
         24    2    1    2    0    0  0.40027702495E+03  0.24640499825E+03 -0.54750635250E+03  0.72602094696E+03  0.80038050607E+02 0.  0.
        254    2    1    2    0    0 -0.40027702495E+03 -0.24640499825E+03  0.21666370529E+03  0.10383316445E+04  0.90014016848E+03 0.  0.
         23    2    4    4    0    0 -0.21510054153E+03 -0.42984640460E+02  0.54847257307E+03  0.59774702586E+03  0.91451742634E+02 0.  0.
         23    2    4    4    0    0 -0.18517648342E+03 -0.20342035779E+03 -0.33180886778E+03  0.44058461864E+03  0.91364705844E+02 0.  0.
          4    1    3    3  502    0  0.89591654542E+02  0.19616888113E+02 -0.93450340716E+02  0.13093682844E+03  0.00000000000E+00 0. -1.
         -3    1    3    3    0  502  0.31068537041E+03  0.22678811013E+03 -0.45405601178E+03  0.59508411852E+03  0.00000000000E+00 0.  1.
         13    1    5    5    0    0 -0.57515814671E+02  0.28960738844E+02  0.14466189914E+03  0.15834727151E+03  0.00000000000E+00 0. -1.
        -13    1    5    5    0    0 -0.15758472686E+03 -0.71945379304E+02  0.40381067393E+03  0.43939975435E+03  0.00000000000E+00 0.  1.
          3    1    6    6  503    0 -0.18425105524E+03 -0.21207288037E+03 -0.31863204055E+03  0.42479375609E+03  0.00000000000E+00 0. -1.
         -3    1    6    6    0  503 -0.92542818089E+00  0.86525225852E+01 -0.13176827232E+02  0.15790862557E+02  0.00000000000E+00 0.  1.
<mgrwt>
<rscale>  0 0.17330560E+04</rscale>
<asrwt>0</asrwt>
<pdfrwt beam="1">  1        2 0.11027000E+00 0.17330560E+04</pdfrwt>
<pdfrwt beam="2">  1       -1 0.16116886E+00 0.17330560E+04</pdfrwt>
<totfact> 0.12337504E+01</totfact>
</mgrwt>
</event>
<event>
12    7  0.1711607E-007  0.1655952E+04  0.7818608E-02  0.8786893E-01
          2   -1    0    0  501    0  0.00000000000E+00  0.00000000000E+00  0.25895397874E+04  0.25895397874E+04  0.00000000000E+00 0. -1.
         -1   -1    0    0    0  501 -0.00000000000E+00 -0.00000000000E+00 -0.26473583386E+03  0.26473583386E+03  0.00000000000E+00 0.  1.
         24    2    1    2    0    0  0.30988243558E+03 -0.44645874770E+03  0.12024864907E+04  0.13219748067E+04  0.79316404242E+02 0.  0.
        254    2    1    2    0    0 -0.30988243558E+03  0.44645874770E+03  0.11223174628E+04  0.15323008145E+04  0.89050365612E+03 0.  0.
         23    2    4    4    0    0  0.17048186505E+03 -0.16318905721E+03  0.19504367532E+03  0.31950094471E+03  0.91345956026E+02 0.  0.
         23    2    4    4    0    0 -0.48036430063E+03  0.60964780492E+03  0.92727378751E+03  0.12127998698E+04  0.92879168201E+02 0.  0.
          2    1    3    3  502    0  0.18611214600E+03 -0.31199126230E+03  0.86477743210E+03  0.93798522681E+03  0.00000000000E+00 0. -1.
         -1    1    3    3    0  502  0.12377028958E+03 -0.13446748540E+03  0.33770905858E+03  0.38398957988E+03  0.00000000000E+00 0.  1.
         13    1    5    5    0    0  0.17536474056E+03 -0.16456297556E+03  0.17139256648E+03  0.29531199942E+03  0.00000000000E+00 0.  1.
        -13    1    5    5    0    0 -0.48828755095E+01  0.13739183457E+01  0.23651108840E+02  0.24188945290E+02  0.00000000000E+00 0. -1.
          2    1    6    6  503    0 -0.31586773991E+03  0.33614068408E+03  0.58174620865E+03  0.74242281746E+03  0.00000000000E+00 0. -1.
         -2    1    6    6    0  503 -0.16449656073E+03  0.27350712084E+03  0.34552757886E+03  0.47037705237E+03  0.00000000000E+00 0.  1.
<mgrwt>
<rscale>  0 0.16559517E+04</rscale>
<asrwt>0</asrwt>
<pdfrwt beam="1">  1        2 0.39839072E+00 0.16559517E+04</pdfrwt>
<pdfrwt beam="2">  1       -1 0.40728591E-01 0.16559517E+04</pdfrwt>
<totfact> 0.19820782E+01</totfact>
</mgrwt>
</event>
<event>
12    7  0.1711607E-007  0.1616151E+04  0.7818608E-02  0.8810687E-01
          2   -1    0    0  501    0  0.00000000000E+00  0.00000000000E+00  0.97625266649E+03  0.97625266649E+03  0.00000000000E+00 0. -1.
         -1   -1    0    0    0  501 -0.00000000000E+00 -0.00000000000E+00 -0.66886967949E+03  0.66886967949E+03  0.00000000000E+00 0.  1.
         24    2    1    2    0    0  0.14678928586E+03 -0.10477517531E+03  0.63404160606E+03  0.66412160675E+03  0.80770158661E+02 0.  0.
        254    2    1    2    0    0 -0.14678928586E+03  0.10477517531E+03 -0.32665861905E+03  0.98100073924E+03  0.90726603881E+03 0.  0.
         23    2    4    4    0    0  0.28013031903E+03 -0.20557677695E+03 -0.10884738931E+02  0.35908070028E+03  0.89920325350E+02 0.  0.
         23    2    4    4    0    0 -0.42691960488E+03  0.31035195226E+03 -0.31577388012E+03  0.62192003896E+03  0.92155890686E+02 0.  0.
          4    1    3    3  502    0  0.72055270799E+02 -0.79971231689E+02  0.25164055180E+03  0.27369751051E+03  0.00000000000E+00 0. -1.
         -3    1    3    3    0  502  0.74734015060E+02 -0.24803943619E+02  0.38240105425E+03  0.39042409624E+03  0.00000000000E+00 0.  1.
         13    1    5    5    0    0  0.19090027096E+03 -0.17873277141E+03 -0.32219704407E+02  0.26348894926E+03  0.00000000000E+00 0. -1.
        -13    1    5    5    0    0  0.89230048063E+02 -0.26844005539E+02  0.21334965475E+02  0.95591751018E+02  0.00000000000E+00 0.  1.
          3    1    6    6  503    0 -0.35509666283E+02  0.64212467534E+02 -0.45979166058E+02  0.86592500240E+02  0.00000000000E+00 0. -1.
         -3    1    6    6    0  503 -0.39140993860E+03  0.24613948472E+03 -0.26979471406E+03  0.53532753872E+03  0.00000000000E+00 0.  1.
<mgrwt>
<rscale>  0 0.16161507E+04</rscale>
<asrwt>0</asrwt>
<pdfrwt beam="1">  1        2 0.15019272E+00 0.16161507E+04</pdfrwt>
<pdfrwt beam="2">  1       -1 0.10290303E+00 0.16161507E+04</pdfrwt>
<totfact> 0.25450395E+01</totfact>
</mgrwt>
</event>
<event>
12    7  0.1711607E-007  0.1693609E+04  0.7818608E-02  0.8765018E-01
          2   -1    0    0  501    0  0.00000000000E+00  0.00000000000E+00  0.91129054913E+03  0.91129054913E+03  0.00000000000E+00 0. -1.
         -1   -1    0    0    0  501 -0.00000000000E+00 -0.00000000000E+00 -0.78688194442E+03  0.78688194442E+03  0.00000000000E+00 0.  1.
         24    2    1    2    0    0 -0.39329134740E+03  0.45476657871E+03  0.17488198346E+01  0.60664005534E+03  0.80736443607E+02 0.  0.
        254    2    1    2    0    0  0.39329134740E+03 -0.45476657871E+03  0.12265978488E+03  0.10915324382E+04  0.90272194821E+03 0.  0.
         23    2    4    4    0    0  0.52747092236E+03 -0.58211242474E+02  0.31275910458E+03  0.62278965646E+03  0.91839947772E+02 0.  0.
         23    2    4    4    0    0 -0.13417957496E+03 -0.39655533623E+03 -0.19009931971E+03  0.46874278175E+03  0.91223632127E+02 0.  0.
          2    1    3    3  502    0 -0.31675285955E+03  0.33975319107E+03  0.30582377527E+02  0.46551035079E+03  0.00000000000E+00 0. -1.
         -1    1    3    3    0  502 -0.76538487843E+02  0.11501338764E+03 -0.28833557692E+02  0.14112970455E+03  0.00000000000E+00 0.  1.
         13    1    5    5    0    0  0.50613552277E+03 -0.62531234018E+02  0.31718704528E+03  0.60057551093E+03  0.00000000000E+00 0. -1.
        -13    1    5    5    0    0  0.21335399590E+02  0.43199915440E+01 -0.44279406992E+01  0.22214145526E+02  0.00000000000E+00 0.  1.
          4    1    6    6  503    0 -0.13597668285E+03 -0.39985542150E+03 -0.19264415026E+03  0.46420446466E+03  0.00000000000E+00 0. -1.
         -4    1    6    6    0  503  0.17971078866E+01  0.33000852649E+01  0.25448305497E+01  0.45383170932E+01  0.00000000000E+00 0.  1.
<mgrwt>
<rscale>  0 0.16936093E+04</rscale>
<asrwt>0</asrwt>
<pdfrwt beam="1">  1        2 0.14019855E+00 0.16936093E+04</pdfrwt>
<pdfrwt beam="2">  1       -1 0.12105876E+00 0.16936093E+04</pdfrwt>
<totfact> 0.18968084E+01</totfact>
</mgrwt>
</event>
<event>
12    7  0.1711607E-007  0.1822755E+04  0.7818608E-02  0.8694291E-01
         -1   -1    0    0    0  501 -0.00000000000E+00  0.00000000000E+00  0.59973689915E+03  0.59973689915E+03  0.00000000000E+00 0.  1.
          2   -1    0    0  501    0  0.00000000000E+00 -0.00000000000E+00 -0.13849558664E+04  0.13849558664E+04  0.00000000000E+00 0. -1.
         24    2    1    2    0    0 -0.59485937031E+02  0.43738440657E+02  0.40521496159E+03  0.41962232236E+03  0.80200376774E+02 0.  0.
        254    2    1    2    0    0  0.59485937031E+02 -0.43738440657E+02 -0.11904339288E+04  0.15650704431E+04  0.10133414653E+04 0.  0.
         23    2    4    4    0    0  0.88905508971E+02 -0.43240648520E+03 -0.18967319201E+03  0.48809570610E+03  0.85918220295E+02 0.  0.
         23    2    4    4    0    0 -0.29419571940E+02  0.38866804454E+03 -0.10007607368E+04  0.10769747370E+04  0.80150931999E+02 0.  0.
          4    1    3    3  502    0 -0.40421803582E+02 -0.33079113451E+01  0.72635720663E+02  0.83191420222E+02  0.00000000000E+00 0. -1.
         -3    1    3    3    0  502 -0.19064133449E+02  0.47046352002E+02  0.33257924093E+03  0.33643090214E+03  0.00000000000E+00 0.  1.
         13    1    5    5    0    0  0.40567262424E+02 -0.32113778866E+03 -0.10553706826E+03  0.34046035726E+03  0.00000000000E+00 0. -1.
        -13    1    5    5    0    0  0.48338246547E+02 -0.11126869654E+03 -0.84136123748E+02  0.14763534884E+03  0.00000000000E+00 0.  1.
          2    1    6    6  503    0 -0.49642110799E+01  0.24661738122E+03 -0.72502910604E+03  0.76584070192E+03  0.00000000000E+00 0. -1.
         -2    1    6    6    0  503 -0.24455360860E+02  0.14205066332E+03 -0.27573163073E+03  0.31113403512E+03  0.00000000000E+00 0.  1.
<mgrwt>
<rscale>  0 0.18227552E+04</rscale>
<asrwt>0</asrwt>
<pdfrwt beam="1">  1        2 0.21307013E+00 0.18227552E+04</pdfrwt>
<pdfrwt beam="2">  1       -1 0.92267216E-01 0.18227552E+04</pdfrwt>
<totfact> 0.18122777E+01</totfact>
</mgrwt>
</event>
<event>
12    7  0.1711607E-007  0.1419612E+04  0.7818608E-02  0.8939743E-01
         -1   -1    0    0    0  501 -0.00000000000E+00  0.00000000000E+00  0.57782462738E+03  0.57782462738E+03  0.00000000000E+00 0.  1.
          2   -1    0    0  501    0  0.00000000000E+00 -0.00000000000E+00 -0.87193361951E+03  0.87193361951E+03  0.00000000000E+00 0. -1.
         24    2    1    2    0    0 -0.79705682510E+02 -0.15947276972E+03 -0.48343783171E+03  0.52141657693E+03  0.79865821652E+02 0.  0.
        254    2    1    2    0    0  0.79705682510E+02  0.15947276972E+03  0.18932883957E+03  0.92834166996E+03  0.89117242247E+03 0.  0.
         23    2    4    4    0    0  0.46861512476E+02  0.52059273214E+03  0.15603041205E+03  0.55295920861E+03  0.90584782333E+02 0.  0.
         23    2    4    4    0    0  0.32844170034E+02 -0.36111996242E+03  0.33298427526E+02  0.37538246135E+03  0.91196711827E+02 0.  0.
          4    1    3    3  502    0 -0.91216981065E+02 -0.10673750003E+03 -0.37142432189E+03  0.39707613683E+03  0.00000000000E+00 0. -1.
         -3    1    3    3    0  502  0.11511298555E+02 -0.52735269692E+02 -0.11201350982E+03  0.12434044010E+03  0.00000000000E+00 0.  1.
         13    1    5    5    0    0  0.70290497088E+02  0.45059793617E+03  0.14349851046E+03  0.47809107560E+03  0.00000000000E+00 0.  1.
        -13    1    5    5    0    0 -0.23428984612E+02  0.69994795970E+02  0.12531901586E+02  0.74868133009E+02  0.00000000000E+00 0. -1.
          2    1    6    6  503    0  0.23331980576E+02 -0.72611716969E+02  0.41049240837E+02  0.86613410810E+02  0.00000000000E+00 0. -1.
         -2    1    6    6    0  503  0.95121894578E+01 -0.28850824545E+03 -0.77508133112E+01  0.28876905054E+03  0.00000000000E+00 0.  1.
<mgrwt>
<rscale>  0 0.14196122E+04</rscale>
<asrwt>0</asrwt>
<pdfrwt beam="1">  1        2 0.13414363E+00 0.14196122E+04</pdfrwt>
<pdfrwt beam="2">  1       -1 0.88896097E-01 0.14196122E+04</pdfrwt>
<totfact> 0.42215205E+01</totfact>
</mgrwt>
</event>
<event>
12    7  0.1711607E-007  0.1545968E+04  0.7818608E-02  0.8854448E-01
          2   -1    0    0  501    0  0.00000000000E+00  0.00000000000E+00  0.40227410447E+03  0.40227410447E+03  0.00000000000E+00 0. -1.
         -1   -1    0    0    0  501 -0.00000000000E+00 -0.00000000000E+00 -0.14853153868E+04  0.14853153868E+04  0.00000000000E+00 0.  1.
         24    2    1    2    0    0 -0.29453674070E+03 -0.18753981080E+03  0.83939995082E+02  0.36766690192E+03  0.78803272388E+02 0.  0.
        254    2    1    2    0    0  0.29453674070E+03  0.18753981080E+03 -0.11669812774E+04  0.15199225893E+04  0.90906342107E+03 0.  0.
         23    2    4    4    0    0  0.48714499742E+03 -0.17887576246E+03 -0.80669193835E+03  0.96368496902E+03  0.92898058140E+02 0.  0.
         23    2    4    4    0    0 -0.19260825671E+03  0.36641557326E+03 -0.36028933903E+03  0.55623762031E+03  0.90739018876E+02 0.  0.
          2    1    3    3  502    0 -0.25464949226E+03 -0.12602368410E+03  0.58696863109E+02  0.29012696290E+03  0.00000000000E+00 0. -1.
         -1    1    3    3    0  502 -0.39887248438E+02 -0.61516126695E+02  0.25243131973E+02  0.77539939020E+02  0.00000000000E+00 0.  1.
         13    1    5    5    0    0  0.41344133740E+03 -0.11409953173E+03 -0.64660505565E+03  0.77591915855E+03  0.00000000000E+00 0.  1.
        -13    1    5    5    0    0  0.73703660016E+02 -0.64776230735E+02 -0.16008688270E+03  0.18776581047E+03  0.00000000000E+00 0. -1.
          3    1    6    6  503    0 -0.82897285007E+01  0.90650496136E+02 -0.61902401556E+02  0.11008242079E+03  0.00000000000E+00 0. -1.
         -3    1    6    6    0  503 -0.18431852821E+03  0.27576507712E+03 -0.29838693747E+03  0.44615519952E+03  0.00000000000E+00 0.  1.
<mgrwt>
<rscale>  0 0.15459676E+04</rscale>
<asrwt>0</asrwt>
<pdfrwt beam="1">  1        2 0.61888322E-01 0.15459676E+04</pdfrwt>
<pdfrwt beam="2">  1       -1 0.22851006E+00 0.15459676E+04</pdfrwt>
<totfact> 0.84046292E+00</totfact>
</mgrwt>
</event>
<event>
12    7  0.1711607E-007  0.1738074E+04  0.7818608E-02  0.8739942E-01
          2   -1    0    0  501    0  0.00000000000E+00  0.00000000000E+00  0.11539882764E+04  0.11539882764E+04  0.00000000000E+00 0. -1.
         -1   -1    0    0    0  501 -0.00000000000E+00 -0.00000000000E+00 -0.65444799714E+03  0.65444799714E+03  0.00000000000E+00 0.  1.
         24    2    1    2    0    0 -0.18438119389E+03 -0.29974696620E+03 -0.36937210146E+03  0.51670093147E+03  0.81850075361E+02 0.  0.
        254    2    1    2    0    0  0.18438119389E+03  0.29974696620E+03  0.86891238074E+03  0.12917353421E+04  0.88866574154E+03 0.  0.
         23    2    4    4    0    0 -0.25420320825E+03 -0.10671441925E+03  0.87174585193E+02  0.30325545606E+03  0.91417859144E+02 0.  0.
         23    2    4    4    0    0  0.43858440213E+03  0.40646138544E+03  0.78173779554E+03  0.98847988602E+03  0.91713512838E+02 0.  0.
          4    1    3    3  502    0 -0.64698608541E+02 -0.16147553290E+03 -0.13963766669E+03  0.22306711015E+03  0.00000000000E+00 0. -1.
         -3    1    3    3    0  502 -0.11968258534E+03 -0.13827143330E+03 -0.22973443477E+03  0.29363382132E+03  0.00000000000E+00 0.  1.
         13    1    5    5    0    0 -0.44010016355E+02 -0.59178048291E+02  0.10360322246E+02  0.74473211400E+02  0.00000000000E+00 0.  1.
        -13    1    5    5    0    0 -0.21019319189E+03 -0.47536370955E+02  0.76814262947E+02  0.22878224466E+03  0.00000000000E+00 0. -1.
          3    1    6    6  503    0  0.32986927206E+03  0.30158347018E+03  0.64501612461E+03  0.78473697959E+03  0.00000000000E+00 0. -1.
         -3    1    6    6    0  503  0.10871513007E+03  0.10487791526E+03  0.13672167093E+03  0.20374290643E+03  0.00000000000E+00 0.  1.
<mgrwt>
<rscale>  0 0.17380740E+04</rscale>
<asrwt>0</asrwt>
<pdfrwt beam="1">  1        2 0.17753666E+00 0.17380740E+04</pdfrwt>
<pdfrwt beam="2">  1       -1 0.10068431E+00 0.17380740E+04</pdfrwt>
<totfact> 0.20498565E+01</totfact>
</mgrwt>
</event>
<event>
12    7  0.1711607E-007  0.1242987E+04  0.7818608E-02  0.9076040E-01
         -1   -1    0    0    0  501 -0.00000000000E+00  0.00000000000E+00  0.38089984488E+03  0.38089984488E+03  0.00000000000E+00 0.  1.
          2   -1    0    0  501    0  0.00000000000E+00 -0.00000000000E+00 -0.10140570281E+04  0.10140570281E+04  0.00000000000E+00 0. -1.
         24    2    1    2    0    0 -0.22979701557E+03 -0.72537593920E+02 -0.31748989012E+03  0.40808829734E+03  0.87566301742E+02 0.  0.
        254    2    1    2    0    0  0.22979701557E+03  0.72537593920E+02 -0.31566729311E+03  0.98686857565E+03  0.90343531853E+03 0.  0.
         23    2    4    4    0    0  0.47664204872E+03 -0.22172766781E+03 -0.12583468031E+03  0.54893541442E+03  0.95629081094E+02 0.  0.
         23    2    4    4    0    0 -0.24684503315E+03  0.29426526173E+03 -0.18983261279E+03  0.43793316123E+03  0.90689129274E+02 0.  0.
          4    1    3    3  502    0 -0.22432846857E+03 -0.85890537660E+02 -0.30886608775E+03  0.39127829793E+03  0.00000000000E+00 0. -1.
         -3    1    3    3    0  502 -0.54685469992E+01  0.13352943740E+02 -0.86238023742E+01  0.16809999411E+02  0.00000000000E+00 0.  1.
         13    1    5    5    0    0  0.17632784050E+03 -0.13209572302E+03 -0.64704226488E+02  0.22962452896E+03  0.00000000000E+00 0. -1.
        -13    1    5    5    0    0  0.30031420822E+03 -0.89631944795E+02 -0.61130453826E+02  0.31931088546E+03  0.00000000000E+00 0.  1.
          4    1    6    6  503    0 -0.44191489879E+02  0.94816706190E+02 -0.85336207864E+02  0.13500134786E+03  0.00000000000E+00 0. -1.
         -4    1    6    6    0  503 -0.20265354327E+03  0.19944855554E+03 -0.10449640493E+03  0.30293181337E+03  0.00000000000E+00 0.  1.
<mgrwt>
<rscale>  0 0.12429870E+04</rscale>
<asrwt>0</asrwt>
<pdfrwt beam="1">  1        2 0.15600877E+00 0.12429870E+04</pdfrwt>
<pdfrwt beam="2">  1       -1 0.58599977E-01 0.12429870E+04</pdfrwt>
<totfact> 0.81715915E+01</totfact>
</mgrwt>
</event>
<event>
12    7  0.1711607E-007  0.3025265E+04  0.7818608E-02  0.8236553E-01
          2   -1    0    0  501    0  0.00000000000E+00  0.00000000000E+00  0.13091798791E+04  0.13091798791E+04  0.00000000000E+00 0. -1.
         -1   -1    0    0    0  501 -0.00000000000E+00 -0.00000000000E+00 -0.17477023994E+04  0.17477023994E+04  0.00000000000E+00 0.  1.
         24    2    1    2    0    0  0.54697883231E+03  0.73155103967E+03 -0.12410249381E+04  0.15430078675E+04  0.79859974203E+02 0.  0.
        254    2    1    2    0    0 -0.54697883231E+03 -0.73155103967E+03  0.80250241779E+03  0.15138744110E+04  0.90191620189E+03 0.  0.
         23    2    4    4    0    0 -0.50821319416E+03  0.20062348151E+02  0.23363219843E+03  0.56678262583E+03  0.89305051724E+02 0.  0.
         23    2    4    4    0    0 -0.38765638146E+02 -0.75161338782E+03  0.56887021936E+03  0.94709178522E+03  0.83331048864E+02 0.  0.
          2    1    3    3  502    0  0.77995582366E+02  0.64204386173E+02 -0.12609696156E+03  0.16157338205E+03  0.00000000000E+00 0. -1.
         -1    1    3    3    0  502  0.46898324994E+03  0.66734665350E+03 -0.11149279765E+04  0.13814344854E+04  0.00000000000E+00 0.  1.
         13    1    5    5    0    0 -0.46499546927E+03 -0.50094700721E+01  0.19803069486E+03  0.50543252501E+03  0.00000000000E+00 0. -1.
        -13    1    5    5    0    0 -0.43217724897E+02  0.25071818223E+02  0.35601503574E+02  0.61350100823E+02  0.00000000000E+00 0.  1.
          1    1    6    6  503    0  0.91725955158E+01 -0.46692716954E+03  0.38024331705E+03  0.60223757631E+03  0.00000000000E+00 0. -1.
         -1    1    6    6    0  503 -0.47938233661E+02 -0.28468621828E+03  0.18862690231E+03  0.34485420890E+03  0.00000000000E+00 0.  1.
<mgrwt>
<rscale>  0 0.30252648E+04</rscale>
<asrwt>0</asrwt>
<pdfrwt beam="1">  1        2 0.20141229E+00 0.30252648E+04</pdfrwt>
<pdfrwt beam="2">  1       -1 0.26887729E+00 0.30252648E+04</pdfrwt>
<totfact> 0.83476141E-01</totfact>
</mgrwt>
</event>
<event>
12    7  0.1711607E-007  0.1893301E+04  0.7818608E-02  0.8658198E-01
         -1   -1    0    0    0  501 -0.00000000000E+00  0.00000000000E+00  0.58561438485E+03  0.58561438485E+03  0.00000000000E+00 0.  1.
          2   -1    0    0  501    0  0.00000000000E+00 -0.00000000000E+00 -0.15302689525E+04  0.15302689525E+04  0.00000000000E+00 0. -1.
         24    2    1    2    0    0 -0.22601807476E+03 -0.51915071775E+03  0.14704437556E+03  0.59047004134E+03  0.80194659880E+02 0.  0.
        254    2    1    2    0    0  0.22601807476E+03  0.51915071775E+03 -0.10916989432E+04  0.15254132960E+04  0.90248407364E+03 0.  0.
         23    2    4    4    0    0  0.41969492010E+03 -0.38152164998E+02 -0.26724052221E+03  0.50756658218E+03  0.92773514463E+02 0.  0.
         23    2    4    4    0    0 -0.19367684534E+03  0.55730288275E+03 -0.82445842097E+03  0.10178467138E+04  0.90460053879E+02 0.  0.
          4    1    3    3  502    0  0.31830063744E+01 -0.46100438629E+02  0.12617500816E+02  0.47901808924E+02  0.00000000000E+00 0. -1.
         -3    1    3    3    0  502 -0.22920108113E+03 -0.47305027912E+03  0.13442687474E+03  0.54256823241E+03  0.00000000000E+00 0.  1.
         13    1    5    5    0    0  0.22522998046E+03 -0.21707862625E+02 -0.88629142705E+02  0.24301214031E+03  0.00000000000E+00 0.  1.
        -13    1    5    5    0    0  0.19446493963E+03 -0.16444302373E+02 -0.17861137950E+03  0.26455444187E+03  0.00000000000E+00 0. -1.
          1    1    6    6  503    0 -0.56752973371E+02  0.10751842175E+03 -0.11940976272E+03  0.17041068756E+03  0.00000000000E+00 0. -1.
         -1    1    6    6    0  503 -0.13692387197E+03  0.44978446100E+03 -0.70504865825E+03  0.84743602624E+03  0.00000000000E+00 0.  1.
<mgrwt>
<rscale>  0 0.18933014E+04</rscale>
<asrwt>0</asrwt>
<pdfrwt beam="1">  1        2 0.23542599E+00 0.18933014E+04</pdfrwt>
<pdfrwt beam="2">  1       -1 0.90094521E-01 0.18933014E+04</pdfrwt>
<totfact> 0.15702904E+01</totfact>
</mgrwt>
</event>
<event>
12    7  0.1711607E-007  0.3734733E+04  0.7818608E-02  0.8060308E-01
         -1   -1    0    0    0  501 -0.00000000000E+00  0.00000000000E+00  0.18700171524E+04  0.18700171524E+04  0.00000000000E+00 0.  1.
          2   -1    0    0  501    0  0.00000000000E+00 -0.00000000000E+00 -0.18647198951E+04  0.18647198951E+04  0.00000000000E+00 0. -1.
         24    2    1    2    0    0 -0.13181536724E+04 -0.10970473436E+04  0.38911745551E+03  0.17604171976E+04  0.81328574807E+02 0.  0.
        254    2    1    2    0    0  0.13181536724E+04  0.10970473436E+04 -0.38382019826E+03  0.19743198499E+04  0.89976605123E+03 0.  0.
         23    2    4    4    0    0  0.63272410891E+03  0.99789780002E+03 -0.46051780771E+03  0.12715290601E+04  0.92572577288E+02 0.  0.
         23    2    4    4    0    0  0.68542956353E+03  0.99149543578E+02  0.76697609455E+02  0.70279078986E+03  0.91586311585E+02 0.  0.
          2    1    3    3  502    0 -0.77468498787E+02 -0.90937916702E+02  0.23554388122E+02  0.12176157932E+03  0.00000000000E+00 0. -1.
         -1    1    3    3    0  502 -0.12406851737E+04 -0.10061094269E+04  0.36556306738E+03  0.16386556183E+04  0.00000000000E+00 0.  1.
         13    1    5    5    0    0  0.53226166873E+03  0.83496437445E+03 -0.42156502186E+03  0.10761900660E+04  0.00000000000E+00 0. -1.
        -13    1    5    5    0    0  0.10046244018E+03  0.16293342557E+03 -0.38952785848E+02  0.19533899401E+03  0.00000000000E+00 0.  1.
          3    1    6    6  503    0  0.67051881051E+03  0.97525512571E+02  0.88996928406E+02  0.68339384993E+03  0.00000000000E+00 0. -1.
         -3    1    6    6    0  503  0.14910753019E+02  0.16240310072E+01 -0.12299318951E+02  0.19396939938E+02  0.00000000000E+00 0.  1.
<mgrwt>
<rscale>  0 0.37347333E+04</rscale>
<asrwt>0</asrwt>
<pdfrwt beam="1">  1        2 0.28687998E+00 0.37347333E+04</pdfrwt>
<pdfrwt beam="2">  1       -1 0.28769495E+00 0.37347333E+04</pdfrwt>
<totfact> 0.28912319E-01</totfact>
</mgrwt>
</event>
<event>
12    7  0.1711607E-007  0.1818076E+04  0.7818608E-02  0.8696745E-01
         -1   -1    0    0    0  501 -0.00000000000E+00  0.00000000000E+00  0.60918501506E+03  0.60918501506E+03  0.00000000000E+00 0.  1.
          2   -1    0    0  501    0  0.00000000000E+00 -0.00000000000E+00 -0.13564850910E+04  0.13564850910E+04  0.00000000000E+00 0. -1.
         24    2    1    2    0    0 -0.61724684463E+03  0.26366671999E+03 -0.87086840811E+02  0.68158996724E+03  0.80417405808E+02 0.  0.
        254    2    1    2    0    0  0.61724684463E+03 -0.26366671999E+03 -0.66021323514E+03  0.12840801388E+04  0.87319326651E+03 0.  0.
         23    2    4    4    0    0  0.49479133204E+03  0.25114109692E+03 -0.30616201732E+03  0.64040060876E+03  0.92127335913E+02 0.  0.
         23    2    4    4    0    0  0.12245551260E+03 -0.51480781691E+03 -0.35405121782E+03  0.64367953009E+03  0.94597207684E+02 0.  0.
          4    1    3    3  502    0 -0.13802274937E+03  0.67561922566E+02 -0.53453378996E+02  0.16270266270E+03  0.00000000000E+00 0. -1.
         -3    1    3    3    0  502 -0.47922409527E+03  0.19610479742E+03 -0.33633461815E+02  0.51888730454E+03  0.00000000000E+00 0.  1.
         13    1    5    5    0    0  0.27063949061E+03  0.13770540218E+03 -0.21937550426E+03  0.37461196396E+03  0.00000000000E+00 0. -1.
        -13    1    5    5    0    0  0.22415184142E+03  0.11343569474E+03 -0.86786513060E+02  0.26578864480E+03  0.00000000000E+00 0.  1.
          4    1    6    6  503    0  0.79822958995E+02 -0.46404231394E+03 -0.30187421616E+03  0.55931656179E+03  0.00000000000E+00 0. -1.
         -4    1    6    6    0  503  0.42632553601E+02 -0.50765502964E+02 -0.52177001655E+02  0.84362968295E+02  0.00000000000E+00 0.  1.
<mgrwt>
<rscale>  0 0.18180763E+04</rscale>
<asrwt>0</asrwt>
<pdfrwt beam="1">  1        2 0.20869001E+00 0.18180763E+04</pdfrwt>
<pdfrwt beam="2">  1       -1 0.93720771E-01 0.18180763E+04</pdfrwt>
<totfact> 0.18182547E+01</totfact>
</mgrwt>
</event>
<event>
12    7  0.1711607E-007  0.1378522E+04  0.7818608E-02  0.8969514E-01
         -1   -1    0    0    0  501 -0.00000000000E+00  0.00000000000E+00  0.83025003871E+03  0.83025003871E+03  0.00000000000E+00 0.  1.
          2   -1    0    0  501    0  0.00000000000E+00 -0.00000000000E+00 -0.57221424266E+03  0.57221424266E+03  0.00000000000E+00 0. -1.
         24    2    1    2    0    0  0.21332764900E+03 -0.12108268769E+03  0.39381535020E+03  0.47090147108E+03  0.80547888382E+02 0.  0.
        254    2    1    2    0    0 -0.21332764900E+03  0.12108268769E+03 -0.13577955415E+03  0.93156281030E+03  0.88837125072E+03 0.  0.
         23    2    4    4    0    0  0.25822431454E+03  0.39643476393E+02 -0.30849972451E+03  0.41463449041E+03  0.92186109438E+02 0.  0.
         23    2    4    4    0    0 -0.47155196355E+03  0.81439211300E+02  0.17272017036E+03  0.51692831989E+03  0.91591654597E+02 0.  0.
          2    1    3    3  502    0  0.84076583044E+02 -0.92830412897E+02  0.17506084478E+03  0.21525021893E+03  0.00000000000E+00 0. -1.
         -1    1    3    3    0  502  0.12925106596E+03 -0.28252274796E+02  0.21875450543E+03  0.25565125215E+03  0.00000000000E+00 0.  1.
         13    1    5    5    0    0  0.16038800363E+03  0.59042141982E+02 -0.23573442743E+03  0.29117178179E+03  0.00000000000E+00 0.  1.
        -13    1    5    5    0    0  0.97836310910E+02 -0.19398665589E+02 -0.72765297083E+02  0.12346270862E+03  0.00000000000E+00 0. -1.
          3    1    6    6  503    0 -0.10125366988E+03  0.99528532637E+01 -0.90442657220E+00  0.10174567775E+03  0.00000000000E+00 0. -1.
         -3    1    6    6    0  503 -0.37029829366E+03  0.71486358037E+02  0.17362459693E+03  0.41518264214E+03  0.00000000000E+00 0.  1.
<mgrwt>
<rscale>  0 0.13785222E+04</rscale>
<asrwt>0</asrwt>
<pdfrwt beam="1">  1        2 0.88032960E-01 0.13785222E+04</pdfrwt>
<pdfrwt beam="2">  1       -1 0.12773078E+00 0.13785222E+04</pdfrwt>
<totfact> 0.31028082E+01</totfact>
</mgrwt>
</event>
<event>
12    7  0.1711607E-007  0.2263704E+04  0.7818608E-02  0.8492371E-01
         -1   -1    0    0    0  501 -0.00000000000E+00  0.00000000000E+00  0.13407814966E+04  0.13407814966E+04  0.00000000000E+00 0.  1.
          2   -1    0    0  501    0  0.00000000000E+00 -0.00000000000E+00 -0.95547927342E+03  0.95547927342E+03  0.00000000000E+00 0. -1.
         24    2    1    2    0    0 -0.65770150369E+03  0.48580454554E+03 -0.32079742768E+03  0.88180641969E+03  0.78065663313E+02 0.  0.
        254    2    1    2    0    0  0.65770150369E+03 -0.48580454554E+03  0.70609965090E+03  0.14144543504E+04  0.91297703578E+03 0.  0.
         23    2    4    4    0    0  0.46552887643E+03  0.18188137026E+03  0.18691056329E+03  0.54182943441E+03  0.94051101442E+02 0.  0.
         23    2    4    4    0    0  0.19217262726E+03 -0.66768591580E+03  0.51918908761E+03  0.87262491596E+03  0.95823454500E+02 0.  0.
          4    1    3    3  502    0 -0.63105144127E+03  0.48219366328E+03 -0.31444009478E+03  0.85417165935E+03  0.00000000000E+00 0. -1.
         -3    1    3    3    0  502 -0.26650062416E+02  0.36108822597E+01 -0.63573328984E+01  0.27634760340E+02  0.00000000000E+00 0.  1.
         13    1    5    5    0    0  0.41194258395E+03  0.18826674732E+03  0.18017020575E+03  0.48744472882E+03  0.00000000000E+00 0. -1.
        -13    1    5    5    0    0  0.53586292482E+02 -0.63853770539E+01  0.67403575419E+01  0.54384705588E+02  0.00000000000E+00 0.  1.
          1    1    6    6  503    0  0.23817243899E+02 -0.12732448030E+03  0.14343946748E+03  0.19327096321E+03  0.00000000000E+00 0.  1.
         -1    1    6    6    0  503  0.16835538336E+03 -0.54036143551E+03  0.37574962013E+03  0.67935395275E+03  0.00000000000E+00 0. -1.
<mgrwt>
<rscale>  0 0.22637040E+04</rscale>
<asrwt>0</asrwt>
<pdfrwt beam="1">  1        2 0.14699681E+00 0.22637040E+04</pdfrwt>
<pdfrwt beam="2">  1       -1 0.20627408E+00 0.22637040E+04</pdfrwt>
<totfact> 0.38054547E+00</totfact>
</mgrwt>
</event>
<event>
12    7  0.1711607E-007  0.1258338E+04  0.7818608E-02  0.9063272E-01
          2   -1    0    0  501    0  0.00000000000E+00  0.00000000000E+00  0.19882955156E+04  0.19882955156E+04  0.00000000000E+00 0. -1.
         -1   -1    0    0    0  501 -0.00000000000E+00 -0.00000000000E+00 -0.19909183048E+03  0.19909183048E+03  0.00000000000E+00 0.  1.
         24    2    1    2    0    0 -0.11280859894E+03 -0.13508836073E+03  0.27939696837E+02  0.19529213354E+03  0.79898345180E+02 0.  0.
        254    2    1    2    0    0  0.11280859894E+03  0.13508836073E+03  0.17612639883E+04  0.19920952126E+04  0.91401195518E+03 0.  0.
         23    2    4    4    0    0 -0.21092051040E+03  0.67721068939E+02  0.15913168144E+04  0.16092140296E+04  0.90592408469E+02 0.  0.
         23    2    4    4    0    0  0.32372910934E+03  0.67367291793E+02  0.16994717398E+03  0.38288118300E+03  0.91526335662E+02 0.  0.
          4    1    3    3  502    0 -0.90747549721E+01 -0.37593721892E+02  0.35823134744E+02  0.52715615204E+02  0.00000000000E+00 0. -1.
         -3    1    3    3    0  502 -0.10373384397E+03 -0.97494638841E+02 -0.78834379067E+01  0.14257651834E+03  0.00000000000E+00 0.  1.
         13    1    5    5    0    0 -0.37006377344E+02 -0.22502580493E+02  0.30625349851E+03  0.30930089466E+03  0.00000000000E+00 0.  1.
        -13    1    5    5    0    0 -0.17391413305E+03  0.90223649432E+02  0.12850633158E+04  0.12999131349E+04  0.00000000000E+00 0. -1.
          1    1    6    6  503    0  0.34650608730E+02 -0.20453422040E+02  0.12151336747E+02  0.42031680233E+02  0.00000000000E+00 0. -1.
         -1    1    6    6    0  503  0.28907850061E+03  0.87820713834E+02  0.15779583723E+03  0.34084950277E+03  0.00000000000E+00 0.  1.
<mgrwt>
<rscale>  0 0.12583376E+04</rscale>
<asrwt>0</asrwt>
<pdfrwt beam="1">  1        2 0.30589160E+00 0.12583376E+04</pdfrwt>
<pdfrwt beam="2">  1       -1 0.30629514E-01 0.12583376E+04</pdfrwt>
<totfact> 0.74781063E+01</totfact>
</mgrwt>
</event>
<event>
12    7  0.1711607E-007  0.1645882E+04  0.7818608E-02  0.8792846E-01
          2   -1    0    0  501    0  0.00000000000E+00  0.00000000000E+00  0.18003455387E+04  0.18003455387E+04  0.00000000000E+00 0. -1.
         -1   -1    0    0    0  501 -0.00000000000E+00 -0.00000000000E+00 -0.37616765547E+03  0.37616765547E+03  0.00000000000E+00 0.  1.
         24    2    1    2    0    0  0.20007395227E+03  0.30772906102E+03 -0.68089121635E+02  0.38124437234E+03  0.77358784821E+02 0.  0.
        254    2    1    2    0    0 -0.20007395227E+03 -0.30772906102E+03  0.14922670048E+04  0.17952688218E+04  0.92811775515E+03 0.  0.
         23    2    4    4    0    0  0.36505590231E+03 -0.10724375514E+03  0.55916591346E+03  0.68239079868E+03  0.90684334512E+02 0.  0.
         23    2    4    4    0    0 -0.56512985457E+03 -0.20048530588E+03  0.93310109137E+03  0.11128780231E+04  0.90850080901E+02 0.  0.
          2    1    3    3  502    0  0.20587870549E+02  0.31113962977E+02  0.16544159889E+02  0.40812355142E+02  0.00000000000E+00 0. -1.
         -1    1    3    3    0  502  0.17948608172E+03  0.27661509804E+03 -0.84633281524E+02  0.34043201720E+03  0.00000000000E+00 0.  1.
         13    1    5    5    0    0  0.25176481215E+03 -0.11290690109E+03  0.36558504776E+03  0.45802392525E+03  0.00000000000E+00 0. -1.
        -13    1    5    5    0    0  0.11329109016E+03  0.56631459558E+01  0.19358086569E+03  0.22436687343E+03  0.00000000000E+00 0.  1.
          3    1    6    6  503    0 -0.49256878885E+03 -0.14217629909E+03  0.80849203419E+03  0.95733874941E+03  0.00000000000E+00 0. -1.
         -3    1    6    6    0  503 -0.72561065728E+02 -0.58309006793E+02  0.12460905718E+03  0.15553927371E+03  0.00000000000E+00 0.  1.
<mgrwt>
<rscale>  0 0.16458818E+04</rscale>
<asrwt>0</asrwt>
<pdfrwt beam="1">  1        2 0.27697623E+00 0.16458818E+04</pdfrwt>
<pdfrwt beam="2">  1       -1 0.57871948E-01 0.16458818E+04</pdfrwt>
<totfact> 0.28395955E+01</totfact>
</mgrwt>
</event>
<event>
12    7  0.1711607E-007  0.1638379E+04  0.7818608E-02  0.8797311E-01
         -1   -1    0    0    0  501 -0.00000000000E+00  0.00000000000E+00  0.59088626582E+03  0.59088626582E+03  0.00000000000E+00 0.  1.
          2   -1    0    0  501    0  0.00000000000E+00 -0.00000000000E+00 -0.11357025613E+04  0.11357025613E+04  0.00000000000E+00 0. -1.
         24    2    1    2    0    0 -0.20494571091E+03  0.47301053678E+03 -0.46688149367E+03  0.69998065112E+03  0.79075093972E+02 0.  0.
        254    2    1    2    0    0  0.20494571091E+03 -0.47301053678E+03 -0.77934801848E+02  0.10266081760E+04  0.88436915451E+03 0.  0.
         23    2    4    4    0    0  0.22014345789E+03  0.15904832760E+03 -0.23242067207E+03  0.36910317288E+03  0.91968858109E+02 0.  0.
         23    2    4    4    0    0 -0.15197746975E+02 -0.63205886438E+03  0.15448587022E+03  0.65750500316E+03  0.93367904177E+02 0.  0.
          2    1    3    3  502    0 -0.19616340199E+03  0.42834168924E+03 -0.39453804475E+03  0.61450545301E+03  0.00000000000E+00 0. -1.
         -3    1    3    3    0  502 -0.87823089176E+01  0.44668847541E+02 -0.72343448927E+02  0.85475198117E+02  0.00000000000E+00 0.  1.
         13    1    5    5    0    0  0.12926811849E+03  0.57544562468E+02 -0.72410327443E+02  0.15894929584E+03  0.00000000000E+00 0. -1.
        -13    1    5    5    0    0  0.90875339391E+02  0.10150376513E+03 -0.16001034463E+03  0.21015387704E+03  0.00000000000E+00 0.  1.
          2    1    6    6  503    0  0.19054998300E+02 -0.50763493661E+03  0.14410018495E+03  0.52803521202E+03  0.00000000000E+00 0.  1.
         -2    1    6    6    0  503 -0.34252745274E+02 -0.12442392777E+03  0.10385685272E+02  0.12946979115E+03  0.00000000000E+00 0. -1.
<mgrwt>
<rscale>  0 0.16383785E+04</rscale>
<asrwt>0</asrwt>
<pdfrwt beam="1">  1        2 0.17472347E+00 0.16383785E+04</pdfrwt>
<pdfrwt beam="2">  1       -1 0.90905580E-01 0.16383785E+04</pdfrwt>
<totfact> 0.26689266E+01</totfact>
</mgrwt>
</event>
<event>
12    7  0.1711607E-007  0.1594510E+04  0.7818608E-02  0.8823928E-01
          2   -1    0    0  501    0  0.00000000000E+00  0.00000000000E+00  0.16806637525E+04  0.16806637525E+04  0.00000000000E+00 0. -1.
         -1   -1    0    0    0  501 -0.00000000000E+00 -0.00000000000E+00 -0.37819313182E+03  0.37819313182E+03  0.00000000000E+00 0.  1.
         24    2    1    2    0    0  0.20797631542E+03  0.30825828354E+03  0.96278973198E+03  0.10350728495E+04  0.78322530034E+02 0.  0.
        254    2    1    2    0    0 -0.20797631542E+03 -0.30825828354E+03  0.33968088869E+03  0.10237840348E+04  0.89133233227E+03 0.  0.
         23    2    4    4    0    0 -0.12184477052E+03 -0.38368102637E+03  0.59798333635E+03  0.72664927627E+03  0.91530443297E+02 0.  0.
         23    2    4    4    0    0 -0.86131544892E+02  0.75422742837E+02 -0.25830244766E+03  0.29713475849E+03  0.91987374536E+02 0.  0.
          2    1    3    3  502    0  0.13346771596E+03  0.20563445896E+03  0.52746290724E+03  0.58164961998E+03  0.00000000000E+00 0. -1.
         -1    1    3    3    0  502  0.74508599453E+02  0.10262382458E+03  0.43532682474E+03  0.45342322956E+03  0.00000000000E+00 0.  1.
         13    1    5    5    0    0 -0.78842343021E+02 -0.14287642621E+03  0.18526593955E+03  0.24688713327E+03  0.00000000000E+00 0.  1.
        -13    1    5    5    0    0 -0.43002427503E+02 -0.24080460017E+03  0.41271739680E+03  0.47976214299E+03  0.00000000000E+00 0. -1.
          1    1    6    6  503    0 -0.10039304424E+03  0.68614587793E+02 -0.25258019841E+03  0.28032745427E+03  0.00000000000E+00 0. -1.
         -1    1    6    6    0  503  0.14261499345E+02  0.68081550440E+01 -0.57222492494E+01  0.16807304220E+02  0.00000000000E+00 0.  1.
<mgrwt>
<rscale>  0 0.15945099E+04</rscale>
<asrwt>0</asrwt>
<pdfrwt beam="1">  1        2 0.25856365E+00 0.15945099E+04</pdfrwt>
<pdfrwt beam="2">  1       -1 0.58183560E-01 0.15945099E+04</pdfrwt>
<totfact> 0.32882153E+01</totfact>
</mgrwt>
</event>
<event>
12    7  0.1711607E-007  0.1707629E+04  0.7818608E-02  0.8757025E-01
         -1   -1    0    0    0  501 -0.00000000000E+00  0.00000000000E+00  0.10263240689E+04  0.10263240689E+04  0.00000000000E+00 0.  1.
          2   -1    0    0  501    0  0.00000000000E+00 -0.00000000000E+00 -0.71030090952E+03  0.71030090952E+03  0.00000000000E+00 0. -1.
         24    2    1    2    0    0 -0.44120895372E+03 -0.38612148241E+03 -0.66767077672E+02  0.59540443211E+03  0.79331299611E+02 0.  0.
        254    2    1    2    0    0  0.44120895372E+03  0.38612148241E+03  0.38279023706E+03  0.11412205463E+04  0.90116637182E+03 0.  0.
         23    2    4    4    0    0  0.49665131763E+03  0.32554157025E+02 -0.11730762581E+03  0.51957558301E+03  0.92061951690E+02 0.  0.
         23    2    4    4    0    0 -0.55442363911E+02  0.35356732539E+03  0.50009786287E+03  0.62164496330E+03  0.90889375853E+02 0.  0.
          4    1    3    3  502    0 -0.26760827504E+03 -0.23212390311E+03 -0.79241300197E+02  0.36300809760E+03  0.00000000000E+00 0. -1.
         -3    1    3    3    0  502 -0.17360067867E+03 -0.15399757930E+03  0.12474222526E+02  0.23239633451E+03  0.00000000000E+00 0.  1.
         13    1    5    5    0    0  0.61105714098E+02 -0.24751990451E+02 -0.48287431687E+01  0.66105113927E+02  0.00000000000E+00 0.  1.
        -13    1    5    5    0    0  0.43554560353E+03  0.57306147476E+02 -0.11247888264E+03  0.45347046909E+03  0.00000000000E+00 0. -1.
          2    1    6    6  503    0 -0.57470525887E+02  0.18263606297E+03  0.32314769171E+03  0.37561046777E+03  0.00000000000E+00 0. -1.
         -2    1    6    6    0  503  0.20281619764E+01  0.17093126242E+03  0.17695017116E+03  0.24603449552E+03  0.00000000000E+00 0.  1.
<mgrwt>
<rscale>  0 0.17076287E+04</rscale>
<asrwt>0</asrwt>
<pdfrwt beam="1">  1        2 0.10927706E+00 0.17076287E+04</pdfrwt>
<pdfrwt beam="2">  1       -1 0.15789601E+00 0.17076287E+04</pdfrwt>
<totfact> 0.13243345E+01</totfact>
</mgrwt>
</event>
<event>
12    7  0.1711607E-007  0.1775172E+04  0.7818608E-02  0.8719615E-01
          2   -1    0    0  501    0  0.00000000000E+00  0.00000000000E+00  0.56187430322E+03  0.56187430322E+03  0.00000000000E+00 0. -1.
         -1   -1    0    0    0  501 -0.00000000000E+00 -0.00000000000E+00 -0.14021089957E+04  0.14021089957E+04  0.00000000000E+00 0.  1.
         24    2    1    2    0    0 -0.70262539012E+01 -0.48617775317E+02 -0.10350225381E+04  0.10392925846E+04  0.80276807156E+02 0.  0.
        254    2    1    2    0    0  0.70262539012E+01  0.48617775317E+02  0.19478784558E+03  0.92469071434E+03  0.90260598052E+03 0.  0.
         23    2    4    4    0    0  0.37189179556E+02 -0.41749880492E+03  0.89699795200E+02  0.43803758574E+03  0.90236279192E+02 0.  0.
         23    2    4    4    0    0 -0.30162925655E+02  0.46611658023E+03  0.10508805038E+03  0.48665312859E+03  0.87254230736E+02 0.  0.
          4    1    3    3  502    0 -0.43587005187E+02 -0.26462033338E+02 -0.51660471160E+03  0.51911510696E+03  0.00000000000E+00 0. -1.
         -3    1    3    3    0  502  0.36560751286E+02 -0.22155741979E+02 -0.51841782650E+03  0.52017747766E+03  0.00000000000E+00 0.  1.
         13    1    5    5    0    0 -0.14096825940E+02 -0.96656691647E+02  0.52792752132E+02  0.11103292854E+03  0.00000000000E+00 0.  1.
        -13    1    5    5    0    0  0.51286005497E+02 -0.32084211327E+03  0.36907043067E+02  0.32700465721E+03  0.00000000000E+00 0. -1.
          1    1    6    6  503    0 -0.17984250477E+02  0.35733773739E+03  0.11727160055E+03  0.37651868496E+03  0.00000000000E+00 0. -1.
         -1    1    6    6    0  503 -0.12178675178E+02  0.10877884285E+03 -0.12183550165E+02  0.11013444363E+03  0.00000000000E+00 0.  1.
<mgrwt>
<rscale>  0 0.17751721E+04</rscale>
<asrwt>0</asrwt>
<pdfrwt beam="1">  1        2 0.86442200E-01 0.17751721E+04</pdfrwt>
<pdfrwt beam="2">  1       -1 0.21570908E+00 0.17751721E+04</pdfrwt>
<totfact> 0.68205474E+00</totfact>
</mgrwt>
</event>
<event>
12    7  0.1711607E-007  0.1347798E+04  0.7818608E-02  0.8992497E-01
         -1   -1    0    0    0  501 -0.00000000000E+00  0.00000000000E+00  0.29105759361E+03  0.29105759361E+03  0.00000000000E+00 0.  1.
          2   -1    0    0  501    0  0.00000000000E+00 -0.00000000000E+00 -0.15603087073E+04  0.15603087073E+04  0.00000000000E+00 0. -1.
         24    2    1    2    0    0  0.10882829475E+03 -0.14808326416E+03  0.38618495628E+02  0.20479197875E+03  0.81707499607E+02 0.  0.
        254    2    1    2    0    0 -0.10882829475E+03  0.14808326416E+03 -0.13078696093E+04  0.16465743221E+04  0.98331675088E+03 0.  0.
         23    2    4    4    0    0  0.21969994094E+03  0.13836715724E+02  0.47178768697E+02  0.24272416320E+03  0.90717497967E+02 0.  0.
         23    2    4    4    0    0 -0.32852823568E+03  0.13424654844E+03 -0.13550483780E+04  0.14038501589E+04  0.93199917724E+02 0.  0.
          4    1    3    3  502    0  0.95459399557E+01 -0.22849848663E+02 -0.22724089392E+02  0.33609891286E+02  0.00000000000E+00 0. -1.
         -3    1    3    3    0  502  0.99282354791E+02 -0.12523341550E+03  0.61342585020E+02  0.17118208746E+03  0.00000000000E+00 0.  1.
         13    1    5    5    0    0  0.11760855325E+03 -0.29740809206E+02  0.51142552201E+02  0.13165047731E+03  0.00000000000E+00 0.  1.
        -13    1    5    5    0    0  0.10209138768E+03  0.43577524929E+02 -0.39637835038E+01  0.11107368589E+03  0.00000000000E+00 0. -1.
          3    1    6    6  503    0 -0.89844078066E+02 -0.60835402706E+01 -0.33457556576E+03  0.34648200102E+03  0.00000000000E+00 0. -1.
         -3    1    6    6    0  503 -0.23868415762E+03  0.14033008871E+03 -0.10204728122E+04  0.10573681579E+04  0.00000000000E+00 0.  1.
<mgrwt>
<rscale>  0 0.13477978E+04</rscale>
<asrwt>0</asrwt>
<pdfrwt beam="1">  1        2 0.24004749E+00 0.13477978E+04</pdfrwt>
<pdfrwt beam="2">  1       -1 0.44778092E-01 0.13477978E+04</pdfrwt>
<totfact> 0.64572729E+01</totfact>
</mgrwt>
</event>
<event>
12    7  0.1711607E-007  0.1357739E+04  0.7818608E-02  0.8984990E-01
          2   -1    0    0  501    0  0.00000000000E+00  0.00000000000E+00  0.43470594816E+03  0.43470594816E+03  0.00000000000E+00 0. -1.
         -1   -1    0    0    0  501 -0.00000000000E+00 -0.00000000000E+00 -0.10601737679E+04  0.10601737679E+04  0.00000000000E+00 0.  1.
         24    2    1    2    0    0 -0.28022326190E+03  0.87156387217E+01 -0.43525458814E+03  0.52443594793E+03  0.83579112898E+02 0.  0.
        254    2    1    2    0    0  0.28022326190E+03 -0.87156387217E+01 -0.19021323159E+03  0.97044376813E+03  0.90938385446E+03 0.  0.
         23    2    4    4    0    0  0.42776611617E+03  0.16958630372E+02  0.24451632092E+03  0.50132091941E+03  0.90900977747E+02 0.  0.
         23    2    4    4    0    0 -0.14754285427E+03 -0.25674269094E+02 -0.43472955251E+03  0.46912284872E+03  0.93050531550E+02 0.  0.
          4    1    3    3  502    0 -0.64490188431E+02 -0.80150802427E+01 -0.17075950377E+03  0.18270750954E+03  0.00000000000E+00 0. -1.
         -3    1    3    3    0  502 -0.21573307347E+03  0.16730718964E+02 -0.26449508438E+03  0.34172843839E+03  0.00000000000E+00 0.  1.
         13    1    5    5    0    0  0.34459579122E+03  0.47547084519E+02  0.17973472218E+03  0.39155019465E+03  0.00000000000E+00 0. -1.
        -13    1    5    5    0    0  0.83170324950E+02 -0.30588454147E+02  0.64781598740E+02  0.10977072476E+03  0.00000000000E+00 0.  1.
          3    1    6    6  503    0 -0.90937392986E+02 -0.21462451617E+02 -0.13571837018E+03  0.16477172778E+03  0.00000000000E+00 0. -1.
         -3    1    6    6    0  503 -0.56605461281E+02 -0.42118174770E+01 -0.29901118233E+03  0.30435112093E+03  0.00000000000E+00 0.  1.
<mgrwt>
<rscale>  0 0.13577391E+04</rscale>
<asrwt>0</asrwt>
<pdfrwt beam="1">  1        2 0.66877838E-01 0.13577391E+04</pdfrwt>
<pdfrwt beam="2">  1       -1 0.16310366E+00 0.13577391E+04</pdfrwt>
<totfact> 0.22373731E+01</totfact>
</mgrwt>
</event>
<event>
12    7  0.1711607E-007  0.3490527E+04  0.7818608E-02  0.8116039E-01
          2   -1    0    0  501    0  0.00000000000E+00  0.00000000000E+00  0.27796045070E+04  0.27796045070E+04  0.00000000000E+00 0. -1.
         -1   -1    0    0    0  501 -0.00000000000E+00 -0.00000000000E+00 -0.10958194971E+04  0.10958194971E+04  0.00000000000E+00 0.  1.
         24    2    1    2    0    0 -0.40364376718E+03 -0.11906348395E+04 -0.36393266775E+03  0.13112545012E+04  0.80011051949E+02 0.  0.
        254    2    1    2    0    0  0.40364376718E+03  0.11906348395E+04  0.20477176776E+04  0.25641695029E+04  0.89514129641E+03 0.  0.
         23    2    4    4    0    0  0.13370162940E+03 -0.52363533889E+02  0.64951988793E+03  0.67151536605E+03  0.91862596509E+02 0.  0.
         23    2    4    4    0    0  0.26994213778E+03  0.12429983734E+04  0.13981977897E+04  0.18926541369E+04  0.96275171512E+02 0.  0.
          4    1    3    3  502    0 -0.33748039408E+01 -0.63243056337E+02 -0.21256972381E+02  0.66805182069E+02  0.00000000000E+00 0. -1.
         -3    1    3    3    0  502 -0.40026896324E+03 -0.11273917832E+04 -0.34267569537E+03  0.12444493191E+04  0.00000000000E+00 0.  1.
         13    1    5    5    0    0  0.98750399861E+02 -0.63249970196E+02  0.33622705956E+03  0.35609104985E+03  0.00000000000E+00 0. -1.
        -13    1    5    5    0    0  0.34951229540E+02  0.10886436307E+02  0.31329282837E+03  0.31542431620E+03  0.00000000000E+00 0.  1.
          2    1    6    6  503    0  0.26287009879E+03  0.12304622289E+04  0.13648238812E+04  0.18563087599E+04  0.00000000000E+00 0. -1.
         -2    1    6    6    0  503  0.70720389899E+01  0.12536144507E+02  0.33373908507E+02  0.36345376922E+02  0.00000000000E+00 0.  1.
<mgrwt>
<rscale>  0 0.34905271E+04</rscale>
<asrwt>0</asrwt>
<pdfrwt beam="1">  1        2 0.42763146E+00 0.34905271E+04</pdfrwt>
<pdfrwt beam="2">  1       -1 0.16858762E+00 0.34905271E+04</pdfrwt>
<totfact> 0.55987647E-01</totfact>
</mgrwt>
</event>
<event>
12    7  0.1711607E-007  0.1240229E+04  0.7818608E-02  0.9078355E-01
         -1   -1    0    0    0  501 -0.00000000000E+00  0.00000000000E+00  0.16476546428E+03  0.16476546428E+03  0.00000000000E+00 0.  1.
          2   -1    0    0  501    0  0.00000000000E+00 -0.00000000000E+00 -0.23338738369E+04  0.23338738369E+04  0.00000000000E+00 0. -1.
         24    2    1    2    0    0 -0.13359092994E+03  0.20438705034E+03 -0.21929516744E+03  0.33683603196E+03  0.75812525712E+02 0.  0.
        254    2    1    2    0    0  0.13359092994E+03 -0.20438705034E+03 -0.19498132051E+04  0.21618032692E+04  0.90111111233E+03 0.  0.
         23    2    4    4    0    0  0.55963345426E+01  0.12398064404E+03  0.23597888156E+02  0.15502772118E+03  0.89856635557E+02 0.  0.
         23    2    4    4    0    0  0.12799459540E+03 -0.32836769438E+03 -0.19734110933E+04  0.20067755480E+04  0.92675766515E+02 0.  0.
          4    1    3    3  502    0 -0.13283732267E+02  0.15251451443E+02 -0.55904778638E+02  0.59450892245E+02  0.00000000000E+00 0. -1.
         -3    1    3    3    0  502 -0.12030719768E+03  0.18913559890E+03 -0.16339038880E+03  0.27738513971E+03  0.00000000000E+00 0.  1.
         13    1    5    5    0    0  0.51043282837E+00  0.61551684034E+02  0.57130477392E+02  0.83980722765E+02  0.00000000000E+00 0.  1.
        -13    1    5    5    0    0  0.50859017142E+01  0.62428960004E+02 -0.33532589236E+02  0.71046998419E+02  0.00000000000E+00 0. -1.
          3    1    6    6  503    0  0.29166619891E+02 -0.19313626373E+03 -0.96832180059E+03  0.98782560080E+03  0.00000000000E+00 0. -1.
         -3    1    6    6    0  503  0.98827975509E+02 -0.13523143064E+03 -0.10050892927E+04  0.10189499472E+04  0.00000000000E+00 0.  1.
<mgrwt>
<rscale>  0 0.12402287E+04</rscale>
<asrwt>0</asrwt>
<pdfrwt beam="1">  1        2 0.35905752E+00 0.12402287E+04</pdfrwt>
<pdfrwt beam="2">  1       -1 0.25348532E-01 0.12402287E+04</pdfrwt>
<totfact> 0.66749069E+01</totfact>
</mgrwt>
</event>
<event>
12    7  0.1711607E-007  0.1515271E+04  0.7818608E-02  0.8874361E-01
         -1   -1    0    0    0  501 -0.00000000000E+00  0.00000000000E+00  0.61308842790E+03  0.61308842790E+03  0.00000000000E+00 0.  1.
          2   -1    0    0  501    0  0.00000000000E+00 -0.00000000000E+00 -0.93626169332E+03  0.93626169332E+03  0.00000000000E+00 0. -1.
         24    2    1    2    0    0  0.39789316604E+03 -0.67003888640E+02 -0.37830092995E+03  0.55881768864E+03  0.79731567547E+02 0.  0.
        254    2    1    2    0    0 -0.39789316604E+03  0.67003888640E+02  0.55127664523E+02  0.99053243258E+03  0.90294349099E+03 0.  0.
         23    2    4    4    0    0 -0.19210854354E+03  0.68321380106E+02  0.46901949016E+03  0.51944167783E+03  0.90922335150E+02 0.  0.
         23    2    4    4    0    0 -0.20578462250E+03 -0.13174914667E+01 -0.41389182564E+03  0.47109075476E+03  0.90945089182E+02 0.  0.
          2    1    3    3  502    0  0.13569545750E+03 -0.36813783680E+02 -0.18151843371E+03  0.22960281712E+03  0.00000000000E+00 0. -1.
         -1    1    3    3    0  502  0.26219770854E+03 -0.30190104960E+02 -0.19678249624E+03  0.32921487152E+03  0.00000000000E+00 0.  1.
         13    1    5    5    0    0 -0.47095931719E+02  0.11118739599E+02  0.39359139322E+02  0.62376237486E+02  0.00000000000E+00 0.  1.
        -13    1    5    5    0    0 -0.14501261182E+03  0.57202640507E+02  0.42966035084E+03  0.45706544034E+03  0.00000000000E+00 0. -1.
          1    1    6    6  503    0 -0.19375356513E+03  0.66597002872E+01 -0.41345275889E+03  0.45664863894E+03  0.00000000000E+00 0. -1.
         -1    1    6    6    0  503 -0.12031057370E+02 -0.79771917539E+01 -0.43906674573E+00  0.14442115818E+02  0.00000000000E+00 0.  1.
<mgrwt>
<rscale>  0 0.15152705E+04</rscale>
<asrwt>0</asrwt>
<pdfrwt beam="1">  1        2 0.14404026E+00 0.15152705E+04</pdfrwt>
<pdfrwt beam="2">  1       -1 0.94321298E-01 0.15152705E+04</pdfrwt>
<totfact> 0.33234207E+01</totfact>
</mgrwt>
</event>
<event>
12    7  0.1711607E-007  0.3135782E+04  0.7818608E-02  0.8205986E-01
          2   -1    0    0  501    0  0.00000000000E+00  0.00000000000E+00  0.20436518212E+04  0.20436518212E+04  0.00000000000E+00 0. -1.
         -1   -1    0    0    0  501 -0.00000000000E+00 -0.00000000000E+00 -0.12028872333E+04  0.12028872333E+04  0.00000000000E+00 0.  1.
         24    2    1    2    0    0  0.15741344409E+03 -0.11138286445E+04  0.13188703438E+04  0.17353142770E+04  0.80643751258E+02 0.  0.
        254    2    1    2    0    0 -0.15741344409E+03  0.11138286445E+04 -0.47810575580E+03  0.15112247775E+04  0.88871928788E+03 0.  0.
         23    2    4    4    0    0  0.37071287888E+01  0.11985707138E+04 -0.50751887372E+03  0.13047766195E+04  0.91000663885E+02 0.  0.
         23    2    4    4    0    0 -0.16112057287E+03 -0.84742069284E+02  0.29413117916E+02  0.20644815799E+03  0.92815155674E+02 0.  0.
          2    1    3    3  502    0  0.92640248997E+02 -0.86706140979E+03  0.10447809360E+04  0.13608618256E+04  0.00000000000E+00 0. -1.
         -1    1    3    3    0  502  0.64773195089E+02 -0.24676723475E+03  0.27408940772E+03  0.37445245142E+03  0.00000000000E+00 0.  1.
         13    1    5    5    0    0  0.22002150475E+02  0.10483669463E+04 -0.41711465837E+03  0.11285131754E+04  0.00000000000E+00 0.  1.
        -13    1    5    5    0    0 -0.18295021686E+02  0.15020376752E+03 -0.90404215348E+02  0.17626344416E+03  0.00000000000E+00 0. -1.
          2    1    6    6  503    0 -0.14399270172E+03 -0.68835808007E+02 -0.10767521540E+02  0.15996313992E+03  0.00000000000E+00 0. -1.
         -2    1    6    6    0  503 -0.17127871153E+02 -0.15906261277E+02  0.40180639456E+02  0.46485018072E+02  0.00000000000E+00 0.  1.
<mgrwt>
<rscale>  0 0.31357823E+04</rscale>
<asrwt>0</asrwt>
<pdfrwt beam="1">  1        2 0.31440797E+00 0.31357823E+04</pdfrwt>
<pdfrwt beam="2">  1       -1 0.18505957E+00 0.31357823E+04</pdfrwt>
<totfact> 0.11647112E+00</totfact>
</mgrwt>
</event>
<event>
12    7  0.1711607E-007  0.1401366E+04  0.7818608E-02  0.8952830E-01
         -1   -1    0    0    0  501 -0.00000000000E+00  0.00000000000E+00  0.45701549488E+03  0.45701549488E+03  0.00000000000E+00 0.  1.
          2   -1    0    0  501    0  0.00000000000E+00 -0.00000000000E+00 -0.10742670136E+04  0.10742670136E+04  0.00000000000E+00 0. -1.
         24    2    1    2    0    0  0.97309532669E+02 -0.33922528509E+02 -0.61274444232E+03  0.62637934793E+03  0.79217755792E+02 0.  0.
        254    2    1    2    0    0 -0.97309532669E+02  0.33922528509E+02 -0.45070764095E+01  0.90490316056E+03  0.89900474591E+03 0.  0.
         23    2    4    4    0    0 -0.35192098626E+03  0.25050001772E+03 -0.22295951447E+03  0.49465407736E+03  0.91504490110E+02 0.  0.
         23    2    4    4    0    0  0.25461145359E+03 -0.21657748921E+03  0.21845243806E+03  0.41024908320E+03  0.94074658837E+02 0.  0.
          4    1    3    3  502    0  0.21968201218E+02 -0.44097822578E+02 -0.32716125371E+03  0.33084997468E+03  0.00000000000E+00 0. -1.
         -3    1    3    3    0  502  0.75341331451E+02  0.10175294069E+02 -0.28558318861E+03  0.29552937325E+03  0.00000000000E+00 0.  1.
         13    1    5    5    0    0 -0.28368893514E+03  0.22550073282E+03 -0.15166047814E+03  0.39284970797E+03  0.00000000000E+00 0. -1.
        -13    1    5    5    0    0 -0.68232051118E+02  0.24999284902E+02 -0.71299036332E+02  0.10180436939E+03  0.00000000000E+00 0.  1.
          1    1    6    6  503    0  0.15003617561E+03 -0.17074856071E+03  0.10900349748E+03  0.25208666653E+03  0.00000000000E+00 0. -1.
         -1    1    6    6    0  503  0.10457527798E+03 -0.45828928495E+02  0.10944894059E+03  0.15816241667E+03  0.00000000000E+00 0.  1.
<mgrwt>
<rscale>  0 0.14013660E+04</rscale>
<asrwt>0</asrwt>
<pdfrwt beam="1">  1        2 0.16527185E+00 0.14013660E+04</pdfrwt>
<pdfrwt beam="2">  1       -1 0.70310077E-01 0.14013660E+04</pdfrwt>
<totfact> 0.51305342E+01</totfact>
</mgrwt>
</event>
<event>
12    7  0.1711607E-007  0.2057316E+04  0.7818608E-02  0.8580282E-01
         -1   -1    0    0    0  501 -0.00000000000E+00  0.00000000000E+00  0.44655881435E+03  0.44655881435E+03  0.00000000000E+00 0.  1.
          2   -1    0    0  501    0  0.00000000000E+00 -0.00000000000E+00 -0.23695371979E+04  0.23695371979E+04  0.00000000000E+00 0. -1.
         24    2    1    2    0    0 -0.20475669772E+03 -0.27912733084E+02  0.32295447338E+03  0.38758787686E+03  0.56748079072E+02 0.  0.
        254    2    1    2    0    0  0.20475669772E+03  0.27912733084E+02 -0.22459328569E+04  0.24285081354E+04  0.90040709676E+03 0.  0.
         23    2    4    4    0    0  0.37934842362E+03 -0.30925504480E+03 -0.91774124409E+03  0.10440356470E+04  0.90650603380E+02 0.  0.
         23    2    4    4    0    0 -0.17459172590E+03  0.33716777788E+03 -0.13281916128E+04  0.13844724883E+04  0.92231933017E+02 0.  0.
          2    1    3    3  502    0 -0.10738919694E+03 -0.28617471541E+02  0.12690489424E+03  0.16868980846E+03  0.00000000000E+00 0. -1.
         -1    1    3    3    0  502 -0.97367500780E+02  0.70473845639E+00  0.19604957914E+03  0.21889806839E+03  0.00000000000E+00 0.  1.
         13    1    5    5    0    0  0.29153792874E+03 -0.28249763453E+03 -0.74668796464E+03  0.84990716784E+03  0.00000000000E+00 0. -1.
        -13    1    5    5    0    0  0.87810494877E+02 -0.26757410271E+02 -0.17105327945E+03  0.19412847917E+03  0.00000000000E+00 0.  1.
          4    1    6    6  503    0 -0.17982540589E+03  0.33942566223E+03 -0.13175412675E+04  0.13723927821E+04  0.00000000000E+00 0. -1.
         -4    1    6    6    0  503  0.52336799974E+01 -0.22578843449E+01 -0.10650345333E+02  0.12079706277E+02  0.00000000000E+00 0.  1.
<mgrwt>
<rscale>  0 0.20573164E+04</rscale>
<asrwt>0</asrwt>
<pdfrwt beam="1">  1        2 0.36454418E+00 0.20573164E+04</pdfrwt>
<pdfrwt beam="2">  1       -1 0.68701357E-01 0.20573164E+04</pdfrwt>
<totfact> 0.93416545E+00</totfact>
</mgrwt>
</event>
<event>
12    7  0.1711607E-007  0.2131495E+04  0.7818608E-02  0.8547495E-01
         -1   -1    0    0    0  501 -0.00000000000E+00  0.00000000000E+00  0.13313267179E+04  0.13313267179E+04  0.00000000000E+00 0.  1.
          2   -1    0    0  501    0  0.00000000000E+00 -0.00000000000E+00 -0.85314714797E+03  0.85314714797E+03  0.00000000000E+00 0. -1.
         24    2    1    2    0    0  0.71202538294E+03  0.42382120838E+03  0.49734715096E+03  0.96967427528E+03  0.79432039744E+02 0.  0.
        254    2    1    2    0    0 -0.71202538294E+03 -0.42382120838E+03 -0.19167581034E+02  0.12147995906E+04  0.88812503990E+03 0.  0.
         23    2    4    4    0    0 -0.48756551831E+03  0.22083951769E+02 -0.35155863907E+03  0.60833144608E+03  0.90916643247E+02 0.  0.
         23    2    4    4    0    0 -0.22445986463E+03 -0.44590516015E+03  0.33239105804E+03  0.60646814450E+03  0.90034172145E+02 0.  0.
          4    1    3    3  502    0  0.58718940063E+03  0.33991363392E+03  0.37131853880E+03  0.77344044890E+03  0.00000000000E+00 0. -1.
         -3    1    3    3    0  502  0.12483598231E+03  0.83907574457E+02  0.12602861216E+03  0.19623382638E+03  0.00000000000E+00 0.  1.
         13    1    5    5    0    0 -0.13553631982E+03 -0.24651820032E+02 -0.13217222321E+03  0.19091176708E+03  0.00000000000E+00 0. -1.
        -13    1    5    5    0    0 -0.35202919849E+03  0.46735771801E+02 -0.21938641586E+03  0.41741967900E+03  0.00000000000E+00 0.  1.
          2    1    6    6  503    0 -0.17435855522E+03 -0.40988906526E+03  0.29639666408E+03  0.53503358220E+03  0.00000000000E+00 0.  1.
         -2    1    6    6    0  503 -0.50101309408E+02 -0.36016094890E+02  0.35994393952E+02  0.71434562304E+02  0.00000000000E+00 0. -1.
<mgrwt>
<rscale>  0 0.21314949E+04</rscale>
<asrwt>0</asrwt>
<pdfrwt beam="1">  1        2 0.13125341E+00 0.21314949E+04</pdfrwt>
<pdfrwt beam="2">  1       -1 0.20481950E+00 0.21314949E+04</pdfrwt>
<totfact> 0.46177593E+00</totfact>
</mgrwt>
</event>
<event>
12    7  0.1711607E-007  0.1929547E+04  0.7818608E-02  0.8640287E-01
          2   -1    0    0  501    0  0.00000000000E+00  0.00000000000E+00  0.14786637725E+04  0.14786637725E+04  0.00000000000E+00 0. -1.
         -1   -1    0    0    0  501 -0.00000000000E+00 -0.00000000000E+00 -0.62947927522E+03  0.62947927522E+03  0.00000000000E+00 0.  1.
         24    2    1    2    0    0  0.55582123278E+02  0.51002192368E+03 -0.26619573406E+03  0.58348974651E+03  0.79927344409E+02 0.  0.
        254    2    1    2    0    0 -0.55582123278E+02 -0.51002192368E+03  0.11153802313E+04  0.15246533012E+04  0.90403699777E+03 0.  0.
         23    2    4    4    0    0  0.17268971657E+03  0.40390943244E+01  0.89323743400E+03  0.91419601873E+03  0.89683859575E+02 0.  0.
         23    2    4    4    0    0 -0.22827183985E+03 -0.51406101801E+03  0.22214279733E+03  0.61045728247E+03  0.83330115847E+02 0.  0.
          4    1    3    3  502    0  0.35095201341E+02  0.36699996969E+03 -0.14976055224E+03  0.39793074010E+03  0.00000000000E+00 0. -1.
         -1    1    3    3    0  502  0.20486921937E+02  0.14302195400E+03 -0.11643518182E+03  0.18555900641E+03  0.00000000000E+00 0.  1.
         13    1    5    5    0    0  0.80414488281E+02 -0.16121930418E+02  0.61316795121E+03  0.61862859856E+03  0.00000000000E+00 0. -1.
        -13    1    5    5    0    0  0.92275228290E+02  0.20161024742E+02  0.28006948279E+03  0.29556742017E+03  0.00000000000E+00 0.  1.
          1    1    6    6  503    0 -0.34328050498E+02 -0.42683216171E+02  0.86403463267E+00  0.54781553004E+02  0.00000000000E+00 0. -1.
         -1    1    6    6    0  503 -0.19394378935E+03 -0.47137780184E+03  0.22127876270E+03  0.55567572946E+03  0.00000000000E+00 0.  1.
<mgrwt>
<rscale>  0 0.19295473E+04</rscale>
<asrwt>0</asrwt>
<pdfrwt beam="1">  1        2 0.22748673E+00 0.19295473E+04</pdfrwt>
<pdfrwt beam="2">  1       -1 0.96842966E-01 0.19295473E+04</pdfrwt>
<totfact> 0.14247802E+01</totfact>
</mgrwt>
</event>
<event>
12    7  0.1711607E-007  0.1439929E+04  0.7818608E-02  0.8925413E-01
          2   -1    0    0  501    0  0.00000000000E+00  0.00000000000E+00  0.77935599581E+03  0.77935599581E+03  0.00000000000E+00 0. -1.
         -1   -1    0    0    0  501 -0.00000000000E+00 -0.00000000000E+00 -0.66509886088E+03  0.66509886088E+03  0.00000000000E+00 0.  1.
         24    2    1    2    0    0  0.37471143926E+03  0.22216522182E+03  0.55434305501E+02  0.44570810400E+03  0.76267314418E+02 0.  0.
        254    2    1    2    0    0 -0.37471143926E+03 -0.22216522182E+03  0.58822829428E+02  0.99874675269E+03  0.89681040485E+03 0.  0.
         23    2    4    4    0    0 -0.42120203229E+03 -0.41294381315E+03 -0.22787901056E+03  0.63957771601E+03  0.95901337553E+02 0.  0.
         23    2    4    4    0    0  0.46490593030E+02  0.19077859134E+03  0.28670183998E+03  0.35916903668E+03  0.90810823725E+02 0.  0.
          4    1    3    3  502    0  0.34248503733E+03  0.17556610369E+03  0.56816886365E+02  0.38903420947E+03  0.00000000000E+00 0. -1.
         -3    1    3    3    0  502  0.32226401928E+02  0.46599118130E+02 -0.13825808638E+01  0.56673894534E+02  0.00000000000E+00 0.  1.
         13    1    5    5    0    0 -0.45105731589E+02 -0.13825592356E+02 -0.43722389258E+01  0.47379220123E+02  0.00000000000E+00 0.  1.
        -13    1    5    5    0    0 -0.37609630070E+03 -0.39911822080E+03 -0.22350677163E+03  0.59219849589E+03  0.00000000000E+00 0. -1.
          2    1    6    6  503    0  0.68649040329E+02  0.14832721580E+03  0.25064081768E+03  0.29922311603E+03  0.00000000000E+00 0. -1.
         -2    1    6    6    0  503 -0.22158447299E+02  0.42451375540E+02  0.36061022307E+02  0.59945920643E+02  0.00000000000E+00 0.  1.
<mgrwt>
<rscale>  0 0.14399289E+04</rscale>
<asrwt>0</asrwt>
<pdfrwt beam="1">  1        2 0.11990092E+00 0.14399289E+04</pdfrwt>
<pdfrwt beam="2">  1       -1 0.10232290E+00 0.14399289E+04</pdfrwt>
<totfact> 0.35737913E+01</totfact>
</mgrwt>
</event>
<event>
12    7  0.1711607E-007  0.2206798E+04  0.7818608E-02  0.8515604E-01
         -1   -1    0    0    0  501 -0.00000000000E+00  0.00000000000E+00  0.54617288363E+03  0.54617288363E+03  0.00000000000E+00 0.  1.
          2   -1    0    0  501    0  0.00000000000E+00 -0.00000000000E+00 -0.22291285271E+04  0.22291285271E+04  0.00000000000E+00 0. -1.
         24    2    1    2    0    0  0.38254506401E+03 -0.15258256004E+03 -0.17484099358E+04  0.17980543083E+04  0.80248541374E+02 0.  0.
        254    2    1    2    0    0 -0.38254506401E+03  0.15258256004E+03  0.65454292323E+02  0.97724710243E+03  0.88380171487E+03 0.  0.
         23    2    4    4    0    0 -0.11796359049E+03  0.32051589640E+03 -0.31658954926E+03  0.47476154020E+03  0.92324042490E+02 0.  0.
         23    2    4    4    0    0 -0.26458147351E+03 -0.16793333636E+03  0.38204384159E+03  0.50248556223E+03  0.91264898897E+02 0.  0.
          2    1    3    3  502    0  0.29361139729E+03 -0.14884358911E+03 -0.14331131892E+04  0.14704337726E+04  0.00000000000E+00 0. -1.
         -1    1    3    3    0  502  0.88933666716E+02 -0.37389709317E+01 -0.31529674657E+03  0.32762053565E+03  0.00000000000E+00 0.  1.
         13    1    5    5    0    0 -0.11141056136E+03  0.30676495875E+03 -0.32211513880E+03  0.45855775617E+03  0.00000000000E+00 0. -1.
        -13    1    5    5    0    0 -0.65530291329E+01  0.13750937645E+02  0.55255895387E+01  0.16203784023E+02  0.00000000000E+00 0.  1.
          1    1    6    6  503    0 -0.25430701751E+03 -0.13098328367E+03  0.35313238649E+03  0.45445699703E+03  0.00000000000E+00 0. -1.
         -1    1    6    6    0  503 -0.10274456000E+02 -0.36950052692E+02  0.28911455093E+02  0.48028565204E+02  0.00000000000E+00 0.  1.
<mgrwt>
<rscale>  0 0.22067982E+04</rscale>
<asrwt>0</asrwt>
<pdfrwt beam="1">  1        2 0.34294285E+00 0.22067982E+04</pdfrwt>
<pdfrwt beam="2">  1       -1 0.84026598E-01 0.22067982E+04</pdfrwt>
<totfact> 0.72556703E+00</totfact>
</mgrwt>
</event>
<event>
12    7  0.1711607E-007  0.1048080E+04  0.7818608E-02  0.9257329E-01
          2   -1    0    0  501    0  0.00000000000E+00  0.00000000000E+00  0.88352069510E+03  0.88352069510E+03  0.00000000000E+00 0. -1.
         -1   -1    0    0    0  501 -0.00000000000E+00 -0.00000000000E+00 -0.31082222632E+03  0.31082222632E+03  0.00000000000E+00 0.  1.
         24    2    1    2    0    0  0.51548044580E+02  0.94366697533E+02  0.71680589653E+02  0.15208293305E+03  0.80180029245E+02 0.  0.
        254    2    1    2    0    0 -0.51548044580E+02 -0.94366697533E+02  0.50101787912E+03  0.10422599884E+04  0.90759280168E+03 0.  0.
         23    2    4    4    0    0  0.40207640410E+03 -0.15343121219E+03  0.31274138247E+03  0.53946257583E+03  0.89476962404E+02 0.  0.
         23    2    4    4    0    0 -0.45362444868E+03  0.59064514654E+02  0.18827649665E+03  0.50279741254E+03  0.89963556744E+02 0.  0.
          4    1    3    3  502    0  0.40856229625E+02  0.26695754748E+02  0.67699114597E+02  0.83456964586E+02  0.00000000000E+00 0. -1.
         -3    1    3    3    0  502  0.10691814955E+02  0.67670942785E+02  0.39814750568E+01  0.68625968467E+02  0.00000000000E+00 0.  1.
         13    1    5    5    0    0  0.32097414734E+03 -0.15893685939E+03  0.25034847877E+03  0.43698934696E+03  0.00000000000E+00 0.  1.
        -13    1    5    5    0    0  0.81102256761E+02  0.55056471990E+01  0.62392903702E+02  0.10247322887E+03  0.00000000000E+00 0. -1.
          4    1    6    6  503    0 -0.32112615221E+03  0.27517946767E+02  0.17284279749E+03  0.36572376963E+03  0.00000000000E+00 0. -1.
         -4    1    6    6    0  503 -0.13249829647E+03  0.31546567887E+02  0.15433699157E+02  0.13707364291E+03  0.00000000000E+00 0.  1.
<mgrwt>
<rscale>  0 0.10480799E+04</rscale>
<asrwt>0</asrwt>
<pdfrwt beam="1">  1        2 0.13592626E+00 0.10480799E+04</pdfrwt>
<pdfrwt beam="2">  1       -1 0.47818804E-01 0.10480799E+04</pdfrwt>
<totfact> 0.14927391E+02</totfact>
</mgrwt>
</event>
<event>
12    7  0.1711607E-007  0.2567377E+04  0.7818608E-02  0.8379368E-01
          2   -1    0    0  501    0  0.00000000000E+00  0.00000000000E+00  0.17818125036E+04  0.17818125036E+04  0.00000000000E+00 0. -1.
         -1   -1    0    0    0  501 -0.00000000000E+00 -0.00000000000E+00 -0.92481995465E+03  0.92481995465E+03  0.00000000000E+00 0.  1.
         24    2    1    2    0    0  0.33513977320E+03  0.10695712586E+04  0.46626028502E+03  0.12168545471E+04  0.83874851478E+02 0.  0.
        254    2    1    2    0    0 -0.33513977320E+03 -0.10695712586E+04  0.39073226398E+03  0.14897779112E+04  0.90025839504E+03 0.  0.
         23    2    4    4    0    0 -0.24444464006E+03 -0.61562112707E+03  0.66591150095E+03  0.94374633987E+03  0.92067761832E+02 0.  0.
         23    2    4    4    0    0 -0.90695133139E+02 -0.45395013149E+03 -0.27517923697E+03  0.54603157132E+03  0.90169481382E+02 0.  0.
          2    1    3    3  502    0  0.26244665239E+03  0.88661056510E+03  0.41447540028E+03  0.10132849535E+04  0.00000000000E+00 0. -1.
         -1    1    3    3    0  502  0.72693120816E+02  0.18296069345E+03  0.51784884736E+02  0.20356959363E+03  0.00000000000E+00 0.  1.
         13    1    5    5    0    0 -0.14685737784E+03 -0.27597781364E+03  0.35533631451E+03  0.47328082515E+03  0.00000000000E+00 0. -1.
        -13    1    5    5    0    0 -0.97587262223E+02 -0.33964331343E+03  0.31057518644E+03  0.47046551472E+03  0.00000000000E+00 0.  1.
          3    1    6    6  503    0  0.12357322454E+02 -0.34928467401E+02 -0.62289475824E+01  0.37569948645E+02  0.00000000000E+00 0. -1.
         -3    1    6    6    0  503 -0.10305245559E+03 -0.41902166408E+03 -0.26895028938E+03  0.50846162268E+03  0.00000000000E+00 0.  1.
<mgrwt>
<rscale>  0 0.25673767E+04</rscale>
<asrwt>0</asrwt>
<pdfrwt beam="1">  1        2 0.27412500E+00 0.25673767E+04</pdfrwt>
<pdfrwt beam="2">  1       -1 0.14227999E+00 0.25673767E+04</pdfrwt>
<totfact> 0.35820890E+00</totfact>
</mgrwt>
</event>
<event>
12    7  0.1711607E-007  0.2193076E+04  0.7818608E-02  0.8521316E-01
         -1   -1    0    0    0  501 -0.00000000000E+00  0.00000000000E+00  0.37743794255E+03  0.37743794255E+03  0.00000000000E+00 0.  1.
          2   -1    0    0  501    0  0.00000000000E+00 -0.00000000000E+00 -0.31856779484E+04  0.31856779484E+04  0.00000000000E+00 0. -1.
         24    2    1    2    0    0 -0.73085585244E+03 -0.41678948128E+03 -0.17262299541E+04  0.19220193082E+04  0.80153713870E+02 0.  0.
        254    2    1    2    0    0  0.73085585244E+03  0.41678948128E+03 -0.10820100517E+04  0.16410965827E+04  0.90254556289E+03 0.  0.
         23    2    4    4    0    0  0.51607220517E+03 -0.28821087578E+02 -0.10034005076E+04  0.11323661550E+04  0.90990957083E+02 0.  0.
         23    2    4    4    0    0  0.21478364727E+03  0.44561056885E+03 -0.78609544093E+02  0.50873042772E+03  0.89030295155E+02 0.  0.
          2    1    3    3  502    0 -0.72990487959E+03 -0.41374177778E+03 -0.17256076916E+04  0.19187666083E+04  0.00000000000E+00 0. -1.
         -1    1    3    3    0  502 -0.95097285666E+00 -0.30477034919E+01 -0.62226254757E+00  0.32526998980E+01  0.00000000000E+00 0.  1.
         13    1    5    5    0    0  0.77881888156E+02  0.45797643667E+01 -0.22946265363E+03  0.24236268722E+03  0.00000000000E+00 0.  1.
        -13    1    5    5    0    0  0.43819031701E+03 -0.33400851945E+02 -0.77393785401E+03  0.89000346781E+03  0.00000000000E+00 0. -1.
          2    1    6    6  503    0  0.15718740657E+03  0.37514930442E+03 -0.36287156859E+02  0.40836459096E+03  0.00000000000E+00 0. -1.
         -2    1    6    6    0  503  0.57596240700E+02  0.70461264431E+02 -0.42322387235E+02  0.10036583676E+03  0.00000000000E+00 0.  1.
<mgrwt>
<rscale>  0 0.21930761E+04</rscale>
<asrwt>0</asrwt>
<pdfrwt beam="1">  1        2 0.49010428E+00 0.21930761E+04</pdfrwt>
<pdfrwt beam="2">  1       -1 0.58067378E-01 0.21930761E+04</pdfrwt>
<totfact> 0.41511500E+00</totfact>
</mgrwt>
</event>
<event>
12    7  0.1711607E-007  0.2202677E+04  0.7818608E-02  0.8517315E-01
         -1   -1    0    0    0  501 -0.00000000000E+00  0.00000000000E+00  0.84596422565E+03  0.84596422565E+03  0.00000000000E+00 0.  1.
          2   -1    0    0  501    0  0.00000000000E+00 -0.00000000000E+00 -0.14338033898E+04  0.14338033898E+04  0.00000000000E+00 0. -1.
         24    2    1    2    0    0 -0.42963185438E+03 -0.79250397418E+03 -0.25291298253E+03  0.93969784083E+03  0.80130992292E+02 0.  0.
        254    2    1    2    0    0  0.42963185438E+03  0.79250397418E+03 -0.33492618164E+03  0.13400697746E+04  0.93325525680E+03 0.  0.
         23    2    4    4    0    0  0.27964710017E+03  0.14153454754E+03 -0.54373768681E+03  0.63427662221E+03  0.91769453737E+02 0.  0.
         23    2    4    4    0    0  0.14998475421E+03  0.65096942664E+03  0.20881150518E+03  0.70579315243E+03  0.91022570855E+02 0.  0.
          2    1    3    3  502    0 -0.23965111411E+03 -0.44798521299E+03 -0.18357217126E+03  0.54020565493E+03  0.00000000000E+00 0. -1.
         -1    1    3    3    0  502 -0.18998074027E+03 -0.34451876119E+03 -0.69340811266E+02  0.39949218590E+03  0.00000000000E+00 0.  1.
         13    1    5    5    0    0  0.25386983413E+03  0.10657506953E+03 -0.50885346401E+03  0.57856718362E+03  0.00000000000E+00 0. -1.
        -13    1    5    5    0    0  0.25777266046E+02  0.34959478014E+02 -0.34884222805E+02  0.55709438594E+02  0.00000000000E+00 0.  1.
          3    1    6    6  503    0  0.16026646317E+03  0.58860867939E+03  0.17797294583E+03  0.63546824163E+03  0.00000000000E+00 0. -1.
         -3    1    6    6    0  503 -0.10281708955E+02  0.62360747250E+02  0.30838559350E+02  0.70324910802E+02  0.00000000000E+00 0.  1.
<mgrwt>
<rscale>  0 0.22026769E+04</rscale>
<asrwt>0</asrwt>
<pdfrwt beam="1">  1        2 0.22058513E+00 0.22026769E+04</pdfrwt>
<pdfrwt beam="2">  1       -1 0.13014834E+00 0.22026769E+04</pdfrwt>
<totfact> 0.72879653E+00</totfact>
</mgrwt>
</event>
<event>
12    7  0.1711607E-007  0.2384383E+04  0.7818608E-02  0.8445374E-01
          2   -1    0    0  501    0  0.00000000000E+00  0.00000000000E+00  0.21282457641E+04  0.21282457641E+04  0.00000000000E+00 0. -1.
         -1   -1    0    0    0  501 -0.00000000000E+00 -0.00000000000E+00 -0.66783639550E+03  0.66783639550E+03  0.00000000000E+00 0.  1.
         24    2    1    2    0    0 -0.37706117789E+03 -0.19581004764E+03 -0.46317264386E+03  0.63387705570E+03  0.82185869147E+02 0.  0.
        254    2    1    2    0    0  0.37706117789E+03  0.19581004764E+03  0.19235820124E+04  0.21622051039E+04  0.89131725331E+03 0.  0.
         23    2    4    4    0    0 -0.36935656055E+02 -0.21013254000E+03  0.11094593608E+03  0.25688479331E+03  0.90337529556E+02 0.  0.
         23    2    4    4    0    0  0.41399683395E+03  0.40594258764E+03  0.18126360763E+04  0.19053203105E+04  0.91723375393E+02 0.  0.
          2    1    3    3  502    0 -0.21434348242E+02  0.64481335866E+01 -0.14436516993E+02  0.26634990786E+02  0.00000000000E+00 0. -1.
         -3    1    3    3    0  502 -0.35562682965E+03 -0.20225818123E+03 -0.44873612686E+03  0.60724206491E+03  0.00000000000E+00 0.  1.
         13    1    5    5    0    0 -0.15759972715E+02 -0.18076510069E+03  0.53842477798E+02  0.18927073409E+03  0.00000000000E+00 0. -1.
        -13    1    5    5    0    0 -0.21175683340E+02 -0.29367439314E+02  0.57103458285E+02  0.67614059225E+02  0.00000000000E+00 0.  1.
          2    1    6    6  503    0  0.26258960337E+03  0.19411099862E+03  0.99110347437E+03  0.10435125665E+04  0.00000000000E+00 0. -1.
         -2    1    6    6    0  503  0.15140723058E+03  0.21183158902E+03  0.82153260196E+03  0.86180774402E+03  0.00000000000E+00 0.  1.
<mgrwt>
<rscale>  0 0.23843825E+04</rscale>
<asrwt>0</asrwt>
<pdfrwt beam="1">  1        2 0.32742242E+00 0.23843825E+04</pdfrwt>
<pdfrwt beam="2">  1       -1 0.10274406E+00 0.23843825E+04</pdfrwt>
<totfact> 0.51971709E+00</totfact>
</mgrwt>
</event>
<event>
12    7  0.1711607E-007  0.2237984E+04  0.7818608E-02  0.8502783E-01
          2   -1    0    0  501    0  0.00000000000E+00  0.00000000000E+00  0.15823836933E+04  0.15823836933E+04  0.00000000000E+00 0. -1.
         -1   -1    0    0    0  501 -0.00000000000E+00 -0.00000000000E+00 -0.79130171267E+03  0.79130171267E+03  0.00000000000E+00 0.  1.
         24    2    1    2    0    0  0.41831212089E+03  0.39583544714E+03 -0.45109636967E+03  0.73573845187E+03  0.78437256097E+02 0.  0.
        254    2    1    2    0    0 -0.41831212089E+03 -0.39583544714E+03  0.12421783503E+04  0.16379469541E+04  0.89899523848E+03 0.  0.
         23    2    4    4    0    0 -0.68429536083E+03 -0.28749836353E+03  0.73776807235E+03  0.10504586785E+04  0.90808902382E+02 0.  0.
         23    2    4    4    0    0  0.26598323995E+03 -0.10833708361E+03  0.50441027794E+03  0.58748827560E+03  0.90712390877E+02 0.  0.
          2    1    3    3  502    0  0.15079730869E+03  0.96136546671E+02 -0.15539380081E+03  0.23691622410E+03  0.00000000000E+00 0. -1.
         -1    1    3    3    0  502  0.26751481220E+03  0.29969890047E+03 -0.29570256886E+03  0.49882222777E+03  0.00000000000E+00 0.  1.
         13    1    5    5    0    0 -0.12060644217E+03 -0.64672523044E+02  0.92669388025E+02  0.16527572298E+03  0.00000000000E+00 0. -1.
        -13    1    5    5    0    0 -0.56368891867E+03 -0.22282584048E+03  0.64509868433E+03  0.88518295551E+03  0.00000000000E+00 0.  1.
          4    1    6    6  503    0  0.12767534691E+03 -0.36348449158E+02  0.31715716181E+03  0.34381807580E+03  0.00000000000E+00 0. -1.
         -4    1    6    6    0  503  0.13830789304E+03 -0.71988634452E+02  0.18725311614E+03  0.24367019980E+03  0.00000000000E+00 0.  1.
<mgrwt>
<rscale>  0 0.22379838E+04</rscale>
<asrwt>0</asrwt>
<pdfrwt beam="1">  1        2 0.24344364E+00 0.22379838E+04</pdfrwt>
<pdfrwt beam="2">  1       -1 0.12173873E+00 0.22379838E+04</pdfrwt>
<totfact> 0.70752054E+00</totfact>
</mgrwt>
</event>
<event>
12    7  0.1711607E-007  0.3115265E+04  0.7818608E-02  0.8211561E-01
         -1   -1    0    0    0  501 -0.00000000000E+00  0.00000000000E+00  0.25584058672E+04  0.25584058672E+04  0.00000000000E+00 0.  1.
          2   -1    0    0  501    0  0.00000000000E+00 -0.00000000000E+00 -0.94833255274E+03  0.94833255274E+03  0.00000000000E+00 0. -1.
         24    2    1    2    0    0  0.37929393924E+03  0.13418650345E+04  0.41198139815E+03  0.14561848414E+04  0.79246177816E+02 0.  0.
        254    2    1    2    0    0 -0.37929393924E+03 -0.13418650345E+04  0.11980919163E+04  0.20505535785E+04  0.90822908744E+03 0.  0.
         23    2    4    4    0    0 -0.17029013191E+03  0.83160571429E+02  0.74415477691E+02  0.22155774551E+03  0.87382845033E+02 0.  0.
         23    2    4    4    0    0 -0.20900380732E+03 -0.14250256059E+04  0.11236764386E+04  0.18289958330E+04  0.90534244451E+02 0.  0.
          4    1    3    3  502    0  0.27177351195E+03  0.10687944170E+04  0.33966701067E+03  0.11539306849E+04  0.00000000000E+00 0. -1.
         -3    1    3    3    0  502  0.10752042728E+03  0.27307061755E+03  0.72314387482E+02  0.30225415645E+03  0.00000000000E+00 0.  1.
         13    1    5    5    0    0 -0.28022916621E+02  0.53195956042E+02  0.46733409020E+01  0.60306995534E+02  0.00000000000E+00 0. -1.
        -13    1    5    5    0    0 -0.14226721529E+03  0.29964615387E+02  0.69742136789E+02  0.16125074997E+03  0.00000000000E+00 0.  1.
          1    1    6    6  503    0 -0.93501488866E+02 -0.45178925511E+03  0.40134756472E+03  0.61150300667E+03  0.00000000000E+00 0. -1.
         -1    1    6    6    0  503 -0.11550231846E+03 -0.97323635084E+03  0.72232887389E+03  0.12174928263E+04  0.00000000000E+00 0.  1.
<mgrwt>
<rscale>  0 0.31152654E+04</rscale>
<asrwt>0</asrwt>
<pdfrwt beam="1">  1        2 0.14589732E+00 0.31152654E+04</pdfrwt>
<pdfrwt beam="2">  1       -1 0.39360090E+00 0.31152654E+04</pdfrwt>
<totfact> 0.20793429E-01</totfact>
</mgrwt>
</event>
<event>
12    7  0.1711607E-007  0.2720722E+04  0.7818608E-02  0.8328313E-01
          2   -1    0    0  501    0  0.00000000000E+00  0.00000000000E+00  0.13468275759E+04  0.13468275759E+04  0.00000000000E+00 0. -1.
         -1   -1    0    0    0  501 -0.00000000000E+00 -0.00000000000E+00 -0.13740306599E+04  0.13740306599E+04  0.00000000000E+00 0.  1.
         24    2    1    2    0    0  0.30793268752E+03 -0.55280038325E+03 -0.10292435847E+04  0.12108440578E+04  0.79938551702E+02 0.  0.
        254    2    1    2    0    0 -0.30793268752E+03  0.55280038325E+03  0.10020405006E+04  0.15100141780E+04  0.93576003821E+03 0.  0.
         23    2    4    4    0    0  0.14875483776E+03  0.53859848591E+03  0.23475721326E+03  0.61221706792E+03  0.86501203982E+02 0.  0.
         23    2    4    4    0    0 -0.45668752528E+03  0.14201897340E+02  0.76728328737E+03  0.89779711009E+03  0.92470634097E+02 0.  0.
          2    1    3    3  502    0  0.14770724408E+03 -0.18735539940E+03 -0.40005496375E+03  0.46579335510E+03  0.00000000000E+00 0. -1.
         -1    1    3    3    0  502  0.16022544344E+03 -0.36544498385E+03 -0.62918862092E+03  0.74505070273E+03  0.00000000000E+00 0.  1.
         13    1    5    5    0    0  0.14879575847E+03  0.53700534378E+03  0.24000936839E+03  0.60672845153E+03  0.00000000000E+00 0.  1.
        -13    1    5    5    0    0 -0.40920714498E-01  0.15931421368E+01 -0.52521551278E+01  0.54886163884E+01  0.00000000000E+00 0. -1.
          4    1    6    6  503    0 -0.25716350440E+03  0.72920389373E+01  0.51847228125E+03  0.57879162766E+03  0.00000000000E+00 0.  1.
         -4    1    6    6    0  503 -0.19952402088E+03  0.69098584029E+01  0.24881100612E+03  0.31900548243E+03  0.00000000000E+00 0. -1.
<mgrwt>
<rscale>  0 0.27207222E+04</rscale>
<asrwt>0</asrwt>
<pdfrwt beam="1">  1        2 0.20720424E+00 0.27207222E+04</pdfrwt>
<pdfrwt beam="2">  1       -1 0.21138933E+00 0.27207222E+04</pdfrwt>
<totfact> 0.19488293E+00</totfact>
</mgrwt>
</event>
<event>
12    7  0.1711607E-007  0.1854198E+04  0.7818608E-02  0.8677997E-01
         -1   -1    0    0    0  501 -0.00000000000E+00  0.00000000000E+00  0.27136403385E+03  0.27136403385E+03  0.00000000000E+00 0.  1.
          2   -1    0    0  501    0  0.00000000000E+00 -0.00000000000E+00 -0.31673775874E+04  0.31673775874E+04  0.00000000000E+00 0. -1.
         24    2    1    2    0    0 -0.32127210311E+03 -0.54990361155E+03 -0.54446451292E+03  0.84171399949E+03  0.80194169854E+02 0.  0.
        254    2    1    2    0    0  0.32127210311E+03  0.54990361155E+03 -0.23515490406E+04  0.25970276217E+04  0.89953311860E+03 0.  0.
         23    2    4    4    0    0  0.54268423401E+03  0.58244801192E+02 -0.10963174045E+04  0.12279771323E+04  0.90096345481E+02 0.  0.
         23    2    4    4    0    0 -0.22141213090E+03  0.49165881036E+03 -0.12552316361E+04  0.13690504894E+04  0.89112651645E+02 0.  0.
          4    1    3    3  502    0 -0.16003462223E+02 -0.33099903692E+02 -0.59980150447E+02  0.70351495188E+02  0.00000000000E+00 0. -1.
         -3    1    3    3    0  502 -0.30526864089E+03 -0.51680370786E+03 -0.48448436248E+03  0.77136250431E+03  0.00000000000E+00 0.  1.
         13    1    5    5    0    0  0.16888465815E+03  0.54087948651E+02 -0.40329503232E+03  0.44056147930E+03  0.00000000000E+00 0. -1.
        -13    1    5    5    0    0  0.37379957586E+03  0.41568525406E+01 -0.69302237216E+03  0.78741565304E+03  0.00000000000E+00 0.  1.
          1    1    6    6  503    0 -0.87270541693E+01 -0.94127889149E+00 -0.11103670518E+02  0.14154115281E+02  0.00000000000E+00 0. -1.
         -1    1    6    6    0  503 -0.21268507673E+03  0.49260008925E+03 -0.12441279656E+04  0.13548963741E+04  0.00000000000E+00 0.  1.
<mgrwt>
<rscale>  0 0.18541978E+04</rscale>
<asrwt>0</asrwt>
<pdfrwt beam="1">  1        2 0.48728886E+00 0.18541978E+04</pdfrwt>
<pdfrwt beam="2">  1       -1 0.41748313E-01 0.18541978E+04</pdfrwt>
<totfact> 0.82411666E+00</totfact>
</mgrwt>
</event>
<event>
12    7  0.1711607E-007  0.2418902E+04  0.7818608E-02  0.8432461E-01
         -1   -1    0    0    0  501 -0.00000000000E+00  0.00000000000E+00  0.96489673718E+03  0.96489673718E+03  0.00000000000E+00 0.  1.
          2   -1    0    0  501    0  0.00000000000E+00 -0.00000000000E+00 -0.15159883996E+04  0.15159883996E+04  0.00000000000E+00 0. -1.
         24    2    1    2    0    0  0.79216384664E+03  0.66048521826E+03 -0.95867463561E+02  0.10390035704E+04  0.81077526406E+02 0.  0.
        254    2    1    2    0    0 -0.79216384664E+03 -0.66048521826E+03 -0.45522419885E+03  0.14418815663E+04  0.89890438684E+03 0.  0.
         23    2    4    4    0    0 -0.86775793851E+03 -0.76992922813E+03 -0.51007002165E+03  0.12705985773E+04  0.91948145597E+02 0.  0.
         23    2    4    4    0    0  0.75594091868E+02  0.10944400986E+03  0.54845822799E+02  0.17128298905E+03  0.92937290892E+02 0.  0.
          4    1    3    3  502    0  0.36337068510E+03  0.30647534122E+03 -0.84704983077E+02  0.48284606628E+03  0.00000000000E+00 0. -1.
         -3    1    3    3    0  502  0.42879316154E+03  0.35400987704E+03 -0.11162480484E+02  0.55615750413E+03  0.00000000000E+00 0.  1.
         13    1    5    5    0    0 -0.37376011983E+03 -0.28487186138E+03 -0.17522479085E+03  0.50154992962E+03  0.00000000000E+00 0. -1.
        -13    1    5    5    0    0 -0.49399781868E+03 -0.48505736675E+03 -0.33484523080E+03  0.76904864768E+03  0.00000000000E+00 0.  1.
          2    1    6    6  503    0 -0.15137705279E+02  0.13171053021E+02 -0.11669299429E+02  0.23212050921E+02  0.00000000000E+00 0. -1.
         -2    1    6    6    0  503  0.90731797147E+02  0.96272956844E+02  0.66515122228E+02  0.14807093813E+03  0.00000000000E+00 0.  1.
<mgrwt>
<rscale>  0 0.24189024E+04</rscale>
<asrwt>0</asrwt>
<pdfrwt beam="1">  1        2 0.23322898E+00 0.24189024E+04</pdfrwt>
<pdfrwt beam="2">  1       -1 0.14844565E+00 0.24189024E+04</pdfrwt>
<totfact> 0.45624355E+00</totfact>
</mgrwt>
</event>
<event>
12    7  0.1711607E-007  0.2030959E+04  0.7818608E-02  0.8592282E-01
          2   -1    0    0  501    0  0.00000000000E+00  0.00000000000E+00  0.14693729236E+04  0.14693729236E+04  0.00000000000E+00 0. -1.
         -1   -1    0    0    0  501 -0.00000000000E+00 -0.00000000000E+00 -0.70179480286E+03  0.70179480286E+03  0.00000000000E+00 0.  1.
         24    2    1    2    0    0  0.40881068023E+03 -0.35490016428E+03 -0.24459592370E+03  0.59929565849E+03  0.79043162406E+02 0.  0.
        254    2    1    2    0    0 -0.40881068023E+03  0.35490016428E+03  0.10121740444E+04  0.15718720679E+04  0.10738739232E+04 0.  0.
         23    2    4    4    0    0  0.52122112114E+02  0.15104893995E+03  0.10429450075E+04  0.10587731579E+04  0.87942107823E+02 0.  0.
         23    2    4    4    0    0 -0.46093279234E+03  0.20385122433E+03 -0.30770963107E+02  0.51309891004E+03  0.91155244472E+02 0.  0.
          4    1    3    3  502    0  0.20452333431E+03 -0.20872317860E+03 -0.16602956995E+03  0.33609667904E+03  0.00000000000E+00 0. -1.
         -3    1    3    3    0  502  0.20428734591E+03 -0.14617698567E+03 -0.78566353750E+02  0.26319897945E+03  0.00000000000E+00 0.  1.
         13    1    5    5    0    0  0.70481088067E+02  0.97061761149E+02  0.57587788783E+03  0.58823797136E+03  0.00000000000E+00 0. -1.
        -13    1    5    5    0    0 -0.18358975953E+02  0.53987178801E+02  0.46706711968E+03  0.47053518653E+03  0.00000000000E+00 0.  1.
          1    1    6    6  503    0 -0.30261241171E+02  0.15340267326E+02 -0.26347486582E+02  0.42956449668E+02  0.00000000000E+00 0. -1.
         -1    1    6    6    0  503 -0.43067155117E+03  0.18851095700E+03 -0.44234765244E+01  0.47014246037E+03  0.00000000000E+00 0.  1.
<mgrwt>
<rscale>  0 0.20309587E+04</rscale>
<asrwt>0</asrwt>
<pdfrwt beam="1">  1        2 0.22605737E+00 0.20309587E+04</pdfrwt>
<pdfrwt beam="2">  1       -1 0.10796843E+00 0.20309587E+04</pdfrwt>
<totfact> 0.11125827E+01</totfact>
</mgrwt>
</event>
<event>
12    7  0.1711607E-007  0.1441227E+04  0.7818608E-02  0.8924506E-01
          2   -1    0    0  501    0  0.00000000000E+00  0.00000000000E+00  0.11774445538E+04  0.11774445538E+04  0.00000000000E+00 0. -1.
         -1   -1    0    0    0  501 -0.00000000000E+00 -0.00000000000E+00 -0.44102592688E+03  0.44102592688E+03  0.00000000000E+00 0.  1.
         24    2    1    2    0    0 -0.84611414220E+02 -0.11087860303E+03 -0.23839080039E+03  0.28744552333E+03  0.79634158154E+02 0.  0.
        254    2    1    2    0    0  0.84611414220E+02  0.11087860303E+03  0.97480942732E+03  0.13310249574E+04  0.89550034144E+03 0.  0.
         23    2    4    4    0    0 -0.21079815986E+03 -0.16395417308E+02 -0.62881342798E+02  0.24072812514E+03  0.96391353622E+02 0.  0.
         23    2    4    4    0    0  0.29540957408E+03  0.12727402034E+03  0.10376907701E+04  0.10902968322E+04  0.92084500669E+02 0.  0.
          2    1    3    3  502    0 -0.64434463961E+01 -0.27652488876E+02 -0.67371228849E+01  0.29181620368E+02  0.00000000000E+00 0. -1.
         -1    1    3    3    0  502 -0.78167967824E+02 -0.83226114151E+02 -0.23165367751E+03  0.25826390296E+03  0.00000000000E+00 0.  1.
         13    1    5    5    0    0 -0.10499961951E+03  0.39011154583E+02 -0.41188737307E+02  0.11934530724E+03  0.00000000000E+00 0.  1.
        -13    1    5    5    0    0 -0.10579854035E+03 -0.55406571891E+02 -0.21692605490E+02  0.12138281790E+03  0.00000000000E+00 0. -1.
          4    1    6    6  503    0  0.36211458899E+02 -0.11994318318E+02  0.84218188322E+02  0.92454511365E+02  0.00000000000E+00 0.  1.
         -4    1    6    6    0  503  0.25919811518E+03  0.13926833865E+03  0.95347258180E+03  0.99784232086E+03  0.00000000000E+00 0. -1.
<mgrwt>
<rscale>  0 0.14412267E+04</rscale>
<asrwt>0</asrwt>
<pdfrwt beam="1">  1        2 0.18114531E+00 0.14412267E+04</pdfrwt>
<pdfrwt beam="2">  1       -1 0.67850143E-01 0.14412267E+04</pdfrwt>
<totfact> 0.47561265E+01</totfact>
</mgrwt>
</event>
<event>
12    7  0.1711607E-007  0.2249130E+04  0.7818608E-02  0.8498253E-01
          2   -1    0    0  501    0  0.00000000000E+00  0.00000000000E+00  0.21378182368E+04  0.21378182368E+04  0.00000000000E+00 0. -1.
         -1   -1    0    0    0  501 -0.00000000000E+00 -0.00000000000E+00 -0.59155919425E+03  0.59155919425E+03  0.00000000000E+00 0.  1.
         24    2    1    2    0    0 -0.32642453553E+03  0.83068157693E+03  0.32524244009E+03  0.95286750169E+03  0.74759422751E+02 0.  0.
        254    2    1    2    0    0  0.32642453553E+03 -0.83068157693E+03  0.12210166025E+04  0.17765099294E+04  0.93194480848E+03 0.  0.
         23    2    4    4    0    0 -0.17446682456E+01 -0.93023950141E+03  0.88839752155E+03  0.12897924899E+04  0.94688630909E+02 0.  0.
         23    2    4    4    0    0  0.32816920377E+03  0.99557924486E+02  0.33261908092E+03  0.48671743949E+03  0.93014011222E+02 0.  0.
          2    1    3    3  502    0 -0.45846333240E+02  0.62400939250E+02  0.21307195641E+02  0.80310398311E+02  0.00000000000E+00 0. -1.
         -1    1    3    3    0  502 -0.28057820229E+03  0.76828063768E+03  0.30393524445E+03  0.87255710338E+03  0.00000000000E+00 0.  1.
         13    1    5    5    0    0 -0.32987244507E+01 -0.12906519490E+03  0.81349758961E+02  0.15259911336E+03  0.00000000000E+00 0.  1.
        -13    1    5    5    0    0  0.15540562051E+01 -0.80117430652E+03  0.80704776258E+03  0.11371933765E+04  0.00000000000E+00 0. -1.
          1    1    6    6  503    0  0.25689876012E+03  0.37308183018E+02  0.26027844136E+03  0.36760541414E+03  0.00000000000E+00 0. -1.
         -1    1    6    6    0  503  0.71270443657E+02  0.62249741467E+02  0.72340639557E+02  0.11911202535E+03  0.00000000000E+00 0.  1.
<mgrwt>
<rscale>  0 0.22491296E+04</rscale>
<asrwt>0</asrwt>
<pdfrwt beam="1">  1        2 0.32889511E+00 0.22491296E+04</pdfrwt>
<pdfrwt beam="2">  1       -1 0.91009108E-01 0.22491296E+04</pdfrwt>
<totfact> 0.68321629E+00</totfact>
</mgrwt>
</event>
<event>
12    7  0.1711607E-007  0.2092317E+04  0.7818608E-02  0.8564636E-01
         -1   -1    0    0    0  501 -0.00000000000E+00  0.00000000000E+00  0.48278649465E+03  0.48278649465E+03  0.00000000000E+00 0.  1.
          2   -1    0    0  501    0  0.00000000000E+00 -0.00000000000E+00 -0.22669383555E+04  0.22669383555E+04  0.00000000000E+00 0. -1.
         24    2    1    2    0    0 -0.57833491975E+03  0.53482718715E+03 -0.30644976134E+03  0.84916535623E+03  0.81602368048E+02 0.  0.
        254    2    1    2    0    0  0.57833491975E+03 -0.53482718715E+03 -0.14777020995E+04  0.19005594940E+04  0.89889459647E+03 0.  0.
         23    2    4    4    0    0  0.21348214825E+03  0.14961929209E+03 -0.86510693188E+03  0.90806796719E+03  0.90646948448E+02 0.  0.
         23    2    4    4    0    0  0.36485277150E+03 -0.68444647924E+03 -0.61259516765E+03  0.99249152676E+03  0.90454759085E+02 0.  0.
          2    1    3    3  502    0 -0.90756696550E+02  0.10566874760E+03 -0.83598573862E+02  0.16245425122E+03  0.00000000000E+00 0. -1.
         -1    1    3    3    0  502 -0.48757822320E+03  0.42915843955E+03 -0.22285118748E+03  0.68671110501E+03  0.00000000000E+00 0.  1.
         13    1    5    5    0    0  0.52027808262E+02  0.88248390330E+02 -0.28862996432E+03  0.30627100342E+03  0.00000000000E+00 0. -1.
        -13    1    5    5    0    0  0.16145433999E+03  0.61370901761E+02 -0.57647696756E+03  0.60179696378E+03  0.00000000000E+00 0.  1.
          1    1    6    6  503    0  0.24630385241E+03 -0.41854854260E+03 -0.43141002800E+03  0.64958685523E+03  0.00000000000E+00 0. -1.
         -1    1    6    6    0  503  0.11854891909E+03 -0.26589793664E+03 -0.18118513965E+03  0.34290467153E+03  0.00000000000E+00 0.  1.
<mgrwt>
<rscale>  0 0.20923166E+04</rscale>
<asrwt>0</asrwt>
<pdfrwt beam="1">  1        2 0.34875975E+00 0.20923166E+04</pdfrwt>
<pdfrwt beam="2">  1       -1 0.74274845E-01 0.20923166E+04</pdfrwt>
<totfact> 0.90655610E+00</totfact>
</mgrwt>
</event>
<event>
12    7  0.1711607E-007  0.1587908E+04  0.7818608E-02  0.8828011E-01
         -1   -1    0    0    0  501 -0.00000000000E+00  0.00000000000E+00  0.25454662875E+03  0.25454662875E+03  0.00000000000E+00 0.  1.
          2   -1    0    0  501    0  0.00000000000E+00 -0.00000000000E+00 -0.24764152686E+04  0.24764152686E+04  0.00000000000E+00 0. -1.
         24    2    1    2    0    0 -0.29316217598E+03  0.40610637346E+03 -0.10780074101E+04  0.11912008866E+04  0.77415295890E+02 0.  0.
        254    2    1    2    0    0  0.29316217598E+03 -0.40610637346E+03 -0.11438612298E+04  0.15397610107E+04  0.90087680028E+03 0.  0.
         23    2    4    4    0    0  0.25652234558E+03 -0.37901146172E+03 -0.12824107860E+04  0.13649895070E+04  0.95736765510E+02 0.  0.
         23    2    4    4    0    0  0.36639830400E+02 -0.27094911739E+02  0.13854955620E+03  0.17477150379E+03  0.96293756820E+02 0.  0.
          4    1    3    3  502    0 -0.22077630806E+03  0.30578506466E+03 -0.72660014195E+03  0.81865404797E+03  0.00000000000E+00 0. -1.
         -3    1    3    3    0  502 -0.72385867919E+02  0.10032130880E+03 -0.35140726816E+03  0.37254683866E+03  0.00000000000E+00 0.  1.
         13    1    5    5    0    0  0.21369143759E+03 -0.24597145957E+03 -0.95272901138E+03  0.10069054367E+04  0.00000000000E+00 0. -1.
        -13    1    5    5    0    0  0.42830907984E+02 -0.13304000215E+03 -0.32968177457E+03  0.35808407021E+03  0.00000000000E+00 0.  1.
          2    1    6    6  503    0  0.40615818468E+02  0.24051472313E+02  0.33554885719E+02  0.57914146682E+02  0.00000000000E+00 0.  1.
         -2    1    6    6    0  503 -0.39759880678E+01 -0.51146384052E+02  0.10499467048E+03  0.11685735711E+03  0.00000000000E+00 0. -1.
<mgrwt>
<rscale>  0 0.15879083E+04</rscale>
<asrwt>0</asrwt>
<pdfrwt beam="1">  1        2 0.38098696E+00 0.15879083E+04</pdfrwt>
<pdfrwt beam="2">  1       -1 0.39161021E-01 0.15879083E+04</pdfrwt>
<totfact> 0.24914722E+01</totfact>
</mgrwt>
</event>
<event>
12    7  0.1711607E-007  0.2201012E+04  0.7818608E-02  0.8518007E-01
          2   -1    0    0  501    0  0.00000000000E+00  0.00000000000E+00  0.21330503744E+04  0.21330503744E+04  0.00000000000E+00 0. -1.
         -1   -1    0    0    0  501 -0.00000000000E+00 -0.00000000000E+00 -0.56778465245E+03  0.56778465245E+03  0.00000000000E+00 0.  1.
         24    2    1    2    0    0 -0.88939692511E+03 -0.28338993534E+02  0.40020934256E+03  0.97889796349E+03  0.79017188572E+02 0.  0.
        254    2    1    2    0    0  0.88939692511E+03  0.28338993534E+02  0.11650563794E+04  0.17219370633E+04  0.90326125457E+03 0.  0.
         23    2    4    4    0    0 -0.16623128227E+03  0.75356360824E+02  0.14977549388E+03  0.25356878562E+03  0.92482485654E+02 0.  0.
         23    2    4    4    0    0  0.10556282074E+04 -0.47017367290E+02  0.10152808855E+04  0.14683682777E+04  0.93533830691E+02 0.  0.
          4    1    3    3  502    0 -0.20994450688E+03 -0.36845529033E+02  0.79310901733E+02  0.22743022691E+03  0.00000000000E+00 0. -1.
         -3    1    3    3    0  502 -0.67945241824E+03  0.85065354997E+01  0.32089844083E+03  0.75146773658E+03  0.00000000000E+00 0.  1.
         13    1    5    5    0    0 -0.15918492689E+03  0.90713059267E+02  0.11903329534E+03  0.21848941730E+03  0.00000000000E+00 0.  1.
        -13    1    5    5    0    0 -0.70463553808E+01 -0.15356698443E+02  0.30742198535E+02  0.35079368324E+02  0.00000000000E+00 0. -1.
          4    1    6    6  503    0  0.44567483288E+02  0.17049289041E+02  0.45355268171E+02  0.65833419889E+02  0.00000000000E+00 0. -1.
         -4    1    6    6    0  503  0.10110607241E+04 -0.64066656332E+02  0.96992561730E+03  0.14025348578E+04  0.00000000000E+00 0.  1.
<mgrwt>
<rscale>  0 0.22010118E+04</rscale>
<asrwt>0</asrwt>
<pdfrwt beam="1">  1        2 0.32816159E+00 0.22010118E+04</pdfrwt>
<pdfrwt beam="2">  1       -1 0.87351486E-01 0.22010118E+04</pdfrwt>
<totfact> 0.75550304E+00</totfact>
</mgrwt>
</event>
<event>
12    7  0.1711607E-007  0.2195134E+04  0.7818608E-02  0.8520456E-01
         -1   -1    0    0    0  501 -0.00000000000E+00  0.00000000000E+00  0.48885803272E+03  0.48885803272E+03  0.00000000000E+00 0.  1.
          2   -1    0    0  501    0  0.00000000000E+00 -0.00000000000E+00 -0.24642197290E+04  0.24642197290E+04  0.00000000000E+00 0. -1.
         24    2    1    2    0    0  0.16726167927E+02 -0.79618682046E+03 -0.12669547844E+04  0.14986144604E+04  0.80483897044E+02 0.  0.
        254    2    1    2    0    0 -0.16726167927E+02  0.79618682046E+03 -0.70840691192E+03  0.14544633013E+04  0.98966151998E+03 0.  0.
         23    2    4    4    0    0  0.39155990142E+03  0.70033094630E+03 -0.61297380585E+03  0.10140024835E+04  0.93174884805E+02 0.  0.
         23    2    4    4    0    0 -0.40828606935E+03  0.95855874158E+02 -0.95433106077E+02  0.44046081777E+03  0.94933614782E+02 0.  0.
          2    1    3    3  502    0  0.27297836071E+02 -0.77725587551E+03 -0.12433944031E+04  0.14665952099E+04  0.00000000000E+00 0. -1.
         -1    1    3    3    0  502 -0.10571668144E+02 -0.18930944949E+02 -0.23560381223E+02  0.32019250575E+02  0.00000000000E+00 0.  1.
         13    1    5    5    0    0  0.37751121042E+03  0.67088298257E+03 -0.56060288644E+03  0.95229947316E+03  0.00000000000E+00 0. -1.
        -13    1    5    5    0    0  0.14048691004E+02  0.29447963730E+02 -0.52370919403E+02  0.61703010347E+02  0.00000000000E+00 0.  1.
          3    1    6    6  503    0 -0.30392846243E+03  0.31480461642E+02 -0.49575620073E+02  0.30955011201E+03  0.00000000000E+00 0. -1.
         -3    1    6    6    0  503 -0.10435760692E+03  0.64375412516E+02 -0.45857486003E+02  0.13091070575E+03  0.00000000000E+00 0.  1.
<mgrwt>
<rscale>  0 0.21951343E+04</rscale>
<asrwt>0</asrwt>
<pdfrwt beam="1">  1        2 0.37911073E+00 0.21951343E+04</pdfrwt>
<pdfrwt beam="2">  1       -1 0.75208927E-01 0.21951343E+04</pdfrwt>
<totfact> 0.67538226E+00</totfact>
</mgrwt>
</event>
<event>
12    7  0.1711607E-007  0.2601263E+04  0.7818608E-02  0.8367772E-01
          2   -1    0    0  501    0  0.00000000000E+00  0.00000000000E+00  0.16152728811E+04  0.16152728811E+04  0.00000000000E+00 0. -1.
         -1   -1    0    0    0  501 -0.00000000000E+00 -0.00000000000E+00 -0.10472798884E+04  0.10472798884E+04  0.00000000000E+00 0.  1.
         24    2    1    2    0    0 -0.27754153410E+03  0.11158845871E+03 -0.88050470536E+03  0.93342269072E+03  0.80672771868E+02 0.  0.
        254    2    1    2    0    0  0.27754153410E+03 -0.11158845871E+03  0.14484976981E+04  0.17291300788E+04  0.89569188937E+03 0.  0.
         23    2    4    4    0    0 -0.70047342807E+02  0.33637384574E+03  0.70206344105E+03  0.78707248168E+03  0.92390593831E+02 0.  0.
         23    2    4    4    0    0  0.34758887691E+03 -0.44796230446E+03  0.74643425703E+03  0.94205759709E+03  0.93915720668E+02 0.  0.
          2    1    3    3  502    0 -0.19861668329E+02  0.14901891749E+02 -0.16414554167E+03  0.16601298472E+03  0.00000000000E+00 0. -1.
         -1    1    3    3    0  502 -0.25767986577E+03  0.96686566965E+02 -0.71635916368E+03  0.76740970599E+03  0.00000000000E+00 0.  1.
         13    1    5    5    0    0 -0.35546096054E+02  0.34502485755E+02  0.69790153037E+02  0.85583946678E+02  0.00000000000E+00 0.  1.
        -13    1    5    5    0    0 -0.34501246753E+02  0.30187135999E+03  0.63227328801E+03  0.70148853500E+03  0.00000000000E+00 0. -1.
          1    1    6    6  503    0  0.23514036881E+03 -0.23152692886E+03  0.45402584541E+03  0.56127994809E+03  0.00000000000E+00 0. -1.
         -1    1    6    6    0  503  0.11244850810E+03 -0.21643537560E+03  0.29240841162E+03  0.38077764899E+03  0.00000000000E+00 0.  1.
<mgrwt>
<rscale>  0 0.26012634E+04</rscale>
<asrwt>0</asrwt>
<pdfrwt beam="1">  1        2 0.24850352E+00 0.26012634E+04</pdfrwt>
<pdfrwt beam="2">  1       -1 0.16111998E+00 0.26012634E+04</pdfrwt>
<totfact> 0.31560858E+00</totfact>
</mgrwt>
</event>
<event>
12    7  0.1711607E-007  0.1798507E+04  0.7818608E-02  0.8707094E-01
          2   -1    0    0  501    0  0.00000000000E+00  0.00000000000E+00  0.21064725983E+04  0.21064725983E+04  0.00000000000E+00 0. -1.
         -1   -1    0    0    0  501 -0.00000000000E+00 -0.00000000000E+00 -0.38389141724E+03  0.38389141724E+03  0.00000000000E+00 0.  1.
         24    2    1    2    0    0 -0.53477868212E+03  0.21430427595E+03  0.11369528433E+04  0.12767939708E+04  0.75010096022E+02 0.  0.
        254    2    1    2    0    0  0.53477868212E+03 -0.21430427595E+03  0.58562833779E+03  0.12135700447E+04  0.89323968897E+03 0.  0.
         23    2    4    4    0    0  0.17537735151E+03  0.22671581369E+00 -0.22326436765E+03  0.29853931198E+03  0.92311841671E+02 0.  0.
         23    2    4    4    0    0  0.35940133061E+03 -0.21453099177E+03  0.80889270543E+03  0.91503073277E+03  0.88209807522E+02 0.  0.
          2    1    3    3  502    0 -0.17246687988E+03  0.83057345236E+02  0.30780873953E+03  0.36247698876E+03  0.00000000000E+00 0. -1.
         -1    1    3    3    0  502 -0.36231180224E+03  0.13124693072E+03  0.82914410379E+03  0.91431698208E+03  0.00000000000E+00 0.  1.
         13    1    5    5    0    0  0.14805884128E+03  0.20639726238E+02 -0.12612853686E+03  0.19559096756E+03  0.00000000000E+00 0. -1.
        -13    1    5    5    0    0  0.27318510225E+02 -0.20413010424E+02 -0.97135830782E+02  0.10294834441E+03  0.00000000000E+00 0.  1.
          4    1    6    6  503    0  0.30508387059E+03 -0.18906041734E+03  0.74744801243E+03  0.82915531765E+03  0.00000000000E+00 0. -1.
         -4    1    6    6    0  503  0.54317460020E+02 -0.25470574426E+02  0.61444693006E+02  0.85875415127E+02  0.00000000000E+00 0.  1.
<mgrwt>
<rscale>  0 0.17985069E+04</rscale>
<asrwt>0</asrwt>
<pdfrwt beam="1">  1        2 0.32407270E+00 0.17985069E+04</pdfrwt>
<pdfrwt beam="2">  1       -1 0.59060219E-01 0.17985069E+04</pdfrwt>
<totfact> 0.18209096E+01</totfact>
</mgrwt>
</event>
<event>
12    7  0.1711607E-007  0.1069437E+04  0.7818608E-02  0.9235504E-01
         -1   -1    0    0    0  501 -0.00000000000E+00  0.00000000000E+00  0.23271753244E+04  0.23271753244E+04  0.00000000000E+00 0.  1.
          2   -1    0    0  501    0  0.00000000000E+00 -0.00000000000E+00 -0.12286299068E+03  0.12286299068E+03  0.00000000000E+00 0. -1.
         24    2    1    2    0    0 -0.11454271180E+03  0.49410383201E+02  0.22945381938E+03  0.27277789684E+03  0.78722976187E+02 0.  0.
        254    2    1    2    0    0  0.11454271180E+03 -0.49410383201E+02  0.19748585143E+04  0.21772604182E+04  0.90820446948E+03 0.  0.
         23    2    4    4    0    0  0.48903512431E+03  0.94063095780E+02  0.11025137627E+04  0.12132540737E+04  0.91900117590E+02 0.  0.
         23    2    4    4    0    0 -0.37449241251E+03 -0.14347347898E+03  0.87234475161E+03  0.96400634451E+03  0.86565930963E+02 0.  0.
          4    1    3    3  502    0 -0.20198368976E+02  0.11719281698E+02  0.17258230694E+01  0.23415681456E+02  0.00000000000E+00 0. -1.
         -3    1    3    3    0  502 -0.94344342823E+02  0.37691101503E+02  0.22772799631E+03  0.24936221538E+03  0.00000000000E+00 0.  1.
         13    1    5    5    0    0  0.43097800653E+03  0.52297612885E+02  0.96843314045E+03  0.10612915857E+04  0.00000000000E+00 0.  1.
        -13    1    5    5    0    0  0.58057117776E+02  0.41765482896E+02  0.13408062224E+03  0.15196248796E+03  0.00000000000E+00 0. -1.
          1    1    6    6  503    0 -0.70524847231E+02 -0.18428068983E+01  0.21131260616E+03  0.22277829234E+03  0.00000000000E+00 0. -1.
         -1    1    6    6    0  503 -0.30396756528E+03 -0.14163067208E+03  0.66103214544E+03  0.74122805217E+03  0.00000000000E+00 0.  1.
<mgrwt>
<rscale>  0 0.10694367E+04</rscale>
<asrwt>0</asrwt>
<pdfrwt beam="1">  1        2 0.18902000E-01 0.10694367E+04</pdfrwt>
<pdfrwt beam="2">  1       -1 0.35802694E+00 0.10694367E+04</pdfrwt>
<totfact> 0.48631975E+00</totfact>
</mgrwt>
</event>
<event>
12    7  0.1711607E-007  0.1582374E+04  0.7818608E-02  0.8831450E-01
         -1   -1    0    0    0  501 -0.00000000000E+00  0.00000000000E+00  0.19102857775E+03  0.19102857775E+03  0.00000000000E+00 0.  1.
          2   -1    0    0  501    0  0.00000000000E+00 -0.00000000000E+00 -0.32768758191E+04  0.32768758191E+04  0.00000000000E+00 0. -1.
         24    2    1    2    0    0 -0.81923486574E+02 -0.17858617267E+03 -0.21189915318E+04  0.21293348725E+04  0.73057569427E+02 0.  0.
        254    2    1    2    0    0  0.81923486574E+02  0.17858617267E+03 -0.96685570953E+03  0.13385695244E+04  0.90462916703E+03 0.  0.
         23    2    4    4    0    0 -0.20502571857E+03  0.38841483327E+03 -0.83678033048E+03  0.94860026293E+03  0.82094514813E+02 0.  0.
         23    2    4    4    0    0  0.28694920515E+03 -0.20982866059E+03 -0.13007537904E+03  0.38996926146E+03  0.93747039986E+02 0.  0.
          4    1    3    3  502    0 -0.26424278121E+02 -0.40590424995E+02 -0.90004615062E+03  0.90134837789E+03  0.00000000000E+00 0. -1.
         -3    1    3    3    0  502 -0.55499208453E+02 -0.13799574768E+03 -0.12189453812E+04  0.12279864946E+04  0.00000000000E+00 0.  1.
         13    1    5    5    0    0 -0.38555598500E+02  0.50094166979E+02 -0.71261123110E+02  0.95258109407E+02  0.00000000000E+00 0. -1.
        -13    1    5    5    0    0 -0.16647012007E+03  0.33832066629E+03 -0.76551920737E+03  0.85334215352E+03  0.00000000000E+00 0.  1.
          3    1    6    6  503    0  0.38980995251E+02 -0.39656210900E+02 -0.58729953356E+02  0.80878553863E+02  0.00000000000E+00 0. -1.
         -3    1    6    6    0  503  0.24796820990E+03 -0.17017244969E+03 -0.71345425687E+02  0.30909070759E+03  0.00000000000E+00 0.  1.
<mgrwt>
<rscale>  0 0.15823741E+04</rscale>
<asrwt>0</asrwt>
<pdfrwt beam="1">  1        2 0.50413475E+00 0.15823741E+04</pdfrwt>
<pdfrwt beam="2">  1       -1 0.29389012E-01 0.15823741E+04</pdfrwt>
<totfact> 0.13473257E+01</totfact>
</mgrwt>
</event>
<event>
12    7  0.1711607E-007  0.1969254E+04  0.7818608E-02  0.8621132E-01
          2   -1    0    0  501    0  0.00000000000E+00  0.00000000000E+00  0.13666544612E+04  0.13666544612E+04  0.00000000000E+00 0. -1.
         -1   -1    0    0    0  501 -0.00000000000E+00 -0.00000000000E+00 -0.70938932568E+03  0.70938932568E+03  0.00000000000E+00 0.  1.
         24    2    1    2    0    0 -0.16734864046E+03 -0.43135025776E+03 -0.39225605314E+03  0.61168689204E+03  0.78914069370E+02 0.  0.
        254    2    1    2    0    0  0.16734864046E+03  0.43135025776E+03  0.10495211887E+04  0.14643568949E+04  0.91037232918E+03 0.  0.
         23    2    4    4    0    0  0.89824366893E+02  0.67206639383E+03  0.48401133353E+03  0.83815780277E+03  0.92194776166E+02 0.  0.
         23    2    4    4    0    0  0.77524273562E+02 -0.24071613608E+03  0.56550985517E+03  0.62619909212E+03  0.91485712046E+02 0.  0.
          4    1    3    3  502    0 -0.85831488430E+01 -0.10975631363E+03 -0.79107089528E+02  0.13556566837E+03  0.00000000000E+00 0. -1.
         -3    1    3    3    0  502 -0.15876549161E+03 -0.32159394412E+03 -0.31314896361E+03  0.47612122368E+03  0.00000000000E+00 0.  1.
         13    1    5    5    0    0  0.74563233031E+02  0.39370176958E+03  0.33357298299E+03  0.52137481150E+03  0.00000000000E+00 0.  1.
        -13    1    5    5    0    0  0.15261133862E+02  0.27836462426E+03  0.15043835054E+03  0.31678299127E+03  0.00000000000E+00 0. -1.
          3    1    6    6  503    0  0.69907913364E+02 -0.85840612141E+02  0.28388783309E+03  0.30470974520E+03  0.00000000000E+00 0. -1.
         -3    1    6    6    0  503  0.76163601980E+01 -0.15487552394E+03  0.28162202208E+03  0.32148934691E+03  0.00000000000E+00 0.  1.
<mgrwt>
<rscale>  0 0.19692538E+04</rscale>
<asrwt>0</asrwt>
<pdfrwt beam="1">  1        2 0.21025453E+00 0.19692538E+04</pdfrwt>
<pdfrwt beam="2">  1       -1 0.10913682E+00 0.19692538E+04</pdfrwt>
<totfact> 0.12482867E+01</totfact>
</mgrwt>
</event>
<event>
12    7  0.1711607E-007  0.1687065E+04  0.7818608E-02  0.8768776E-01
         -1   -1    0    0    0  501 -0.00000000000E+00  0.00000000000E+00  0.99101411612E+03  0.99101411612E+03  0.00000000000E+00 0.  1.
          2   -1    0    0  501    0  0.00000000000E+00 -0.00000000000E+00 -0.71799853401E+03  0.71799853401E+03  0.00000000000E+00 0. -1.
         24    2    1    2    0    0 -0.14607676533E+03 -0.51130098554E+03  0.36287631063E+03  0.64966189996E+03  0.87259659967E+02 0.  0.
        254    2    1    2    0    0  0.14607676533E+03  0.51130098554E+03 -0.89860728526E+02  0.10593507502E+04  0.91180148178E+03 0.  0.
         23    2    4    4    0    0 -0.18222815214E+02  0.63679981767E+03 -0.33528595681E+03  0.72561487557E+03  0.90852606075E+02 0.  0.
         23    2    4    4    0    0  0.16429958055E+03 -0.12549883213E+03  0.24542522828E+03  0.33373587460E+03  0.91661236545E+02 0.  0.
          4    1    3    3  502    0 -0.12431183603E+03 -0.33838381642E+03  0.20616045893E+03  0.41528204226E+03  0.00000000000E+00 0. -1.
         -3    1    3    3    0  502 -0.21764929302E+02 -0.17291716912E+03  0.15671585169E+03  0.23437985770E+03  0.00000000000E+00 0.  1.
         13    1    5    5    0    0 -0.48483455865E+02  0.35632429655E+03 -0.16089223302E+03  0.39395933857E+03  0.00000000000E+00 0. -1.
        -13    1    5    5    0    0  0.30260640651E+02  0.28047552113E+03 -0.17439372379E+03  0.33165553700E+03  0.00000000000E+00 0.  1.
          1    1    6    6  503    0  0.11962280589E+03 -0.36355539113E+02  0.11782591508E+03  0.17179722692E+03  0.00000000000E+00 0. -1.
         -1    1    6    6    0  503  0.44676774662E+02 -0.89143293020E+02  0.12759931320E+03  0.16193864768E+03  0.00000000000E+00 0.  1.
<mgrwt>
<rscale>  0 0.16870645E+04</rscale>
<asrwt>0</asrwt>
<pdfrwt beam="1">  1        2 0.11046131E+00 0.16870645E+04</pdfrwt>
<pdfrwt beam="2">  1       -1 0.15246371E+00 0.16870645E+04</pdfrwt>
<totfact> 0.14404780E+01</totfact>
</mgrwt>
</event>
<event>
12    7  0.1711607E-007  0.1946417E+04  0.7818608E-02  0.8632090E-01
          2   -1    0    0  501    0  0.00000000000E+00  0.00000000000E+00  0.30042160624E+04  0.30042160624E+04  0.00000000000E+00 0. -1.
         -1   -1    0    0    0  501 -0.00000000000E+00 -0.00000000000E+00 -0.31526854264E+03  0.31526854264E+03  0.00000000000E+00 0.  1.
         24    2    1    2    0    0 -0.55766693106E+03  0.15099372483E+03  0.20031771709E+04  0.20864974408E+04  0.83434294953E+02 0.  0.
        254    2    1    2    0    0  0.55766693106E+03 -0.15099372483E+03  0.68577034887E+03  0.12329871642E+04  0.84627706150E+03 0.  0.
         23    2    4    4    0    0  0.75449091718E+02 -0.17202726488E+03  0.71130885917E+03  0.74151261067E+03  0.92707676847E+02 0.  0.
         23    2    4    4    0    0  0.48221783935E+03  0.21033540044E+02 -0.25538510305E+02  0.49147455355E+03  0.88986329800E+02 0.  0.
          2    1    3    3  502    0 -0.49289483378E+03  0.14631563777E+03  0.18501069092E+04  0.19202211223E+04  0.00000000000E+00 0. -1.
         -3    1    3    3    0  502 -0.64772097285E+02  0.46780870662E+01  0.15307026169E+03  0.16627631852E+03  0.00000000000E+00 0.  1.
         13    1    5    5    0    0  0.11925683580E+01 -0.16052077964E+02  0.22240199109E+03  0.22298371480E+03  0.00000000000E+00 0.  1.
        -13    1    5    5    0    0  0.74256523360E+02 -0.15597518691E+03  0.48890686809E+03  0.51852889587E+03  0.00000000000E+00 0. -1.
          3    1    6    6  503    0  0.36075589848E+03 -0.21497764296E+02 -0.70863587281E+01  0.36146533532E+03  0.00000000000E+00 0. -1.
         -3    1    6    6    0  503  0.12146194087E+03  0.42531304340E+02 -0.18452151577E+02  0.13000921823E+03  0.00000000000E+00 0.  1.
<mgrwt>
<rscale>  0 0.19464170E+04</rscale>
<asrwt>0</asrwt>
<pdfrwt beam="1">  1        2 0.46218707E+00 0.19464170E+04</pdfrwt>
<pdfrwt beam="2">  1       -1 0.48502855E-01 0.19464170E+04</pdfrwt>
<totfact> 0.78385869E+00</totfact>
</mgrwt>
</event>
<event>
12    7  0.1711607E-007  0.2542838E+04  0.7818608E-02  0.8387881E-01
          2   -1    0    0  501    0  0.00000000000E+00  0.00000000000E+00  0.10197512236E+04  0.10197512236E+04  0.00000000000E+00 0. -1.
         -1   -1    0    0    0  501 -0.00000000000E+00 -0.00000000000E+00 -0.15851961646E+04  0.15851961646E+04  0.00000000000E+00 0.  1.
         24    2    1    2    0    0  0.47649665813E+03  0.82205922585E+03 -0.84142747375E+03  0.12717247813E+04  0.80332370741E+02 0.  0.
        254    2    1    2    0    0 -0.47649665813E+03 -0.82205922585E+03  0.27598253273E+03  0.13332226069E+04  0.89358028469E+03 0.  0.
         23    2    4    4    0    0 -0.13062526968E+03  0.15338450986E+03  0.18867298975E+03  0.29073282111E+03  0.91314332216E+02 0.  0.
         23    2    4    4    0    0 -0.34587138845E+03 -0.97544373571E+03  0.87309542976E+02  0.10424897858E+04  0.89691127227E+02 0.  0.
          2    1    3    3  502    0  0.26922415244E+03  0.49746160018E+03 -0.45237603516E+03  0.72428845434E+03  0.00000000000E+00 0. -1.
         -1    1    3    3    0  502  0.20727250569E+03  0.32459762567E+03 -0.38905143860E+03  0.54743632697E+03  0.00000000000E+00 0.  1.
         13    1    5    5    0    0 -0.13190724762E+03  0.95224504094E+02  0.14589319304E+03  0.21852242889E+03  0.00000000000E+00 0. -1.
        -13    1    5    5    0    0  0.12819779393E+01  0.58160005767E+02  0.42779796714E+02  0.72210392224E+02  0.00000000000E+00 0.  1.
          1    1    6    6  503    0 -0.21975133305E+03 -0.70698167405E+03  0.34009261729E+02  0.74112776611E+03  0.00000000000E+00 0. -1.
         -1    1    6    6    0  503 -0.12612005540E+03 -0.26846206166E+03  0.53300281247E+02  0.30136201968E+03  0.00000000000E+00 0.  1.
<mgrwt>
<rscale>  0 0.25428376E+04</rscale>
<asrwt>0</asrwt>
<pdfrwt beam="1">  1        2 0.15688480E+00 0.25428376E+04</pdfrwt>
<pdfrwt beam="2">  1       -1 0.24387633E+00 0.25428376E+04</pdfrwt>
<totfact> 0.18951607E+00</totfact>
</mgrwt>
</event>
<event>
12    7  0.1711607E-007  0.3147971E+04  0.7818608E-02  0.8202695E-01
         -1   -1    0    0    0  501 -0.00000000000E+00  0.00000000000E+00  0.71190507411E+03  0.71190507411E+03  0.00000000000E+00 0.  1.
          2   -1    0    0  501    0  0.00000000000E+00 -0.00000000000E+00 -0.34800007493E+04  0.34800007493E+04  0.00000000000E+00 0. -1.
         24    2    1    2    0    0  0.34982793966E+03  0.11929226647E+04 -0.22486248946E+04  0.25706082321E+04  0.79175092256E+02 0.  0.
        254    2    1    2    0    0 -0.34982793966E+03 -0.11929226647E+04 -0.51947078065E+03  0.16212975913E+04  0.90183807649E+03 0.  0.
         23    2    4    4    0    0 -0.32346239814E+03 -0.45220021632E+02 -0.29124962477E+03  0.44721737469E+03  0.92218560670E+02 0.  0.
         23    2    4    4    0    0 -0.26365541523E+02 -0.11477026431E+04 -0.22822115588E+03  0.11740802166E+04  0.91994349178E+02 0.  0.
          4    1    3    3  502    0  0.29846631693E+03  0.10960750231E+04 -0.20430118574E+04  0.23375970671E+04  0.00000000000E+00 0. -1.
         -3    1    3    3    0  502  0.51361622726E+02  0.96847641628E+02 -0.20561303718E+03  0.23301116505E+03  0.00000000000E+00 0.  1.
         13    1    5    5    0    0 -0.62134668641E+02 -0.46714490078E+02 -0.74939398851E+02  0.10797626652E+03  0.00000000000E+00 0.  1.
        -13    1    5    5    0    0 -0.26132772949E+03  0.14944684459E+01 -0.21631022592E+03  0.33924110817E+03  0.00000000000E+00 0. -1.
          2    1    6    6  503    0 -0.60649070625E+02 -0.80050108075E+03 -0.15884592518E+03  0.81835952857E+03  0.00000000000E+00 0. -1.
         -2    1    6    6    0  503  0.34283529102E+02 -0.34720156235E+03 -0.69375230702E+02  0.35572068804E+03  0.00000000000E+00 0.  1.
<mgrwt>
<rscale>  0 0.31479709E+04</rscale>
<asrwt>0</asrwt>
<pdfrwt beam="1">  1        2 0.53538471E+00 0.31479709E+04</pdfrwt>
<pdfrwt beam="2">  1       -1 0.10952386E+00 0.31479709E+04</pdfrwt>
<totfact> 0.62103096E-01</totfact>
</mgrwt>
</event>
<event>
12    7  0.1711607E-007  0.2133806E+04  0.7818608E-02  0.8546496E-01
          2   -1    0    0  501    0  0.00000000000E+00  0.00000000000E+00  0.17499205891E+04  0.17499205891E+04  0.00000000000E+00 0. -1.
         -1   -1    0    0    0  501 -0.00000000000E+00 -0.00000000000E+00 -0.65047668074E+03  0.65047668074E+03  0.00000000000E+00 0.  1.
         24    2    1    2    0    0 -0.83758778048E+03 -0.55906497549E+01  0.17279114478E+03  0.85909142518E+03  0.81220389829E+02 0.  0.
        254    2    1    2    0    0  0.83758778048E+03  0.55906497549E+01  0.92665276353E+03  0.15413058446E+04  0.90296944416E+03 0.  0.
         23    2    4    4    0    0  0.83170829415E+03  0.32380425125E+03  0.72423739627E+03  0.11530167083E+04  0.91322745078E+02 0.  0.
         23    2    4    4    0    0  0.58794863326E+01 -0.31821360150E+03  0.20241536727E+03  0.38828913631E+03  0.92206333477E+02 0.  0.
          4    1    3    3  502    0 -0.23963633055E+03  0.12088338733E+02  0.14954430157E+02  0.24040660106E+03  0.00000000000E+00 0. -1.
         -3    1    3    3    0  502 -0.59795144994E+03 -0.17678988488E+02  0.15783671463E+03  0.61868482412E+03  0.00000000000E+00 0.  1.
         13    1    5    5    0    0  0.70670536871E+01 -0.57626655633E+01  0.72272550537E+01  0.11635496458E+02  0.00000000000E+00 0.  1.
        -13    1    5    5    0    0  0.82464124046E+03  0.32956691682E+03  0.71701014121E+03  0.11413812118E+04  0.00000000000E+00 0. -1.
          4    1    6    6  503    0 -0.16770746496E+02 -0.17660772246E+03  0.62923392648E+02  0.18823097225E+03  0.00000000000E+00 0. -1.
         -4    1    6    6    0  503  0.22650232829E+02 -0.14160587904E+03  0.13949197462E+03  0.20005816406E+03  0.00000000000E+00 0.  1.
<mgrwt>
<rscale>  0 0.21338065E+04</rscale>
<asrwt>0</asrwt>
<pdfrwt beam="1">  1        2 0.26921855E+00 0.21338065E+04</pdfrwt>
<pdfrwt beam="2">  1       -1 0.10007334E+00 0.21338065E+04</pdfrwt>
<totfact> 0.91603938E+00</totfact>
</mgrwt>
</event>
<event>
12    7  0.1711607E-007  0.1533109E+04  0.7818608E-02  0.8862729E-01
         -1   -1    0    0    0  501 -0.00000000000E+00  0.00000000000E+00  0.58912988898E+03  0.58912988898E+03  0.00000000000E+00 0.  1.
          2   -1    0    0  501    0  0.00000000000E+00 -0.00000000000E+00 -0.99741331021E+03  0.99741331021E+03  0.00000000000E+00 0. -1.
         24    2    1    2    0    0  0.44877016560E+03  0.18945492856E+03 -0.25928913158E+03  0.55750303921E+03  0.79315531135E+02 0.  0.
        254    2    1    2    0    0 -0.44877016560E+03 -0.18945492856E+03 -0.14899428966E+03  0.10290401600E+04  0.89411214118E+03 0.  0.
         23    2    4    4    0    0 -0.37585411136E+03  0.23791576772E+03 -0.31825869359E+03  0.55393186035E+03  0.87645218395E+02 0.  0.
         23    2    4    4    0    0 -0.72916054243E+02 -0.42737069629E+03  0.16926440393E+03  0.47510829963E+03  0.95472482566E+02 0.  0.
          2    1    3    3  502    0  0.13960609492E+03  0.71215553543E+02 -0.12431104425E+03  0.20003687792E+03  0.00000000000E+00 0. -1.
         -1    1    3    3    0  502  0.30916407068E+03  0.11823937502E+03 -0.13497808732E+03  0.35746616129E+03  0.00000000000E+00 0.  1.
         13    1    5    5    0    0 -0.32948986221E+00  0.84809199437E+01 -0.21606909293E+02  0.23214071075E+02  0.00000000000E+00 0.  1.
        -13    1    5    5    0    0 -0.37552462150E+03  0.22943484778E+03 -0.29665178430E+03  0.53071778928E+03  0.00000000000E+00 0. -1.
          4    1    6    6  503    0 -0.55858219008E+02 -0.42252507467E+03  0.16250764973E+03  0.45613190590E+03  0.00000000000E+00 0. -1.
         -4    1    6    6    0  503 -0.17057835235E+02 -0.48456216162E+01  0.67567542085E+01  0.18976393735E+02  0.00000000000E+00 0.  1.
<mgrwt>
<rscale>  0 0.15331092E+04</rscale>
<asrwt>0</asrwt>
<pdfrwt beam="1">  1        2 0.15344820E+00 0.15331092E+04</pdfrwt>
<pdfrwt beam="2">  1       -1 0.90635368E-01 0.15331092E+04</pdfrwt>
<totfact> 0.33075311E+01</totfact>
</mgrwt>
</event>
<event>
12    7  0.1711607E-007  0.2008317E+04  0.7818608E-02  0.8602742E-01
         -1   -1    0    0    0  501 -0.00000000000E+00  0.00000000000E+00  0.50500303554E+03  0.50500303554E+03  0.00000000000E+00 0.  1.
          2   -1    0    0  501    0  0.00000000000E+00 -0.00000000000E+00 -0.19966893686E+04  0.19966893686E+04  0.00000000000E+00 0. -1.
         24    2    1    2    0    0 -0.56691250995E+03 -0.53395060073E+03 -0.83431901634E+03  0.11440945977E+04  0.79819731652E+02 0.  0.
        254    2    1    2    0    0  0.56691250995E+03  0.53395060073E+03 -0.65736731668E+03  0.13575978064E+04  0.89690968156E+03 0.  0.
         23    2    4    4    0    0  0.40426700935E+03 -0.91826345897E+02 -0.55299398191E+03  0.69700963331E+03  0.90311639612E+02 0.  0.
         23    2    4    4    0    0  0.16264550060E+03  0.62577694663E+03 -0.10437333477E+03  0.66058817306E+03  0.86212502472E+02 0.  0.
          2    1    3    3  502    0 -0.21991719342E+03 -0.20059897159E+03 -0.37614704189E+03  0.47967709606E+03  0.00000000000E+00 0. -1.
         -1    1    3    3    0  502 -0.34699531653E+03 -0.33335162914E+03 -0.45817197444E+03  0.66441750166E+03  0.00000000000E+00 0.  1.
         13    1    5    5    0    0  0.37017929338E+03 -0.10707784366E+03 -0.48520062332E+03  0.61961118350E+03  0.00000000000E+00 0.  1.
        -13    1    5    5    0    0  0.34087715967E+02  0.15251497758E+02 -0.67793358595E+02  0.77398449812E+02  0.00000000000E+00 0. -1.
          3    1    6    6  503    0 -0.60532243332E+00  0.13161215281E+02  0.97678058606E+01  0.16401037596E+02  0.00000000000E+00 0. -1.
         -3    1    6    6    0  503  0.16325082303E+03  0.61261573135E+03 -0.11414114063E+03  0.64418713546E+03  0.00000000000E+00 0.  1.
<mgrwt>
<rscale>  0 0.20083169E+04</rscale>
<asrwt>0</asrwt>
<pdfrwt beam="1">  1        2 0.30718297E+00 0.20083169E+04</pdfrwt>
<pdfrwt beam="2">  1       -1 0.77692776E-01 0.20083169E+04</pdfrwt>
<totfact> 0.11772646E+01</totfact>
</mgrwt>
</event>
<event>
12    7  0.1711607E-007  0.1923193E+04  0.7818608E-02  0.8643397E-01
          2   -1    0    0  501    0  0.00000000000E+00  0.00000000000E+00  0.23752472284E+04  0.23752472284E+04  0.00000000000E+00 0. -1.
         -1   -1    0    0    0  501 -0.00000000000E+00 -0.00000000000E+00 -0.38929349951E+03  0.38929349951E+03  0.00000000000E+00 0.  1.
         24    2    1    2    0    0  0.64887105187E+02 -0.23360837392E+03 -0.24399243892E+03  0.35281079400E+03  0.78485268222E+02 0.  0.
        254    2    1    2    0    0 -0.64887105187E+02  0.23360837392E+03  0.22299461678E+04  0.24117299339E+04  0.88600121557E+03 0.  0.
         23    2    4    4    0    0  0.55145320407E+02  0.38490262390E+03  0.21454778512E+04  0.21823124014E+04  0.90670673117E+02 0.  0.
         23    2    4    4    0    0 -0.12003242559E+03 -0.15129424998E+03  0.84468316651E+02  0.22941753257E+03  0.90552606055E+02 0.  0.
          4    1    3    3  502    0  0.13917034939E+02 -0.34390271097E+02 -0.85443746521E+02  0.93150461229E+02  0.00000000000E+00 0. -1.
         -3    1    3    3    0  502  0.50970070249E+02 -0.19921810282E+03 -0.15854869240E+03  0.25966033277E+03  0.00000000000E+00 0.  1.
         13    1    5    5    0    0 -0.15655725549E+02  0.15471239241E+03  0.71626742270E+03  0.73295296366E+03  0.00000000000E+00 0.  1.
        -13    1    5    5    0    0  0.70801045956E+02  0.23019023148E+03  0.14292104285E+04  0.14493594377E+04  0.00000000000E+00 0. -1.
          2    1    6    6  503    0 -0.12577378439E+03 -0.15583594071E+03  0.68159401252E+02  0.21154098713E+03  0.00000000000E+00 0. -1.
         -2    1    6    6    0  503  0.57413587928E+01  0.45416907332E+01  0.16308915399E+02  0.17876545444E+02  0.00000000000E+00 0.  1.
<mgrwt>
<rscale>  0 0.19231935E+04</rscale>
<asrwt>0</asrwt>
<pdfrwt beam="1">  1        2 0.36542264E+00 0.19231935E+04</pdfrwt>
<pdfrwt beam="2">  1       -1 0.59891309E-01 0.19231935E+04</pdfrwt>
<totfact> 0.12362016E+01</totfact>
</mgrwt>
</event>
<event>
12    7  0.1711607E-007  0.1562747E+04  0.7818608E-02  0.8843767E-01
         -3   -1    0    0    0  501 -0.00000000000E+00  0.00000000000E+00  0.25283522841E+03  0.25283522841E+03  0.00000000000E+00 0.  1.
          2   -1    0    0  501    0  0.00000000000E+00 -0.00000000000E+00 -0.24147910434E+04  0.24147910434E+04  0.00000000000E+00 0. -1.
         24    2    1    2    0    0 -0.16839406883E+03  0.32873975795E+02 -0.15737557939E+04  0.15849262256E+04  0.76462938120E+02 0.  0.
        254    2    1    2    0    0  0.16839406883E+03 -0.32873975795E+02 -0.58820002107E+03  0.10827000462E+04  0.89264935144E+03 0.  0.
         23    2    4    4    0    0 -0.15467953669E+03  0.31520762836E+02  0.16817964642E+03  0.25267795466E+03  0.10316219141E+03 0.  0.
         23    2    4    4    0    0  0.32307360553E+03 -0.64394738631E+02 -0.75637966750E+03  0.83002209158E+03  0.91122083778E+02 0.  0.
          4    1    3    3  502    0 -0.15380297755E+03  0.25453628036E+02 -0.15344375588E+04  0.15423364954E+04  0.00000000000E+00 0. -1.
         -3    1    3    3    0  502 -0.14591091287E+02  0.74203477589E+01 -0.39318235080E+02  0.42589730166E+02  0.00000000000E+00 0.  1.
         13    1    5    5    0    0 -0.99419754881E+02  0.18928308826E+01  0.16145158395E+03  0.18961667761E+03  0.00000000000E+00 0. -1.
        -13    1    5    5    0    0 -0.55259781813E+02  0.29627931954E+02  0.67280624739E+01  0.63061277045E+02  0.00000000000E+00 0.  1.
          4    1    6    6  503    0  0.30022555614E+03 -0.53693027874E+02 -0.73878405204E+03  0.79926228570E+03  0.00000000000E+00 0. -1.
         -4    1    6    6    0  503  0.22848049391E+02 -0.10701710758E+02 -0.17595615458E+02  0.30759805875E+02  0.00000000000E+00 0.  1.
<mgrwt>
<rscale>  0 0.15627466E+04</rscale>
<asrwt>0</asrwt>
<pdfrwt beam="1">  1        2 0.37150632E+00 0.15627466E+04</pdfrwt>
<pdfrwt beam="2">  1       -3 0.38897727E-01 0.15627466E+04</pdfrwt>
<totfact> 0.15932998E+01</totfact>
</mgrwt>
</event>
<event>
12    7  0.1711607E-007  0.4137536E+04  0.7818608E-02  0.7977362E-01
          2   -1    0    0  501    0  0.00000000000E+00  0.00000000000E+00  0.23366363523E+04  0.23366363523E+04  0.00000000000E+00 0. -1.
         -1   -1    0    0    0  501 -0.00000000000E+00 -0.00000000000E+00 -0.18316080950E+04  0.18316080950E+04  0.00000000000E+00 0.  1.
         24    2    1    2    0    0 -0.19091819932E+04  0.16317385898E+03 -0.19137279683E+02  0.19179632978E+04  0.81335017841E+02 0.  0.
        254    2    1    2    0    0  0.19091819932E+04 -0.16317385898E+03  0.52416553694E+03  0.22502811495E+04  0.10570781194E+04 0.  0.
         23    2    4    4    0    0  0.17576584136E+04 -0.39784381824E+03  0.20622883036E+03  0.18161538937E+04  0.90784537869E+02 0.  0.
         23    2    4    4    0    0  0.15152357955E+03  0.23466995925E+03  0.31793670658E+03  0.43412725585E+03  0.96712666919E+02 0.  0.
          2    1    3    3  502    0 -0.95823682087E+03  0.82516666076E+02 -0.50270208544E+02  0.96309599673E+03  0.00000000000E+00 0. -1.
         -1    1    3    3    0  502 -0.95094517230E+03  0.80657192904E+02  0.31132928861E+02  0.95486730112E+03  0.00000000000E+00 0.  1.
         13    1    5    5    0    0  0.17185411265E+04 -0.37915556549E+03  0.21128518447E+03  0.17725078210E+04  0.00000000000E+00 0. -1.
        -13    1    5    5    0    0  0.39117287085E+02 -0.18688252742E+02 -0.50563541045E+01  0.43646072633E+02  0.00000000000E+00 0.  1.
          1    1    6    6  503    0  0.11308771813E+03  0.22260107818E+03  0.23964056553E+03  0.34607466340E+03  0.00000000000E+00 0. -1.
         -1    1    6    6    0  503  0.38435861414E+02  0.12068881073E+02  0.78296141054E+02  0.88052592449E+02  0.00000000000E+00 0.  1.
<mgrwt>
<rscale>  0 0.41375365E+04</rscale>
<asrwt>0</asrwt>
<pdfrwt beam="1">  1        2 0.35948252E+00 0.41375365E+04</pdfrwt>
<pdfrwt beam="2">  1       -1 0.28178586E+00 0.41375365E+04</pdfrwt>
<totfact> 0.16614217E-01</totfact>
</mgrwt>
</event>
<event>
12    7  0.1711607E-007  0.2250586E+04  0.7818608E-02  0.8497663E-01
          2   -1    0    0  501    0  0.00000000000E+00  0.00000000000E+00  0.21789940243E+04  0.21789940243E+04  0.00000000000E+00 0. -1.
         -1   -1    0    0    0  501 -0.00000000000E+00 -0.00000000000E+00 -0.58113268025E+03  0.58113268025E+03  0.00000000000E+00 0.  1.
         24    2    1    2    0    0  0.68390873546E+02  0.91990109241E+03  0.89237665562E+03  0.12861668238E+04  0.83628175386E+02 0.  0.
        254    2    1    2    0    0 -0.68390873546E+02 -0.91990109241E+03  0.70548468843E+03  0.14739598808E+04  0.90771898352E+03 0.  0.
         23    2    4    4    0    0  0.39805460330E+03 -0.52214383639E+03  0.26867520517E+03  0.71559786152E+03  0.93873747447E+02 0.  0.
         23    2    4    4    0    0 -0.46644547685E+03 -0.39775725603E+03  0.43680948326E+03  0.75836201923E+03  0.92348307734E+02 0.  0.
          4    1    3    3  502    0  0.39520105998E+02  0.63901041044E+03  0.67030454077E+03  0.92693274881E+03  0.00000000000E+00 0. -1.
         -3    1    3    3    0  502  0.28870767548E+02  0.28089068197E+03  0.22207211485E+03  0.35923407498E+03  0.00000000000E+00 0.  1.
         13    1    5    5    0    0  0.46175648519E+02 -0.95430731425E+02  0.14849429890E+02  0.10705008447E+03  0.00000000000E+00 0.  1.
        -13    1    5    5    0    0  0.35187895478E+03 -0.42671310496E+03  0.25382577528E+03  0.60854777706E+03  0.00000000000E+00 0. -1.
          3    1    6    6  503    0 -0.32188829827E+03 -0.32218911180E+03  0.34344830357E+03  0.57041619678E+03  0.00000000000E+00 0. -1.
         -3    1    6    6    0  503 -0.14455717858E+03 -0.75568144226E+02  0.93361179694E+02  0.18794582245E+03  0.00000000000E+00 0.  1.
<mgrwt>
<rscale>  0 0.22505863E+04</rscale>
<asrwt>0</asrwt>
<pdfrwt beam="1">  1        2 0.33522984E+00 0.22505863E+04</pdfrwt>
<pdfrwt beam="2">  1       -1 0.89405029E-01 0.22505863E+04</pdfrwt>
<totfact> 0.67369490E+00</totfact>
</mgrwt>
</event>
<event>
12    7  0.1711607E-007  0.1800276E+04  0.7818608E-02  0.8706152E-01
          2   -1    0    0  501    0  0.00000000000E+00  0.00000000000E+00  0.23009808718E+04  0.23009808718E+04  0.00000000000E+00 0. -1.
         -1   -1    0    0    0  501 -0.00000000000E+00 -0.00000000000E+00 -0.35213191591E+03  0.35213191591E+03  0.00000000000E+00 0.  1.
         24    2    1    2    0    0  0.20258904541E+03  0.62482338712E+03  0.57933078118E+03  0.87947045504E+03  0.79984628875E+02 0.  0.
        254    2    1    2    0    0 -0.20258904541E+03 -0.62482338712E+03  0.13695181747E+04  0.17736423327E+04  0.91584960938E+03 0.  0.
         23    2    4    4    0    0 -0.43808174216E+03 -0.96416199883E+00  0.45683139259E+03  0.63970814152E+03  0.92817254048E+02 0.  0.
         23    2    4    4    0    0  0.23549269675E+03 -0.62385922512E+03  0.91268678216E+03  0.11339341912E+04  0.90290888983E+02 0.  0.
          4    1    3    3  502    0  0.54260022049E+02  0.25978951782E+03  0.19775144945E+03  0.33096884948E+03  0.00000000000E+00 0. -1.
         -3    1    3    3    0  502  0.14832902336E+03  0.36503386929E+03  0.38157933173E+03  0.54850160556E+03  0.00000000000E+00 0.  1.
         13    1    5    5    0    0 -0.53808402517E+02 -0.28651067402E+02  0.45081086779E+02  0.75819075634E+02  0.00000000000E+00 0. -1.
        -13    1    5    5    0    0 -0.38427333964E+03  0.27686905403E+02  0.41175030581E+03  0.56388906588E+03  0.00000000000E+00 0.  1.
          1    1    6    6  503    0  0.86561150355E+02 -0.14147390644E+03  0.18759176019E+03  0.25039642059E+03  0.00000000000E+00 0. -1.
         -1    1    6    6    0  503  0.14893154640E+03 -0.48238531868E+03  0.72509502197E+03  0.88353777060E+03  0.00000000000E+00 0.  1.
<mgrwt>
<rscale>  0 0.18002764E+04</rscale>
<asrwt>0</asrwt>
<pdfrwt beam="1">  1        2 0.35399705E+00 0.18002764E+04</pdfrwt>
<pdfrwt beam="2">  1       -1 0.54174142E-01 0.18002764E+04</pdfrwt>
<totfact> 0.16755203E+01</totfact>
</mgrwt>
</event>
<event>
12    7  0.1711607E-007  0.1213147E+04  0.7818608E-02  0.9101426E-01
         -1   -1    0    0    0  501 -0.00000000000E+00  0.00000000000E+00  0.31689579653E+03  0.31689579653E+03  0.00000000000E+00 0.  1.
          2   -1    0    0  501    0  0.00000000000E+00 -0.00000000000E+00 -0.11610491598E+04  0.11610491598E+04  0.00000000000E+00 0. -1.
         24    2    1    2    0    0 -0.12518669929E+03 -0.12419583652E+03  0.47001543863E+02  0.19827602369E+03  0.77510779626E+02 0.  0.
        254    2    1    2    0    0  0.12518669929E+03  0.12419583652E+03 -0.89115490715E+03  0.12796689326E+04  0.90127642439E+03 0.  0.
         23    2    4    4    0    0 -0.37022846380E+03 -0.21859659476E+02 -0.27534268994E+03  0.47102269850E+03  0.92205344089E+02 0.  0.
         23    2    4    4    0    0  0.49541516309E+03  0.14605549599E+03 -0.61581221721E+03  0.80864623414E+03  0.88969957853E+02 0.  0.
          2    1    3    3  502    0 -0.10151114042E+03 -0.53133670271E+02  0.10800190834E+02  0.11508406783E+03  0.00000000000E+00 0. -1.
         -1    1    3    3    0  502 -0.23675558871E+02 -0.71062166247E+02  0.36201353029E+02  0.83191955865E+02  0.00000000000E+00 0.  1.
         13    1    5    5    0    0 -0.40894843152E+02 -0.22763993203E+02 -0.65545032873E+02  0.80540293750E+02  0.00000000000E+00 0. -1.
        -13    1    5    5    0    0 -0.32933362065E+03  0.90433372671E+00 -0.20979765707E+03  0.39048240475E+03  0.00000000000E+00 0.  1.
          2    1    6    6  503    0  0.73007806391E+02  0.53252755475E+02 -0.86208184403E+02  0.12489134004E+03  0.00000000000E+00 0. -1.
         -2    1    6    6    0  503  0.42240735670E+03  0.92802740519E+02 -0.52960403280E+03  0.68375489410E+03  0.00000000000E+00 0.  1.
<mgrwt>
<rscale>  0 0.12131473E+04</rscale>
<asrwt>0</asrwt>
<pdfrwt beam="1">  1        2 0.17862294E+00 0.12131473E+04</pdfrwt>
<pdfrwt beam="2">  1       -1 0.48753201E-01 0.12131473E+04</pdfrwt>
<totfact> 0.94605423E+01</totfact>
</mgrwt>
</event>
<event>
12    7  0.1711607E-007  0.1907704E+04  0.7818608E-02  0.8651031E-01
          2   -1    0    0  501    0  0.00000000000E+00  0.00000000000E+00  0.22855359682E+04  0.22855359682E+04  0.00000000000E+00 0. -1.
         -1   -1    0    0    0  501 -0.00000000000E+00 -0.00000000000E+00 -0.39808317819E+03  0.39808317819E+03  0.00000000000E+00 0.  1.
         24    2    1    2    0    0 -0.11252488216E+03  0.40570724741E+02 -0.29031702786E+03  0.32419655910E+03  0.80694482196E+02 0.  0.
        254    2    1    2    0    0  0.11252488216E+03 -0.40570724741E+02  0.21777698178E+04  0.23594225872E+04  0.89993651609E+03 0.  0.
         23    2    4    4    0    0  0.22743228756E+03  0.19225248508E+03  0.20187006948E+04  0.20426501754E+04  0.92632503703E+02 0.  0.
         23    2    4    4    0    0 -0.11490740540E+03 -0.23282320982E+03  0.15906912305E+03  0.31677241180E+03  0.87357976844E+02 0.  0.
          2    1    3    3  502    0 -0.69595975433E+01 -0.14952955342E+02 -0.86374782224E+02  0.87935373290E+02  0.00000000000E+00 0. -1.
         -1    1    3    3    0  502 -0.10556528462E+03  0.55523680083E+02 -0.20394224564E+03  0.23626118581E+03  0.00000000000E+00 0.  1.
         13    1    5    5    0    0  0.92541543835E+02  0.13711426337E+03  0.11426764190E+04  0.11545880898E+04  0.00000000000E+00 0. -1.
        -13    1    5    5    0    0  0.13489074373E+03  0.55138221717E+02  0.87602427578E+03  0.88806208566E+03  0.00000000000E+00 0.  1.
          1    1    6    6  503    0 -0.36919927629E+02 -0.10686212917E+02  0.19813880994E+02  0.43241948183E+02  0.00000000000E+00 0.  1.
         -1    1    6    6    0  503 -0.77987477773E+02 -0.22213699691E+03  0.13925524205E+03  0.27353046361E+03  0.00000000000E+00 0. -1.
<mgrwt>
<rscale>  0 0.19077038E+04</rscale>
<asrwt>0</asrwt>
<pdfrwt beam="1">  1        2 0.35162091E+00 0.19077038E+04</pdfrwt>
<pdfrwt beam="2">  1       -1 0.61243567E-01 0.19077038E+04</pdfrwt>
<totfact> 0.13316775E+01</totfact>
</mgrwt>
</event>
<event>
12    7  0.1711607E-007  0.2036222E+04  0.7818608E-02  0.8589871E-01
          2   -1    0    0  501    0  0.00000000000E+00  0.00000000000E+00  0.25231972707E+04  0.25231972707E+04  0.00000000000E+00 0. -1.
         -1   -1    0    0    0  501 -0.00000000000E+00 -0.00000000000E+00 -0.41080813183E+03  0.41080813183E+03  0.00000000000E+00 0.  1.
         24    2    1    2    0    0 -0.30996127516E+02  0.79379328434E+03  0.59075494659E+03  0.99319245182E+03  0.79820431228E+02 0.  0.
        254    2    1    2    0    0  0.30996127516E+02 -0.79379328434E+03  0.15216341923E+04  0.19408129507E+04  0.90571284429E+03 0.  0.
         23    2    4    4    0    0  0.93014421913E+02  0.52177661516E+02 -0.54844024162E+02  0.14835386321E+03  0.87331613399E+02 0.  0.
         23    2    4    4    0    0 -0.62018294397E+02 -0.84597094586E+03  0.15764782164E+04  0.17924590875E+04  0.90071656694E+02 0.  0.
          4    1    3    3  502    0 -0.18974560103E+02  0.27263115710E+03  0.25010108494E+03  0.37045692657E+03  0.00000000000E+00 0. -1.
         -3    1    3    3    0  502 -0.12021567413E+02  0.52116212724E+03  0.34065386165E+03  0.62273552525E+03  0.00000000000E+00 0.  1.
         13    1    5    5    0    0  0.27157294068E+02  0.50170584706E+02 -0.59336754077E+02  0.82313161616E+02  0.00000000000E+00 0.  1.
        -13    1    5    5    0    0  0.65857127846E+02  0.20070768101E+01  0.44927299152E+01  0.66040701597E+02  0.00000000000E+00 0. -1.
          1    1    6    6  503    0 -0.57586326438E+02 -0.53585384021E+03  0.91598677512E+03  0.10627733979E+04  0.00000000000E+00 0. -1.
         -1    1    6    6    0  503 -0.44319679587E+01 -0.31011710565E+03  0.66049144131E+03  0.72968568960E+03  0.00000000000E+00 0.  1.
<mgrwt>
<rscale>  0 0.20362219E+04</rscale>
<asrwt>0</asrwt>
<pdfrwt beam="1">  1        2 0.38818419E+00 0.20362219E+04</pdfrwt>
<pdfrwt beam="2">  1       -1 0.63201253E-01 0.20362219E+04</pdfrwt>
<totfact> 0.90399678E+00</totfact>
</mgrwt>
</event>
<event>
12    7  0.1711607E-007  0.2116404E+04  0.7818608E-02  0.8554051E-01
          2   -1    0    0  501    0  0.00000000000E+00  0.00000000000E+00  0.19433717797E+04  0.19433717797E+04  0.00000000000E+00 0. -1.
         -1   -1    0    0    0  501 -0.00000000000E+00 -0.00000000000E+00 -0.57621068294E+03  0.57621068294E+03  0.00000000000E+00 0.  1.
         24    2    1    2    0    0  0.18979809982E+03  0.77539610619E+03  0.95453465412E+03  0.12469146756E+04  0.79983512019E+02 0.  0.
        254    2    1    2    0    0 -0.18979809982E+03 -0.77539610619E+03  0.41262644261E+03  0.12726677870E+04  0.90119935348E+03 0.  0.
         23    2    4    4    0    0 -0.23159978044E+03 -0.62318891710E+03  0.67578855545E+03  0.95224728052E+03  0.89898981460E+02 0.  0.
         23    2    4    4    0    0  0.41801680618E+02 -0.15220718909E+03 -0.26316211284E+03  0.32042050648E+03  0.92198668221E+02 0.  0.
          4    1    3    3  502    0  0.17826769840E+03  0.59855697165E+03  0.76200433315E+03  0.98524130260E+03  0.00000000000E+00 0. -1.
         -3    1    3    3    0  502  0.11530401424E+02  0.17683913454E+03  0.19253032097E+03  0.26167337303E+03  0.00000000000E+00 0.  1.
         13    1    5    5    0    0  0.96494200776E-02 -0.61194427506E+02  0.83750674597E+02  0.10372527921E+03  0.00000000000E+00 0.  1.
        -13    1    5    5    0    0 -0.23160942986E+03 -0.56199448959E+03  0.59203788086E+03  0.84852200131E+03  0.00000000000E+00 0. -1.
          3    1    6    6  503    0  0.49145637880E+02 -0.11981997538E+03 -0.25533573391E+03  0.28630133990E+03  0.00000000000E+00 0. -1.
         -3    1    6    6    0  503 -0.73439572621E+01 -0.32387213711E+02 -0.78263789366E+01  0.34119166571E+02  0.00000000000E+00 0.  1.
<mgrwt>
<rscale>  0 0.21164041E+04</rscale>
<asrwt>0</asrwt>
<pdfrwt beam="1">  1        2 0.29898027E+00 0.21164041E+04</pdfrwt>
<pdfrwt beam="2">  1       -1 0.88647798E-01 0.21164041E+04</pdfrwt>
<totfact> 0.93997134E+00</totfact>
</mgrwt>
</event>
<event>
12    7  0.1711607E-007  0.2307131E+04  0.7818608E-02  0.8475115E-01
          2   -1    0    0  501    0  0.00000000000E+00  0.00000000000E+00  0.20481841255E+04  0.20481841255E+04  0.00000000000E+00 0. -1.
         -1   -1    0    0    0  501 -0.00000000000E+00 -0.00000000000E+00 -0.64970389914E+03  0.64970389914E+03  0.00000000000E+00 0.  1.
         24    2    1    2    0    0 -0.78411220109E+03 -0.20447276185E+03  0.10621210117E+04  0.13376810350E+04  0.68179569246E+02 0.  0.
        254    2    1    2    0    0  0.78411220109E+03  0.20447276185E+03  0.33635921462E+03  0.13602069896E+04  0.10394154507E+04 0.  0.
         23    2    4    4    0    0  0.49735400924E+03 -0.30423116352E+03 -0.13405681048E+03  0.60508841202E+03  0.90791775878E+02 0.  0.
         23    2    4    4    0    0  0.28675819185E+03  0.50870392537E+03  0.47041602510E+03  0.75511857758E+03  0.88898173507E+02 0.  0.
          2    1    3    3  502    0 -0.39356844440E+03 -0.75984258121E+02  0.56101934033E+03  0.68950157950E+03  0.00000000000E+00 0. -1.
         -1    1    3    3    0  502 -0.39054375668E+03 -0.12848850373E+03  0.50110167139E+03  0.64817945551E+03  0.00000000000E+00 0.  1.
         13    1    5    5    0    0  0.49368871045E+03 -0.28421024433E+03 -0.12805368547E+03  0.58386792357E+03  0.00000000000E+00 0.  1.
        -13    1    5    5    0    0  0.36652987855E+01 -0.20020919188E+02 -0.60031250098E+01  0.21220488453E+02  0.00000000000E+00 0. -1.
          3    1    6    6  503    0  0.14524495262E+03  0.18845895401E+03  0.22571428081E+03  0.32796312319E+03  0.00000000000E+00 0. -1.
         -3    1    6    6    0  503  0.14151323923E+03  0.32024497136E+03  0.24470174429E+03  0.42715545439E+03  0.00000000000E+00 0.  1.
<mgrwt>
<rscale>  0 0.23071309E+04</rscale>
<asrwt>0</asrwt>
<pdfrwt beam="1">  1        2 0.31510525E+00 0.23071309E+04</pdfrwt>
<pdfrwt beam="2">  1       -1 0.99954447E-01 0.23071309E+04</pdfrwt>
<totfact> 0.61788397E+00</totfact>
</mgrwt>
</event>
<event>
12    7  0.1711607E-007  0.1850126E+04  0.7818608E-02  0.8680088E-01
         -1   -1    0    0    0  501 -0.00000000000E+00  0.00000000000E+00  0.11552271184E+04  0.11552271184E+04  0.00000000000E+00 0.  1.
          2   -1    0    0  501    0  0.00000000000E+00 -0.00000000000E+00 -0.74075633634E+03  0.74075633634E+03  0.00000000000E+00 0. -1.
         24    2    1    2    0    0  0.46814665248E+03  0.19280124845E+03 -0.34552190096E+03  0.61816039301E+03  0.80020483632E+02 0.  0.
        254    2    1    2    0    0 -0.46814665248E+03 -0.19280124845E+03  0.75999268302E+03  0.12778230617E+04  0.89381725717E+03 0.  0.
         23    2    4    4    0    0 -0.24134489396E+03  0.60001800510E+02 -0.14866101536E+03  0.30342998502E+03  0.90122607677E+02 0.  0.
         23    2    4    4    0    0 -0.22680175852E+03 -0.25280304896E+03  0.90865369838E+03  0.97439307671E+03  0.91879840725E+02 0.  0.
          4    1    3    3  502    0  0.38804329485E+03  0.18995337589E+03 -0.29996164807E+03  0.52596280667E+03  0.00000000000E+00 0. -1.
         -3    1    3    3    0  502  0.80103357634E+02  0.28478725659E+01 -0.45560252890E+02  0.92197586334E+02  0.00000000000E+00 0.  1.
         13    1    5    5    0    0 -0.23353753244E+03  0.70550167025E+02 -0.15481292208E+03  0.28893623166E+03  0.00000000000E+00 0. -1.
        -13    1    5    5    0    0 -0.78073615238E+01 -0.10548366515E+02  0.61519067175E+01  0.14493753357E+02  0.00000000000E+00 0.  1.
          3    1    6    6  503    0 -0.21573498778E+03 -0.26021112257E+03  0.86289244248E+03  0.92673339238E+03  0.00000000000E+00 0. -1.
         -3    1    6    6    0  503 -0.11066770743E+02  0.74080736064E+01  0.45761255900E+02  0.47659684334E+02  0.00000000000E+00 0.  1.
<mgrwt>
<rscale>  0 0.18501263E+04</rscale>
<asrwt>0</asrwt>
<pdfrwt beam="1">  1        2 0.11396251E+00 0.18501263E+04</pdfrwt>
<pdfrwt beam="2">  1       -1 0.17772725E+00 0.18501263E+04</pdfrwt>
<totfact> 0.88400876E+00</totfact>
</mgrwt>
</event>
<event>
12    7  0.1711607E-007  0.2168497E+04  0.7818608E-02  0.8531656E-01
          2   -1    0    0  501    0  0.00000000000E+00  0.00000000000E+00  0.11201771969E+04  0.11201771969E+04  0.00000000000E+00 0. -1.
         -1   -1    0    0    0  501 -0.00000000000E+00 -0.00000000000E+00 -0.10494718946E+04  0.10494718946E+04  0.00000000000E+00 0.  1.
         24    2    1    2    0    0  0.16107815549E+03  0.41762823114E+03  0.79812147891E+03  0.91846618567E+03  0.78884266449E+02 0.  0.
        254    2    1    2    0    0 -0.16107815549E+03 -0.41762823114E+03 -0.72741617667E+03  0.12511829058E+04  0.91431113858E+03 0.  0.
         23    2    4    4    0    0 -0.30684536260E+03 -0.66159124720E+02  0.95095797484E+02  0.34054697975E+03  0.91640211627E+02 0.  0.
         23    2    4    4    0    0  0.14576720711E+03 -0.35146910642E+03 -0.82251197415E+03  0.91063592607E+03  0.89180888100E+02 0.  0.
          2    1    3    3  502    0  0.12455836498E+03  0.38703933707E+03  0.70401490274E+03  0.81298906389E+03  0.00000000000E+00 0. -1.
         -1    1    3    3    0  502  0.36519790514E+02  0.30588894069E+02  0.94106576178E+02  0.10547712178E+03  0.00000000000E+00 0.  1.
         13    1    5    5    0    0 -0.16134524790E+03  0.11820067143E+02  0.42023824982E+02  0.16714665678E+03  0.00000000000E+00 0. -1.
        -13    1    5    5    0    0 -0.14550011470E+03 -0.77979191863E+02  0.53071972502E+02  0.17340032297E+03  0.00000000000E+00 0.  1.
          2    1    6    6  503    0  0.27281873132E+02 -0.10820648015E+03 -0.16070168280E+03  0.19564757551E+03  0.00000000000E+00 0.  1.
         -2    1    6    6    0  503  0.11848533397E+03 -0.24326262627E+03 -0.66181029135E+03  0.71498835056E+03  0.00000000000E+00 0. -1.
<mgrwt>
<rscale>  0 0.21684967E+04</rscale>
<asrwt>0</asrwt>
<pdfrwt beam="1">  1        2 0.17233495E+00 0.21684967E+04</pdfrwt>
<pdfrwt beam="2">  1       -1 0.16145721E+00 0.21684967E+04</pdfrwt>
<totfact> 0.63032263E+00</totfact>
</mgrwt>
</event>
<event>
12    7  0.1711607E-007  0.2012860E+04  0.7818608E-02  0.8600632E-01
         -1   -1    0    0    0  501 -0.00000000000E+00  0.00000000000E+00  0.42312199631E+03  0.42312199631E+03  0.00000000000E+00 0.  1.
          2   -1    0    0  501    0  0.00000000000E+00 -0.00000000000E+00 -0.23938760866E+04  0.23938760866E+04  0.00000000000E+00 0. -1.
         24    2    1    2    0    0 -0.34238088597E+03 -0.69940270856E+03 -0.10870451952E+04  0.13395706700E+04  0.79959386699E+02 0.  0.
        254    2    1    2    0    0  0.34238088597E+03  0.69940270856E+03 -0.88370889506E+03  0.14774274130E+04  0.89188650037E+03 0.  0.
         23    2    4    4    0    0 -0.14731644322E+02  0.79402984334E+03 -0.65787755929E+03  0.10354999925E+04  0.93578512007E+02 0.  0.
         23    2    4    4    0    0  0.35711253029E+03 -0.94627134780E+02 -0.22583133577E+03  0.44192742050E+03  0.88410400091E+02 0.  0.
          2    1    3    3  502    0 -0.96564029169E+02 -0.17792743573E+03 -0.34338265004E+03  0.39861564002E+03  0.00000000000E+00 0. -1.
         -1    1    3    3    0  502 -0.24581685680E+03 -0.52147527283E+03 -0.74366254519E+03  0.94095502995E+03  0.00000000000E+00 0.  1.
         13    1    5    5    0    0  0.24051389788E+02  0.62752787442E+03 -0.53470649120E+03  0.82479132771E+03  0.00000000000E+00 0.  1.
        -13    1    5    5    0    0 -0.38783034110E+02  0.16650196892E+03 -0.12317106809E+03  0.21070866476E+03  0.00000000000E+00 0. -1.
          4    1    6    6  503    0  0.30974957483E+03 -0.10965508337E+03 -0.18174907096E+03  0.37550201226E+03  0.00000000000E+00 0.  1.
         -4    1    6    6    0  503  0.47362955458E+02  0.15027948588E+02 -0.44082264813E+02  0.66425408237E+02  0.00000000000E+00 0. -1.
<mgrwt>
<rscale>  0 0.20128603E+04</rscale>
<asrwt>0</asrwt>
<pdfrwt beam="1">  1        2 0.36828862E+00 0.20128603E+04</pdfrwt>
<pdfrwt beam="2">  1       -1 0.65095693E-01 0.20128603E+04</pdfrwt>
<totfact> 0.10133481E+01</totfact>
</mgrwt>
</event>
<event>
12    7  0.1711607E-007  0.1210155E+04  0.7818608E-02  0.9104014E-01
          2   -1    0    0  501    0  0.00000000000E+00  0.00000000000E+00  0.11714440363E+04  0.11714440363E+04  0.00000000000E+00 0. -1.
         -1   -1    0    0    0  501 -0.00000000000E+00 -0.00000000000E+00 -0.31253627793E+03  0.31253627793E+03  0.00000000000E+00 0.  1.
         24    2    1    2    0    0  0.13557426334E+03 -0.18107592643E+03  0.33288839848E+03  0.41033027562E+03  0.79921068786E+02 0.  0.
        254    2    1    2    0    0 -0.13557426334E+03  0.18107592643E+03  0.52601935993E+03  0.10736500386E+04  0.90821757661E+03 0.  0.
         23    2    4    4    0    0  0.25114323152E+03  0.25061375617E+03 -0.50536406744E+02  0.37015517739E+03  0.92632334614E+02 0.  0.
         23    2    4    4    0    0 -0.38671749486E+03 -0.69537829742E+02  0.57655576668E+03  0.70349486126E+03  0.90014094091E+02 0.  0.
          2    1    3    3  502    0  0.13465399591E+03 -0.13190232967E+03  0.28493170488E+03  0.34163723397E+03  0.00000000000E+00 0. -1.
         -1    1    3    3    0  502  0.92026742922E+00 -0.49173596761E+02  0.47956693597E+02  0.68693041651E+02  0.00000000000E+00 0.  1.
         13    1    5    5    0    0  0.69342415848E+02  0.11000253960E+03  0.15674047861E+02  0.13097558982E+03  0.00000000000E+00 0. -1.
        -13    1    5    5    0    0  0.18180081568E+03  0.14061121658E+03 -0.66210454605E+02  0.23917958756E+03  0.00000000000E+00 0.  1.
          4    1    6    6  503    0 -0.33439352970E+03 -0.87930578010E+02  0.51843076463E+03  0.62315429628E+03  0.00000000000E+00 0.  1.
         -4    1    6    6    0  503 -0.52323965160E+02  0.18392748267E+02  0.58125002052E+02  0.80340564987E+02  0.00000000000E+00 0. -1.
<mgrwt>
<rscale>  0 0.12101550E+04</rscale>
<asrwt>0</asrwt>
<pdfrwt beam="1">  1        2 0.18022216E+00 0.12101550E+04</pdfrwt>
<pdfrwt beam="2">  1       -1 0.48082505E-01 0.12101550E+04</pdfrwt>
<totfact> 0.95740497E+01</totfact>
</mgrwt>
</event>
<event>
12    7  0.1711607E-007  0.1805854E+04  0.7818608E-02  0.8703192E-01
          2   -1    0    0  501    0  0.00000000000E+00  0.00000000000E+00  0.78459902070E+03  0.78459902070E+03  0.00000000000E+00 0. -1.
         -1   -1    0    0    0  501 -0.00000000000E+00 -0.00000000000E+00 -0.10391006335E+04  0.10391006335E+04  0.00000000000E+00 0.  1.
         24    2    1    2    0    0  0.55956155504E+03 -0.86518876801E+02  0.28357183510E+03  0.63820148729E+03  0.79331600255E+02 0.  0.
        254    2    1    2    0    0 -0.55956155504E+03  0.86518876801E+02 -0.53807344792E+03  0.11854981669E+04  0.89178933527E+03 0.  0.
         23    2    4    4    0    0  0.26499301437E+02 -0.20233578594E+03 -0.47211523186E+03  0.52253437829E+03  0.92235573901E+02 0.  0.
         23    2    4    4    0    0 -0.58606085648E+03  0.28885466274E+03 -0.65958216061E+02  0.66296378863E+03  0.90918397974E+02 0.  0.
          2    1    3    3  502    0  0.39210853414E+03 -0.94136414626E+02  0.18414387982E+03  0.44330546532E+03  0.00000000000E+00 0. -1.
         -1    1    3    3    0  502  0.16745302090E+03  0.76175378249E+01  0.99427955281E+02  0.19489602198E+03  0.00000000000E+00 0.  1.
         13    1    5    5    0    0  0.10961613580E+02 -0.67465747716E+02 -0.27378790178E+03  0.28219071432E+03  0.00000000000E+00 0. -1.
        -13    1    5    5    0    0  0.15537687856E+02 -0.13487003822E+03 -0.19832733008E+03  0.24034366397E+03  0.00000000000E+00 0.  1.
          2    1    6    6  503    0 -0.56746527619E+03  0.27462674643E+03 -0.80279887542E+02  0.63551675814E+03  0.00000000000E+00 0.  1.
         -2    1    6    6    0  503 -0.18595580289E+02  0.14227916305E+02  0.14321671481E+02  0.27447030489E+02  0.00000000000E+00 0. -1.
<mgrwt>
<rscale>  0 0.18058542E+04</rscale>
<asrwt>0</asrwt>
<pdfrwt beam="1">  1        2 0.12070754E+00 0.18058542E+04</pdfrwt>
<pdfrwt beam="2">  1       -1 0.15986163E+00 0.18058542E+04</pdfrwt>
<totfact> 0.11154223E+01</totfact>
</mgrwt>
</event>
<event>
12    7  0.1711607E-007  0.1790497E+04  0.7818608E-02  0.8711369E-01
         -1   -1    0    0    0  501 -0.00000000000E+00  0.00000000000E+00  0.28974411497E+03  0.28974411497E+03  0.00000000000E+00 0.  1.
          2   -1    0    0  501    0  0.00000000000E+00 -0.00000000000E+00 -0.27661302535E+04  0.27661302535E+04  0.00000000000E+00 0. -1.
         24    2    1    2    0    0  0.56117062829E+03  0.88109039493E+01 -0.30823149193E+03  0.64525747335E+03  0.79752418201E+02 0.  0.
        254    2    1    2    0    0 -0.56117062829E+03 -0.88109039493E+01 -0.21681546466E+04  0.24106168952E+04  0.89173378170E+03 0.  0.
         23    2    4    4    0    0 -0.77032196183E+03 -0.12651583452E+03 -0.14710810719E+04  0.16677475147E+04  0.88882346165E+02 0.  0.
         23    2    4    4    0    0  0.20915133354E+03  0.11770493057E+03 -0.69707357477E+03  0.74286938048E+03  0.91348874156E+02 0.  0.
          2    1    3    3  502    0  0.12228396777E+03  0.34992653412E+02 -0.71359306491E+02  0.14584239846E+03  0.00000000000E+00 0. -1.
         -1    1    3    3    0  502  0.43888666053E+03 -0.26181749462E+02 -0.23687218544E+03  0.49941507489E+03  0.00000000000E+00 0.  1.
         13    1    5    5    0    0 -0.75157216604E+03 -0.10963370676E+03 -0.14077350824E+04  0.15995619189E+04  0.00000000000E+00 0. -1.
        -13    1    5    5    0    0 -0.18749795793E+02 -0.16882127752E+02 -0.63345989520E+02  0.68185595751E+02  0.00000000000E+00 0.  1.
          1    1    6    6  503    0  0.12947325032E+03  0.12024596251E+03 -0.46133808401E+03  0.49401947513E+03  0.00000000000E+00 0. -1.
         -1    1    6    6    0  503  0.79678083218E+02 -0.25410319454E+01 -0.23573549075E+03  0.24884990534E+03  0.00000000000E+00 0.  1.
<mgrwt>
<rscale>  0 0.17904971E+04</rscale>
<asrwt>0</asrwt>
<pdfrwt beam="1">  1        2 0.42555851E+00 0.17904971E+04</pdfrwt>
<pdfrwt beam="2">  1       -1 0.44576017E-01 0.17904971E+04</pdfrwt>
<totfact> 0.13029521E+01</totfact>
</mgrwt>
</event>
<event>
12    7  0.1711607E-007  0.1354828E+04  0.7818608E-02  0.8987181E-01
          4   -1    0    0  501    0  0.00000000000E+00  0.00000000000E+00  0.51487723763E+03  0.51487723763E+03  0.00000000000E+00 0. -1.
         -3   -1    0    0    0  501 -0.00000000000E+00 -0.00000000000E+00 -0.89126055048E+03  0.89126055048E+03  0.00000000000E+00 0.  1.
         24    2    1    2    0    0 -0.64715183881E+02  0.21312906921E+02  0.26613817369E+03  0.28390192592E+03  0.71613413670E+02 0.  0.
        254    2    1    2    0    0  0.64715183881E+02 -0.21312906921E+02 -0.64252148654E+03  0.11222358622E+04  0.91757134585E+03 0.  0.
         23    2    4    4    0    0  0.17463713055E+03 -0.17511591704E+03  0.14967560008E+03  0.30264448496E+03  0.89594571548E+02 0.  0.
         23    2    4    4    0    0 -0.10992194666E+03  0.15380301012E+03 -0.79219708661E+03  0.81959137724E+03  0.91736586698E+02 0.  0.
          2    1    3    3  502    0 -0.55640431476E+02 -0.95416055467E+01  0.22335397125E+03  0.23037772532E+03  0.00000000000E+00 0. -1.
         -3    1    3    3    0  502 -0.90747524054E+01  0.30854512467E+02  0.42784202440E+02  0.53524200594E+02  0.00000000000E+00 0.  1.
         13    1    5    5    0    0  0.76222392674E+01 -0.57206267406E+02  0.22924402445E+02  0.62098178632E+02  0.00000000000E+00 0.  1.
        -13    1    5    5    0    0  0.16701489128E+03 -0.11790964963E+03  0.12675119763E+03  0.24054630632E+03  0.00000000000E+00 0. -1.
          2    1    6    6  503    0  0.14907907244E+02  0.27434360434E+02 -0.15416208500E+03  0.15729220668E+03  0.00000000000E+00 0.  1.
         -2    1    6    6    0  503 -0.12482985391E+03  0.12636864968E+03 -0.63803500161E+03  0.66229917057E+03  0.00000000000E+00 0. -1.
<mgrwt>
<rscale>  0 0.13548281E+04</rscale>
<asrwt>0</asrwt>
<pdfrwt beam="1">  1        4 0.79211883E-01 0.13548281E+04</pdfrwt>
<pdfrwt beam="2">  1       -3 0.13711701E+00 0.13548281E+04</pdfrwt>
<totfact> 0.12873968E+00</totfact>
</mgrwt>
</event>
<event>
12    7  0.1711607E-007  0.2762937E+04  0.7818608E-02  0.8314868E-01
          2   -1    0    0  501    0  0.00000000000E+00  0.00000000000E+00  0.19046714560E+04  0.19046714560E+04  0.00000000000E+00 0. -1.
         -1   -1    0    0    0  501 -0.00000000000E+00 -0.00000000000E+00 -0.10019863566E+04  0.10019863566E+04  0.00000000000E+00 0.  1.
         24    2    1    2    0    0 -0.11987800634E+04 -0.25217551223E+03  0.25150095466E+03  0.12531083082E+04  0.79759466774E+02 0.  0.
        254    2    1    2    0    0  0.11987800634E+04  0.25217551223E+03  0.65118414478E+03  0.16535495044E+04  0.89973276233E+03 0.  0.
         23    2    4    4    0    0  0.71050584065E+02  0.80346812329E+02 -0.18806286115E+03  0.23441055880E+03  0.89871433660E+02 0.  0.
         23    2    4    4    0    0  0.11277294794E+04  0.17182869990E+03  0.83924700593E+03  0.14191389456E+04  0.91219127298E+02 0.  0.
          2    1    3    3  502    0 -0.73063651631E+02 -0.77429079860E+01  0.33342454157E+02  0.80684379299E+02  0.00000000000E+00 0. -1.
         -1    1    3    3    0  502 -0.11257164118E+04 -0.24443260424E+03  0.21815850051E+03  0.11724239289E+04  0.00000000000E+00 0.  1.
         13    1    5    5    0    0  0.22901175336E+02  0.23138599075E+02 -0.14396863376E+03  0.14760361142E+03  0.00000000000E+00 0.  1.
        -13    1    5    5    0    0  0.48149408729E+02  0.57208213254E+02 -0.44094227393E+02  0.86806947384E+02  0.00000000000E+00 0. -1.
          2    1    6    6  503    0  0.36337002222E+03  0.96753108381E+02  0.26020435308E+03  0.45728026678E+03  0.00000000000E+00 0.  1.
         -2    1    6    6    0  503  0.76435945714E+03  0.75075591519E+02  0.57904265285E+03  0.96185867880E+03  0.00000000000E+00 0. -1.
<mgrwt>
<rscale>  0 0.27629367E+04</rscale>
<asrwt>0</asrwt>
<pdfrwt beam="1">  1        2 0.29302638E+00 0.27629367E+04</pdfrwt>
<pdfrwt beam="2">  1       -1 0.15415175E+00 0.27629367E+04</pdfrwt>
<totfact> 0.24285073E+00</totfact>
</mgrwt>
</event>
<event>
12    7  0.1711607E-007  0.2810722E+04  0.7818608E-02  0.8299947E-01
         -1   -1    0    0    0  501 -0.00000000000E+00  0.00000000000E+00  0.57125970747E+03  0.57125970747E+03  0.00000000000E+00 0.  1.
          2   -1    0    0  501    0  0.00000000000E+00 -0.00000000000E+00 -0.34573398731E+04  0.34573398731E+04  0.00000000000E+00 0. -1.
         24    2    1    2    0    0  0.71214561349E+03 -0.57154668461E+03 -0.52424393309E+02  0.91841689806E+03  0.83212343569E+02 0.  0.
        254    2    1    2    0    0 -0.71214561349E+03  0.57154668461E+03 -0.28336557723E+04  0.31101826825E+04  0.89989682468E+03 0.  0.
         23    2    4    4    0    0 -0.43669222369E+03 -0.16986311972E+03 -0.12414237833E+04  0.13300312803E+04  0.91085778863E+02 0.  0.
         23    2    4    4    0    0 -0.27545338980E+03  0.74140980433E+03 -0.15922319890E+04  0.17801514022E+04  0.90405973688E+02 0.  0.
          2    1    3    3  502    0  0.83593723285E+02 -0.45385449706E+02  0.13446263753E+02  0.96065350811E+02  0.00000000000E+00 0. -1.
         -1    1    3    3    0  502  0.62855189021E+03 -0.52616123491E+03 -0.65870657062E+02  0.82235154725E+03  0.00000000000E+00 0.  1.
         13    1    5    5    0    0 -0.14094112943E+03 -0.17354455629E+02 -0.31078639613E+03  0.34169249789E+03  0.00000000000E+00 0. -1.
        -13    1    5    5    0    0 -0.29575109426E+03 -0.15250866409E+03 -0.93063738717E+03  0.98833878239E+03  0.00000000000E+00 0.  1.
          2    1    6    6  503    0 -0.19708201350E+02  0.26042844530E+02 -0.10737135287E+03  0.11222856307E+03  0.00000000000E+00 0. -1.
         -2    1    6    6    0  503 -0.25574518845E+03  0.71536695980E+03 -0.14848606362E+04  0.16679228392E+04  0.00000000000E+00 0.  1.
<mgrwt>
<rscale>  0 0.28107216E+04</rscale>
<asrwt>0</asrwt>
<pdfrwt beam="1">  1        2 0.53189844E+00 0.28107216E+04</pdfrwt>
<pdfrwt beam="2">  1       -1 0.87886109E-01 0.28107216E+04</pdfrwt>
<totfact> 0.10946054E+00</totfact>
</mgrwt>
</event>
<event>
12    7  0.1711607E-007  0.2333705E+04  0.7818608E-02  0.8464749E-01
          2   -1    0    0  501    0  0.00000000000E+00  0.00000000000E+00  0.17822007887E+04  0.17822007887E+04  0.00000000000E+00 0. -1.
         -3   -1    0    0    0  501 -0.00000000000E+00 -0.00000000000E+00 -0.76396807345E+03  0.76396807345E+03  0.00000000000E+00 0.  1.
         24    2    1    2    0    0 -0.80120924976E+03 -0.17923045879E+03  0.90667082155E+03  0.12256760377E+04  0.78549039138E+02 0.  0.
        254    2    1    2    0    0  0.80120924976E+03  0.17923045879E+03  0.11156189375E+03  0.13204928245E+04  0.10282000895E+04 0.  0.
         23    2    4    4    0    0  0.85966288776E+03  0.31904992338E+03 -0.21727684087E+03  0.94694485899E+03  0.93178356849E+02 0.  0.
         23    2    4    4    0    0 -0.58453637996E+02 -0.13981946459E+03  0.32883873461E+03  0.37354796548E+03  0.91852374249E+02 0.  0.
          4    1    3    3  502    0 -0.72462874421E+03 -0.18499520293E+03  0.82750171596E+03  0.11153784703E+04  0.00000000000E+00 0. -1.
         -3    1    3    3    0  502 -0.76580505556E+02  0.57647441396E+01  0.79169105589E+02  0.11029756745E+03  0.00000000000E+00 0.  1.
         13    1    5    5    0    0  0.15453188102E+03  0.21135531170E+02 -0.28911330109E+02  0.15862748166E+03  0.00000000000E+00 0. -1.
        -13    1    5    5    0    0  0.70513100674E+03  0.29791439221E+03 -0.18836551076E+03  0.78831737733E+03  0.00000000000E+00 0.  1.
          4    1    6    6  503    0 -0.93815601477E+01 -0.11273407552E+03  0.16233184890E+03  0.19786008851E+03  0.00000000000E+00 0. -1.
         -4    1    6    6    0  503 -0.49072077848E+02 -0.27085389066E+02  0.16650688571E+03  0.17568787697E+03  0.00000000000E+00 0.  1.
<mgrwt>
<rscale>  0 0.23337048E+04</rscale>
<asrwt>0</asrwt>
<pdfrwt beam="1">  1        2 0.27418474E+00 0.23337048E+04</pdfrwt>
<pdfrwt beam="2">  1       -3 0.11753355E+00 0.23337048E+04</pdfrwt>
<totfact> 0.30197089E+00</totfact>
</mgrwt>
</event>
<event>
12    7  0.1711607E-007  0.2190820E+04  0.7818608E-02  0.8522259E-01
          2   -1    0    0  501    0  0.00000000000E+00  0.00000000000E+00  0.14583898629E+04  0.14583898629E+04  0.00000000000E+00 0. -1.
         -1   -1    0    0    0  501 -0.00000000000E+00 -0.00000000000E+00 -0.82277263073E+03  0.82277263073E+03  0.00000000000E+00 0.  1.
         24    2    1    2    0    0  0.80361007562E+02 -0.35484729271E+03  0.11289083278E+04  0.11888092030E+04  0.80366759022E+02 0.  0.
        254    2    1    2    0    0 -0.80361007562E+02  0.35484729271E+03 -0.49329109560E+03  0.10923532906E+04  0.90417095391E+03 0.  0.
         23    2    4    4    0    0 -0.74596713928E+02 -0.53637185411E+02  0.22585799156E+03  0.26033422961E+03  0.91216562991E+02 0.  0.
         23    2    4    4    0    0 -0.57642936346E+01  0.40848447812E+03 -0.71914908716E+03  0.83201906103E+03  0.90484873933E+02 0.  0.
          2    1    3    3  502    0  0.84391177678E+02 -0.33052621540E+03  0.10948610633E+04  0.11467738216E+04  0.00000000000E+00 0. -1.
         -1    1    3    3    0  502 -0.40301701155E+01 -0.24321077313E+02  0.34047264428E+02  0.42035381381E+02  0.00000000000E+00 0.  1.
         13    1    5    5    0    0 -0.58439454374E+02 -0.54911598217E+02  0.23002302252E+03  0.24360017310E+03  0.00000000000E+00 0. -1.
        -13    1    5    5    0    0 -0.16157259554E+02  0.12744128057E+01 -0.41650309542E+01  0.16734056506E+02  0.00000000000E+00 0.  1.
          3    1    6    6  503    0 -0.44017670778E+02  0.14251486051E+03 -0.27762962445E+03  0.31516067201E+03  0.00000000000E+00 0. -1.
         -3    1    6    6    0  503  0.38253377143E+02  0.26596961761E+03 -0.44151946271E+03  0.51685838902E+03  0.00000000000E+00 0.  1.
<mgrwt>
<rscale>  0 0.21908202E+04</rscale>
<asrwt>0</asrwt>
<pdfrwt beam="1">  1        2 0.22436767E+00 0.21908202E+04</pdfrwt>
<pdfrwt beam="2">  1       -1 0.12658040E+00 0.21908202E+04</pdfrwt>
<totfact> 0.75753632E+00</totfact>
</mgrwt>
</event>
<event>
12    7  0.1711607E-007  0.1187887E+04  0.7818608E-02  0.9123525E-01
          2   -1    0    0  501    0  0.00000000000E+00  0.00000000000E+00  0.25717390749E+03  0.25717390749E+03  0.00000000000E+00 0. -1.
         -1   -1    0    0    0  501 -0.00000000000E+00 -0.00000000000E+00 -0.13717135447E+04  0.13717135447E+04  0.00000000000E+00 0.  1.
         24    2    1    2    0    0  0.61452113026E+02 -0.20488158580E+03 -0.73605785531E+02  0.24229566201E+03  0.86813304105E+02 0.  0.
        254    2    1    2    0    0 -0.61452113026E+02  0.20488158580E+03 -0.10409338517E+04  0.13865917902E+04  0.89069674000E+03 0.  0.
         23    2    4    4    0    0 -0.68958895118E+02  0.48894903692E+03 -0.94899083573E+03  0.10736402990E+04  0.91068081803E+02 0.  0.
         23    2    4    4    0    0  0.75067820923E+01 -0.28406745112E+03 -0.91943015982E+02  0.31295149116E+03  0.93458274470E+02 0.  0.
          2    1    3    3  502    0  0.42130870019E+02 -0.42779900480E+02  0.66059980025E+01  0.60405043690E+02  0.00000000000E+00 0. -1.
         -1    1    3    3    0  502  0.19321243007E+02 -0.16210168532E+03 -0.80211783533E+02  0.18189061832E+03  0.00000000000E+00 0.  1.
         13    1    5    5    0    0 -0.45559208685E+02  0.13486884829E+03 -0.20781993282E+03  0.25190151292E+03  0.00000000000E+00 0.  1.
        -13    1    5    5    0    0 -0.23399686433E+02  0.35408018863E+03 -0.74117090291E+03  0.82173878613E+03  0.00000000000E+00 0. -1.
          3    1    6    6  503    0  0.23964793239E+02 -0.27959280580E+03 -0.93598117800E+02  0.29581591578E+03  0.00000000000E+00 0. -1.
         -3    1    6    6    0  503 -0.16458011146E+02 -0.44746453183E+01  0.16551018182E+01  0.17135575381E+02  0.00000000000E+00 0.  1.
<mgrwt>
<rscale>  0 0.11878871E+04</rscale>
<asrwt>0</asrwt>
<pdfrwt beam="1">  1        2 0.39565215E-01 0.11878871E+04</pdfrwt>
<pdfrwt beam="2">  1       -1 0.21103286E+00 0.11878871E+04</pdfrwt>
<totfact> 0.18687494E+01</totfact>
</mgrwt>
</event>
<event>
12    7  0.1711607E-007  0.1861943E+04  0.7818608E-02  0.8674035E-01
          2   -1    0    0  501    0  0.00000000000E+00  0.00000000000E+00  0.66594627697E+03  0.66594627697E+03  0.00000000000E+00 0. -1.
         -1   -1    0    0    0  501 -0.00000000000E+00 -0.00000000000E+00 -0.13014687218E+04  0.13014687218E+04  0.00000000000E+00 0.  1.
         24    2    1    2    0    0  0.63368205846E+03  0.19441406070E+03 -0.41518465149E+03  0.78619608257E+03  0.79851156549E+02 0.  0.
        254    2    1    2    0    0 -0.63368205846E+03 -0.19441406070E+03 -0.22033779330E+03  0.11812189162E+04  0.95256475188E+03 0.  0.
         23    2    4    4    0    0 -0.86385757904E+03 -0.60972263667E+02 -0.10368515069E+03  0.87637918508E+03  0.85570624412E+02 0.  0.
         23    2    4    4    0    0  0.23017552058E+03 -0.13344179703E+03 -0.11665264261E+03  0.30483973108E+03  0.92368496490E+02 0.  0.
          2    1    3    3  502    0  0.23714379747E+03  0.94471774100E+02 -0.12138653183E+03  0.28266019686E+03  0.00000000000E+00 0. -1.
         -1    1    3    3    0  502  0.39653826099E+03  0.99942286597E+02 -0.29379811966E+03  0.50353588571E+03  0.00000000000E+00 0.  1.
         13    1    5    5    0    0 -0.68482784310E+03 -0.82202176315E+02 -0.89730077754E+02  0.69555579167E+03  0.00000000000E+00 0.  1.
        -13    1    5    5    0    0 -0.17902973595E+03  0.21229912648E+02 -0.13955072938E+02  0.18082339341E+03  0.00000000000E+00 0. -1.
          1    1    6    6  503    0  0.99830483967E+01 -0.37414057444E+02 -0.31687307727E+02  0.50035571554E+02  0.00000000000E+00 0. -1.
         -1    1    6    6    0  503  0.22019247219E+03 -0.96027739586E+02 -0.84965334884E+02  0.25480415952E+03  0.00000000000E+00 0.  1.
<mgrwt>
<rscale>  0 0.18619433E+04</rscale>
<asrwt>0</asrwt>
<pdfrwt beam="1">  1        2 0.10245327E+00 0.18619433E+04</pdfrwt>
<pdfrwt beam="2">  1       -1 0.20022596E+00 0.18619433E+04</pdfrwt>
<totfact> 0.70171103E+00</totfact>
</mgrwt>
</event>
<event>
12    7  0.1711607E-007  0.1364840E+04  0.7818608E-02  0.8979670E-01
          2   -1    0    0  501    0  0.00000000000E+00  0.00000000000E+00  0.41003351506E+04  0.41003351506E+04  0.00000000000E+00 0. -1.
         -1   -1    0    0    0  501 -0.00000000000E+00 -0.00000000000E+00 -0.11357537588E+03  0.11357537588E+03  0.00000000000E+00 0.  1.
         24    2    1    2    0    0 -0.15779069936E+03  0.33837285228E+03  0.13051017087E+04  0.13596676583E+04  0.77534373823E+02 0.  0.
        254    2    1    2    0    0  0.15779069936E+03 -0.33837285228E+03  0.26816580660E+04  0.28542428682E+04  0.90333729872E+03 0.  0.
         23    2    4    4    0    0  0.14607335582E+03 -0.62828438896E+03  0.20837465396E+04  0.21832290932E+04  0.91711141317E+02 0.  0.
         23    2    4    4    0    0  0.11717343542E+02  0.28991153669E+03  0.59791152645E+03  0.67101377495E+03  0.92602902032E+02 0.  0.
          4    1    3    3  502    0 -0.29354523353E+02  0.10857584384E+03  0.50486581671E+03  0.51724258795E+03  0.00000000000E+00 0. -1.
         -3    1    3    3    0  502 -0.12843617601E+03  0.22979700843E+03  0.80023589194E+03  0.84242507035E+03  0.00000000000E+00 0.  1.
         13    1    5    5    0    0  0.14277127341E+03 -0.49247330514E+03  0.15575745095E+04  0.16398024105E+04  0.00000000000E+00 0.  1.
        -13    1    5    5    0    0  0.33020824127E+01 -0.13581108383E+03  0.52617203009E+03  0.54342668271E+03  0.00000000000E+00 0. -1.
          3    1    6    6  503    0  0.30500397414E+02  0.26270606416E+02  0.80163667543E+02  0.89703024463E+02  0.00000000000E+00 0. -1.
         -3    1    6    6    0  503 -0.18783053872E+02  0.26364093027E+03  0.51774785890E+03  0.58131075048E+03  0.00000000000E+00 0.  1.
<mgrwt>
<rscale>  0 0.13648401E+04</rscale>
<asrwt>0</asrwt>
<pdfrwt beam="1">  1        2 0.63082068E+00 0.13648401E+04</pdfrwt>
<pdfrwt beam="2">  1       -1 0.17473138E-01 0.13648401E+04</pdfrwt>
<totfact> 0.83160469E+00</totfact>
</mgrwt>
</event>
<event>
12    7  0.1711607E-007  0.1385613E+04  0.7818608E-02  0.8964299E-01
         -1   -1    0    0    0  501 -0.00000000000E+00  0.00000000000E+00  0.47307827159E+03  0.47307827159E+03  0.00000000000E+00 0.  1.
          2   -1    0    0  501    0  0.00000000000E+00 -0.00000000000E+00 -0.10145913571E+04  0.10145913571E+04  0.00000000000E+00 0. -1.
         24    2    1    2    0    0 -0.32845613005E+03  0.20088359328E+03 -0.27291238557E+03  0.47816104794E+03  0.76936143343E+02 0.  0.
        254    2    1    2    0    0  0.32845613005E+03 -0.20088359328E+03 -0.26860069994E+03  0.10095085808E+04  0.89371337194E+03 0.  0.
         23    2    4    4    0    0  0.15212960926E+03 -0.30109977697E+03  0.25924065156E+03  0.43674026462E+03  0.98650137445E+02 0.  0.
         23    2    4    4    0    0  0.17632652080E+03  0.10021618369E+03 -0.52784135150E+03  0.57276831614E+03  0.91174153155E+02 0.  0.
          4    1    3    3  502    0 -0.20737744198E+03  0.15365853957E+03 -0.21483053908E+03  0.33581023025E+03  0.00000000000E+00 0. -1.
         -3    1    3    3    0  502 -0.12107868807E+03  0.47225053714E+02 -0.58081846490E+02  0.14235081768E+03  0.00000000000E+00 0.  1.
         13    1    5    5    0    0  0.10184740433E+03 -0.26670886792E+03  0.23966390587E+03  0.37275367440E+03  0.00000000000E+00 0. -1.
        -13    1    5    5    0    0  0.50282204921E+02 -0.34390909044E+02  0.19576745684E+02  0.63986590221E+02  0.00000000000E+00 0.  1.
          3    1    6    6  503    0  0.92446857963E+02  0.12403565347E+02 -0.15775118103E+03  0.18326403111E+03  0.00000000000E+00 0. -1.
         -3    1    6    6    0  503  0.83879662833E+02  0.87812618341E+02 -0.37009017047E+03  0.38950428503E+03  0.00000000000E+00 0.  1.
<mgrwt>
<rscale>  0 0.13856134E+04</rscale>
<asrwt>0</asrwt>
<pdfrwt beam="1">  1        2 0.15609098E+00 0.13856134E+04</pdfrwt>
<pdfrwt beam="2">  1       -1 0.72781272E-01 0.13856134E+04</pdfrwt>
<totfact> 0.52167426E+01</totfact>
</mgrwt>
</event>
<event>
12    7  0.1711607E-007  0.2830697E+04  0.7818608E-02  0.8293801E-01
         -3   -1    0    0    0  501 -0.00000000000E+00  0.00000000000E+00  0.95492231697E+03  0.95492231697E+03  0.00000000000E+00 0.  1.
          2   -1    0    0  501    0  0.00000000000E+00 -0.00000000000E+00 -0.20977737838E+04  0.20977737838E+04  0.00000000000E+00 0. -1.
         24    2    1    2    0    0  0.70983832784E+03  0.71457940836E+03  0.32601899012E+03  0.10617433506E+04  0.80724085674E+02 0.  0.
        254    2    1    2    0    0 -0.70983832784E+03 -0.71457940836E+03 -0.14688704569E+04  0.19909527502E+04  0.88984170037E+03 0.  0.
         23    2    4    4    0    0  0.52316704423E+02 -0.34872121179E+03 -0.10028861117E+03  0.37985700564E+03  0.99448570070E+02 0.  0.
         23    2    4    4    0    0 -0.76215503227E+03 -0.36585819657E+03 -0.13685818458E+04  0.16110957446E+04  0.88773398950E+02 0.  0.
          2    1    3    3  502    0  0.22962493839E+03  0.21269911313E+03  0.64807595810E+02  0.31963815406E+03  0.00000000000E+00 0. -1.
         -1    1    3    3    0  502  0.48021338945E+03  0.50188029523E+03  0.26121139431E+03  0.74210519650E+03  0.00000000000E+00 0.  1.
         13    1    5    5    0    0 -0.32426366869E+01 -0.49199299250E+01 -0.22172421347E+02  0.22942028496E+02  0.00000000000E+00 0. -1.
        -13    1    5    5    0    0  0.55559341110E+02 -0.34380128187E+03 -0.78116189828E+02  0.35691497715E+03  0.00000000000E+00 0.  1.
          3    1    6    6  503    0 -0.41169558687E+03 -0.14894261365E+03 -0.69264126110E+03  0.81940775868E+03  0.00000000000E+00 0. -1.
         -3    1    6    6    0  503 -0.35045944540E+03 -0.21691558292E+03 -0.67594058466E+03  0.79168798587E+03  0.00000000000E+00 0.  1.
<mgrwt>
<rscale>  0 0.28306967E+04</rscale>
<asrwt>0</asrwt>
<pdfrwt beam="1">  1        2 0.32273443E+00 0.28306967E+04</pdfrwt>
<pdfrwt beam="2">  1       -3 0.14691113E+00 0.28306967E+04</pdfrwt>
<totfact> 0.11060364E+00</totfact>
</mgrwt>
</event>
<event>
12    7  0.1711607E-007  0.2132682E+04  0.7818608E-02  0.8546982E-01
         -1   -1    0    0    0  501 -0.00000000000E+00  0.00000000000E+00  0.56961312473E+03  0.56961312473E+03  0.00000000000E+00 0.  1.
          2   -1    0    0  501    0  0.00000000000E+00 -0.00000000000E+00 -0.19962377023E+04  0.19962377023E+04  0.00000000000E+00 0. -1.
         24    2    1    2    0    0  0.84321752441E+03  0.21782483371E+03 -0.52851491848E+03  0.10235779207E+04  0.99600647624E+02 0.  0.
        254    2    1    2    0    0 -0.84321752441E+03 -0.21782483371E+03 -0.89810965912E+03  0.15422729064E+04  0.90196524670E+03 0.  0.
         23    2    4    4    0    0 -0.43382467384E+03  0.14935014931E+03 -0.86571867390E+03  0.98370712488E+03  0.87758591988E+02 0.  0.
         23    2    4    4    0    0 -0.40939285057E+03 -0.36717498301E+03 -0.32390985217E+02  0.55856578149E+03  0.92339493586E+02 0.  0.
          4    1    3    3  502    0  0.14907630303E+02 -0.30256024289E+01  0.21651509902E+01  0.15364881715E+02  0.00000000000E+00 0. -1.
         -3    1    3    3    0  502  0.82830989411E+03  0.22085043613E+03 -0.53068006947E+03  0.10082130390E+04  0.00000000000E+00 0.  1.
         13    1    5    5    0    0 -0.31266988192E+03  0.68350388021E+02 -0.62845483356E+03  0.70525861103E+03  0.00000000000E+00 0.  1.
        -13    1    5    5    0    0 -0.12115479191E+03  0.80999761286E+02 -0.23726384034E+03  0.27844851385E+03  0.00000000000E+00 0. -1.
          3    1    6    6  503    0 -0.17972163609E+03 -0.22276037500E+03 -0.11233243801E+02  0.28644063419E+03  0.00000000000E+00 0. -1.
         -3    1    6    6    0  503 -0.22967121449E+03 -0.14441460801E+03 -0.21157741416E+02  0.27212514730E+03  0.00000000000E+00 0.  1.
<mgrwt>
<rscale>  0 0.21326821E+04</rscale>
<asrwt>0</asrwt>
<pdfrwt beam="1">  1        2 0.30711349E+00 0.21326821E+04</pdfrwt>
<pdfrwt beam="2">  1       -1 0.87632790E-01 0.21326821E+04</pdfrwt>
<totfact> 0.89967775E+00</totfact>
</mgrwt>
</event>
<event>
12    7  0.1711607E-007  0.2195011E+04  0.7818608E-02  0.8520507E-01
         -1   -1    0    0    0  501 -0.00000000000E+00  0.00000000000E+00  0.31323656987E+03  0.31323656987E+03  0.00000000000E+00 0.  1.
          2   -1    0    0  501    0  0.00000000000E+00 -0.00000000000E+00 -0.38453952488E+04  0.38453952488E+04  0.00000000000E+00 0. -1.
         24    2    1    2    0    0 -0.44412977521E+03  0.46966228681E+03 -0.26936300822E+04  0.27712352003E+04  0.79168141145E+02 0.  0.
        254    2    1    2    0    0  0.44412977521E+03 -0.46966228681E+03 -0.83852859671E+03  0.13873966184E+04  0.89660763342E+03 0.  0.
         23    2    4    4    0    0 -0.35404406034E+02  0.22899561655E+03 -0.24203086364E+03  0.34710977558E+03  0.90629978379E+02 0.  0.
         23    2    4    4    0    0  0.47953418125E+03 -0.69865790336E+03 -0.59649773307E+03  0.10402868428E+04  0.91166182585E+02 0.  0.
          2    1    3    3  502    0 -0.21828473660E+03  0.18338997755E+03 -0.12759990340E+04  0.13074607623E+04  0.00000000000E+00 0. -1.
         -1    1    3    3    0  502 -0.22584503861E+03  0.28627230926E+03 -0.14176310482E+04  0.14637744380E+04  0.00000000000E+00 0.  1.
         13    1    5    5    0    0 -0.53418435208E+01  0.24251231413E+02 -0.81516435333E+02  0.85214944386E+02  0.00000000000E+00 0. -1.
        -13    1    5    5    0    0 -0.30062562514E+02  0.20474438513E+03 -0.16051442831E+03  0.26189483119E+03  0.00000000000E+00 0.  1.
          4    1    6    6  503    0  0.58916709168E+02 -0.43763220110E+02 -0.41164143452E+02  0.84147993201E+02  0.00000000000E+00 0. -1.
         -4    1    6    6    0  503  0.42061747208E+03 -0.65489468325E+03 -0.55533358962E+03  0.95613884960E+03  0.00000000000E+00 0.  1.
<mgrwt>
<rscale>  0 0.21950111E+04</rscale>
<asrwt>0</asrwt>
<pdfrwt beam="1">  1        2 0.59159926E+00 0.21950111E+04</pdfrwt>
<pdfrwt beam="2">  1       -1 0.48190242E-01 0.21950111E+04</pdfrwt>
<totfact> 0.20427725E+00</totfact>
</mgrwt>
</event>
<event>
12    7  0.1711607E-007  0.1553348E+04  0.7818608E-02  0.8849732E-01
         -1   -1    0    0    0  501 -0.00000000000E+00  0.00000000000E+00  0.91040563171E+03  0.91040563171E+03  0.00000000000E+00 0.  1.
          2   -1    0    0  501    0  0.00000000000E+00 -0.00000000000E+00 -0.66258636744E+03  0.66258636744E+03  0.00000000000E+00 0. -1.
         24    2    1    2    0    0 -0.20556660837E+03 -0.44442252561E+03 -0.47151270817E+02  0.49853598042E+03  0.80906549073E+02 0.  0.
        254    2    1    2    0    0  0.20556660837E+03  0.44442252561E+03  0.29497053508E+03  0.10744560187E+04  0.90976871120E+03 0.  0.
         23    2    4    4    0    0  0.38796566338E+03  0.33054248971E+03  0.53170695074E+03  0.74223812822E+03  0.91812112801E+02 0.  0.
         23    2    4    4    0    0 -0.18239905501E+03  0.11388003591E+03 -0.23673641565E+03  0.33221789052E+03  0.89925071234E+02 0.  0.
          4    1    3    3  502    0 -0.18186318961E+03 -0.43369207471E+03 -0.44338025333E+02  0.47236521452E+03  0.00000000000E+00 0. -1.
         -1    1    3    3    0  502 -0.23703418759E+02 -0.10730450907E+02 -0.28132454833E+01  0.26170765898E+02  0.00000000000E+00 0.  1.
         13    1    5    5    0    0  0.15558650744E+03  0.11187349514E+03  0.14169649242E+03  0.23832905021E+03  0.00000000000E+00 0. -1.
        -13    1    5    5    0    0  0.23237915594E+03  0.21866899457E+03  0.39001045831E+03  0.50390907800E+03  0.00000000000E+00 0.  1.
          3    1    6    6  503    0 -0.17672550654E+03  0.72079749637E+02 -0.19602159573E+03  0.27359068143E+03  0.00000000000E+00 0. -1.
         -3    1    6    6    0  503 -0.56735484674E+01  0.41800286269E+02 -0.40714819920E+02  0.58627209089E+02  0.00000000000E+00 0.  1.
<mgrwt>
<rscale>  0 0.15533478E+04</rscale>
<asrwt>0</asrwt>
<pdfrwt beam="1">  1        2 0.10193636E+00 0.15533478E+04</pdfrwt>
<pdfrwt beam="2">  1       -1 0.14006240E+00 0.15533478E+04</pdfrwt>
<totfact> 0.20208668E+01</totfact>
</mgrwt>
</event>
<event>
12    7  0.1711607E-007  0.2250644E+04  0.7818608E-02  0.8497640E-01
          2   -1    0    0  501    0  0.00000000000E+00  0.00000000000E+00  0.16540355127E+04  0.16540355127E+04  0.00000000000E+00 0. -1.
         -1   -1    0    0    0  501 -0.00000000000E+00 -0.00000000000E+00 -0.76561235486E+03  0.76561235486E+03  0.00000000000E+00 0.  1.
         24    2    1    2    0    0  0.18512313920E+02 -0.49964956511E+03 -0.48514657290E+03  0.70149348855E+03  0.82058050138E+02 0.  0.
        254    2    1    2    0    0 -0.18512313920E+02  0.49964956511E+03  0.13735697307E+04  0.17181543790E+04  0.90297744780E+03 0.  0.
         23    2    4    4    0    0 -0.31779161210E+03  0.59829046108E+03  0.10791250557E+04  0.12774459758E+04  0.91729770016E+02 0.  0.
         23    2    4    4    0    0  0.29927929818E+03 -0.98640895973E+02  0.29444467499E+03  0.44070840317E+03  0.90708904306E+02 0.  0.
          4    1    3    3  502    0  0.32035040744E+02 -0.85265019670E+02 -0.71109975319E+02  0.11555516434E+03  0.00000000000E+00 0. -1.
         -3    1    3    3    0  502 -0.13522726824E+02 -0.41438454544E+03 -0.41403659758E+03  0.58593832421E+03  0.00000000000E+00 0.  1.
         13    1    5    5    0    0 -0.95586381761E+02  0.15729783976E+03  0.37091479944E+03  0.41407385237E+03  0.00000000000E+00 0.  1.
        -13    1    5    5    0    0 -0.22220523033E+03  0.44099262132E+03  0.70821025629E+03  0.86337212346E+03  0.00000000000E+00 0. -1.
          1    1    6    6  503    0  0.25024412052E+03 -0.11591586576E+03  0.24302959436E+03  0.36758943337E+03  0.00000000000E+00 0. -1.
         -1    1    6    6    0  503  0.49035177654E+02  0.17274969785E+02  0.51415080631E+02  0.73118969802E+02  0.00000000000E+00 0.  1.
<mgrwt>
<rscale>  0 0.22506444E+04</rscale>
<asrwt>0</asrwt>
<pdfrwt beam="1">  1        2 0.25446700E+00 0.22506444E+04</pdfrwt>
<pdfrwt beam="2">  1       -1 0.11778652E+00 0.22506444E+04</pdfrwt>
<totfact> 0.69865821E+00</totfact>
</mgrwt>
</event>
<event>
12    7  0.1711607E-007  0.1712969E+04  0.7818608E-02  0.8754002E-01
         -1   -1    0    0    0  501 -0.00000000000E+00  0.00000000000E+00  0.11754001179E+04  0.11754001179E+04  0.00000000000E+00 0.  1.
          2   -1    0    0  501    0  0.00000000000E+00 -0.00000000000E+00 -0.62409859489E+03  0.62409859489E+03  0.00000000000E+00 0. -1.
         24    2    1    2    0    0  0.19248936588E+02  0.21037648550E+03 -0.40936387529E+03  0.46748682074E+03  0.79601243482E+02 0.  0.
        254    2    1    2    0    0 -0.19248936588E+02 -0.21037648550E+03  0.96066539833E+03  0.13320118921E+04  0.89819200948E+03 0.  0.
         23    2    4    4    0    0  0.26366736364E+03 -0.15156137811E+03 -0.60466208567E+01  0.31844683982E+03  0.94236395194E+02 0.  0.
         23    2    4    4    0    0 -0.28291630023E+03 -0.58815107385E+02  0.96671201919E+03  0.10135650523E+04  0.96338659620E+02 0.  0.
          4    1    3    3  502    0 -0.21195136548E+02  0.14019003578E+03 -0.22269138089E+03  0.26399608154E+03  0.00000000000E+00 0. -1.
         -3    1    3    3    0  502  0.40444073136E+02  0.70186449723E+02 -0.18667249440E+03  0.20349073920E+03  0.00000000000E+00 0.  1.
         13    1    5    5    0    0  0.22750209512E+03 -0.11750410265E+03 -0.38750476004E+02  0.25897107332E+03  0.00000000000E+00 0.  1.
        -13    1    5    5    0    0  0.36165268521E+02 -0.34057275465E+02  0.32703855147E+02  0.59475766500E+02  0.00000000000E+00 0. -1.
          3    1    6    6  503    0 -0.74581720648E+02  0.20097224921E+02  0.17896890806E+03  0.19492614385E+03  0.00000000000E+00 0. -1.
         -3    1    6    6    0  503 -0.20833457958E+03 -0.78912332306E+02  0.78774311113E+03  0.81863890842E+03  0.00000000000E+00 0.  1.
<mgrwt>
<rscale>  0 0.17129688E+04</rscale>
<asrwt>0</asrwt>
<pdfrwt beam="1">  1        2 0.96015169E-01 0.17129688E+04</pdfrwt>
<pdfrwt beam="2">  1       -1 0.18083079E+00 0.17129688E+04</pdfrwt>
<totfact> 0.10535364E+01</totfact>
</mgrwt>
</event>
<event>
12    7  0.1711607E-007  0.1684859E+04  0.7818608E-02  0.8770048E-01
         -1   -1    0    0    0  501 -0.00000000000E+00  0.00000000000E+00  0.10290232118E+04  0.10290232118E+04  0.00000000000E+00 0.  1.
          2   -1    0    0  501    0  0.00000000000E+00 -0.00000000000E+00 -0.68967059873E+03  0.68967059873E+03  0.00000000000E+00 0. -1.
         24    2    1    2    0    0  0.16559387202E+03  0.32305598481E+03  0.65144382411E+03  0.74999205236E+03  0.79514293507E+02 0.  0.
        254    2    1    2    0    0 -0.16559387202E+03 -0.32305598481E+03 -0.31209121106E+03  0.96870175814E+03  0.84213756147E+03 0.  0.
         23    2    4    4    0    0 -0.18483859911E+03 -0.90568306598E+02 -0.56718852806E+03  0.61034165821E+03  0.91903141989E+02 0.  0.
         23    2    4    4    0    0  0.19244727082E+02 -0.23248767821E+03  0.25509731700E+03  0.35836009993E+03  0.94479839357E+02 0.  0.
          4    1    3    3  502    0  0.77299604982E+02  0.87716515890E+02  0.16207242787E+03  0.19984215763E+03  0.00000000000E+00 0. -1.
         -1    1    3    3    0  502  0.88294267041E+02  0.23533946892E+03  0.48937139623E+03  0.55014989473E+03  0.00000000000E+00 0.  1.
         13    1    5    5    0    0 -0.60643175762E+02  0.11326761004E+02 -0.20599178368E+03  0.21503140520E+03  0.00000000000E+00 0.  1.
        -13    1    5    5    0    0 -0.12419542334E+03 -0.10189506760E+03 -0.36119674438E+03  0.39531025301E+03  0.00000000000E+00 0. -1.
          3    1    6    6  503    0  0.20190363960E+02 -0.90237574764E+02  0.16741614012E+03  0.19125541736E+03  0.00000000000E+00 0. -1.
         -3    1    6    6    0  503 -0.94563687761E+00 -0.14225010345E+03  0.87681176874E+02  0.16710468257E+03  0.00000000000E+00 0.  1.
<mgrwt>
<rscale>  0 0.16848585E+04</rscale>
<asrwt>0</asrwt>
<pdfrwt beam="1">  1        2 0.10610317E+00 0.16848585E+04</pdfrwt>
<pdfrwt beam="2">  1       -1 0.15831126E+00 0.16848585E+04</pdfrwt>
<totfact> 0.13673538E+01</totfact>
</mgrwt>
</event>
<event>
12    7  0.1711607E-007  0.1142082E+04  0.7818608E-02  0.9165119E-01
          2   -1    0    0  501    0  0.00000000000E+00  0.00000000000E+00  0.12171706930E+04  0.12171706930E+04  0.00000000000E+00 0. -1.
         -1   -1    0    0    0  501 -0.00000000000E+00 -0.00000000000E+00 -0.26790658181E+03  0.26790658181E+03  0.00000000000E+00 0.  1.
         24    2    1    2    0    0  0.14051135973E+03 -0.13477745028E+03  0.85547564240E+02  0.22686914499E+03  0.79011517412E+02 0.  0.
        254    2    1    2    0    0 -0.14051135973E+03  0.13477745028E+03  0.86371654697E+03  0.12582081298E+04  0.89396477623E+03 0.  0.
         23    2    4    4    0    0  0.26033137479E+03  0.34561640369E+03  0.51931094685E+03  0.68232050033E+03  0.93028395883E+02 0.  0.
         23    2    4    4    0    0 -0.40084273452E+03 -0.21083895342E+03  0.34440560012E+03  0.57588762951E+03  0.88900969216E+02 0.  0.
          4    1    3    3  502    0 -0.93662278262E+01 -0.38743846342E+01  0.93340135087E+01  0.13779001711E+02  0.00000000000E+00 0. -1.
         -3    1    3    3    0  502  0.14987758756E+03 -0.13090306564E+03  0.76213550731E+02  0.21309014328E+03  0.00000000000E+00 0.  1.
         13    1    5    5    0    0  0.10198139917E+03  0.21211833647E+03  0.28366251121E+03  0.36859030740E+03  0.00000000000E+00 0.  1.
        -13    1    5    5    0    0  0.15834997562E+03  0.13349806722E+03  0.23564843564E+03  0.31373019292E+03  0.00000000000E+00 0. -1.
          4    1    6    6  503    0 -0.37726493516E+03 -0.19446745418E+03  0.34532179631E+03  0.54716868061E+03  0.00000000000E+00 0. -1.
         -4    1    6    6    0  503 -0.23577799365E+02 -0.16371499233E+02 -0.91619619326E+00  0.28718948893E+02  0.00000000000E+00 0.  1.
<mgrwt>
<rscale>  0 0.11420824E+04</rscale>
<asrwt>0</asrwt>
<pdfrwt beam="1">  1        2 0.18725703E+00 0.11420824E+04</pdfrwt>
<pdfrwt beam="2">  1       -1 0.41216398E-01 0.11420824E+04</pdfrwt>
<totfact> 0.12030191E+02</totfact>
</mgrwt>
</event>
<event>
12    7  0.1711607E-007  0.1571986E+04  0.7818608E-02  0.8837945E-01
          2   -1    0    0  501    0  0.00000000000E+00  0.00000000000E+00  0.23165816135E+04  0.23165816135E+04  0.00000000000E+00 0. -1.
         -1   -1    0    0    0  501 -0.00000000000E+00 -0.00000000000E+00 -0.26667964708E+03  0.26667964708E+03  0.00000000000E+00 0.  1.
         24    2    1    2    0    0 -0.78797448587E+02 -0.20310799317E+03  0.14555800044E+04  0.14739098240E+04  0.78962808220E+02 0.  0.
        254    2    1    2    0    0  0.78797448587E+02  0.20310799317E+03  0.59432196196E+03  0.11093514366E+04  0.91103244762E+03 0.  0.
         23    2    4    4    0    0  0.30528255935E+02 -0.33279523869E+03  0.78232994066E+02  0.35847888407E+03  0.10345077891E+03 0.  0.
         23    2    4    4    0    0  0.48269192652E+02  0.53590323186E+03  0.51608896789E+03  0.75087255252E+03  0.89104312307E+02 0.  0.
          4    1    3    3  502    0 -0.13915066863E+02 -0.69838467001E+02  0.72209853349E+03  0.72560135930E+03  0.00000000000E+00 0. -1.
         -3    1    3    3    0  502 -0.64882381723E+02 -0.13326952617E+03  0.73348147096E+03  0.74830846467E+03  0.00000000000E+00 0.  1.
         13    1    5    5    0    0  0.29438521728E+02 -0.33722572029E+03  0.86188173157E+02  0.34930819369E+03  0.00000000000E+00 0.  1.
        -13    1    5    5    0    0  0.10897342071E+01  0.44304815927E+01 -0.79551790911E+01  0.91706903861E+01  0.00000000000E+00 0. -1.
          3    1    6    6  503    0  0.58362190807E+02  0.38333644808E+03  0.32358655077E+03  0.50503587356E+03  0.00000000000E+00 0.  1.
         -3    1    6    6    0  503 -0.10092998155E+02  0.15256678378E+03  0.19250241712E+03  0.24583667896E+03  0.00000000000E+00 0. -1.
<mgrwt>
<rscale>  0 0.15719862E+04</rscale>
<asrwt>0</asrwt>
<pdfrwt beam="1">  1        2 0.35639716E+00 0.15719862E+04</pdfrwt>
<pdfrwt beam="2">  1       -1 0.41027640E-01 0.15719862E+04</pdfrwt>
<totfact> 0.28264044E+01</totfact>
</mgrwt>
</event>
<event>
12    7  0.1711607E-007  0.1771608E+04  0.7818608E-02  0.8721545E-01
          2   -1    0    0  501    0  0.00000000000E+00  0.00000000000E+00  0.16762405131E+04  0.16762405131E+04  0.00000000000E+00 0. -1.
         -1   -1    0    0    0  501 -0.00000000000E+00 -0.00000000000E+00 -0.46810034114E+03  0.46810034114E+03  0.00000000000E+00 0.  1.
         24    2    1    2    0    0 -0.48837540840E+03 -0.33298373818E+03  0.10813709825E+03  0.60602526675E+03  0.78640209160E+02 0.  0.
        254    2    1    2    0    0  0.48837540840E+03  0.33298373818E+03  0.11000030737E+04  0.15383155875E+04  0.89834257113E+03 0.  0.
         23    2    4    4    0    0 -0.79081206626E+02 -0.59129931422E+02  0.74575424560E+03  0.75764461212E+03  0.90143094048E+02 0.  0.
         23    2    4    4    0    0  0.56745661502E+03  0.39211366961E+03  0.35424882810E+03  0.78067097536E+03  0.90525133193E+02 0.  0.
          4    1    3    3  502    0 -0.16886376954E+01 -0.58654784407E+01 -0.60640062429E+01  0.86039238907E+01  0.00000000000E+00 0. -1.
         -3    1    3    3    0  502 -0.48668677070E+03 -0.32711825974E+03  0.11420110450E+03  0.59742134286E+03  0.00000000000E+00 0.  1.
         13    1    5    5    0    0 -0.75427976794E+02 -0.69424999560E+02  0.44353385717E+03  0.45522685850E+03  0.00000000000E+00 0.  1.
        -13    1    5    5    0    0 -0.36532298317E+01  0.10295068138E+02  0.30222038843E+03  0.30241775361E+03  0.00000000000E+00 0. -1.
          3    1    6    6  503    0  0.10115142274E+03  0.30722943411E+02  0.53151608743E+02  0.11832414414E+03  0.00000000000E+00 0. -1.
         -3    1    6    6    0  503  0.46630519229E+03  0.36139072619E+03  0.30109721936E+03  0.66234683123E+03  0.00000000000E+00 0.  1.
<mgrwt>
<rscale>  0 0.17716080E+04</rscale>
<asrwt>0</asrwt>
<pdfrwt beam="1">  1        2 0.25788315E+00 0.17716080E+04</pdfrwt>
<pdfrwt beam="2">  1       -1 0.72015438E-01 0.17716080E+04</pdfrwt>
<totfact> 0.21203455E+01</totfact>
</mgrwt>
</event>
<event>
12    7  0.1711607E-007  0.1184716E+04  0.7818608E-02  0.9126341E-01
          2   -1    0    0  501    0  0.00000000000E+00  0.00000000000E+00  0.34607571769E+03  0.34607571769E+03  0.00000000000E+00 0. -1.
         -1   -1    0    0    0  501 -0.00000000000E+00 -0.00000000000E+00 -0.10139055462E+04  0.10139055462E+04  0.00000000000E+00 0.  1.
         24    2    1    2    0    0  0.19073727141E+02  0.82358271448E+02  0.10970323738E+03  0.16060577871E+03  0.81318656658E+02 0.  0.
        254    2    1    2    0    0 -0.19073727141E+02 -0.82358271448E+02 -0.77753306585E+03  0.11993754851E+04  0.90928389073E+03 0.  0.
         23    2    4    4    0    0 -0.44759788345E+02  0.31867913892E+03 -0.18096043324E+02  0.33549231071E+03  0.93100974905E+02 0.  0.
         23    2    4    4    0    0  0.25686061204E+02 -0.40103741037E+03 -0.75943702252E+03  0.86388317443E+03  0.89770650135E+02 0.  0.
          4    1    3    3  502    0 -0.17213736749E+02  0.39248540732E+02  0.92079778993E+02  0.10156498600E+03  0.00000000000E+00 0. -1.
         -3    1    3    3    0  502  0.36287463890E+02  0.43109730716E+02  0.17623458386E+02  0.59040792707E+02  0.00000000000E+00 0.  1.
         13    1    5    5    0    0 -0.65159198155E+02  0.13442826568E+03 -0.17710612175E+01  0.14939818063E+03  0.00000000000E+00 0. -1.
        -13    1    5    5    0    0  0.20399409810E+02  0.18425087324E+03 -0.16324982106E+02  0.18609413009E+03  0.00000000000E+00 0.  1.
          3    1    6    6  503    0  0.46534309143E+02 -0.11474425504E+03 -0.20343693936E+03  0.23815598730E+03  0.00000000000E+00 0. -1.
         -3    1    6    6    0  503 -0.20848247939E+02 -0.28629315533E+03 -0.55600008316E+03  0.62572718712E+03  0.00000000000E+00 0.  1.
<mgrwt>
<rscale>  0 0.11847162E+04</rscale>
<asrwt>0</asrwt>
<pdfrwt beam="1">  1        2 0.53242417E-01 0.11847162E+04</pdfrwt>
<pdfrwt beam="2">  1       -1 0.15598547E+00 0.11847162E+04</pdfrwt>
<totfact> 0.33198321E+01</totfact>
</mgrwt>
</event>
<event>
12    7  0.1711607E-007  0.1307454E+04  0.7818608E-02  0.9023675E-01
         -1   -1    0    0    0  501 -0.00000000000E+00  0.00000000000E+00  0.31626212729E+03  0.31626212729E+03  0.00000000000E+00 0.  1.
          2   -1    0    0  501    0  0.00000000000E+00 -0.00000000000E+00 -0.13512802089E+04  0.13512802089E+04  0.00000000000E+00 0. -1.
         24    2    1    2    0    0  0.10243433858E+03 -0.32435834871E+03 -0.24148245973E+03  0.42479541137E+03  0.80226124573E+02 0.  0.
        254    2    1    2    0    0 -0.10243433858E+03  0.32435834871E+03 -0.79353562183E+03  0.12427469248E+04  0.89387918861E+03 0.  0.
         23    2    4    4    0    0  0.22317481630E+03  0.85919308006E+02  0.84865327844E+02  0.27170387027E+03  0.97117161887E+02 0.  0.
         23    2    4    4    0    0 -0.32560915488E+03  0.23843904071E+03 -0.87840094967E+03  0.97104305450E+03  0.91988517964E+02 0.  0.
          4    1    3    3  502    0  0.92830429287E+02 -0.25500419423E+03 -0.22583445553E+03  0.35305216184E+03  0.00000000000E+00 0. -1.
         -3    1    3    3    0  502  0.96039092926E+01 -0.69354154488E+02 -0.15648004207E+02  0.71743249537E+02  0.00000000000E+00 0.  1.
         13    1    5    5    0    0  0.50477647331E+01 -0.16031447402E+02  0.99973920358E+01  0.19555947487E+02  0.00000000000E+00 0.  1.
        -13    1    5    5    0    0  0.21812705156E+03  0.10195075541E+03  0.74867935808E+02  0.25214792278E+03  0.00000000000E+00 0. -1.
          1    1    6    6  503    0 -0.29333428850E+03  0.17517502338E+03 -0.69700065351E+03  0.77623527659E+03  0.00000000000E+00 0. -1.
         -1    1    6    6    0  503 -0.32274866378E+02  0.63264017326E+02 -0.18140029616E+03  0.19480777791E+03  0.00000000000E+00 0.  1.
<mgrwt>
<rscale>  0 0.13074536E+04</rscale>
<asrwt>0</asrwt>
<pdfrwt beam="1">  1        2 0.20788927E+00 0.13074536E+04</pdfrwt>
<pdfrwt beam="2">  1       -1 0.48655711E-01 0.13074536E+04</pdfrwt>
<totfact> 0.72840875E+01</totfact>
</mgrwt>
</event>
<event>
12    7  0.1711607E-007  0.1495503E+04  0.7818608E-02  0.8887449E-01
         -1   -1    0    0    0  501 -0.00000000000E+00  0.00000000000E+00  0.29184422131E+03  0.29184422131E+03  0.00000000000E+00 0.  1.
          2   -1    0    0  501    0  0.00000000000E+00 -0.00000000000E+00 -0.19158585741E+04  0.19158585741E+04  0.00000000000E+00 0. -1.
         24    2    1    2    0    0 -0.26846687745E+03  0.14379934935E+03  0.60277109399E+01  0.31745980585E+03  0.89396184879E+02 0.  0.
        254    2    1    2    0    0  0.26846687745E+03 -0.14379934935E+03 -0.16300420637E+04  0.18902429896E+04  0.90731952084E+03 0.  0.
         23    2    4    4    0    0  0.51962759532E+03  0.13222655353E+03 -0.71937921062E+03  0.90183265327E+03  0.91098773551E+02 0.  0.
         23    2    4    4    0    0 -0.25116071787E+03 -0.27602590289E+03 -0.91066285311E+03  0.98841033630E+03  0.91521339592E+02 0.  0.
          4    1    3    3  502    0 -0.10776661671E+03  0.17086914564E+02 -0.20748393266E+02  0.11106800687E+03  0.00000000000E+00 0. -1.
         -1    1    3    3    0  502 -0.16070026074E+03  0.12671243479E+03  0.26776104205E+02  0.20639179898E+03  0.00000000000E+00 0.  1.
         13    1    5    5    0    0  0.19140847843E+03  0.58819096054E+02 -0.19960317447E+03  0.28273365370E+03  0.00000000000E+00 0. -1.
        -13    1    5    5    0    0  0.32821911689E+03  0.73407457480E+02 -0.51977603616E+03  0.61909899957E+03  0.00000000000E+00 0.  1.
          1    1    6    6  503    0 -0.19551834793E+03 -0.17374374240E+03 -0.70670981241E+03  0.75356026392E+03  0.00000000000E+00 0. -1.
         -1    1    6    6    0  503 -0.55642369938E+02 -0.10228216048E+03 -0.20395304070E+03  0.23485007238E+03  0.00000000000E+00 0.  1.
<mgrwt>
<rscale>  0 0.14955029E+04</rscale>
<asrwt>0</asrwt>
<pdfrwt beam="1">  1        2 0.29474748E+00 0.14955029E+04</pdfrwt>
<pdfrwt beam="2">  1       -1 0.44899110E-01 0.14955029E+04</pdfrwt>
<totfact> 0.40298734E+01</totfact>
</mgrwt>
</event>
<event>
12    7  0.1711607E-007  0.1846199E+04  0.7818608E-02  0.8682110E-01
          2   -1    0    0  501    0  0.00000000000E+00  0.00000000000E+00  0.33832680953E+04  0.33832680953E+04  0.00000000000E+00 0. -1.
         -1   -1    0    0    0  501 -0.00000000000E+00 -0.00000000000E+00 -0.25186090715E+03  0.25186090715E+03  0.00000000000E+00 0.  1.
         24    2    1    2    0    0  0.99383645076E+01 -0.68535856243E+03  0.93678528817E+03  0.11635843634E+04  0.80912077919E+02 0.  0.
        254    2    1    2    0    0 -0.99383645076E+01  0.68535856243E+03  0.21946219000E+04  0.24715446391E+04  0.90683652826E+03 0.  0.
         23    2    4    4    0    0 -0.51196124782E+02  0.65854634264E+03  0.67825349189E+03  0.95162204004E+03  0.96189288508E+02 0.  0.
         23    2    4    4    0    0  0.41257760274E+02  0.26812219783E+02  0.15163684081E+04  0.15199225991E+04  0.91490218886E+02 0.  0.
          4    1    3    3  502    0 -0.13920591736E+02 -0.60803151317E+03  0.84660395980E+03  0.10424175596E+04  0.00000000000E+00 0. -1.
         -3    1    3    3    0  502  0.23858956243E+02 -0.77327049260E+02  0.90181328367E+02  0.12116680373E+03  0.00000000000E+00 0.  1.
         13    1    5    5    0    0 -0.50741951239E+02  0.65120348752E+03  0.64648300981E+03  0.91901088663E+03  0.00000000000E+00 0. -1.
        -13    1    5    5    0    0 -0.45417354232E+00  0.73428551266E+01  0.31770482084E+02  0.32611153412E+02  0.00000000000E+00 0.  1.
          4    1    6    6  503    0  0.32226092978E+01  0.51092327773E+01  0.47882224172E+01  0.77082127745E+01  0.00000000000E+00 0.  1.
         -4    1    6    6    0  503  0.38035150976E+02  0.21702987005E+02  0.15115801857E+04  0.15122143863E+04  0.00000000000E+00 0. -1.
<mgrwt>
<rscale>  0 0.18461993E+04</rscale>
<asrwt>0</asrwt>
<pdfrwt beam="1">  1        2 0.52050275E+00 0.18461993E+04</pdfrwt>
<pdfrwt beam="2">  1       -1 0.38747834E-01 0.18461993E+04</pdfrwt>
<totfact> 0.68093625E+00</totfact>
</mgrwt>
</event>
<event>
12    7  0.1711607E-007  0.1414326E+04  0.7818608E-02  0.8943513E-01
          2   -1    0    0  501    0  0.00000000000E+00  0.00000000000E+00  0.18760192871E+04  0.18760192871E+04  0.00000000000E+00 0. -1.
         -1   -1    0    0    0  501 -0.00000000000E+00 -0.00000000000E+00 -0.26656414573E+03  0.26656414573E+03  0.00000000000E+00 0.  1.
         24    2    1    2    0    0  0.12766634022E+03 -0.31333438229E+03  0.85061600084E+03  0.91831252957E+03  0.72616744200E+02 0.  0.
        254    2    1    2    0    0 -0.12766634022E+03  0.31333438229E+03  0.75883914058E+03  0.12242709033E+04  0.89918033443E+03 0.  0.
         23    2    4    4    0    0 -0.50192711086E+01  0.31340798270E+03 -0.10832399367E+03  0.34367158929E+03  0.90146086882E+02 0.  0.
         23    2    4    4    0    0 -0.12264706911E+03 -0.73600402738E-01  0.86716313426E+03  0.88059931401E+03  0.91874596250E+02 0.  0.
          4    1    3    3  502    0  0.10753003914E+03 -0.30054601414E+03  0.75376522571E+03  0.81856742631E+03  0.00000000000E+00 0. -1.
         -3    1    3    3    0  502  0.20136301077E+02 -0.12788368149E+02  0.96850775130E+02  0.99745103260E+02  0.00000000000E+00 0.  1.
         13    1    5    5    0    0  0.35259892612E+02  0.21923742571E+03 -0.90109369321E+02  0.23964141398E+03  0.00000000000E+00 0. -1.
        -13    1    5    5    0    0 -0.40279163721E+02  0.94170556990E+02 -0.18214624353E+02  0.10403017531E+03  0.00000000000E+00 0.  1.
          1    1    6    6  503    0 -0.13455066549E+03  0.99623984241E+01  0.71307761870E+03  0.72572916522E+03  0.00000000000E+00 0. -1.
         -1    1    6    6    0  503  0.11903596382E+02 -0.10035998827E+02  0.15408551556E+03  0.15487014878E+03  0.00000000000E+00 0.  1.
<mgrwt>
<rscale>  0 0.14143260E+04</rscale>
<asrwt>0</asrwt>
<pdfrwt beam="1">  1        2 0.28861834E+00 0.14143260E+04</pdfrwt>
<pdfrwt beam="2">  1       -1 0.41009870E-01 0.14143260E+04</pdfrwt>
<totfact> 0.50469334E+01</totfact>
</mgrwt>
</event>
<event>
12    7  0.1711607E-007  0.1731838E+04  0.7818608E-02  0.8743411E-01
          2   -1    0    0  501    0  0.00000000000E+00  0.00000000000E+00  0.10086765519E+04  0.10086765519E+04  0.00000000000E+00 0. -1.
         -1   -1    0    0    0  501 -0.00000000000E+00 -0.00000000000E+00 -0.74336623053E+03  0.74336623053E+03  0.00000000000E+00 0.  1.
         24    2    1    2    0    0 -0.17616427225E+03 -0.22696419913E+03  0.66701112813E+03  0.73062465425E+03  0.79761781881E+02 0.  0.
        254    2    1    2    0    0  0.17616427225E+03  0.22696419913E+03 -0.40170080674E+03  0.10214181282E+04  0.89408324891E+03 0.  0.
         23    2    4    4    0    0  0.12145217076E+03 -0.17617581620E+03 -0.53515402215E+03  0.58366594086E+03  0.92127927907E+02 0.  0.
         23    2    4    4    0    0  0.54712101490E+02  0.40314001533E+03  0.13345321541E+03  0.43775218734E+03  0.91114931887E+02 0.  0.
          2    1    3    3  502    0 -0.17840157190E+03 -0.21206591970E+03  0.65547238452E+03  0.71164817292E+03  0.00000000000E+00 0. -1.
         -1    1    3    3    0  502  0.22372996528E+01 -0.14898279428E+02  0.11538743618E+02  0.18976481337E+02  0.00000000000E+00 0.  1.
         13    1    5    5    0    0  0.90409205081E+02 -0.76903750324E+02 -0.19818554666E+03  0.23100978785E+03  0.00000000000E+00 0. -1.
        -13    1    5    5    0    0  0.31042965675E+02 -0.99272065874E+02 -0.33696847550E+03  0.35265615302E+03  0.00000000000E+00 0.  1.
          4    1    6    6  503    0  0.26665080185E+02  0.27161295402E+03  0.13222495877E+03  0.30326236663E+03  0.00000000000E+00 0. -1.
         -4    1    6    6    0  503  0.28047021305E+02  0.13152706131E+03  0.12282566340E+01  0.13448982071E+03  0.00000000000E+00 0.  1.
<mgrwt>
<rscale>  0 0.17318384E+04</rscale>
<asrwt>0</asrwt>
<pdfrwt beam="1">  1        2 0.15518101E+00 0.17318384E+04</pdfrwt>
<pdfrwt beam="2">  1       -1 0.11436403E+00 0.17318384E+04</pdfrwt>
<totfact> 0.18734562E+01</totfact>
</mgrwt>
</event>
<event>
12    7  0.1711607E-007  0.2141043E+04  0.7818608E-02  0.8543376E-01
          2   -1    0    0  501    0  0.00000000000E+00  0.00000000000E+00  0.16724322682E+04  0.16724322682E+04  0.00000000000E+00 0. -1.
         -1   -1    0    0    0  501 -0.00000000000E+00 -0.00000000000E+00 -0.68523914523E+03  0.68523914523E+03  0.00000000000E+00 0.  1.
         24    2    1    2    0    0 -0.33209518992E+03 -0.62146425108E+03 -0.17410198709E+03  0.73031748653E+03  0.80914143934E+02 0.  0.
        254    2    1    2    0    0  0.33209518992E+03  0.62146425108E+03  0.11612951100E+04  0.16273539269E+04  0.89619721055E+03 0.  0.
         23    2    4    4    0    0  0.62820550442E+03  0.44994123615E+03  0.88270037350E+03  0.11765859895E+04  0.90029825845E+02 0.  0.
         23    2    4    4    0    0 -0.29611031450E+03  0.17152301493E+03  0.27859473653E+03  0.45076793738E+03  0.92061083758E+02 0.  0.
          2    1    3    3  502    0 -0.39846648532E+00 -0.38420409173E+02 -0.11336023225E+02  0.40059855705E+02  0.00000000000E+00 0. -1.
         -1    1    3    3    0  502 -0.33169672343E+03 -0.58304384191E+03 -0.16276596386E+03  0.69025763083E+03  0.00000000000E+00 0.  1.
         13    1    5    5    0    0  0.58798319420E+03  0.41342804460E+03  0.78190645807E+03  0.10620850690E+04  0.00000000000E+00 0.  1.
        -13    1    5    5    0    0  0.40222310216E+02  0.36513191549E+02  0.10079391543E+03  0.11450092045E+03  0.00000000000E+00 0. -1.
          3    1    6    6  503    0 -0.21060399804E+03  0.14597222650E+03  0.15907694770E+03  0.30160804065E+03  0.00000000000E+00 0. -1.
         -3    1    6    6    0  503 -0.85506316461E+02  0.25550788438E+02  0.11951778883E+03  0.14915989673E+03  0.00000000000E+00 0.  1.
<mgrwt>
<rscale>  0 0.21410428E+04</rscale>
<asrwt>0</asrwt>
<pdfrwt beam="1">  1        2 0.25729727E+00 0.21410428E+04</pdfrwt>
<pdfrwt beam="2">  1       -1 0.10542141E+00 0.21410428E+04</pdfrwt>
<totfact> 0.89634301E+00</totfact>
</mgrwt>
</event>
<event>
12    7  0.1711607E-007  0.1752699E+04  0.7818608E-02  0.8731866E-01
          2   -1    0    0  501    0  0.00000000000E+00  0.00000000000E+00  0.18588303624E+04  0.18588303624E+04  0.00000000000E+00 0. -1.
         -1   -1    0    0    0  501 -0.00000000000E+00 -0.00000000000E+00 -0.41315682660E+03  0.41315682660E+03  0.00000000000E+00 0.  1.
         24    2    1    2    0    0  0.51054313416E+03 -0.38077244190E+03  0.72113095505E+03  0.96526890486E+03  0.77924707251E+02 0.  0.
        254    2    1    2    0    0 -0.51054313416E+03  0.38077244190E+03  0.72454258071E+03  0.13067182841E+04  0.88142428966E+03 0.  0.
         23    2    4    4    0    0 -0.24484608669E+03  0.55259743203E+03  0.76008966809E+03  0.97531307621E+03  0.90475217803E+02 0.  0.
         23    2    4    4    0    0 -0.26569704747E+03 -0.17182499013E+03 -0.35547087382E+02  0.33140520789E+03  0.91907932893E+02 0.  0.
          2    1    3    3  502    0  0.12884502152E+03 -0.94593307733E+02  0.13270639826E+03  0.20774966084E+03  0.00000000000E+00 0. -1.
         -1    1    3    3    0  502  0.38169811264E+03 -0.28617913417E+03  0.58842455679E+03  0.75751924402E+03  0.00000000000E+00 0.  1.
         13    1    5    5    0    0 -0.18331766081E+02  0.11133268002E+03  0.10968806055E+03  0.15736101777E+03  0.00000000000E+00 0. -1.
        -13    1    5    5    0    0 -0.22651432061E+03  0.44126475201E+03  0.65040160754E+03  0.81795205844E+03  0.00000000000E+00 0.  1.
          4    1    6    6  503    0 -0.15705728160E+02  0.71852466094E+01  0.10928562764E+02  0.20438472300E+02  0.00000000000E+00 0. -1.
         -4    1    6    6    0  503 -0.24999131931E+03 -0.17901023674E+03 -0.46475650146E+02  0.31096673559E+03  0.00000000000E+00 0.  1.
<mgrwt>
<rscale>  0 0.17526990E+04</rscale>
<asrwt>0</asrwt>
<pdfrwt beam="1">  1        2 0.28597390E+00 0.17526990E+04</pdfrwt>
<pdfrwt beam="2">  1       -1 0.63562589E-01 0.17526990E+04</pdfrwt>
<totfact> 0.21684436E+01</totfact>
</mgrwt>
</event>
<event>
12    7  0.1711607E-007  0.1920715E+04  0.7818608E-02  0.8644613E-01
          2   -1    0    0  501    0  0.00000000000E+00  0.00000000000E+00  0.19737829980E+04  0.19737829980E+04  0.00000000000E+00 0. -1.
         -1   -1    0    0    0  501 -0.00000000000E+00 -0.00000000000E+00 -0.46726842161E+03  0.46726842161E+03  0.00000000000E+00 0.  1.
         24    2    1    2    0    0  0.28476701199E+03 -0.25384050058E+03 -0.22697925118E+03  0.45132996603E+03  0.81559223375E+02 0.  0.
        254    2    1    2    0    0 -0.28476701199E+03  0.25384050058E+03  0.17334938275E+04  0.19897214535E+04  0.89914590683E+03 0.  0.
         23    2    4    4    0    0 -0.97131644600E+02  0.21101292595E+03  0.61425201442E+01  0.24935871483E+03  0.90449028767E+02 0.  0.
         23    2    4    4    0    0 -0.18763536739E+03  0.42827574625E+02  0.17273513074E+04  0.17403627387E+04  0.89881538510E+02 0.  0.
          4    1    3    3  502    0  0.63135458792E+02 -0.17278108547E+02 -0.46698526303E+02  0.80407534166E+02  0.00000000000E+00 0. -1.
         -3    1    3    3    0  502  0.22163155320E+03 -0.23656239203E+03 -0.18028072487E+03  0.37092243186E+03  0.00000000000E+00 0.  1.
         13    1    5    5    0    0 -0.90421107555E+02  0.10257476783E+03 -0.18411712185E+02  0.13797300763E+03  0.00000000000E+00 0. -1.
        -13    1    5    5    0    0 -0.67105370444E+01  0.10843815812E+03  0.24554232330E+02  0.11138570720E+03  0.00000000000E+00 0.  1.
          4    1    6    6  503    0 -0.13241392648E+03  0.90877310164E+01  0.81666269204E+03  0.82737777789E+03  0.00000000000E+00 0.  1.
         -4    1    6    6    0  503 -0.55221440916E+02  0.33739843609E+02  0.91068861534E+03  0.91298496083E+03  0.00000000000E+00 0. -1.
<mgrwt>
<rscale>  0 0.19207149E+04</rscale>
<asrwt>0</asrwt>
<pdfrwt beam="1">  1        2 0.30365892E+00 0.19207149E+04</pdfrwt>
<pdfrwt beam="2">  1       -1 0.71887451E-01 0.19207149E+04</pdfrwt>
<totfact> 0.14366136E+01</totfact>
</mgrwt>
</event>
<event>
12    7  0.1711607E-007  0.1955563E+04  0.7818608E-02  0.8627683E-01
          2   -1    0    0  501    0  0.00000000000E+00  0.00000000000E+00  0.20783216038E+04  0.20783216038E+04  0.00000000000E+00 0. -1.
         -1   -1    0    0    0  501 -0.00000000000E+00 -0.00000000000E+00 -0.46001362649E+03  0.46001362649E+03  0.00000000000E+00 0.  1.
         24    2    1    2    0    0 -0.65517525342E+03 -0.19282821425E+02  0.12241163793E+03  0.67165699777E+03  0.80697420386E+02 0.  0.
        254    2    1    2    0    0  0.65517525342E+03  0.19282821425E+02  0.14958963394E+04  0.18666782326E+04  0.90396644061E+03 0.  0.
         23    2    4    4    0    0  0.68871086481E+03 -0.31473169592E+02  0.15824984813E+04  0.17285900986E+04  0.91700982073E+02 0.  0.
         23    2    4    4    0    0 -0.33535611390E+02  0.50755991017E+02 -0.86602141865E+02  0.13808813393E+03  0.88699458294E+02 0.  0.
          2    1    3    3  502    0 -0.13748106867E+03  0.25802935833E+01 -0.66636414564E+01  0.13766664911E+03  0.00000000000E+00 0. -1.
         -1    1    3    3    0  502 -0.51769418474E+03 -0.21863115008E+02  0.12907527938E+03  0.53399034866E+03  0.00000000000E+00 0.  1.
         13    1    5    5    0    0  0.14650481778E+01  0.69860786693E+01  0.18261625163E+02  0.19607106236E+02  0.00000000000E+00 0. -1.
        -13    1    5    5    0    0  0.68724581663E+03 -0.38459248261E+02  0.15642368561E+04  0.17089829924E+04  0.00000000000E+00 0.  1.
          4    1    6    6  503    0 -0.21438818492E+02  0.26266294195E+02  0.11850870129E+02  0.35916351038E+02  0.00000000000E+00 0. -1.
         -4    1    6    6    0  503 -0.12096792898E+02  0.24489696822E+02 -0.98453011995E+02  0.10217178289E+03  0.00000000000E+00 0.  1.
<mgrwt>
<rscale>  0 0.19555626E+04</rscale>
<asrwt>0</asrwt>
<pdfrwt beam="1">  1        2 0.31974178E+00 0.19555626E+04</pdfrwt>
<pdfrwt beam="2">  1       -1 0.70771329E-01 0.19555626E+04</pdfrwt>
<totfact> 0.12938606E+01</totfact>
</mgrwt>
</event>
<event>
12    7  0.1711607E-007  0.1551153E+04  0.7818608E-02  0.8851132E-01
         -1   -1    0    0    0  501 -0.00000000000E+00  0.00000000000E+00  0.26686722617E+03  0.26686722617E+03  0.00000000000E+00 0.  1.
          2   -1    0    0  501    0  0.00000000000E+00 -0.00000000000E+00 -0.22540002859E+04  0.22540002859E+04  0.00000000000E+00 0. -1.
         24    2    1    2    0    0 -0.12644695300E+03  0.35886595519E+03 -0.12138772756E+04  0.12746567395E+04  0.80487002257E+02 0.  0.
        254    2    1    2    0    0  0.12644695300E+03 -0.35886595519E+03 -0.77325578411E+03  0.12462107726E+04  0.90019063331E+03 0.  0.
         23    2    4    4    0    0 -0.21310362511E+03 -0.52208831363E+03 -0.57617818442E+03  0.81114842251E+03  0.89392957691E+02 0.  0.
         23    2    4    4    0    0  0.33955057811E+03  0.16322235843E+03 -0.19707759969E+03  0.43506235006E+03  0.92214612478E+02 0.  0.
          4    1    3    3  502    0 -0.81674503818E+02  0.24142200032E+03 -0.92816231256E+03  0.96251783634E+03  0.00000000000E+00 0. -1.
         -3    1    3    3    0  502 -0.44772449183E+02  0.11744395487E+03 -0.28571496303E+03  0.31213890312E+03  0.00000000000E+00 0.  1.
         13    1    5    5    0    0 -0.11636161570E+03 -0.25739223470E+03 -0.35015048900E+03  0.44988459969E+03  0.00000000000E+00 0. -1.
        -13    1    5    5    0    0 -0.96742009410E+02 -0.26469607893E+03 -0.22602769542E+03  0.36126382282E+03  0.00000000000E+00 0.  1.
          1    1    6    6  503    0  0.15432515965E+03  0.61913806805E+02 -0.37605014426E+02  0.17048082439E+03  0.00000000000E+00 0. -1.
         -1    1    6    6    0  503  0.18522541846E+03  0.10130855163E+03 -0.15947258526E+03  0.26458152567E+03  0.00000000000E+00 0.  1.
<mgrwt>
<rscale>  0 0.15511529E+04</rscale>
<asrwt>0</asrwt>
<pdfrwt beam="1">  1        2 0.34676926E+00 0.15511529E+04</pdfrwt>
<pdfrwt beam="2">  1       -1 0.41056498E-01 0.15511529E+04</pdfrwt>
<totfact> 0.30673689E+01</totfact>
</mgrwt>
</event>
<event>
12    7  0.1711607E-007  0.1817270E+04  0.7818608E-02  0.8697169E-01
          2   -1    0    0  501    0  0.00000000000E+00  0.00000000000E+00  0.11750301635E+04  0.11750301635E+04  0.00000000000E+00 0. -1.
         -1   -1    0    0    0  501 -0.00000000000E+00 -0.00000000000E+00 -0.70263504275E+03  0.70263504275E+03  0.00000000000E+00 0.  1.
         24    2    1    2    0    0  0.14086721395E+03 -0.67038191069E+03  0.16939476930E+03  0.71016782615E+03  0.79926686959E+02 0.  0.
        254    2    1    2    0    0 -0.14086721395E+03  0.67038191069E+03  0.30300035142E+03  0.11674973801E+04  0.89553639869E+03 0.  0.
         23    2    4    4    0    0  0.24278505829E+03  0.17028354935E+03 -0.18827477316E+03  0.36289954197E+03  0.91146122506E+02 0.  0.
         23    2    4    4    0    0 -0.38365227224E+03  0.50009836133E+03  0.49127512458E+03  0.80459783810E+03  0.93482597570E+02 0.  0.
          2    1    3    3  502    0  0.73515873717E+02 -0.25818947035E+03  0.10164060184E+03  0.28704912164E+03  0.00000000000E+00 0. -1.
         -3    1    3    3    0  502  0.67351340233E+02 -0.41219244033E+03  0.67754167454E+02  0.42311870451E+03  0.00000000000E+00 0.  1.
         13    1    5    5    0    0 -0.49073603351E+01  0.16919854329E+02 -0.36349946369E+01  0.17988241770E+02  0.00000000000E+00 0.  1.
        -13    1    5    5    0    0  0.24769241862E+03  0.15336369502E+03 -0.18463977852E+03  0.34491130020E+03  0.00000000000E+00 0. -1.
          2    1    6    6  503    0 -0.31051015082E+03  0.33911135772E+03  0.37002043552E+03  0.59019334917E+03  0.00000000000E+00 0. -1.
         -2    1    6    6    0  503 -0.73142121419E+02  0.16098700361E+03  0.12125468906E+03  0.21440448894E+03  0.00000000000E+00 0.  1.
<mgrwt>
<rscale>  0 0.18172698E+04</rscale>
<asrwt>0</asrwt>
<pdfrwt beam="1">  1        2 0.18077387E+00 0.18172698E+04</pdfrwt>
<pdfrwt beam="2">  1       -1 0.10809770E+00 0.18172698E+04</pdfrwt>
<totfact> 0.16764798E+01</totfact>
</mgrwt>
</event>
<event>
12    7  0.1711607E-007  0.1796713E+04  0.7818608E-02  0.8708049E-01
         -1   -1    0    0    0  501 -0.00000000000E+00  0.00000000000E+00  0.50001370911E+03  0.50001370911E+03  0.00000000000E+00 0.  1.
          2   -1    0    0  501    0  0.00000000000E+00 -0.00000000000E+00 -0.16140452282E+04  0.16140452282E+04  0.00000000000E+00 0. -1.
         24    2    1    2    0    0 -0.49607219454E+03 -0.75472904787E+02 -0.95227839464E+03  0.10793040973E+04  0.79242740698E+02 0.  0.
        254    2    1    2    0    0  0.49607219454E+03  0.75472904787E+02 -0.16175312446E+03  0.10347548400E+04  0.89037617003E+03 0.  0.
         23    2    4    4    0    0  0.59192136538E+03  0.32242012221E+03 -0.27384453439E+03  0.73342717716E+03  0.92730562291E+02 0.  0.
         23    2    4    4    0    0 -0.95849170836E+02 -0.24694721743E+03  0.11209140994E+03  0.30132766287E+03  0.89799134108E+02 0.  0.
          2    1    3    3  502    0 -0.43461787222E+03 -0.65566069613E+02 -0.76908080489E+03  0.88581989636E+03  0.00000000000E+00 0. -1.
         -1    1    3    3    0  502 -0.61454322318E+02 -0.99068351740E+01 -0.18319758975E+03  0.19348420092E+03  0.00000000000E+00 0.  1.
         13    1    5    5    0    0  0.17245505398E+03  0.92006756786E+02 -0.12588768599E+03  0.23249451267E+03  0.00000000000E+00 0. -1.
        -13    1    5    5    0    0  0.41946631140E+03  0.23041336543E+03 -0.14795684840E+03  0.50093266449E+03  0.00000000000E+00 0.  1.
          4    1    6    6  503    0 -0.27460607103E+02 -0.52724464049E+01  0.55876006169E+01  0.28514994550E+02  0.00000000000E+00 0. -1.
         -4    1    6    6    0  503 -0.68388563733E+02 -0.24167477102E+03  0.10650380932E+03  0.27281266832E+03  0.00000000000E+00 0.  1.
<mgrwt>
<rscale>  0 0.17967134E+04</rscale>
<asrwt>0</asrwt>
<pdfrwt beam="1">  1        2 0.24831465E+00 0.17967134E+04</pdfrwt>
<pdfrwt beam="2">  1       -1 0.76925186E-01 0.17967134E+04</pdfrwt>
<totfact> 0.19971495E+01</totfact>
</mgrwt>
</event>
<event>
12    7  0.1711607E-007  0.1657924E+04  0.7818608E-02  0.8785733E-01
         -1   -1    0    0    0  501 -0.00000000000E+00  0.00000000000E+00  0.16941735972E+04  0.16941735972E+04  0.00000000000E+00 0.  1.
          2   -1    0    0  501    0  0.00000000000E+00 -0.00000000000E+00 -0.40561226888E+03  0.40561226888E+03  0.00000000000E+00 0. -1.
         24    2    1    2    0    0 -0.40876123821E+02 -0.51826432070E+03  0.77551940238E+03  0.93656498398E+03  0.73857038445E+02 0.  0.
        254    2    1    2    0    0  0.40876123821E+02  0.51826432070E+03  0.51304192595E+03  0.11632208821E+04  0.90531875004E+03 0.  0.
         23    2    4    4    0    0 -0.35844751644E+03  0.22502192981E+03 -0.15843404698E+02  0.43330245650E+03  0.91545149499E+02 0.  0.
         23    2    4    4    0    0  0.39932364026E+03  0.29324239089E+03  0.52888533064E+03  0.72991842561E+03  0.87239587257E+02 0.  0.
          2    1    3    3  502    0 -0.50464208217E+02 -0.20206128413E+03  0.32756672927E+03  0.38816924270E+03  0.00000000000E+00 0. -1.
         -1    1    3    3    0  502  0.95880843958E+01 -0.31620303657E+03  0.44795267312E+03  0.54839574127E+03  0.00000000000E+00 0.  1.
         13    1    5    5    0    0 -0.16803920037E+03  0.11552623248E+03 -0.52615913412E+02  0.21059894966E+03  0.00000000000E+00 0.  1.
        -13    1    5    5    0    0 -0.19040831607E+03  0.10949569734E+03  0.36772508715E+02  0.22270350685E+03  0.00000000000E+00 0. -1.
          4    1    6    6  503    0  0.29179287067E+03  0.20892159508E+03  0.32308188604E+03  0.48288012731E+03  0.00000000000E+00 0. -1.
         -4    1    6    6    0  503  0.10753076960E+03  0.84320795805E+02  0.20580344460E+03  0.24703829829E+03  0.00000000000E+00 0.  1.
<mgrwt>
<rscale>  0 0.16579235E+04</rscale>
<asrwt>0</asrwt>
<pdfrwt beam="1">  1        2 0.62401888E-01 0.16579235E+04</pdfrwt>
<pdfrwt beam="2">  1       -1 0.26064209E+00 0.16579235E+04</pdfrwt>
<totfact> 0.50815887E+00</totfact>
</mgrwt>
</event>
<event>
12    7  0.1711607E-007  0.1510103E+04  0.7818608E-02  0.8877762E-01
          2   -1    0    0  501    0  0.00000000000E+00  0.00000000000E+00  0.22136721343E+04  0.22136721343E+04  0.00000000000E+00 0. -1.
         -1   -1    0    0    0  501 -0.00000000000E+00 -0.00000000000E+00 -0.25753720210E+03  0.25753720210E+03  0.00000000000E+00 0.  1.
         24    2    1    2    0    0  0.14599364840E+03  0.26329805612E+02 -0.11545544121E+03  0.20542989325E+03  0.82849732042E+02 0.  0.
        254    2    1    2    0    0 -0.14599364840E+03 -0.26329805612E+02  0.20715903734E+04  0.22657794432E+04  0.90568339157E+03 0.  0.
         23    2    4    4    0    0  0.34715310427E+03  0.91020564068E+02  0.11744323579E+04  0.12313825879E+04  0.90618394609E+02 0.  0.
         23    2    4    4    0    0 -0.49314675267E+03 -0.11735036968E+03  0.89715801548E+03  0.10343968553E+04  0.90108382364E+02 0.  0.
          4    1    3    3  502    0 -0.44899282631E+01  0.18520868503E+02 -0.15981208538E+02  0.24871289718E+02  0.00000000000E+00 0. -1.
         -3    1    3    3    0  502  0.15048357666E+03  0.78089371092E+01 -0.99474232667E+02  0.18055860353E+03  0.00000000000E+00 0.  1.
         13    1    5    5    0    0  0.32809651328E+03  0.10659845978E+03  0.11116184168E+04  0.11639184070E+04  0.00000000000E+00 0.  1.
        -13    1    5    5    0    0  0.19056590991E+02 -0.15577895708E+02  0.62813941171E+02  0.67464180869E+02  0.00000000000E+00 0. -1.
          1    1    6    6  503    0 -0.30715067958E+03 -0.59091689316E+02  0.46609957100E+03  0.56132181304E+03  0.00000000000E+00 0. -1.
         -1    1    6    6    0  503 -0.18599607308E+03 -0.58258680365E+02  0.43105844449E+03  0.47307504225E+03  0.00000000000E+00 0.  1.
<mgrwt>
<rscale>  0 0.15101032E+04</rscale>
<asrwt>0</asrwt>
<pdfrwt beam="1">  1        2 0.34056493E+00 0.15101032E+04</pdfrwt>
<pdfrwt beam="2">  1       -1 0.39621109E-01 0.15101032E+04</pdfrwt>
<totfact> 0.34613935E+01</totfact>
</mgrwt>
</event>
<event>
12    7  0.1711607E-007  0.1985484E+04  0.7818608E-02  0.8613438E-01
         -1   -1    0    0    0  501 -0.00000000000E+00  0.00000000000E+00  0.12276915712E+04  0.12276915712E+04  0.00000000000E+00 0.  1.
          2   -1    0    0  501    0  0.00000000000E+00 -0.00000000000E+00 -0.80275599121E+03  0.80275599121E+03  0.00000000000E+00 0. -1.
         24    2    1    2    0    0  0.47525678740E+03 -0.19422649410E+03  0.77616106421E+03  0.93408321600E+03  0.80576124440E+02 0.  0.
        254    2    1    2    0    0 -0.47525678740E+03  0.19422649410E+03 -0.35122548426E+03  0.10963643464E+04  0.90280811596E+03 0.  0.
         23    2    4    4    0    0 -0.47799905557E+02 -0.11072924042E+03  0.25089512079E+03  0.29222984940E+03  0.88905160662E+02 0.  0.
         23    2    4    4    0    0 -0.42745688184E+03  0.30495573452E+03 -0.60212060504E+03  0.80413449698E+03  0.91464093327E+02 0.  0.
          4    1    3    3  502    0  0.29136708482E+03 -0.11846729458E+03  0.40280517169E+03  0.51105898323E+03  0.00000000000E+00 0. -1.
         -1    1    3    3    0  502  0.18388970258E+03 -0.75759199516E+02  0.37335589252E+03  0.42302423277E+03  0.00000000000E+00 0.  1.
         13    1    5    5    0    0 -0.65170789814E+02 -0.10410639267E+03  0.24250308663E+03  0.27183288959E+03  0.00000000000E+00 0. -1.
        -13    1    5    5    0    0  0.17370884257E+02 -0.66228477524E+01  0.83920341561E+01  0.20396959810E+02  0.00000000000E+00 0.  1.
          4    1    6    6  503    0 -0.35681197781E+03  0.20804438788E+03 -0.46286715566E+03  0.62035736365E+03  0.00000000000E+00 0. -1.
         -4    1    6    6    0  503 -0.70644904032E+02  0.96911346639E+02 -0.13925344938E+03  0.18377713333E+03  0.00000000000E+00 0.  1.
<mgrwt>
<rscale>  0 0.19854841E+04</rscale>
<asrwt>0</asrwt>
<pdfrwt beam="1">  1        2 0.12350092E+00 0.19854841E+04</pdfrwt>
<pdfrwt beam="2">  1       -1 0.18887563E+00 0.19854841E+04</pdfrwt>
<totfact> 0.65493448E+00</totfact>
</mgrwt>
</event>
<event>
12    7  0.1711607E-007  0.2687243E+04  0.7818608E-02  0.8339156E-01
         -1   -1    0    0    0  501 -0.00000000000E+00  0.00000000000E+00  0.78062296865E+03  0.78062296865E+03  0.00000000000E+00 0.  1.
          2   -1    0    0  501    0  0.00000000000E+00 -0.00000000000E+00 -0.23126648393E+04  0.23126648393E+04  0.00000000000E+00 0. -1.
         24    2    1    2    0    0  0.84576979179E+03 -0.18964121796E+02  0.28570456350E+03  0.89644758278E+03  0.79403982493E+02 0.  0.
        254    2    1    2    0    0 -0.84576979179E+03  0.18964121796E+02 -0.18177464342E+04  0.21968402252E+04  0.89789681893E+03 0.  0.
         23    2    4    4    0    0 -0.95140681677E+03  0.16583086981E+03 -0.11803161416E+04  0.15277315644E+04  0.90237079185E+02 0.  0.
         23    2    4    4    0    0  0.10563702498E+03 -0.14686674802E+03 -0.63743029259E+03  0.66910866077E+03  0.93059117185E+02 0.  0.
          4    1    3    3  502    0  0.64779751762E+02 -0.20841598701E+02  0.13486516828E+02  0.69373443124E+02  0.00000000000E+00 0. -1.
         -3    1    3    3    0  502  0.78099004003E+03  0.18774769056E+01  0.27221804667E+03  0.82707413965E+03  0.00000000000E+00 0.  1.
         13    1    5    5    0    0 -0.27140740389E+03  0.11550485357E+02 -0.29994955796E+03  0.40467904556E+03  0.00000000000E+00 0.  1.
        -13    1    5    5    0    0 -0.67999941289E+03  0.15428038446E+03 -0.88036658365E+03  0.11230525189E+04  0.00000000000E+00 0. -1.
          2    1    6    6  503    0  0.82171596834E+02 -0.12918279465E+03 -0.37516557646E+03  0.40520312872E+03  0.00000000000E+00 0. -1.
         -2    1    6    6    0  503  0.23465428145E+02 -0.17683953369E+02 -0.26226471612E+03  0.26390553205E+03  0.00000000000E+00 0.  1.
<mgrwt>
<rscale>  0 0.26872434E+04</rscale>
<asrwt>0</asrwt>
<pdfrwt beam="1">  1        2 0.35579459E+00 0.26872434E+04</pdfrwt>
<pdfrwt beam="2">  1       -1 0.12009584E+00 0.26872434E+04</pdfrwt>
<totfact> 0.27511389E+00</totfact>
</mgrwt>
</event>
<event>
12    7  0.1711607E-007  0.1675272E+04  0.7818608E-02  0.8775594E-01
          2   -1    0    0  501    0  0.00000000000E+00  0.00000000000E+00  0.11669411975E+04  0.11669411975E+04  0.00000000000E+00 0. -1.
         -1   -1    0    0    0  501 -0.00000000000E+00 -0.00000000000E+00 -0.60125945491E+03  0.60125945491E+03  0.00000000000E+00 0.  1.
         24    2    1    2    0    0 -0.18468789582E+03 -0.21222923293E+03  0.75331817259E+03  0.80801526207E+03  0.79053958827E+02 0.  0.
        254    2    1    2    0    0  0.18468789582E+03  0.21222923293E+03 -0.18763642997E+03  0.96018539038E+03  0.89866439112E+03 0.  0.
         23    2    4    4    0    0  0.20239562291E+03  0.11843853163E+03 -0.53358467457E+03  0.58977705703E+03  0.90181473222E+02 0.  0.
         23    2    4    4    0    0 -0.17707727092E+02  0.93790701296E+02  0.34594824460E+03  0.37040833335E+03  0.91716335644E+02 0.  0.
          4    1    3    3  502    0 -0.17208866296E+03 -0.14955054602E+03  0.57249234492E+03  0.61622021934E+03  0.00000000000E+00 0. -1.
         -3    1    3    3    0  502 -0.12599232863E+02 -0.62678686910E+02  0.18082582767E+03  0.19179504273E+03  0.00000000000E+00 0.  1.
         13    1    5    5    0    0  0.95405316583E+02  0.15936287680E+02 -0.14906133337E+03  0.17769474051E+03  0.00000000000E+00 0.  1.
        -13    1    5    5    0    0  0.10699030633E+03  0.10250224395E+03 -0.38452334120E+03  0.41208231652E+03  0.00000000000E+00 0. -1.
          3    1    6    6  503    0  0.36896949507E+02  0.39335197763E+02  0.16868671671E+03  0.17709842196E+03  0.00000000000E+00 0. -1.
         -3    1    6    6    0  503 -0.54604676599E+02  0.54455503533E+02  0.17726152789E+03  0.19330991139E+03  0.00000000000E+00 0.  1.
<mgrwt>
<rscale>  0 0.16752724E+04</rscale>
<asrwt>0</asrwt>
<pdfrwt beam="1">  1        2 0.17952942E+00 0.16752724E+04</pdfrwt>
<pdfrwt beam="2">  1       -1 0.92501455E-01 0.16752724E+04</pdfrwt>
<totfact> 0.24506014E+01</totfact>
</mgrwt>
</event>
<event>
12    7  0.2612383E-007  0.2478606E+04  0.7818608E-02  0.8410647E-01
         -1   -1    0    0    0  501 -0.00000000000E+00  0.00000000000E+00  0.85284576390E+03  0.85284576390E+03  0.00000000000E+00 0.  1.
          2   -1    0    0  501    0  0.00000000000E+00 -0.00000000000E+00 -0.18008783057E+04  0.18008783057E+04  0.00000000000E+00 0. -1.
         24    2    1    2    0    0 -0.55136327579E+03 -0.62207191513E+03 -0.11477552866E+04  0.14193837094E+04  0.79580066279E+02 0.  0.
        254    2    1    2    0    0  0.55136327579E+03  0.62207191513E+03  0.19972274482E+03  0.12343403602E+04  0.89035499698E+03 0.  0.
         23    2    4    4    0    0  0.39100684505E+03  0.77734320442E+03  0.35824137452E+03  0.94514585920E+03  0.88402502277E+02 0.  0.
         23    2    4    4    0    0  0.16035643073E+03 -0.15527128929E+03 -0.15851862970E+03  0.28919450105E+03  0.93176957022E+02 0.  0.
          2    1    3    3  502    0 -0.52377440986E+03 -0.57458944581E+03 -0.10406088602E+04  0.12989840121E+04  0.00000000000E+00 0. -1.
         -1    1    3    3    0  502 -0.27588865930E+02 -0.47482469322E+02 -0.10714642639E+03  0.12039969728E+03  0.00000000000E+00 0.  1.
         13    1    5    5    0    0  0.20623962228E+03  0.31401231443E+03  0.14599785635E+03  0.40305569028E+03  0.00000000000E+00 0. -1.
        -13    1    5    5    0    0  0.18476722278E+03  0.46333088999E+03  0.21224351817E+03  0.54209016892E+03  0.00000000000E+00 0.  1.
          1    1    6    6  503    0  0.94924462111E+02 -0.45185231731E+02 -0.33787821929E+02  0.11042633556E+03  0.00000000000E+00 0. -1.
         -1    1    6    6    0  503  0.65431968622E+02 -0.11008605756E+03 -0.12473080777E+03  0.17876816549E+03  0.00000000000E+00 0.  1.
<mgrwt>
<rscale>  0 0.24786056E+04</rscale>
<asrwt>0</asrwt>
<pdfrwt beam="1">  1        2 0.27705820E+00 0.24786056E+04</pdfrwt>
<pdfrwt beam="2">  1       -1 0.13120704E+00 0.24786056E+04</pdfrwt>
<totfact> 0.43425825E+00</totfact>
</mgrwt>
</event>
<event>
12    7  0.1711607E-007  0.2475427E+04  0.7818608E-02  0.8411792E-01
         -1   -1    0    0    0  501 -0.00000000000E+00  0.00000000000E+00  0.12342917106E+04  0.12342917106E+04  0.00000000000E+00 0.  1.
          2   -1    0    0  501    0  0.00000000000E+00 -0.00000000000E+00 -0.12411445734E+04  0.12411445734E+04  0.00000000000E+00 0. -1.
         24    2    1    2    0    0 -0.97745988271E+02  0.98396160006E+03 -0.41701806498E+03  0.10761371388E+04  0.80202034559E+02 0.  0.
        254    2    1    2    0    0  0.97745988271E+02 -0.98396160006E+03  0.41016520223E+03  0.13992991452E+04  0.90114809883E+03 0.  0.
         23    2    4    4    0    0  0.21931811267E+03 -0.24013382078E+03 -0.22787453963E+03  0.40740398525E+03  0.91030296903E+02 0.  0.
         23    2    4    4    0    0 -0.12157212440E+03 -0.74382777927E+03  0.63803974186E+03  0.99189515995E+03  0.93283168370E+02 0.  0.
          2    1    3    3  502    0 -0.92125370951E+02  0.96811043477E+03 -0.39807028741E+03  0.10508020040E+04  0.00000000000E+00 0. -1.
         -1    1    3    3    0  502 -0.56206173199E+01  0.15851165283E+02 -0.18947777569E+02  0.25335134787E+02  0.00000000000E+00 0.  1.
         13    1    5    5    0    0  0.44735517940E+02 -0.11232818627E+03 -0.91769980252E+02  0.15179136099E+03  0.00000000000E+00 0.  1.
        -13    1    5    5    0    0  0.17458259473E+03 -0.12780563452E+03 -0.13610455937E+03  0.25561262426E+03  0.00000000000E+00 0. -1.
          2    1    6    6  503    0 -0.11900867430E+03 -0.56967264500E+03  0.45059751854E+03  0.73602181403E+03  0.00000000000E+00 0. -1.
         -2    1    6    6    0  503 -0.25634501038E+01 -0.17415513427E+03  0.18744222332E+03  0.25587334592E+03  0.00000000000E+00 0.  1.
<mgrwt>
<rscale>  0 0.24754268E+04</rscale>
<asrwt>0</asrwt>
<pdfrwt beam="1">  1        2 0.19094532E+00 0.24754268E+04</pdfrwt>
<pdfrwt beam="2">  1       -1 0.18989103E+00 0.24754268E+04</pdfrwt>
<totfact> 0.32274665E+00</totfact>
</mgrwt>
</event>
<event>
12    7  0.1711607E-007  0.1908927E+04  0.7818608E-02  0.8650426E-01
         -1   -1    0    0    0  501 -0.00000000000E+00  0.00000000000E+00  0.43205437495E+03  0.43205437495E+03  0.00000000000E+00 0.  1.
          2   -1    0    0  501    0  0.00000000000E+00 -0.00000000000E+00 -0.21085322109E+04  0.21085322109E+04  0.00000000000E+00 0. -1.
         24    2    1    2    0    0  0.26858659642E+03  0.18128501970E+03  0.23105158174E+03  0.40610424121E+03  0.80825757997E+02 0.  0.
        254    2    1    2    0    0 -0.26858659642E+03 -0.18128501970E+03 -0.19075294177E+04  0.21344823447E+04  0.90130093872E+03 0.  0.
         23    2    4    4    0    0 -0.14015440430E+03 -0.53049551878E+03 -0.92108073633E+03  0.10762933413E+04  0.94598526783E+02 0.  0.
         23    2    4    4    0    0 -0.12843219212E+03  0.34921049908E+03 -0.98644868138E+03  0.10581890033E+04  0.90775355359E+02 0.  0.
          2    1    3    3  502    0  0.75930110156E+02  0.13324628235E+02  0.69071940139E+02  0.10350777874E+03  0.00000000000E+00 0. -1.
         -1    1    3    3    0  502  0.19265648627E+03  0.16796039147E+03  0.16197964160E+03  0.30259646246E+03  0.00000000000E+00 0.  1.
         13    1    5    5    0    0 -0.14449903447E+03 -0.49900123187E+03 -0.89635148684E+03  0.10360155348E+04  0.00000000000E+00 0. -1.
        -13    1    5    5    0    0  0.43446301731E+01 -0.31494286908E+02 -0.24729249485E+02  0.40277806535E+02  0.00000000000E+00 0.  1.
          1    1    6    6  503    0 -0.10586922413E+03  0.27605722842E+03 -0.66523761047E+03  0.72798143133E+03  0.00000000000E+00 0. -1.
         -1    1    6    6    0  503 -0.22562967996E+02  0.73153270666E+02 -0.32121107092E+03  0.33020757201E+03  0.00000000000E+00 0.  1.
<mgrwt>
<rscale>  0 0.19089270E+04</rscale>
<asrwt>0</asrwt>
<pdfrwt beam="1">  1        2 0.32438958E+00 0.19089270E+04</pdfrwt>
<pdfrwt beam="2">  1       -1 0.66469903E-01 0.19089270E+04</pdfrwt>
<totfact> 0.14203876E+01</totfact>
</mgrwt>
</event>
<event>
12    7  0.1711607E-007  0.4434334E+04  0.7818608E-02  0.7922235E-01
         -1   -1    0    0    0  501 -0.00000000000E+00  0.00000000000E+00  0.17834414222E+04  0.17834414222E+04  0.00000000000E+00 0.  1.
          2   -1    0    0  501    0  0.00000000000E+00 -0.00000000000E+00 -0.27563732962E+04  0.27563732962E+04  0.00000000000E+00 0. -1.
         24    2    1    2    0    0 -0.18387685017E+03 -0.11308541016E+04  0.13662068671E+04  0.17848466988E+04  0.80714555775E+02 0.  0.
        254    2    1    2    0    0  0.18387685017E+03  0.11308541016E+04 -0.23391387411E+04  0.27549680196E+04  0.89757286267E+03 0.  0.
         23    2    4    4    0    0  0.19879485663E+03  0.30596380498E+03 -0.15976273626E+04  0.16418233845E+04  0.10018778030E+03 0.  0.
         23    2    4    4    0    0 -0.14918006465E+02  0.82489029660E+03 -0.74151137853E+03  0.11131446351E+04  0.92656925186E+02 0.  0.
          4    1    3    3  502    0  0.54679144911E+01 -0.42770562022E+02  0.66596504933E+02  0.79336709875E+02  0.00000000000E+00 0. -1.
         -3    1    3    3    0  502 -0.18934476466E+03 -0.10880835396E+04  0.12996103621E+04  0.17055099889E+04  0.00000000000E+00 0.  1.
         13    1    5    5    0    0  0.13776449595E+03  0.18536124574E+03 -0.79391929434E+03  0.82682869671E+03  0.00000000000E+00 0. -1.
        -13    1    5    5    0    0  0.61030360682E+02  0.12060255924E+03 -0.80370806824E+03  0.81499468782E+03  0.00000000000E+00 0.  1.
          3    1    6    6  503    0  0.11969751946E+02  0.69757973225E+02 -0.36170193230E+02  0.79484166149E+02  0.00000000000E+00 0. -1.
         -3    1    6    6    0  503 -0.26887758411E+02  0.75513232338E+03 -0.70534118530E+03  0.10336604689E+04  0.00000000000E+00 0.  1.
<mgrwt>
<rscale>  0 0.44343344E+04</rscale>
<asrwt>0</asrwt>
<pdfrwt beam="1">  1        2 0.42405743E+00 0.44343344E+04</pdfrwt>
<pdfrwt beam="2">  1       -1 0.27437560E+00 0.44343344E+04</pdfrwt>
<totfact> 0.10292970E-01</totfact>
</mgrwt>
</event>
<event>
12    7  0.1711607E-007  0.1516575E+04  0.7818608E-02  0.8873505E-01
         -1   -1    0    0    0  501 -0.00000000000E+00  0.00000000000E+00  0.13290337381E+03  0.13290337381E+03  0.00000000000E+00 0.  1.
          2   -1    0    0  501    0  0.00000000000E+00 -0.00000000000E+00 -0.43264519651E+04  0.43264519651E+04  0.00000000000E+00 0. -1.
         24    2    1    2    0    0  0.40796300066E+03  0.17105782704E+03 -0.19843001761E+04  0.20346933732E+04  0.82676139654E+02 0.  0.
        254    2    1    2    0    0 -0.40796300066E+03 -0.17105782704E+03 -0.22092484153E+04  0.24246619658E+04  0.89583061889E+03 0.  0.
         23    2    4    4    0    0  0.71836896710E+02 -0.20856327573E+03 -0.98945182035E+02  0.25826984979E+03  0.90851453199E+02 0.  0.
         23    2    4    4    0    0 -0.47979989737E+03  0.37505448690E+02 -0.21103032332E+04  0.21663921160E+04  0.90887093478E+02 0.  0.
          2    1    3    3  502    0  0.26860751246E+03  0.88543816656E+02 -0.14048503874E+04  0.14330368503E+04  0.00000000000E+00 0. -1.
         -1    1    3    3    0  502  0.13935548820E+03  0.82514010384E+02 -0.57944978863E+03  0.60165652289E+03  0.00000000000E+00 0.  1.
         13    1    5    5    0    0  0.20524462220E+02 -0.61543311940E+02 -0.77520976670E+02  0.10108577851E+03  0.00000000000E+00 0. -1.
        -13    1    5    5    0    0  0.51312434490E+02 -0.14701996379E+03 -0.21424205365E+02  0.15718407127E+03  0.00000000000E+00 0.  1.
          1    1    6    6  503    0 -0.35844504855E+02 -0.48076157748E+01 -0.81700688951E+02  0.89347323814E+02  0.00000000000E+00 0. -1.
         -1    1    6    6    0  503 -0.44395539251E+03  0.42313064465E+02 -0.20286025443E+04  0.20770447922E+04  0.00000000000E+00 0.  1.
<mgrwt>
<rscale>  0 0.15165752E+04</rscale>
<asrwt>0</asrwt>
<pdfrwt beam="1">  1        2 0.66560789E+00 0.15165752E+04</pdfrwt>
<pdfrwt beam="2">  1       -1 0.20446676E-01 0.15165752E+04</pdfrwt>
<totfact> 0.40074778E+00</totfact>
</mgrwt>
</event>
<event>
12    7  0.1711607E-007  0.1325433E+04  0.7818608E-02  0.9009636E-01
         -3   -1    0    0    0  501 -0.00000000000E+00  0.00000000000E+00  0.15487899312E+03  0.15487899312E+03  0.00000000000E+00 0.  1.
          2   -1    0    0  501    0  0.00000000000E+00 -0.00000000000E+00 -0.28357174713E+04  0.28357174713E+04  0.00000000000E+00 0. -1.
         24    2    1    2    0    0  0.41057274929E+02  0.23921292468E+03 -0.15524843431E+03  0.29875047694E+03  0.79001569334E+02 0.  0.
        254    2    1    2    0    0 -0.41057274929E+02 -0.23921292468E+03 -0.25255900439E+04  0.26918459875E+04  0.89917808439E+03 0.  0.
         23    2    4    4    0    0 -0.27349421203E+03 -0.16812424397E+03 -0.29288336555E+03  0.44410458434E+03  0.91560748108E+02 0.  0.
         23    2    4    4    0    0  0.23243693710E+03 -0.71088680711E+02 -0.22327066784E+04  0.22477414032E+04  0.91004250938E+02 0.  0.
          4    1    3    3  502    0  0.59297186703E+02  0.12997313461E+03 -0.70596968713E+02  0.15935213856E+03  0.00000000000E+00 0. -1.
         -3    1    3    3    0  502 -0.18239911774E+02  0.10923979007E+03 -0.84651465593E+02  0.13939833838E+03  0.00000000000E+00 0.  1.
         13    1    5    5    0    0 -0.63906434894E+02 -0.49975434765E+02 -0.26948492237E+02  0.85485658064E+02  0.00000000000E+00 0. -1.
        -13    1    5    5    0    0 -0.20958777713E+03 -0.11814880921E+03 -0.26593487331E+03  0.35861892628E+03  0.00000000000E+00 0.  1.
          2    1    6    6  503    0  0.63281966325E+02 -0.41365447099E+02 -0.10384570231E+04  0.10412054055E+04  0.00000000000E+00 0. -1.
         -2    1    6    6    0  503  0.16915497077E+03 -0.29723233612E+02 -0.11942496552E+04  0.12065359977E+04  0.00000000000E+00 0.  1.
<mgrwt>
<rscale>  0 0.13254329E+04</rscale>
<asrwt>0</asrwt>
<pdfrwt beam="1">  1        2 0.43626420E+00 0.13254329E+04</pdfrwt>
<pdfrwt beam="2">  1       -3 0.23827539E-01 0.13254329E+04</pdfrwt>
<totfact> 0.23585401E+01</totfact>
</mgrwt>
</event>
<event>
12    7  0.1711607E-007  0.1630176E+04  0.7818608E-02  0.8802221E-01
         -1   -1    0    0    0  501 -0.00000000000E+00  0.00000000000E+00  0.24395973512E+03  0.24395973512E+03  0.00000000000E+00 0.  1.
          2   -1    0    0  501    0  0.00000000000E+00 -0.00000000000E+00 -0.27232703703E+04  0.27232703703E+04  0.00000000000E+00 0. -1.
         24    2    1    2    0    0 -0.14512920781E+03  0.54229024337E+03 -0.72325167063E+03  0.91963660229E+03  0.86586986252E+02 0.  0.
        254    2    1    2    0    0  0.14512920781E+03 -0.54229024337E+03 -0.17560589646E+04  0.20475935031E+04  0.89092921834E+03 0.  0.
         23    2    4    4    0    0 -0.64235902550E+02  0.47883220198E+02 -0.11979194705E+04  0.12039270590E+04  0.89500009214E+02 0.  0.
         23    2    4    4    0    0  0.20936511036E+03 -0.59017346357E+03 -0.55813949406E+03  0.84366644414E+03  0.90082781948E+02 0.  0.
          2    1    3    3  502    0 -0.47723244428E+02  0.22811057859E+03 -0.36709754806E+03  0.43482473931E+03  0.00000000000E+00 0. -1.
         -1    1    3    3    0  502 -0.97405963386E+02  0.31417966478E+03 -0.35615412258E+03  0.48481186299E+03  0.00000000000E+00 0.  1.
         13    1    5    5    0    0 -0.28377565068E+02  0.36314156855E+02 -0.19780084790E+03  0.20309894047E+03  0.00000000000E+00 0.  1.
        -13    1    5    5    0    0 -0.35858337482E+02  0.11569063342E+02 -0.10001186226E+04  0.10008281185E+04  0.00000000000E+00 0. -1.
          1    1    6    6  503    0  0.38627318438E+02 -0.88711657156E+02 -0.47099577772E+02  0.10761132873E+03  0.00000000000E+00 0. -1.
         -1    1    6    6    0  503  0.17073779193E+03 -0.50146180641E+03 -0.51103991629E+03  0.73605511541E+03  0.00000000000E+00 0.  1.
<mgrwt>
<rscale>  0 0.16301758E+04</rscale>
<asrwt>0</asrwt>
<pdfrwt beam="1">  1        2 0.41896468E+00 0.16301758E+04</pdfrwt>
<pdfrwt beam="2">  1       -1 0.37532266E-01 0.16301758E+04</pdfrwt>
<totfact> 0.19231729E+01</totfact>
</mgrwt>
</event>
<event>
12    7  0.1711607E-007  0.1798882E+04  0.7818608E-02  0.8706894E-01
          2   -1    0    0  501    0  0.00000000000E+00  0.00000000000E+00  0.58587455544E+03  0.58587455544E+03  0.00000000000E+00 0. -1.
         -1   -1    0    0    0  501 -0.00000000000E+00 -0.00000000000E+00 -0.13808312325E+04  0.13808312325E+04  0.00000000000E+00 0.  1.
         24    2    1    2    0    0  0.22675603784E+03 -0.35540785361E+03  0.26496074546E+03  0.50439859864E+03  0.80502835777E+02 0.  0.
        254    2    1    2    0    0 -0.22675603784E+03  0.35540785361E+03 -0.10599174225E+04  0.14623071893E+04  0.91497777582E+03 0.  0.
         23    2    4    4    0    0 -0.43559663077E+02 -0.27963682692E+03 -0.53717834939E+03  0.61400929183E+03  0.91392735973E+02 0.  0.
         23    2    4    4    0    0 -0.18319637476E+03  0.63504468053E+03 -0.52273907316E+03  0.84829789750E+03  0.97521927242E+02 0.  0.
          4    1    3    3  502    0  0.16216620283E+03 -0.28378003061E+03  0.23779395748E+03  0.40419667159E+03  0.00000000000E+00 0. -1.
         -3    1    3    3    0  502  0.64589835011E+02 -0.71627822999E+02  0.27166787985E+02  0.10020192705E+03  0.00000000000E+00 0.  1.
         13    1    5    5    0    0 -0.27299990156E+02 -0.15662296364E+03 -0.39209462690E+03  0.42310074290E+03  0.00000000000E+00 0. -1.
        -13    1    5    5    0    0 -0.16259672922E+02 -0.12301386329E+03 -0.14508372249E+03  0.19090854893E+03  0.00000000000E+00 0.  1.
          4    1    6    6  503    0 -0.54104569152E+02  0.20838722907E+03 -0.11451237405E+03  0.24385574722E+03  0.00000000000E+00 0. -1.
         -4    1    6    6    0  503 -0.12909180561E+03  0.42665745146E+03 -0.40822669911E+03  0.60444215028E+03  0.00000000000E+00 0.  1.
<mgrwt>
<rscale>  0 0.17988817E+04</rscale>
<asrwt>0</asrwt>
<pdfrwt beam="1">  1        2 0.90134549E-01 0.17988817E+04</pdfrwt>
<pdfrwt beam="2">  1       -1 0.21243557E+00 0.17988817E+04</pdfrwt>
<totfact> 0.68122216E+00</totfact>
</mgrwt>
</event>
<event>
12    7  0.1711607E-007  0.1349660E+04  0.7818608E-02  0.8991085E-01
          2   -1    0    0  501    0  0.00000000000E+00  0.00000000000E+00  0.13699055364E+04  0.13699055364E+04  0.00000000000E+00 0. -1.
         -1   -1    0    0    0  501 -0.00000000000E+00 -0.00000000000E+00 -0.33242856164E+03  0.33242856164E+03  0.00000000000E+00 0.  1.
         24    2    1    2    0    0 -0.26406975639E+03  0.21071433354E+03  0.10817274684E+03  0.36337648938E+03  0.78789360203E+02 0.  0.
        254    2    1    2    0    0  0.26406975639E+03 -0.21071433354E+03  0.92930422793E+03  0.13389576087E+04  0.90281103402E+03 0.  0.
         23    2    4    4    0    0  0.55769142605E+03 -0.29615989736E+03  0.54553656421E+03  0.83948504966E+03  0.91622018140E+02 0.  0.
         23    2    4    4    0    0 -0.29362166966E+03  0.85445563821E+02  0.38376766371E+03  0.49947255900E+03  0.93169674302E+02 0.  0.
          2    1    3    3  502    0 -0.80327542738E+02  0.25247491505E+02  0.11518056663E+02  0.84985972837E+02  0.00000000000E+00 0. -1.
         -1    1    3    3    0  502 -0.18374221365E+03  0.18546684203E+03  0.96654690176E+02  0.27839051655E+03  0.00000000000E+00 0.  1.
         13    1    5    5    0    0  0.49476485416E+03 -0.28995088247E+03  0.50690001424E+03  0.76538317175E+03  0.00000000000E+00 0.  1.
        -13    1    5    5    0    0  0.62926571888E+02 -0.62090148889E+01  0.38636549971E+02  0.74101877906E+02  0.00000000000E+00 0. -1.
          1    1    6    6  503    0 -0.30712227775E+02 -0.18659798957E+02  0.31805168145E+02  0.47989558789E+02  0.00000000000E+00 0. -1.
         -1    1    6    6    0  503 -0.26290944189E+03  0.10410536278E+03  0.35196249557E+03  0.45148300021E+03  0.00000000000E+00 0.  1.
<mgrwt>
<rscale>  0 0.13496603E+04</rscale>
<asrwt>0</asrwt>
<pdfrwt beam="1">  1        2 0.21075469E+00 0.13496603E+04</pdfrwt>
<pdfrwt beam="2">  1       -1 0.51142856E-01 0.13496603E+04</pdfrwt>
<totfact> 0.64433411E+01</totfact>
</mgrwt>
</event>
<event>
12    7  0.1711607E-007  0.1503060E+04  0.7818608E-02  0.8882421E-01
         -1   -1    0    0    0  501 -0.00000000000E+00  0.00000000000E+00  0.16692257262E+03  0.16692257262E+03  0.00000000000E+00 0.  1.
          2   -1    0    0  501    0  0.00000000000E+00 -0.00000000000E+00 -0.33835884374E+04  0.33835884374E+04  0.00000000000E+00 0. -1.
         24    2    1    2    0    0  0.81648617259E+02  0.30918653719E+03 -0.13594245548E+04  0.13991012740E+04  0.84772891664E+02 0.  0.
        254    2    1    2    0    0 -0.81648617259E+02 -0.30918653719E+03 -0.18572413100E+04  0.21514097360E+04  0.10377647890E+04 0.  0.
         23    2    4    4    0    0  0.31926924222E+03  0.10086942448E+03 -0.13032600252E+04  0.13487155514E+04  0.91866509238E+02 0.  0.
         23    2    4    4    0    0 -0.40091785948E+03 -0.41005596168E+03 -0.55398128482E+03  0.80269418466E+03  0.92421146942E+02 0.  0.
          2    1    3    3  502    0  0.81169361073E+02  0.21093130057E+03 -0.10648932861E+04  0.10886129659E+04  0.00000000000E+00 0. -1.
         -1    1    3    3    0  502  0.47925618594E+00  0.98255236624E+02 -0.29453126868E+03  0.31048830805E+03  0.00000000000E+00 0.  1.
         13    1    5    5    0    0  0.12647521272E+03  0.11865288092E+02 -0.63307717497E+03  0.64569611580E+03  0.00000000000E+00 0. -1.
        -13    1    5    5    0    0  0.19279402950E+03  0.89004136389E+02 -0.67018285019E+03  0.70301943557E+03  0.00000000000E+00 0.  1.
          4    1    6    6  503    0 -0.45002391856E+02 -0.96770152907E+02 -0.10084753709E+03  0.14683291015E+03  0.00000000000E+00 0. -1.
         -4    1    6    6    0  503 -0.35591546762E+03 -0.31328580877E+03 -0.45313374773E+03  0.65586127451E+03  0.00000000000E+00 0.  1.
<mgrwt>
<rscale>  0 0.15030599E+04</rscale>
<asrwt>0</asrwt>
<pdfrwt beam="1">  1        2 0.52055205E+00 0.15030599E+04</pdfrwt>
<pdfrwt beam="2">  1       -1 0.25680397E-01 0.15030599E+04</pdfrwt>
<totfact> 0.14570957E+01</totfact>
</mgrwt>
</event>
<event>
12    7  0.1711607E-007  0.1828020E+04  0.7818608E-02  0.8691539E-01
          2   -1    0    0  501    0  0.00000000000E+00  0.00000000000E+00  0.18725277167E+04  0.18725277167E+04  0.00000000000E+00 0. -1.
         -1   -1    0    0    0  501 -0.00000000000E+00 -0.00000000000E+00 -0.44614248304E+03  0.44614248304E+03  0.00000000000E+00 0.  1.
         24    2    1    2    0    0 -0.22164850719E+03 -0.18509872792E+03 -0.25382477432E+03  0.39208257744E+03  0.76890387284E+02 0.  0.
        254    2    1    2    0    0  0.22164850719E+03  0.18509872792E+03  0.16802100080E+04  0.19265876223E+04  0.89735421974E+03 0.  0.
         23    2    4    4    0    0  0.16831922663E+03 -0.34325445053E+03  0.55768518724E+03  0.68149642766E+03  0.85262142794E+02 0.  0.
         23    2    4    4    0    0  0.53329280559E+02  0.52835317846E+03  0.11225248208E+04  0.12450911947E+04  0.90493184487E+02 0.  0.
          4    1    3    3  502    0 -0.41911313530E+02 -0.41534255346E+01 -0.51534131141E+02  0.66555058545E+02  0.00000000000E+00 0. -1.
         -3    1    3    3    0  502 -0.17973719366E+03 -0.18094530239E+03 -0.20229064318E+03  0.32552751890E+03  0.00000000000E+00 0.  1.
         13    1    5    5    0    0  0.84872653921E+02 -0.18020377880E+03  0.21607065882E+03  0.29387633263E+03  0.00000000000E+00 0. -1.
        -13    1    5    5    0    0  0.83446572706E+02 -0.16305067173E+03  0.34161452842E+03  0.38762009504E+03  0.00000000000E+00 0.  1.
          3    1    6    6  503    0  0.49282809302E+02  0.48706901487E+03  0.96342324665E+03  0.10806707976E+04  0.00000000000E+00 0. -1.
         -3    1    6    6    0  503  0.40464712569E+01  0.41284163586E+02  0.15910157413E+03  0.16442039710E+03  0.00000000000E+00 0.  1.
<mgrwt>
<rscale>  0 0.18280199E+04</rscale>
<asrwt>0</asrwt>
<pdfrwt beam="1">  1        2 0.28808118E+00 0.18280199E+04</pdfrwt>
<pdfrwt beam="2">  1       -1 0.68637306E-01 0.18280199E+04</pdfrwt>
<totfact> 0.18123786E+01</totfact>
</mgrwt>
</event>
<event>
12    7  0.1711607E-007  0.1434704E+04  0.7818608E-02  0.8929074E-01
          2   -1    0    0  501    0  0.00000000000E+00  0.00000000000E+00  0.21414763141E+04  0.21414763141E+04  0.00000000000E+00 0. -1.
         -1   -1    0    0    0  501 -0.00000000000E+00 -0.00000000000E+00 -0.24029879152E+03  0.24029879152E+03  0.00000000000E+00 0.  1.
         24    2    1    2    0    0  0.18971564224E+03  0.39051434135E+03  0.56964371557E+03  0.72246973627E+03  0.94736906333E+02 0.  0.
        254    2    1    2    0    0 -0.18971564224E+03 -0.39051434135E+03  0.13315338070E+04  0.16593053693E+04  0.88984187014E+03 0.  0.
         23    2    4    4    0    0 -0.24915629903E+03 -0.52887574606E+03  0.40606331664E+03  0.71768996795E+03  0.91668188917E+02 0.  0.
         23    2    4    4    0    0  0.59440656794E+02  0.13836140470E+03  0.92547049034E+03  0.94161540138E+03  0.86411027303E+02 0.  0.
          2    1    3    3  502    0  0.58528985636E+02  0.88173630509E+02  0.20669281750E+03  0.23221143831E+03  0.00000000000E+00 0. -1.
         -3    1    3    3    0  502  0.13118665660E+03  0.30234071084E+03  0.36295089807E+03  0.49025829795E+03  0.00000000000E+00 0.  1.
         13    1    5    5    0    0 -0.41794449521E+02 -0.17503676396E+03  0.14925077486E+03  0.23379571969E+03  0.00000000000E+00 0.  1.
        -13    1    5    5    0    0 -0.20736184951E+03 -0.35383898210E+03  0.25681254177E+03  0.48389424826E+03  0.00000000000E+00 0. -1.
          1    1    6    6  503    0  0.66927917235E+02  0.90556059479E+02  0.78520607039E+03  0.79323913103E+03  0.00000000000E+00 0. -1.
         -1    1    6    6    0  503 -0.74872604407E+01  0.47805345226E+02  0.14026441995E+03  0.14837627035E+03  0.00000000000E+00 0.  1.
<mgrwt>
<rscale>  0 0.14347044E+04</rscale>
<asrwt>0</asrwt>
<pdfrwt beam="1">  1        2 0.32945788E+00 0.14347044E+04</pdfrwt>
<pdfrwt beam="2">  1       -1 0.36969046E-01 0.14347044E+04</pdfrwt>
<totfact> 0.43353063E+01</totfact>
</mgrwt>
</event>
<event>
12    7  0.1711607E-007  0.1903211E+04  0.7818608E-02  0.8653259E-01
         -1   -1    0    0    0  501 -0.00000000000E+00  0.00000000000E+00  0.38258839879E+03  0.38258839879E+03  0.00000000000E+00 0.  1.
          2   -1    0    0  501    0  0.00000000000E+00 -0.00000000000E+00 -0.23669129922E+04  0.23669129922E+04  0.00000000000E+00 0. -1.
         24    2    1    2    0    0  0.30471830025E+03 -0.58496239435E+03 -0.30595324262E+03  0.73139736930E+03  0.79375561891E+02 0.  0.
        254    2    1    2    0    0 -0.30471830025E+03  0.58496239435E+03 -0.16783713508E+04  0.20181040217E+04  0.90596865616E+03 0.  0.
         23    2    4    4    0    0 -0.57353897071E+03  0.42136311740E+03 -0.77204757549E+03  0.10543734020E+04  0.95666004265E+02 0.  0.
         23    2    4    4    0    0  0.26882067045E+03  0.16359927695E+03 -0.90632377530E+03  0.96373061972E+03  0.91239494832E+02 0.  0.
          2    1    3    3  502    0  0.28683704770E+03 -0.54473455263E+03 -0.26162619173E+03  0.66892412796E+03  0.00000000000E+00 0. -1.
         -3    1    3    3    0  502  0.17881252554E+02 -0.40227841719E+02 -0.44327050895E+02  0.62473241338E+02  0.00000000000E+00 0.  1.
         13    1    5    5    0    0 -0.45183092518E+03  0.34504465300E+03 -0.66697229709E+03  0.87638977778E+03  0.00000000000E+00 0.  1.
        -13    1    5    5    0    0 -0.12170804553E+03  0.76318464402E+02 -0.10507527840E+03  0.17798362421E+03  0.00000000000E+00 0. -1.
          3    1    6    6  503    0  0.17180550891E+03  0.15264365677E+03 -0.62057786770E+03  0.66176590175E+03  0.00000000000E+00 0. -1.
         -3    1    6    6    0  503  0.97015161543E+02  0.10955620182E+02 -0.28574590761E+03  0.30196471797E+03  0.00000000000E+00 0.  1.
<mgrwt>
<rscale>  0 0.19032114E+04</rscale>
<asrwt>0</asrwt>
<pdfrwt beam="1">  1        2 0.36414046E+00 0.19032114E+04</pdfrwt>
<pdfrwt beam="2">  1       -1 0.58859754E-01 0.19032114E+04</pdfrwt>
<totfact> 0.12956718E+01</totfact>
</mgrwt>
</event>
<event>
12    7  0.1711607E-007  0.1224297E+04  0.7818608E-02  0.9091851E-01
          2   -1    0    0  501    0  0.00000000000E+00  0.00000000000E+00  0.17310032150E+04  0.17310032150E+04  0.00000000000E+00 0. -1.
         -1   -1    0    0    0  501 -0.00000000000E+00 -0.00000000000E+00 -0.21647888162E+03  0.21647888162E+03  0.00000000000E+00 0.  1.
         24    2    1    2    0    0 -0.24901650385E+03  0.10917934714E+03  0.33242533117E+03  0.43730739797E+03  0.82473089473E+02 0.  0.
        254    2    1    2    0    0  0.24901650385E+03 -0.10917934714E+03  0.11820990022E+04  0.15101746986E+04  0.89963338109E+03 0.  0.
         23    2    4    4    0    0  0.33188292322E+02 -0.46295146849E+03  0.84374294740E+03  0.96723637295E+03  0.90656025373E+02 0.  0.
         23    2    4    4    0    0  0.21582821153E+03  0.35377212135E+03  0.33835605476E+03  0.54293832566E+03  0.92523915484E+02 0.  0.
          4    1    3    3  502    0 -0.91723887642E+02  0.34832313232E+02  0.63027193048E+02  0.11661470179E+03  0.00000000000E+00 0. -1.
         -3    1    3    3    0  502 -0.15729261621E+03  0.74347033905E+02  0.26939813812E+03  0.32069269619E+03  0.00000000000E+00 0.  1.
         13    1    5    5    0    0  0.12317986395E+02 -0.86858510880E+01  0.11879144397E+02  0.19190905908E+02  0.00000000000E+00 0. -1.
        -13    1    5    5    0    0  0.20870305927E+02 -0.45426561740E+03  0.83186380300E+03  0.94804546704E+03  0.00000000000E+00 0.  1.
          2    1    6    6  503    0  0.92873651999E+02  0.22674643346E+03  0.22690042992E+03  0.33395099254E+03  0.00000000000E+00 0.  1.
         -2    1    6    6    0  503  0.12295455953E+03  0.12702568790E+03  0.11145562484E+03  0.20898733312E+03  0.00000000000E+00 0. -1.
<mgrwt>
<rscale>  0 0.12242968E+04</rscale>
<asrwt>0</asrwt>
<pdfrwt beam="1">  1        2 0.26630818E+00 0.12242968E+04</pdfrwt>
<pdfrwt beam="2">  1       -1 0.33304444E-01 0.12242968E+04</pdfrwt>
<totfact> 0.89709706E+01</totfact>
</mgrwt>
</event>
<event>
12    7  0.1711607E-007  0.2848484E+04  0.7818608E-02  0.8288372E-01
         -1   -1    0    0    0  501 -0.00000000000E+00  0.00000000000E+00  0.13772635191E+04  0.13772635191E+04  0.00000000000E+00 0.  1.
          2   -1    0    0  501    0  0.00000000000E+00 -0.00000000000E+00 -0.14728233516E+04  0.14728233516E+04  0.00000000000E+00 0. -1.
         24    2    1    2    0    0 -0.40723831641E+03  0.85712827002E+03  0.80112108702E+03  0.12445193806E+04  0.80756268392E+02 0.  0.
        254    2    1    2    0    0  0.40723831641E+03 -0.85712827002E+03 -0.89668091952E+03  0.16055674901E+04  0.93450434794E+03 0.  0.
         23    2    4    4    0    0  0.25347771736E+03 -0.82742557735E+03 -0.10531373188E+04  0.13661527946E+04  0.91603529795E+02 0.  0.
         23    2    4    4    0    0  0.15376059906E+03 -0.29702692673E+02  0.15645639926E+03  0.23941469557E+03  0.91193310119E+02 0.  0.
          4    1    3    3  502    0 -0.76665683589E+02  0.21580916410E+03  0.22707111095E+03  0.32250970803E+03  0.00000000000E+00 0. -1.
         -3    1    3    3    0  502 -0.33057263282E+03  0.64131910592E+03  0.57404997607E+03  0.92200967252E+03  0.00000000000E+00 0.  1.
         13    1    5    5    0    0  0.79131622571E+02 -0.13810556383E+03 -0.19618841643E+03  0.25263581534E+03  0.00000000000E+00 0.  1.
        -13    1    5    5    0    0  0.17434609479E+03 -0.68932001352E+03 -0.85694890234E+03  0.11135169792E+04  0.00000000000E+00 0. -1.
          2    1    6    6  503    0  0.76203936072E+02 -0.33876567065E+02  0.13526535735E+03  0.15890682354E+03  0.00000000000E+00 0.  1.
         -2    1    6    6    0  503  0.77556662984E+02  0.41738743925E+01  0.21191041905E+02  0.80507872023E+02  0.00000000000E+00 0. -1.
<mgrwt>
<rscale>  0 0.28484844E+04</rscale>
<asrwt>0</asrwt>
<pdfrwt beam="1">  1        2 0.22658821E+00 0.28484844E+04</pdfrwt>
<pdfrwt beam="2">  1       -1 0.21188670E+00 0.28484844E+04</pdfrwt>
<totfact> 0.16203461E+00</totfact>
</mgrwt>
</event>
<event>
12    7  0.1711607E-007  0.1758596E+04  0.7818608E-02  0.8728633E-01
          2   -1    0    0  501    0  0.00000000000E+00  0.00000000000E+00  0.20544916192E+04  0.20544916192E+04  0.00000000000E+00 0. -1.
         -1   -1    0    0    0  501 -0.00000000000E+00 -0.00000000000E+00 -0.37632897580E+03  0.37632897580E+03  0.00000000000E+00 0.  1.
         24    2    1    2    0    0  0.28702727652E+03 -0.57390352109E+03  0.66244951944E+03  0.92570380296E+03  0.79613164937E+02 0.  0.
        254    2    1    2    0    0 -0.28702727652E+03  0.57390352109E+03  0.10157131239E+04  0.15051167920E+04  0.90661651127E+03 0.  0.
         23    2    4    4    0    0  0.20985945528E+02 -0.10079393183E+03  0.66526710027E+03  0.67978912630E+03  0.94515157161E+02 0.  0.
         23    2    4    4    0    0 -0.30801322205E+03  0.67469745291E+03  0.35044602368E+03  0.82532766573E+03  0.90909528562E+02 0.  0.
          4    1    3    3  502    0  0.22768173514E+03 -0.50987275018E+03  0.58889280971E+03  0.81154416714E+03  0.00000000000E+00 0. -1.
         -3    1    3    3    0  502  0.59345541382E+02 -0.64030770903E+02  0.73556709734E+02  0.11415963582E+03  0.00000000000E+00 0.  1.
         13    1    5    5    0    0 -0.16158839125E+02  0.91065508689E+01  0.17517388080E+03  0.17615313186E+03  0.00000000000E+00 0.  1.
        -13    1    5    5    0    0  0.37144784653E+02 -0.10990048269E+03  0.49009321947E+03  0.50363599444E+03  0.00000000000E+00 0. -1.
          2    1    6    6  503    0 -0.29358322808E+03  0.65009158016E+03  0.35445430137E+03  0.79652245804E+03  0.00000000000E+00 0. -1.
         -2    1    6    6    0  503 -0.14429993973E+02  0.24605872752E+02 -0.40082776923E+01  0.28805207689E+02  0.00000000000E+00 0.  1.
<mgrwt>
<rscale>  0 0.17585957E+04</rscale>
<asrwt>0</asrwt>
<pdfrwt beam="1">  1        2 0.31607563E+00 0.17585957E+04</pdfrwt>
<pdfrwt beam="2">  1       -1 0.57896767E-01 0.17585957E+04</pdfrwt>
<totfact> 0.20312215E+01</totfact>
</mgrwt>
</event>
<event>
12    7  0.1711607E-007  0.1608193E+04  0.7818608E-02  0.8815531E-01
          2   -1    0    0  501    0  0.00000000000E+00  0.00000000000E+00  0.45158928251E+03  0.45158928251E+03  0.00000000000E+00 0. -1.
         -1   -1    0    0    0  501 -0.00000000000E+00 -0.00000000000E+00 -0.14317673845E+04  0.14317673845E+04  0.00000000000E+00 0.  1.
         24    2    1    2    0    0 -0.10445442394E+03  0.37155149496E+03  0.12309503764E+03  0.41283175138E+03  0.79475949605E+02 0.  0.
        254    2    1    2    0    0  0.10445442394E+03 -0.37155149496E+03 -0.11032731396E+04  0.14705249156E+04  0.89233999505E+03 0.  0.
         23    2    4    4    0    0  0.18109340754E+03 -0.26646163013E+03 -0.12267000102E+04  0.12714249851E+04  0.89061523536E+02 0.  0.
         23    2    4    4    0    0 -0.76638983591E+02 -0.10508986482E+03  0.12342687064E+03  0.19909993052E+03  0.86540027993E+02 0.  0.
          2    1    3    3  502    0 -0.76189439215E+02  0.34343978309E+03  0.96073547099E+02  0.36467223874E+03  0.00000000000E+00 0. -1.
         -1    1    3    3    0  502 -0.28264984730E+02  0.28111711865E+02  0.27021490545E+02  0.48159512633E+02  0.00000000000E+00 0.  1.
         13    1    5    5    0    0  0.56296330899E+01 -0.11862232122E+02 -0.11343432859E+02  0.17351622077E+02  0.00000000000E+00 0.  1.
        -13    1    5    5    0    0  0.17546377445E+03 -0.25459939801E+03 -0.12153565774E+04  0.12540733630E+04  0.00000000000E+00 0. -1.
          3    1    6    6  503    0 -0.33455446080E+02 -0.38064117350E+02  0.10599151994E+03  0.11748338692E+03  0.00000000000E+00 0. -1.
         -3    1    6    6    0  503 -0.43183537512E+02 -0.67025747474E+02  0.17435350695E+02  0.81616543607E+02  0.00000000000E+00 0.  1.
<mgrwt>
<rscale>  0 0.16081925E+04</rscale>
<asrwt>0</asrwt>
<pdfrwt beam="1">  1        2 0.69475274E-01 0.16081925E+04</pdfrwt>
<pdfrwt beam="2">  1       -1 0.22027190E+00 0.16081925E+04</pdfrwt>
<totfact> 0.83174912E+00</totfact>
</mgrwt>
</event>
<event>
12    7  0.1711607E-007  0.2443516E+04  0.7818608E-02  0.8423389E-01
          2   -1    0    0  501    0  0.00000000000E+00  0.00000000000E+00  0.12097424966E+04  0.12097424966E+04  0.00000000000E+00 0. -1.
         -1   -1    0    0    0  501 -0.00000000000E+00 -0.00000000000E+00 -0.12338930914E+04  0.12338930914E+04  0.00000000000E+00 0.  1.
         24    2    1    2    0    0 -0.52880396659E+03  0.81756934369E+03  0.39261084439E+03  0.10528431655E+04  0.79260261938E+02 0.  0.
        254    2    1    2    0    0  0.52880396659E+03 -0.81756934369E+03 -0.41676143918E+03  0.13907924226E+04  0.90142121046E+03 0.  0.
         23    2    4    4    0    0  0.11188397799E+03  0.18137283793E+03 -0.26780741128E+02  0.23665363147E+03  0.99366001851E+02 0.  0.
         23    2    4    4    0    0  0.41691998860E+03 -0.99894218161E+03 -0.38998069805E+03  0.11541387911E+04  0.90794521676E+02 0.  0.
          2    1    3    3  502    0 -0.39924408681E+03  0.64626111507E+03  0.33662306850E+03  0.83088167627E+03  0.00000000000E+00 0. -1.
         -1    1    3    3    0  502 -0.12955987979E+03  0.17130822861E+03  0.55987775888E+02  0.22196148920E+03  0.00000000000E+00 0.  1.
         13    1    5    5    0    0  0.54778052297E+02  0.45897068538E+02  0.32021647935E+02  0.78310675200E+02  0.00000000000E+00 0. -1.
        -13    1    5    5    0    0  0.57105925697E+02  0.13547576939E+03 -0.58802389064E+02  0.15834295627E+03  0.00000000000E+00 0.  1.
          2    1    6    6  503    0  0.28024599800E+03 -0.75238011753E+03 -0.31470208368E+03  0.86235205231E+03  0.00000000000E+00 0. -1.
         -2    1    6    6    0  503  0.13667399060E+03 -0.24656206408E+03 -0.75278614366E+02  0.29178673879E+03  0.00000000000E+00 0.  1.
<mgrwt>
<rscale>  0 0.24435162E+04</rscale>
<asrwt>0</asrwt>
<pdfrwt beam="1">  1        2 0.18611423E+00 0.24435162E+04</pdfrwt>
<pdfrwt beam="2">  1       -1 0.18982971E+00 0.24435162E+04</pdfrwt>
<totfact> 0.33817016E+00</totfact>
</mgrwt>
</event>
<event>
12    7  0.1711607E-007  0.1423646E+04  0.7818608E-02  0.8936878E-01
         -1   -1    0    0    0  501 -0.00000000000E+00  0.00000000000E+00  0.44083568178E+03  0.44083568178E+03  0.00000000000E+00 0.  1.
          2   -1    0    0  501    0  0.00000000000E+00 -0.00000000000E+00 -0.11493903474E+04  0.11493903474E+04  0.00000000000E+00 0. -1.
         24    2    1    2    0    0  0.17624225284E+03 -0.39152871026E+03 -0.16349898636E+03  0.46527552472E+03  0.73439313159E+02 0.  0.
        254    2    1    2    0    0 -0.17624225284E+03  0.39152871026E+03 -0.54505567921E+03  0.11249505044E+04  0.88547833474E+03 0.  0.
         23    2    4    4    0    0  0.32649914305E+03  0.89233894206E+02 -0.52632556544E+02  0.35391089540E+03  0.88985153726E+02 0.  0.
         23    2    4    4    0    0 -0.50274139590E+03  0.30229481605E+03 -0.49242312267E+03  0.77103960901E+03  0.88828373648E+02 0.  0.
          2    1    3    3  502    0  0.13031299190E+03 -0.32970058330E+03 -0.15777456878E+03  0.38804222070E+03  0.00000000000E+00 0. -1.
         -1    1    3    3    0  502  0.45929260940E+02 -0.61828126958E+02 -0.57244175748E+01  0.77233304022E+02  0.00000000000E+00 0.  1.
         13    1    5    5    0    0  0.12237359206E+02  0.26890654831E+02 -0.28676787610E+01  0.29683056767E+02  0.00000000000E+00 0. -1.
        -13    1    5    5    0    0  0.31426178385E+03  0.62343239375E+02 -0.49764877783E+02  0.32422783863E+03  0.00000000000E+00 0.  1.
          1    1    6    6  503    0 -0.24294594973E+02  0.36112383565E+02 -0.20046887693E+02  0.47918778134E+02  0.00000000000E+00 0. -1.
         -1    1    6    6    0  503 -0.47844680093E+03  0.26618243249E+03 -0.47237623497E+03  0.72312083088E+03  0.00000000000E+00 0.  1.
<mgrwt>
<rscale>  0 0.14236464E+04</rscale>
<asrwt>0</asrwt>
<pdfrwt beam="1">  1        2 0.17682928E+00 0.14236464E+04</pdfrwt>
<pdfrwt beam="2">  1       -1 0.67820875E-01 0.14236464E+04</pdfrwt>
<totfact> 0.49568065E+01</totfact>
</mgrwt>
</event>
<event>
12    7  0.1711607E-007  0.2563342E+04  0.7818608E-02  0.8380761E-01
         -1   -1    0    0    0  501 -0.00000000000E+00  0.00000000000E+00  0.98081870466E+03  0.98081870466E+03  0.00000000000E+00 0.  1.
          2   -1    0    0  501    0  0.00000000000E+00 -0.00000000000E+00 -0.16748057858E+04  0.16748057858E+04  0.00000000000E+00 0. -1.
         24    2    1    2    0    0 -0.79417494260E+03  0.73503740361E+03 -0.26805355700E+01  0.10850633856E+04  0.79759271651E+02 0.  0.
        254    2    1    2    0    0  0.79417494260E+03 -0.73503740361E+03 -0.69130654561E+03  0.15705611049E+04  0.90430283641E+03 0.  0.
         23    2    4    4    0    0  0.41024184472E+03  0.54181719523E+02 -0.52090069750E+03  0.67150072078E+03  0.91332641861E+02 0.  0.
         23    2    4    4    0    0  0.38393309787E+03 -0.78921912313E+03 -0.17040584811E+03  0.89906038407E+03  0.94868188456E+02 0.  0.
          4    1    3    3  502    0 -0.63516264399E+03  0.58158163984E+03 -0.33994134599E+02  0.86187260619E+03  0.00000000000E+00 0. -1.
         -3    1    3    3    0  502 -0.15901229861E+03  0.15345576377E+03  0.31313599029E+02  0.22319077944E+03  0.00000000000E+00 0.  1.
         13    1    5    5    0    0  0.17967124776E+03 -0.21491387907E+02 -0.21397160431E+03  0.28022755839E+03  0.00000000000E+00 0.  1.
        -13    1    5    5    0    0  0.23057059696E+03  0.75673107430E+02 -0.30692909318E+03  0.39127316240E+03  0.00000000000E+00 0. -1.
          1    1    6    6  503    0  0.37922380318E+03 -0.73312252554E+03 -0.14846863630E+03  0.83864311022E+03  0.00000000000E+00 0. -1.
         -1    1    6    6    0  503  0.47092946915E+01 -0.56096597589E+02 -0.21937211815E+02  0.60417273853E+02  0.00000000000E+00 0.  1.
<mgrwt>
<rscale>  0 0.25633422E+04</rscale>
<asrwt>0</asrwt>
<pdfrwt beam="1">  1        2 0.25766243E+00 0.25633422E+04</pdfrwt>
<pdfrwt beam="2">  1       -1 0.15089519E+00 0.25633422E+04</pdfrwt>
<totfact> 0.35130036E+00</totfact>
</mgrwt>
</event>
<event>
12    7  0.1711607E-007  0.2150109E+04  0.7818608E-02  0.8539485E-01
          2   -1    0    0  501    0  0.00000000000E+00  0.00000000000E+00  0.19836405164E+04  0.19836405164E+04  0.00000000000E+00 0. -1.
         -1   -1    0    0    0  501 -0.00000000000E+00 -0.00000000000E+00 -0.58263705414E+03  0.58263705414E+03  0.00000000000E+00 0.  1.
         24    2    1    2    0    0 -0.85209307546E+03 -0.22400568730E+03  0.50483647772E+03  0.10186050515E+04  0.80344411263E+02 0.  0.
        254    2    1    2    0    0  0.85209307546E+03  0.22400568730E+03  0.89616698451E+03  0.15476725191E+04  0.90329054292E+03 0.  0.
         23    2    4    4    0    0  0.62649294578E+03  0.16823342485E+03  0.10626266768E+04  0.12481552476E+04  0.88995346275E+02 0.  0.
         23    2    4    4    0    0  0.22560012969E+03  0.55772262452E+02 -0.16645969228E+03  0.29951727141E+03  0.89419253775E+02 0.  0.
          4    1    3    3  502    0 -0.15501275322E+03 -0.25889669197E+02  0.12237774035E+03  0.19918719830E+03  0.00000000000E+00 0. -1.
         -3    1    3    3    0  502 -0.69708032224E+03 -0.19811601810E+03  0.38245873737E+03  0.81941785316E+03  0.00000000000E+00 0.  1.
         13    1    5    5    0    0  0.90079624353E+02  0.56049419022E+02  0.19360748284E+03  0.22077077141E+03  0.00000000000E+00 0. -1.
        -13    1    5    5    0    0  0.53641332142E+03  0.11218400583E+03  0.86901919395E+03  0.10273844762E+04  0.00000000000E+00 0.  1.
          2    1    6    6  503    0  0.21782962568E+03  0.27760189673E+02 -0.14178605811E+03  0.26138794966E+03  0.00000000000E+00 0.  1.
         -2    1    6    6    0  503  0.77705040082E+01  0.28012072778E+02 -0.24673634171E+02  0.38129321749E+02  0.00000000000E+00 0. -1.
<mgrwt>
<rscale>  0 0.21501093E+04</rscale>
<asrwt>0</asrwt>
<pdfrwt beam="1">  1        2 0.30517546E+00 0.21501093E+04</pdfrwt>
<pdfrwt beam="2">  1       -1 0.89636471E-01 0.21501093E+04</pdfrwt>
<totfact> 0.86870934E+00</totfact>
</mgrwt>
</event>
<event>
12    7  0.1711607E-007  0.1277113E+04  0.7818608E-02  0.9047914E-01
          2   -1    0    0  501    0  0.00000000000E+00  0.00000000000E+00  0.24589061733E+04  0.24589061733E+04  0.00000000000E+00 0. -1.
         -1   -1    0    0    0  501 -0.00000000000E+00 -0.00000000000E+00 -0.16582756437E+03  0.16582756437E+03  0.00000000000E+00 0.  1.
         24    2    1    2    0    0  0.31517823423E+02 -0.28592407002E+03  0.84844991574E+03  0.89976575764E+03  0.83457846227E+02 0.  0.
        254    2    1    2    0    0 -0.31517823423E+02  0.28592407002E+03  0.14446286932E+04  0.17249679800E+04  0.89767283789E+03 0.  0.
         23    2    4    4    0    0  0.41337789826E+02 -0.30368340318E+03  0.68648072074E+03  0.75751674060E+03  0.92969941942E+02 0.  0.
         23    2    4    4    0    0 -0.72855613249E+02  0.58960747320E+03  0.75814797242E+03  0.96745123939E+03  0.90711849684E+02 0.  0.
          2    1    3    3  502    0  0.58249255293E+02 -0.15522752971E+03  0.49070190418E+03  0.51795455446E+03  0.00000000000E+00 0. -1.
         -1    1    3    3    0  502 -0.26731431871E+02 -0.13069654032E+03  0.35774801156E+03  0.38181120318E+03  0.00000000000E+00 0.  1.
         13    1    5    5    0    0  0.39125267993E+02 -0.39580431953E+02  0.10399803295E+03  0.11795332995E+03  0.00000000000E+00 0. -1.
        -13    1    5    5    0    0  0.22125218332E+01 -0.26410297123E+03  0.58248268779E+03  0.63956341065E+03  0.00000000000E+00 0.  1.
          1    1    6    6  503    0 -0.39261527119E+02  0.20589539103E+03  0.33570705553E+03  0.39576963842E+03  0.00000000000E+00 0. -1.
         -1    1    6    6    0  503 -0.33594086130E+02  0.38371208218E+03  0.42244091689E+03  0.57168160097E+03  0.00000000000E+00 0.  1.
<mgrwt>
<rscale>  0 0.12771130E+04</rscale>
<asrwt>0</asrwt>
<pdfrwt beam="1">  1        2 0.37829323E+00 0.12771130E+04</pdfrwt>
<pdfrwt beam="2">  1       -1 0.25511935E-01 0.12771130E+04</pdfrwt>
<totfact> 0.55875327E+01</totfact>
</mgrwt>
</event>
<event>
12    7  0.1711607E-007  0.1528321E+04  0.7818608E-02  0.8865835E-01
         -1   -1    0    0    0  501 -0.00000000000E+00  0.00000000000E+00  0.80418024662E+03  0.80418024662E+03  0.00000000000E+00 0.  1.
          2   -1    0    0  501    0  0.00000000000E+00 -0.00000000000E+00 -0.72613254635E+03  0.72613254635E+03  0.00000000000E+00 0. -1.
         24    2    1    2    0    0 -0.47459391833E+03  0.15068283667E+03  0.15072170384E+02  0.50460192491E+03  0.80319535090E+02 0.  0.
        254    2    1    2    0    0  0.47459391833E+03 -0.15068283667E+03  0.62975529891E+02  0.10257108681E+04  0.89452342781E+03 0.  0.
         23    2    4    4    0    0  0.43085897003E+03  0.23082850154E+03  0.28489562113E+03  0.57309948359E+03  0.91412548249E+02 0.  0.
         23    2    4    4    0    0  0.43734948305E+02 -0.38151133820E+03 -0.22192009124E+03  0.45261138447E+03  0.90249053029E+02 0.  0.
          2    1    3    3  502    0 -0.35790941595E+03  0.99786292983E+02 -0.21409917821E+02  0.37217581716E+03  0.00000000000E+00 0. -1.
         -1    1    3    3    0  502 -0.11668450238E+03  0.50896543686E+02  0.36482088205E+02  0.13242610776E+03  0.00000000000E+00 0.  1.
         13    1    5    5    0    0  0.36977429714E+02 -0.51510754501E+01  0.13334871754E+02  0.39644453474E+02  0.00000000000E+00 0.  1.
        -13    1    5    5    0    0  0.39388154031E+03  0.23597957699E+03  0.27156074938E+03  0.53345503012E+03  0.00000000000E+00 0. -1.
          3    1    6    6  503    0 -0.83949949523E-01 -0.24650733050E+03 -0.10192355776E+03  0.26674760105E+03  0.00000000000E+00 0. -1.
         -3    1    6    6    0  503  0.43818898255E+02 -0.13500400770E+03 -0.11999653348E+03  0.18586378342E+03  0.00000000000E+00 0.  1.
<mgrwt>
<rscale>  0 0.15283212E+04</rscale>
<asrwt>0</asrwt>
<pdfrwt beam="1">  1        2 0.11171270E+00 0.15283212E+04</pdfrwt>
<pdfrwt beam="2">  1       -1 0.12372004E+00 0.15283212E+04</pdfrwt>
<totfact> 0.24724630E+01</totfact>
</mgrwt>
</event>
<event>
12    7  0.1711607E-007  0.1983104E+04  0.7818608E-02  0.8614561E-01
          2   -1    0    0  501    0  0.00000000000E+00  0.00000000000E+00  0.11138947896E+04  0.11138947896E+04  0.00000000000E+00 0. -1.
         -1   -1    0    0    0  501 -0.00000000000E+00 -0.00000000000E+00 -0.88264663416E+03  0.88264663416E+03  0.00000000000E+00 0.  1.
         24    2    1    2    0    0  0.21560274540E+03 -0.11720557160E+03  0.83636598105E+03  0.87572406589E+03  0.84633890911E+02 0.  0.
        254    2    1    2    0    0 -0.21560274540E+03  0.11720557160E+03 -0.60511782562E+03  0.11208173579E+04  0.91095679204E+03 0.  0.
         23    2    4    4    0    0 -0.43589145873E+03 -0.53780195883E+02 -0.89842766245E+00  0.44927964138E+03  0.94645209698E+02 0.  0.
         23    2    4    4    0    0  0.22028871333E+03  0.17098576748E+03 -0.60421939796E+03  0.67153771648E+03  0.90103129179E+02 0.  0.
          2    1    3    3  502    0  0.21339463773E+03 -0.12408297457E+03  0.76148784434E+03  0.80049834045E+03  0.00000000000E+00 0. -1.
         -1    1    3    3    0  502  0.22081076761E+01  0.68774029755E+01  0.74878136706E+02  0.75225725439E+02  0.00000000000E+00 0.  1.
         13    1    5    5    0    0 -0.35427392536E+03 -0.36642962785E+02 -0.37640577319E+02  0.35814736349E+03  0.00000000000E+00 0. -1.
        -13    1    5    5    0    0 -0.81617533368E+02 -0.17137233098E+02  0.36742149656E+02  0.91132277886E+02  0.00000000000E+00 0.  1.
          2    1    6    6  503    0  0.16486593038E+03  0.11820104384E+03 -0.33484841102E+03  0.39150443181E+03  0.00000000000E+00 0. -1.
         -2    1    6    6    0  503  0.55422782950E+02  0.52784723641E+02 -0.26937098694E+03  0.28003328467E+03  0.00000000000E+00 0.  1.
<mgrwt>
<rscale>  0 0.19831041E+04</rscale>
<asrwt>0</asrwt>
<pdfrwt beam="1">  1        2 0.17136843E+00 0.19831041E+04</pdfrwt>
<pdfrwt beam="2">  1       -1 0.13579179E+00 0.19831041E+04</pdfrwt>
<totfact> 0.10284500E+01</totfact>
</mgrwt>
</event>
<event>
12    7  0.1711607E-007  0.1384991E+04  0.7818608E-02  0.8964755E-01
         -1   -1    0    0    0  501 -0.00000000000E+00  0.00000000000E+00  0.26621700542E+03  0.26621700542E+03  0.00000000000E+00 0.  1.
          2   -1    0    0  501    0  0.00000000000E+00 -0.00000000000E+00 -0.18013491533E+04  0.18013491533E+04  0.00000000000E+00 0. -1.
         24    2    1    2    0    0 -0.20060525814E+03  0.51339772710E+01 -0.98416330028E+03  0.10076213780E+04  0.80340603009E+02 0.  0.
        254    2    1    2    0    0  0.20060525814E+03 -0.51339772710E+01 -0.55096884760E+03  0.10599447807E+04  0.88297646618E+03 0.  0.
         23    2    4    4    0    0  0.35416987313E+03 -0.24880522019E+03 -0.14221563002E+02  0.44261202455E+03  0.91448426985E+02 0.  0.
         23    2    4    4    0    0 -0.15356461500E+03  0.24367124292E+03 -0.53674728460E+03  0.61733275616E+03  0.10022134852E+03 0.  0.
          4    1    3    3  502    0 -0.13329783172E+03 -0.74084055032E+01 -0.45923064383E+03  0.47824259602E+03  0.00000000000E+00 0. -1.
         -3    1    3    3    0  502 -0.67307426415E+02  0.12542382774E+02 -0.52493265645E+03  0.52937878200E+03  0.00000000000E+00 0.  1.
         13    1    5    5    0    0  0.71595260802E+02 -0.19078122343E+02  0.20246954767E+02  0.76810124976E+02  0.00000000000E+00 0. -1.
        -13    1    5    5    0    0  0.28257461233E+03 -0.22972709785E+03 -0.34468517769E+02  0.36580189958E+03  0.00000000000E+00 0.  1.
          2    1    6    6  503    0 -0.22399159602E+02 -0.53028045696E+01 -0.51063698828E+02  0.56011993584E+02  0.00000000000E+00 0. -1.
         -2    1    6    6    0  503 -0.13116545539E+03  0.24897404749E+03 -0.48568358577E+03  0.56132076258E+03  0.00000000000E+00 0.  1.
<mgrwt>
<rscale>  0 0.13849907E+04</rscale>
<asrwt>0</asrwt>
<pdfrwt beam="1">  1        2 0.27713065E+00 0.13849907E+04</pdfrwt>
<pdfrwt beam="2">  1       -1 0.40956461E-01 0.13849907E+04</pdfrwt>
<totfact> 0.55769070E+01</totfact>
</mgrwt>
</event>
<event>
12    7  0.1711607E-007  0.2288930E+04  0.7818608E-02  0.8482299E-01
         -1   -1    0    0    0  501 -0.00000000000E+00  0.00000000000E+00  0.75229101410E+03  0.75229101410E+03  0.00000000000E+00 0.  1.
          2   -1    0    0  501    0  0.00000000000E+00 -0.00000000000E+00 -0.17410818177E+04  0.17410818177E+04  0.00000000000E+00 0. -1.
         24    2    1    2    0    0 -0.27034424456E+03  0.71302958659E+03  0.22681451202E+03  0.79925093955E+03  0.76550895507E+02 0.  0.
        254    2    1    2    0    0  0.27034424456E+03 -0.71302958659E+03 -0.12156053156E+04  0.16941218922E+04  0.90047515262E+03 0.  0.
         23    2    4    4    0    0  0.37577984621E+03  0.18542493345E+02 -0.20234858607E+03  0.43670797246E+03  0.90634353571E+02 0.  0.
         23    2    4    4    0    0 -0.10543560165E+03 -0.73157207993E+03 -0.10132567295E+04  0.12574139198E+04  0.89923253205E+02 0.  0.
          4    1    3    3  502    0 -0.67121700529E+02  0.10754196685E+03  0.23020314901E+02  0.12884305264E+03  0.00000000000E+00 0. -1.
         -3    1    3    3    0  502 -0.20322254403E+03  0.60548761974E+03  0.20379419712E+03  0.67040788691E+03  0.00000000000E+00 0.  1.
         13    1    5    5    0    0  0.12550543553E+03 -0.36572740049E+02 -0.67539007976E+02  0.14714175906E+03  0.00000000000E+00 0.  1.
        -13    1    5    5    0    0  0.25027441068E+03  0.55115233394E+02 -0.13480957810E+03  0.28956621339E+03  0.00000000000E+00 0. -1.
          2    1    6    6  503    0 -0.57702725228E+02 -0.62552563004E+03 -0.84719481992E+03  0.10546805115E+04  0.00000000000E+00 0. -1.
         -2    1    6    6    0  503 -0.47732876422E+02 -0.10604644989E+03 -0.16606190958E+03  0.20273340830E+03  0.00000000000E+00 0.  1.
<mgrwt>
<rscale>  0 0.22889301E+04</rscale>
<asrwt>0</asrwt>
<pdfrwt beam="1">  1        2 0.26785874E+00 0.22889301E+04</pdfrwt>
<pdfrwt beam="2">  1       -1 0.11573708E+00 0.22889301E+04</pdfrwt>
<totfact> 0.64977204E+00</totfact>
</mgrwt>
</event>
<event>
12    7  0.1711607E-007  0.3746952E+04  0.7818608E-02  0.8057636E-01
          2   -1    0    0  501    0  0.00000000000E+00  0.00000000000E+00  0.15471456816E+04  0.15471456816E+04  0.00000000000E+00 0. -1.
         -1   -1    0    0    0  501 -0.00000000000E+00 -0.00000000000E+00 -0.22686369710E+04  0.22686369710E+04  0.00000000000E+00 0.  1.
         24    2    1    2    0    0 -0.17578908411E+03 -0.18713655406E+03 -0.20788203897E+04  0.20960547781E+04  0.77650037750E+02 0.  0.
        254    2    1    2    0    0  0.17578908411E+03  0.18713655406E+03  0.13573291003E+04  0.17197278745E+04  0.10243045366E+04 0.  0.
         23    2    4    4    0    0 -0.28954604661E+03 -0.14479383092E+03  0.96123150800E+03  0.10184189539E+04  0.91700528914E+02 0.  0.
         23    2    4    4    0    0  0.46533513072E+03  0.33193038498E+03  0.39609759231E+03  0.70130892061E+03  0.90699146228E+02 0.  0.
          4    1    3    3  502    0 -0.14653713974E+02  0.42881049742E+01 -0.66073868694E+02  0.67815007938E+02  0.00000000000E+00 0. -1.
         -3    1    3    3    0  502 -0.16113537014E+03 -0.19142465904E+03 -0.20127465210E+04  0.20282397702E+04  0.00000000000E+00 0.  1.
         13    1    5    5    0    0 -0.38556700277E+02 -0.25193679050E+02  0.62318545655E+02  0.77491559107E+02  0.00000000000E+00 0.  1.
        -13    1    5    5    0    0 -0.25098934633E+03 -0.11960015187E+03  0.89891296235E+03  0.94092739474E+03  0.00000000000E+00 0. -1.
          3    1    6    6  503    0  0.21843626403E+03  0.14927198831E+03  0.12924080116E+03  0.29444814930E+03  0.00000000000E+00 0. -1.
         -3    1    6    6    0  503  0.24689886669E+03  0.18265839667E+03  0.26685679115E+03  0.40686077131E+03  0.00000000000E+00 0.  1.
<mgrwt>
<rscale>  0 0.37469518E+04</rscale>
<asrwt>0</asrwt>
<pdfrwt beam="1">  1        2 0.23802241E+00 0.37469518E+04</pdfrwt>
<pdfrwt beam="2">  1       -1 0.34902107E+00 0.37469518E+04</pdfrwt>
<totfact> 0.17259758E-01</totfact>
</mgrwt>
</event>
<event>
12    7  0.1711607E-007  0.1366715E+04  0.7818608E-02  0.8978270E-01
          2   -1    0    0  501    0  0.00000000000E+00  0.00000000000E+00  0.37911461110E+04  0.37911461110E+04  0.00000000000E+00 0. -1.
         -1   -1    0    0    0  501 -0.00000000000E+00 -0.00000000000E+00 -0.12317589283E+03  0.12317589283E+03  0.00000000000E+00 0.  1.
         24    2    1    2    0    0 -0.11301035200E+03 -0.16162148404E+03  0.19920425786E+04  0.20033968316E+04  0.80451140582E+02 0.  0.
        254    2    1    2    0    0  0.11301035200E+03  0.16162148404E+03  0.16759276395E+04  0.19109251722E+04  0.89666533173E+03 0.  0.
         23    2    4    4    0    0 -0.33822692972E+03  0.26737341561E+03  0.89400775197E+03  0.99747607282E+03  0.99109312831E+02 0.  0.
         23    2    4    4    0    0  0.45123728172E+03 -0.10575193157E+03  0.78191988755E+03  0.91344909939E+03  0.90509619370E+02 0.  0.
          2    1    3    3  502    0 -0.88740963222E+02 -0.80847710515E+02  0.14340794742E+04  0.14390952884E+04  0.00000000000E+00 0. -1.
         -1    1    3    3    0  502 -0.24269388782E+02 -0.80773773528E+02  0.55796310444E+03  0.56430154318E+03  0.00000000000E+00 0.  1.
         13    1    5    5    0    0 -0.79685546021E+02  0.71347446748E+02  0.13654547951E+03  0.17345002847E+03  0.00000000000E+00 0. -1.
        -13    1    5    5    0    0 -0.25854138370E+03  0.19602596886E+03  0.75746227246E+03  0.82402604434E+03  0.00000000000E+00 0.  1.
          3    1    6    6  503    0  0.32699438251E+02  0.99792486005E+01  0.93070428367E+02  0.99151113463E+02  0.00000000000E+00 0. -1.
         -3    1    6    6    0  503  0.41853784347E+03 -0.11573118017E+03  0.68884945918E+03  0.81429798593E+03  0.00000000000E+00 0.  1.
<mgrwt>
<rscale>  0 0.13667155E+04</rscale>
<asrwt>0</asrwt>
<pdfrwt beam="1">  1        2 0.58325316E+00 0.13667155E+04</pdfrwt>
<pdfrwt beam="2">  1       -1 0.18950140E-01 0.13667155E+04</pdfrwt>
<totfact> 0.12715406E+01</totfact>
</mgrwt>
</event>
<event>
12    7  0.1711607E-007  0.1637993E+04  0.7818608E-02  0.8797542E-01
         -1   -1    0    0    0  501 -0.00000000000E+00  0.00000000000E+00  0.42494508033E+03  0.42494508033E+03  0.00000000000E+00 0.  1.
          2   -1    0    0  501    0  0.00000000000E+00 -0.00000000000E+00 -0.15784515409E+04  0.15784515409E+04  0.00000000000E+00 0. -1.
         24    2    1    2    0    0 -0.25723975420E+03  0.10729229254E+03 -0.10201044718E+04  0.10605552670E+04  0.80501017105E+02 0.  0.
        254    2    1    2    0    0  0.25723975420E+03 -0.10729229254E+03 -0.13340198873E+03  0.94284135422E+03  0.89076921897E+03 0.  0.
         23    2    4    4    0    0 -0.85779490346E+02 -0.40617392704E+03 -0.20656064420E+03  0.47278894242E+03  0.92340155778E+02 0.  0.
         23    2    4    4    0    0  0.34301924455E+03  0.29888163450E+03  0.73158655465E+02  0.47005241181E+03  0.92761238689E+02 0.  0.
          2    1    3    3  502    0 -0.12961281768E+03  0.11577093719E+02 -0.42902241151E+03  0.44832325524E+03  0.00000000000E+00 0. -1.
         -1    1    3    3    0  502 -0.12762693652E+03  0.95715198818E+02 -0.59108206033E+03  0.61223201178E+03  0.00000000000E+00 0.  1.
         13    1    5    5    0    0 -0.97363490490E+02 -0.28565993188E+03 -0.12416012637E+03  0.32633875489E+03  0.00000000000E+00 0. -1.
        -13    1    5    5    0    0  0.11584000144E+02 -0.12051399516E+03 -0.82400517827E+02  0.14645018753E+03  0.00000000000E+00 0.  1.
          1    1    6    6  503    0  0.22319367901E+03  0.23562457787E+03  0.22276889051E+02  0.32531618440E+03  0.00000000000E+00 0. -1.
         -1    1    6    6    0  503  0.11982556554E+03  0.63257056628E+02  0.50881766414E+02  0.14473622741E+03  0.00000000000E+00 0.  1.
<mgrwt>
<rscale>  0 0.16379929E+04</rscale>
<asrwt>0</asrwt>
<pdfrwt beam="1">  1        2 0.24283870E+00 0.16379929E+04</pdfrwt>
<pdfrwt beam="2">  1       -1 0.65376166E-01 0.16379929E+04</pdfrwt>
<totfact> 0.29626808E+01</totfact>
</mgrwt>
</event>
<event>
12    7  0.1711607E-007  0.2351370E+04  0.7818608E-02  0.8457938E-01
         -1   -1    0    0    0  501 -0.00000000000E+00  0.00000000000E+00  0.78684077996E+03  0.78684077996E+03  0.00000000000E+00 0.  1.
          2   -1    0    0  501    0  0.00000000000E+00 -0.00000000000E+00 -0.17566900557E+04  0.17566900557E+04  0.00000000000E+00 0. -1.
         24    2    1    2    0    0 -0.96608783995E+03  0.76692124882E+02 -0.69715353974E+03  0.11964025577E+04  0.78413172816E+02 0.  0.
        254    2    1    2    0    0  0.96608783995E+03 -0.76692124882E+02 -0.27269573597E+03  0.13471282779E+04  0.89508895434E+03 0.  0.
         23    2    4    4    0    0 -0.45237731308E+02  0.62974565573E+02  0.18852356337E+03  0.22314127794E+03  0.90766996927E+02 0.  0.
         23    2    4    4    0    0  0.10113255713E+04 -0.13966669045E+03 -0.46121929934E+03  0.11239870000E+04  0.91309027400E+02 0.  0.
          2    1    3    3  502    0 -0.84073138417E+03  0.47193981090E+02 -0.58164731254E+03  0.10234110261E+04  0.00000000000E+00 0. -1.
         -1    1    3    3    0  502 -0.12535645578E+03  0.29498143792E+02 -0.11550622719E+03  0.17299153162E+03  0.00000000000E+00 0.  1.
         13    1    5    5    0    0  0.75608328319E+01  0.64677293262E+02  0.86704965180E+02  0.10843463212E+03  0.00000000000E+00 0. -1.
        -13    1    5    5    0    0 -0.52798564140E+02 -0.17027276889E+01  0.10181859819E+03  0.11470664582E+03  0.00000000000E+00 0.  1.
          3    1    6    6  503    0  0.99257934137E+03 -0.13556011510E+03 -0.46495906104E+03  0.11044352503E+04  0.00000000000E+00 0. -1.
         -3    1    6    6    0  503  0.18746229885E+02 -0.41065753503E+01  0.37397616953E+01  0.19551749629E+02  0.00000000000E+00 0.  1.
<mgrwt>
<rscale>  0 0.23513701E+04</rscale>
<asrwt>0</asrwt>
<pdfrwt beam="1">  1        2 0.27026001E+00 0.23513701E+04</pdfrwt>
<pdfrwt beam="2">  1       -1 0.12105243E+00 0.23513701E+04</pdfrwt>
<totfact> 0.56801894E+00</totfact>
</mgrwt>
</event>
<event>
12    7  0.1711607E-007  0.2196434E+04  0.7818608E-02  0.8519914E-01
         -1   -1    0    0    0  501 -0.00000000000E+00  0.00000000000E+00  0.59624864926E+03  0.59624864926E+03  0.00000000000E+00 0.  1.
          2   -1    0    0  501    0  0.00000000000E+00 -0.00000000000E+00 -0.20227816251E+04  0.20227816251E+04  0.00000000000E+00 0. -1.
         24    2    1    2    0    0  0.42382572702E+03  0.59600111605E+03  0.53909081137E+02  0.73748331832E+03  0.78293541016E+02 0.  0.
        254    2    1    2    0    0 -0.42382572702E+03 -0.59600111605E+03 -0.14804420569E+04  0.18815469560E+04  0.90203363932E+03 0.  0.
         23    2    4    4    0    0 -0.47244373652E+02  0.22139889928E+03 -0.20639624166E+03  0.31906171858E+03  0.89171005650E+02 0.  0.
         23    2    4    4    0    0 -0.37658135337E+03 -0.81740001533E+03 -0.12740458153E+04  0.15624852374E+04  0.90614992996E+02 0.  0.
          4    1    3    3  502    0  0.23102644683E+03  0.28218814888E+03 -0.35959150223E+01  0.36471399906E+03  0.00000000000E+00 0. -1.
         -3    1    3    3    0  502  0.19279928019E+03  0.31381296717E+03  0.57504996159E+02  0.37276931927E+03  0.00000000000E+00 0.  1.
         13    1    5    5    0    0 -0.40046518706E+02  0.27360296330E+02 -0.50836395475E+02  0.70261287923E+02  0.00000000000E+00 0.  1.
        -13    1    5    5    0    0 -0.71978549466E+01  0.19403860295E+03 -0.15555984618E+03  0.24880043066E+03  0.00000000000E+00 0. -1.
          1    1    6    6  503    0 -0.35310470054E+02 -0.13118980478E+03 -0.23382679964E+03  0.27043033558E+03  0.00000000000E+00 0.  1.
         -1    1    6    6    0  503 -0.34127088331E+03 -0.68621021055E+03 -0.10402190156E+04  0.12920549018E+04  0.00000000000E+00 0. -1.
<mgrwt>
<rscale>  0 0.21964342E+04</rscale>
<asrwt>0</asrwt>
<pdfrwt beam="1">  1        2 0.31119717E+00 0.21964342E+04</pdfrwt>
<pdfrwt beam="2">  1       -1 0.91730561E-01 0.21964342E+04</pdfrwt>
<totfact> 0.78192669E+00</totfact>
</mgrwt>
</event>
<event>
12    7  0.1711607E-007  0.1943221E+04  0.7818608E-02  0.8633637E-01
          2   -1    0    0  501    0  0.00000000000E+00  0.00000000000E+00  0.20552700414E+04  0.20552700414E+04  0.00000000000E+00 0. -1.
         -1   -1    0    0    0  501 -0.00000000000E+00 -0.00000000000E+00 -0.45932008984E+03  0.45932008984E+03  0.00000000000E+00 0.  1.
         24    2    1    2    0    0 -0.43347011830E+03  0.31474192951E+03 -0.69399615470E+02  0.54589113523E+03  0.78879650400E+02 0.  0.
        254    2    1    2    0    0  0.43347011830E+03 -0.31474192951E+03  0.16653495671E+04  0.19686989960E+04  0.90301037139E+03 0.  0.
         23    2    4    4    0    0 -0.17838986280E+03 -0.91728902730E+02  0.51702612405E+02  0.22619813917E+03  0.90858699566E+02 0.  0.
         23    2    4    4    0    0  0.61185998110E+03 -0.22301302678E+03  0.16136469547E+04  0.17425008569E+04  0.91352588015E+02 0.  0.
          4    1    3    3  502    0 -0.10078377451E+03  0.11388991302E+03 -0.32624439685E+02  0.15553981984E+03  0.00000000000E+00 0. -1.
         -1    1    3    3    0  502 -0.33268634379E+03  0.20085201649E+03 -0.36775175785E+02  0.39035131539E+03  0.00000000000E+00 0.  1.
         13    1    5    5    0    0 -0.11506933487E+03 -0.93872704557E+02  0.63918500743E+02  0.16167439879E+03  0.00000000000E+00 0. -1.
        -13    1    5    5    0    0 -0.63320527931E+02  0.21438018274E+01 -0.12215888338E+02  0.64523740373E+02  0.00000000000E+00 0.  1.
          3    1    6    6  503    0  0.39468202443E+03 -0.96997763317E+02  0.98298227909E+03  0.10636900994E+04  0.00000000000E+00 0. -1.
         -3    1    6    6    0  503  0.21717795667E+03 -0.12601526346E+03  0.63066467557E+03  0.67881075750E+03  0.00000000000E+00 0.  1.
<mgrwt>
<rscale>  0 0.19432209E+04</rscale>
<asrwt>0</asrwt>
<pdfrwt beam="1">  1        2 0.31619539E+00 0.19432209E+04</pdfrwt>
<pdfrwt beam="2">  1       -1 0.70664630E-01 0.19432209E+04</pdfrwt>
<totfact> 0.13382848E+01</totfact>
</mgrwt>
</event>
<event>
12    7  0.1711607E-007  0.1251234E+04  0.7818608E-02  0.9069156E-01
          2   -1    0    0  501    0  0.00000000000E+00  0.00000000000E+00  0.89543666520E+03  0.89543666520E+03  0.00000000000E+00 0. -1.
         -1   -1    0    0    0  501 -0.00000000000E+00 -0.00000000000E+00 -0.43710175262E+03  0.43710175262E+03  0.00000000000E+00 0.  1.
         24    2    1    2    0    0 -0.17072503330E+03  0.20770295424E+03  0.19440768959E+03  0.34066746041E+03  0.77281398915E+02 0.  0.
        254    2    1    2    0    0  0.17072503330E+03 -0.20770295424E+03  0.26392722299E+03  0.99187095741E+03  0.91753085121E+03 0.  0.
         23    2    4    4    0    0 -0.90567951428E+02  0.73874063877E+02  0.50712451904E+03  0.52818734717E+03  0.90258876369E+02 0.  0.
         23    2    4    4    0    0  0.26129298473E+03 -0.28157701812E+03 -0.24319729605E+03  0.46368361023E+03  0.91092944790E+02 0.  0.
          4    1    3    3  502    0 -0.75572412715E+02  0.84691511670E+02  0.12934781760E+03  0.17208921997E+03  0.00000000000E+00 0. -1.
         -3    1    3    3    0  502 -0.95152620589E+02  0.12301144257E+03  0.65059871988E+02  0.16857824044E+03  0.00000000000E+00 0.  1.
         13    1    5    5    0    0  0.10984601549E+01 -0.13952231584E+02  0.17690259730E+02  0.22556965004E+02  0.00000000000E+00 0.  1.
        -13    1    5    5    0    0 -0.91666411582E+02  0.87826295461E+02  0.48943425931E+03  0.50563038217E+03  0.00000000000E+00 0. -1.
          1    1    6    6  503    0  0.20619363222E+03 -0.19809745933E+03 -0.22059483470E+03  0.36113778320E+03  0.00000000000E+00 0. -1.
         -1    1    6    6    0  503  0.55099352512E+02 -0.83479558784E+02 -0.22602461355E+02  0.10254582703E+03  0.00000000000E+00 0.  1.
<mgrwt>
<rscale>  0 0.12512345E+04</rscale>
<asrwt>0</asrwt>
<pdfrwt beam="1">  1        2 0.13775949E+00 0.12512345E+04</pdfrwt>
<pdfrwt beam="2">  1       -1 0.67246424E-01 0.12512345E+04</pdfrwt>
<totfact> 0.74250757E+01</totfact>
</mgrwt>
</event>
<event>
12    7  0.1711607E-007  0.2185012E+04  0.7818608E-02  0.8524693E-01
         -1   -1    0    0    0  501 -0.00000000000E+00  0.00000000000E+00  0.10373509899E+04  0.10373509899E+04  0.00000000000E+00 0.  1.
          2   -1    0    0  501    0  0.00000000000E+00 -0.00000000000E+00 -0.11505930290E+04  0.11505930290E+04  0.00000000000E+00 0. -1.
         24    2    1    2    0    0 -0.18986109014E+03  0.87211184072E+03 -0.17730964688E+03  0.91364287412E+03  0.81720831282E+02 0.  0.
        254    2    1    2    0    0  0.18986109014E+03 -0.87211184072E+03  0.64067607775E+02  0.12743011449E+04  0.90725545087E+03 0.  0.
         23    2    4    4    0    0  0.36953634115E+03 -0.21932164526E+03  0.32161425564E+03  0.54437104026E+03  0.90802029342E+02 0.  0.
         23    2    4    4    0    0 -0.17967525102E+03 -0.65279019547E+03 -0.25754664787E+03  0.72993010459E+03  0.89718708368E+02 0.  0.
          2    1    3    3  502    0 -0.79370929152E+02  0.29514578368E+03 -0.24320357781E+02  0.30659787642E+03  0.00000000000E+00 0. -1.
         -3    1    3    3    0  502 -0.11049016098E+03  0.57696605704E+03 -0.15298928910E+03  0.60704499770E+03  0.00000000000E+00 0.  1.
         13    1    5    5    0    0  0.14168012636E+02 -0.73830159898E+01  0.42124475846E+02  0.45052335926E+02  0.00000000000E+00 0. -1.
        -13    1    5    5    0    0  0.35536832852E+03 -0.21193862927E+03  0.27948977980E+03  0.49931870434E+03  0.00000000000E+00 0.  1.
          3    1    6    6  503    0 -0.14721979877E+02 -0.51213993036E+02 -0.48491915973E+02  0.72049119974E+02  0.00000000000E+00 0. -1.
         -3    1    6    6    0  503 -0.16495327114E+03 -0.60157620243E+03 -0.20905473190E+03  0.65788098462E+03  0.00000000000E+00 0.  1.
<mgrwt>
<rscale>  0 0.21850115E+04</rscale>
<asrwt>0</asrwt>
<pdfrwt beam="1">  1        2 0.17701431E+00 0.21850115E+04</pdfrwt>
<pdfrwt beam="2">  1       -1 0.15959246E+00 0.21850115E+04</pdfrwt>
<totfact> 0.62300679E+00</totfact>
</mgrwt>
</event>
<event>
12    7  0.1711607E-007  0.1276696E+04  0.7818608E-02  0.9048252E-01
          2   -1    0    0  501    0  0.00000000000E+00  0.00000000000E+00  0.16712539171E+04  0.16712539171E+04  0.00000000000E+00 0. -1.
         -1   -1    0    0    0  501 -0.00000000000E+00 -0.00000000000E+00 -0.24382181921E+03  0.24382181921E+03  0.00000000000E+00 0.  1.
         24    2    1    2    0    0  0.34676072844E+02  0.24356772852E+03  0.10053727947E+03  0.27801288963E+03  0.81582803536E+02 0.  0.
        254    2    1    2    0    0 -0.34676072844E+02 -0.24356772852E+03  0.13268948184E+04  0.16370628467E+04  0.92671313598E+03 0.  0.
         23    2    4    4    0    0  0.11920185371E+03  0.13320766573E+03  0.11784084564E+04  0.11954289576E+04  0.91926811057E+02 0.  0.
         23    2    4    4    0    0 -0.15387792655E+03 -0.37677539425E+03  0.14848636204E+03  0.44163388902E+03  0.85756505465E+02 0.  0.
          2    1    3    3  502    0  0.19233596676E+02  0.15464622183E+02  0.29803911780E+02  0.38695722473E+02  0.00000000000E+00 0. -1.
         -1    1    3    3    0  502  0.15442476168E+02  0.22810310634E+03  0.70733367694E+02  0.23931716716E+03  0.00000000000E+00 0.  1.
         13    1    5    5    0    0 -0.15011850731E+02  0.21419371692E+02  0.13721238780E+03  0.13968315758E+03  0.00000000000E+00 0. -1.
        -13    1    5    5    0    0  0.13421370444E+03  0.11178829403E+03  0.10411960686E+04  0.10557458001E+04  0.00000000000E+00 0.  1.
          1    1    6    6  503    0 -0.15796678891E+02 -0.12978640033E+01  0.62846701913E+01  0.17050413319E+02  0.00000000000E+00 0. -1.
         -1    1    6    6    0  503 -0.13808124766E+03 -0.37547753025E+03  0.14220169185E+03  0.42458347570E+03  0.00000000000E+00 0.  1.
<mgrwt>
<rscale>  0 0.12766960E+04</rscale>
<asrwt>0</asrwt>
<pdfrwt beam="1">  1        2 0.25711598E+00 0.12766960E+04</pdfrwt>
<pdfrwt beam="2">  1       -1 0.37511050E-01 0.12766960E+04</pdfrwt>
<totfact> 0.77921039E+01</totfact>
</mgrwt>
</event>
<event>
12    7  0.1711607E-007  0.1186747E+04  0.7818608E-02  0.9124536E-01
          2   -1    0    0  501    0  0.00000000000E+00  0.00000000000E+00  0.71879209635E+03  0.71879209635E+03  0.00000000000E+00 0. -1.
         -1   -1    0    0    0  501 -0.00000000000E+00 -0.00000000000E+00 -0.48983888572E+03  0.48983888572E+03  0.00000000000E+00 0.  1.
         24    2    1    2    0    0 -0.18599724292E+03 -0.11593045159E+03 -0.52637940506E+02  0.23902089062E+03  0.79532316646E+02 0.  0.
        254    2    1    2    0    0  0.18599724292E+03  0.11593045159E+03  0.28159115114E+03  0.96961009145E+03  0.90156270390E+03 0.  0.
         23    2    4    4    0    0  0.51867809273E+03  0.16525537340E+03  0.57437022576E+02  0.55484519496E+03  0.90652504014E+02 0.  0.
         23    2    4    4    0    0 -0.33268084981E+03 -0.49324921805E+02  0.22415412857E+03  0.41476489649E+03  0.93141560355E+02 0.  0.
          4    1    3    3  502    0 -0.74197672956E+02 -0.31126309742E+02 -0.57037573635E+02  0.98627717384E+02  0.00000000000E+00 0. -1.
         -3    1    3    3    0  502 -0.11179956997E+03 -0.84804141851E+02  0.43996331291E+01  0.14039317324E+03  0.00000000000E+00 0.  1.
         13    1    5    5    0    0  0.29956212865E+03  0.13877911928E+03  0.50825418042E+02  0.33403642914E+03  0.00000000000E+00 0.  1.
        -13    1    5    5    0    0  0.21911596408E+03  0.26476254113E+02  0.66116045340E+01  0.22080876582E+03  0.00000000000E+00 0. -1.
          4    1    6    6  503    0 -0.25887211487E+03 -0.50033706643E+02  0.12673385790E+03  0.29253993642E+03  0.00000000000E+00 0.  1.
         -4    1    6    6    0  503 -0.73808734940E+02  0.70878483829E+00  0.97420270663E+02  0.12222496008E+03  0.00000000000E+00 0. -1.
<mgrwt>
<rscale>  0 0.11867474E+04</rscale>
<asrwt>0</asrwt>
<pdfrwt beam="1">  1        2 0.11058340E+00 0.11867474E+04</pdfrwt>
<pdfrwt beam="2">  1       -1 0.75359828E-01 0.11867474E+04</pdfrwt>
<totfact> 0.79118362E+01</totfact>
</mgrwt>
</event>
<event>
12    7  0.1711607E-007  0.2065422E+04  0.7818608E-02  0.8576630E-01
         -1   -1    0    0    0  501 -0.00000000000E+00  0.00000000000E+00  0.15257827804E+04  0.15257827804E+04  0.00000000000E+00 0.  1.
          2   -1    0    0  501    0  0.00000000000E+00 -0.00000000000E+00 -0.69898045036E+03  0.69898045036E+03  0.00000000000E+00 0. -1.
         24    2    1    2    0    0  0.45275938534E+03  0.66363229983E+03  0.57723333733E+03  0.99225656573E+03  0.77303790996E+02 0.  0.
        254    2    1    2    0    0 -0.45275938534E+03 -0.66363229983E+03  0.24956899273E+03  0.12325066650E+04  0.90077139545E+03 0.  0.
         23    2    4    4    0    0 -0.17235200506E+03 -0.59898456383E+03  0.52796299334E+03  0.82188136069E+03  0.90864334903E+02 0.  0.
         23    2    4    4    0    0 -0.28040738029E+03 -0.64647736004E+02 -0.27839400061E+03  0.41062530436E+03  0.91116915653E+02 0.  0.
          4    1    3    3  502    0  0.33024884433E+03  0.43184707755E+03  0.41505927076E+03  0.68398128323E+03  0.00000000000E+00 0. -1.
         -3    1    3    3    0  502  0.12251054102E+03  0.23178522228E+03  0.16217406657E+03  0.30827528249E+03  0.00000000000E+00 0.  1.
         13    1    5    5    0    0 -0.84567319082E+02 -0.41072140319E+03  0.31571879114E+03  0.52490195044E+03  0.00000000000E+00 0. -1.
        -13    1    5    5    0    0 -0.87784685973E+02 -0.18826316064E+03  0.21224420219E+03  0.29697941025E+03  0.00000000000E+00 0.  1.
          2    1    6    6  503    0 -0.14259563419E+03  0.40068178718E+01 -0.17208373922E+03  0.22352266727E+03  0.00000000000E+00 0. -1.
         -2    1    6    6    0  503 -0.13781174610E+03 -0.68654553876E+02 -0.10631026138E+03  0.18710263709E+03  0.00000000000E+00 0.  1.
<mgrwt>
<rscale>  0 0.20654223E+04</rscale>
<asrwt>0</asrwt>
<pdfrwt beam="1">  1        2 0.10753545E+00 0.20654223E+04</pdfrwt>
<pdfrwt beam="2">  1       -1 0.23473581E+00 0.20654223E+04</pdfrwt>
<totfact> 0.38023068E+00</totfact>
</mgrwt>
</event>
<event>
12    7  0.1711607E-007  0.2951333E+04  0.7818608E-02  0.8257766E-01
          2   -1    0    0  501    0  0.00000000000E+00  0.00000000000E+00  0.21768884783E+04  0.21768884783E+04  0.00000000000E+00 0. -1.
         -1   -1    0    0    0  501 -0.00000000000E+00 -0.00000000000E+00 -0.10003230013E+04  0.10003230013E+04  0.00000000000E+00 0.  1.
         24    2    1    2    0    0 -0.18995320153E+02  0.23485691298E+03  0.19501518163E+04  0.19659972129E+04  0.80835282423E+02 0.  0.
        254    2    1    2    0    0  0.18995320153E+02 -0.23485691298E+03 -0.77358633927E+03  0.12112142667E+04  0.90171258374E+03 0.  0.
         23    2    4    4    0    0 -0.34516977576E+03  0.14767663265E+03 -0.24056438965E+03  0.45502280776E+03  0.90686096425E+02 0.  0.
         23    2    4    4    0    0  0.36416509591E+03 -0.38253354563E+03 -0.53302194963E+03  0.75619145890E+03  0.93621541931E+02 0.  0.
          2    1    3    3  502    0 -0.15015401557E+02  0.19708842786E+03  0.18110432305E+04  0.18217977092E+04  0.00000000000E+00 0. -1.
         -1    1    3    3    0  502 -0.39799185958E+01  0.37768485120E+02  0.13910858581E+03  0.14419950370E+03  0.00000000000E+00 0.  1.
         13    1    5    5    0    0 -0.21453532263E+03  0.46355489616E+02 -0.15640699333E+03  0.26951323462E+03  0.00000000000E+00 0.  1.
        -13    1    5    5    0    0 -0.13063445313E+03  0.10132114304E+03 -0.84157396315E+02  0.18550957313E+03  0.00000000000E+00 0. -1.
          1    1    6    6  503    0  0.12042355598E+03 -0.87301856644E+02 -0.10581296496E+03  0.18253720322E+03  0.00000000000E+00 0. -1.
         -1    1    6    6    0  503  0.24374153994E+03 -0.29523168898E+03 -0.42720898467E+03  0.57365425567E+03  0.00000000000E+00 0.  1.
<mgrwt>
<rscale>  0 0.29513330E+04</rscale>
<asrwt>0</asrwt>
<pdfrwt beam="1">  1        2 0.33490592E+00 0.29513330E+04</pdfrwt>
<pdfrwt beam="2">  1       -1 0.15389585E+00 0.29513330E+04</pdfrwt>
<totfact> 0.16921926E+00</totfact>
</mgrwt>
</event>
<event>
12    7  0.1711607E-007  0.1498917E+04  0.7818608E-02  0.8885173E-01
          2   -1    0    0  501    0  0.00000000000E+00  0.00000000000E+00  0.27798691652E+04  0.27798691652E+04  0.00000000000E+00 0. -1.
         -1   -1    0    0    0  501 -0.00000000000E+00 -0.00000000000E+00 -0.20205566149E+03  0.20205566149E+03  0.00000000000E+00 0.  1.
         24    2    1    2    0    0  0.33576878307E+03  0.17923518890E+03  0.13866941988E+04  0.14401999875E+04  0.79932937120E+02 0.  0.
        254    2    1    2    0    0 -0.33576878307E+03 -0.17923518890E+03  0.11911193049E+04  0.15417248392E+04  0.90182279445E+03 0.  0.
         23    2    4    4    0    0  0.21799300339E+03  0.19325842787E+03  0.37415897447E+03  0.48271410217E+03  0.90267362812E+02 0.  0.
         23    2    4    4    0    0 -0.55376178646E+03 -0.37249361677E+03  0.81696033044E+03  0.10590107370E+04  0.93144773845E+02 0.  0.
          2    1    3    3  502    0  0.21303430864E+03  0.85255641735E+02  0.71366782670E+03  0.74964918994E+03  0.00000000000E+00 0. -1.
         -1    1    3    3    0  502  0.12273447443E+03  0.93979547170E+02  0.67302637205E+03  0.69055079754E+03  0.00000000000E+00 0.  1.
         13    1    5    5    0    0  0.18252246607E+01  0.19770312962E+02  0.62760218259E+02  0.65825843828E+02  0.00000000000E+00 0. -1.
        -13    1    5    5    0    0  0.21616777873E+03  0.17348811491E+03  0.31139875621E+03  0.41688825834E+03  0.00000000000E+00 0.  1.
          3    1    6    6  503    0 -0.55839883489E+02 -0.10077834082E+02  0.52111143493E+02  0.77040421884E+02  0.00000000000E+00 0. -1.
         -3    1    6    6    0  503 -0.49792190297E+03 -0.36241578269E+03  0.76484918695E+03  0.98197031512E+03  0.00000000000E+00 0.  1.
<mgrwt>
<rscale>  0 0.14989173E+04</rscale>
<asrwt>0</asrwt>
<pdfrwt beam="1">  1        2 0.42767215E+00 0.14989173E+04</pdfrwt>
<pdfrwt beam="2">  1       -1 0.31085488E-01 0.14989173E+04</pdfrwt>
<totfact> 0.25208880E+01</totfact>
</mgrwt>
</event>
<event>
12    7  0.1711607E-007  0.1615565E+04  0.7818608E-02  0.8811042E-01
         -1   -1    0    0    0  501 -0.00000000000E+00  0.00000000000E+00  0.35633599675E+03  0.35633599675E+03  0.00000000000E+00 0.  1.
          2   -1    0    0  501    0  0.00000000000E+00 -0.00000000000E+00 -0.18311731663E+04  0.18311731663E+04  0.00000000000E+00 0. -1.
         24    2    1    2    0    0 -0.51273237968E+03 -0.10321771552E+03 -0.77382870847E+03  0.93739223891E+03  0.79655191615E+02 0.  0.
        254    2    1    2    0    0  0.51273237968E+03  0.10321771552E+03 -0.70100846106E+03  0.12501169241E+04  0.89321390021E+03 0.  0.
         23    2    4    4    0    0 -0.52627162106E+02 -0.20452932682E+03 -0.53094337461E+03  0.57816688709E+03  0.88171529226E+02 0.  0.
         23    2    4    4    0    0  0.56535954178E+03  0.30774704234E+03 -0.17006508645E+03  0.67195003703E+03  0.90857388715E+02 0.  0.
          4    1    3    3  502    0 -0.15499593308E+03 -0.16379241891E+02 -0.29242692489E+03  0.33136916760E+03  0.00000000000E+00 0. -1.
         -3    1    3    3    0  502 -0.35773644659E+03 -0.86838473627E+02 -0.48140178358E+03  0.60602307131E+03  0.00000000000E+00 0.  1.
         13    1    5    5    0    0 -0.11169693753E+02 -0.12762792972E+03 -0.21414683119E+03  0.24954461688E+03  0.00000000000E+00 0. -1.
        -13    1    5    5    0    0 -0.41457468352E+02 -0.76901397096E+02 -0.31679654342E+03  0.32862227021E+03  0.00000000000E+00 0.  1.
          4    1    6    6  503    0  0.68452083542E+01 -0.45158729022E+01  0.35488526530E+01  0.89355660500E+01  0.00000000000E+00 0. -1.
         -4    1    6    6    0  503  0.55851433343E+03  0.31226291524E+03 -0.17361393911E+03  0.66301447098E+03  0.00000000000E+00 0.  1.
<mgrwt>
<rscale>  0 0.16155654E+04</rscale>
<asrwt>0</asrwt>
<pdfrwt beam="1">  1        2 0.28171895E+00 0.16155654E+04</pdfrwt>
<pdfrwt beam="2">  1       -1 0.54820923E-01 0.16155654E+04</pdfrwt>
<totfact> 0.30417492E+01</totfact>
</mgrwt>
</event>
<event>
12    7  0.1711607E-007  0.1440649E+04  0.7818608E-02  0.8924909E-01
         -1   -1    0    0    0  501 -0.00000000000E+00  0.00000000000E+00  0.41616180920E+03  0.41616180920E+03  0.00000000000E+00 0.  1.
          2   -1    0    0  501    0  0.00000000000E+00 -0.00000000000E+00 -0.12467922324E+04  0.12467922324E+04  0.00000000000E+00 0. -1.
         24    2    1    2    0    0 -0.36426432961E+03 -0.19709976588E+03 -0.40141996947E+03  0.58228526043E+03  0.79883121425E+02 0.  0.
        254    2    1    2    0    0  0.36426432961E+03  0.19709976588E+03 -0.42921045375E+03  0.10806687812E+04  0.90115846637E+03 0.  0.
         23    2    4    4    0    0 -0.14524728269E+03  0.39803849881E+03 -0.21762831433E+03  0.48683890709E+03  0.10059134452E+03 0.  0.
         23    2    4    4    0    0  0.50951161230E+03 -0.20093873293E+03 -0.21158213943E+03  0.59382987411E+03  0.88817004035E+02 0.  0.
          2    1    3    3  502    0 -0.14400776801E+03 -0.98698674775E+02 -0.12120135942E+03  0.21253102167E+03  0.00000000000E+00 0. -1.
         -1    1    3    3    0  502 -0.22025656160E+03 -0.98401091107E+02 -0.28021861005E+03  0.36975423875E+03  0.00000000000E+00 0.  1.
         13    1    5    5    0    0 -0.27618467956E+02  0.37177127895E+02  0.53770221278E+01  0.46624360346E+02  0.00000000000E+00 0. -1.
        -13    1    5    5    0    0 -0.11762881474E+03  0.36086137091E+03 -0.22300533646E+03  0.44021454674E+03  0.00000000000E+00 0.  1.
          1    1    6    6  503    0  0.21006094485E+03 -0.56511951400E+02 -0.12246181109E+03  0.24963192179E+03  0.00000000000E+00 0. -1.
         -1    1    6    6    0  503  0.29945066745E+03 -0.14442678153E+03 -0.89120328335E+02  0.34419795232E+03  0.00000000000E+00 0.  1.
<mgrwt>
<rscale>  0 0.14406489E+04</rscale>
<asrwt>0</asrwt>
<pdfrwt beam="1">  1        2 0.19181419E+00 0.14406489E+04</pdfrwt>
<pdfrwt beam="2">  1       -1 0.64024894E-01 0.14406489E+04</pdfrwt>
<totfact> 0.48626213E+01</totfact>
</mgrwt>
</event>
<event>
12    7  0.1711607E-007  0.2428936E+04  0.7818608E-02  0.8428749E-01
         -1   -1    0    0    0  501 -0.00000000000E+00  0.00000000000E+00  0.13020058535E+04  0.13020058535E+04  0.00000000000E+00 0.  1.
          2   -1    0    0  501    0  0.00000000000E+00 -0.00000000000E+00 -0.11328151442E+04  0.11328151442E+04  0.00000000000E+00 0. -1.
         24    2    1    2    0    0 -0.35956517573E+03 -0.57163219703E+03 -0.73211351241E+03  0.99938384778E+03  0.82020703951E+02 0.  0.
        254    2    1    2    0    0  0.35956517573E+03  0.57163219703E+03  0.90130422173E+03  0.14354371500E+04  0.88998877922E+03 0.  0.
         23    2    4    4    0    0  0.45064988648E+03  0.75460925616E+03  0.65119087644E+03  0.10973468147E+04  0.87178119919E+02 0.  0.
         23    2    4    4    0    0 -0.91084710756E+02 -0.18297705913E+03  0.25011334529E+03  0.33809033523E+03  0.99856700254E+02 0.  0.
          2    1    3    3  502    0 -0.25022264834E+03 -0.36215567857E+03 -0.52541189353E+03  0.68543837588E+03  0.00000000000E+00 0. -1.
         -1    1    3    3    0  502 -0.10934252739E+03 -0.20947651846E+03 -0.20670161888E+03  0.31394547190E+03  0.00000000000E+00 0.  1.
         13    1    5    5    0    0  0.38293490927E+02  0.11395873030E+03  0.10848665482E+03  0.16193312796E+03  0.00000000000E+00 0. -1.
        -13    1    5    5    0    0  0.41235639556E+03  0.64065052586E+03  0.54270422163E+03  0.93541368678E+03  0.00000000000E+00 0.  1.
          3    1    6    6  503    0 -0.22832480085E+02 -0.10730435488E+03  0.19104368793E+03  0.22030260421E+03  0.00000000000E+00 0. -1.
         -3    1    6    6    0  503 -0.68252230672E+02 -0.75672704248E+02  0.59069657364E+02  0.11778773103E+03  0.00000000000E+00 0.  1.
<mgrwt>
<rscale>  0 0.24289355E+04</rscale>
<asrwt>0</asrwt>
<pdfrwt beam="1">  1        2 0.17427925E+00 0.24289355E+04</pdfrwt>
<pdfrwt beam="2">  1       -1 0.20030859E+00 0.24289355E+04</pdfrwt>
<totfact> 0.31852508E+00</totfact>
</mgrwt>
</event>
<event>
12    7  0.1711607E-007  0.2648624E+04  0.7818608E-02  0.8351870E-01
          2   -1    0    0  501    0  0.00000000000E+00  0.00000000000E+00  0.27020725498E+04  0.27020725498E+04  0.00000000000E+00 0. -1.
         -1   -1    0    0    0  501 -0.00000000000E+00 -0.00000000000E+00 -0.64905811502E+03  0.64905811502E+03  0.00000000000E+00 0.  1.
         24    2    1    2    0    0 -0.20697937540E+03 -0.27354614423E+02 -0.54653838047E+03  0.59128005538E+03  0.85552123241E+02 0.  0.
        254    2    1    2    0    0  0.20697937540E+03  0.27354614423E+02  0.25995528153E+04  0.27598506095E+04  0.90305692537E+03 0.  0.
         23    2    4    4    0    0  0.48785926239E+03  0.20285567134E+03  0.11324671687E+04  0.12529468537E+04  0.90757074206E+02 0.  0.
         23    2    4    4    0    0 -0.28087988699E+03 -0.17550105692E+03  0.14670856465E+04  0.15069037558E+04  0.93405048863E+02 0.  0.
          2    1    3    3  502    0 -0.18916344585E+03 -0.77821409077E+01 -0.40215264735E+03  0.44448860810E+03  0.00000000000E+00 0. -1.
         -1    1    3    3    0  502 -0.17815929555E+02 -0.19572473516E+02 -0.14438573311E+03  0.14679144727E+03  0.00000000000E+00 0.  1.
         13    1    5    5    0    0  0.15179544321E+03  0.37555060006E+02  0.41758633641E+03  0.44590423576E+03  0.00000000000E+00 0. -1.
        -13    1    5    5    0    0  0.33606381918E+03  0.16530061134E+03  0.71488083233E+03  0.80704261790E+03  0.00000000000E+00 0.  1.
          2    1    6    6  503    0 -0.17233853304E+03 -0.15366664447E+03  0.10729147836E+04  0.10974789932E+04  0.00000000000E+00 0. -1.
         -2    1    6    6    0  503 -0.10854135394E+03 -0.21834412451E+02  0.39417086296E+03  0.40942476267E+03  0.00000000000E+00 0.  1.
<mgrwt>
<rscale>  0 0.26486239E+04</rscale>
<asrwt>0</asrwt>
<pdfrwt beam="1">  1        2 0.41570346E+00 0.26486239E+04</pdfrwt>
<pdfrwt beam="2">  1       -1 0.99855096E-01 0.26486239E+04</pdfrwt>
<totfact> 0.25358458E+00</totfact>
</mgrwt>
</event>
<event>
12    7  0.1711607E-007  0.1574303E+04  0.7818608E-02  0.8836492E-01
          2   -1    0    0  501    0  0.00000000000E+00  0.00000000000E+00  0.10533958403E+04  0.10533958403E+04  0.00000000000E+00 0. -1.
         -1   -1    0    0    0  501 -0.00000000000E+00 -0.00000000000E+00 -0.58819999541E+03  0.58819999541E+03  0.00000000000E+00 0.  1.
         24    2    1    2    0    0  0.10143595384E+03  0.17083262119E+03  0.66393109207E+03  0.69762806159E+03  0.80046112398E+02 0.  0.
        254    2    1    2    0    0 -0.10143595384E+03 -0.17083262119E+03 -0.19873524722E+03  0.94396777408E+03  0.90116947508E+03 0.  0.
         23    2    4    4    0    0 -0.25434638775E+03  0.14591909449E+02 -0.48762811773E+03  0.55745377317E+03  0.89824936627E+02 0.  0.
         23    2    4    4    0    0  0.15291043392E+03 -0.18542453064E+03  0.28889287051E+03  0.38651400091E+03  0.90388743224E+02 0.  0.
          4    1    3    3  502    0  0.53111509498E+02  0.12395137857E+03  0.54006409044E+03  0.55664530760E+03  0.00000000000E+00 0. -1.
         -3    1    3    3    0  502  0.48324444337E+02  0.46881242623E+02  0.12386700163E+03  0.14098275399E+03  0.00000000000E+00 0.  1.
         13    1    5    5    0    0 -0.17520514015E+03  0.47127042161E+02 -0.28974500720E+03  0.34186249931E+03  0.00000000000E+00 0.  1.
        -13    1    5    5    0    0 -0.79141247607E+02 -0.32535132712E+02 -0.19788311053E+03  0.21559127387E+03  0.00000000000E+00 0. -1.
          3    1    6    6  503    0  0.67341219153E+02 -0.80967914571E+02  0.19636725270E+03  0.22282446212E+03  0.00000000000E+00 0. -1.
         -3    1    6    6    0  503  0.85569214766E+02 -0.10445661607E+03  0.92525617806E+02  0.16368953878E+03  0.00000000000E+00 0.  1.
<mgrwt>
<rscale>  0 0.15743029E+04</rscale>
<asrwt>0</asrwt>
<pdfrwt beam="1">  1        2 0.16206090E+00 0.15743029E+04</pdfrwt>
<pdfrwt beam="2">  1       -1 0.90492307E-01 0.15743029E+04</pdfrwt>
<totfact> 0.30475541E+01</totfact>
</mgrwt>
</event>
<event>
12    7  0.1711607E-007  0.1380878E+04  0.7818608E-02  0.8967778E-01
          2   -1    0    0  501    0  0.00000000000E+00  0.00000000000E+00  0.48684309170E+03  0.48684309170E+03  0.00000000000E+00 0. -1.
         -1   -1    0    0    0  501 -0.00000000000E+00 -0.00000000000E+00 -0.97917751231E+03  0.97917751231E+03  0.00000000000E+00 0.  1.
         24    2    1    2    0    0  0.29580995245E+03  0.17681200095E+03 -0.62069526095E+02  0.36000648922E+03  0.83582501513E+02 0.  0.
        254    2    1    2    0    0 -0.29580995245E+03 -0.17681200095E+03 -0.43026489452E+03  0.11060141148E+04  0.95883957523E+03 0.  0.
         23    2    4    4    0    0 -0.54738255310E+03 -0.12654992609E+03  0.31453001506E+02  0.56997664906E+03  0.90782960631E+02 0.  0.
         23    2    4    4    0    0  0.25157260065E+03 -0.50262074860E+02 -0.46171789602E+03  0.53603746574E+03  0.91311004811E+02 0.  0.
          2    1    3    3  502    0  0.19103007481E+03  0.69467116693E+02 -0.51139436107E+02  0.20960298593E+03  0.00000000000E+00 0. -1.
         -1    1    3    3    0  502  0.10477987764E+03  0.10734488426E+03 -0.10930089988E+02  0.15040350329E+03  0.00000000000E+00 0.  1.
         13    1    5    5    0    0 -0.41131174864E+03 -0.13330094913E+03  0.34070007368E+02  0.43371334198E+03  0.00000000000E+00 0.  1.
        -13    1    5    5    0    0 -0.13607080445E+03  0.67510230317E+01 -0.26170058623E+01  0.13626330708E+03  0.00000000000E+00 0. -1.
          2    1    6    6  503    0  0.47460374839E+02 -0.48096322385E+02 -0.13094219760E+03  0.14734857488E+03  0.00000000000E+00 0. -1.
         -2    1    6    6    0  503  0.20411222581E+03 -0.21657524745E+01 -0.33077569843E+03  0.38868889086E+03  0.00000000000E+00 0.  1.
<mgrwt>
<rscale>  0 0.13808777E+04</rscale>
<asrwt>0</asrwt>
<pdfrwt beam="1">  1        2 0.74898938E-01 0.13808777E+04</pdfrwt>
<pdfrwt beam="2">  1       -1 0.15064269E+00 0.13808777E+04</pdfrwt>
<totfact> 0.24418164E+01</totfact>
</mgrwt>
</event>
<event>
12    7  0.1711607E-007  0.1816956E+04  0.7818608E-02  0.8697334E-01
          2   -1    0    0  501    0  0.00000000000E+00  0.00000000000E+00  0.36054932103E+04  0.36054932103E+04  0.00000000000E+00 0. -1.
         -1   -1    0    0    0  501 -0.00000000000E+00 -0.00000000000E+00 -0.22890964627E+03  0.22890964627E+03  0.00000000000E+00 0.  1.
         24    2    1    2    0    0  0.11038611143E+03 -0.16802974740E+03  0.26600062839E+04  0.26687636057E+04  0.79035832796E+02 0.  0.
        254    2    1    2    0    0 -0.11038611143E+03  0.16802974740E+03  0.71657728006E+03  0.11656392508E+04  0.89711357988E+03 0.  0.
         23    2    4    4    0    0 -0.46931786048E+03  0.50695612238E+02  0.20029732041E+03  0.52087015008E+03  0.91418802330E+02 0.  0.
         23    2    4    4    0    0  0.35893174905E+03  0.11733413517E+03  0.51627995965E+03  0.64476910076E+03  0.81135052938E+02 0.  0.
          4    1    3    3  502    0  0.89354503835E+02 -0.71981118561E+02  0.12102928267E+04  0.12157196367E+04  0.00000000000E+00 0. -1.
         -3    1    3    3    0  502  0.21031607596E+02 -0.96048628843E+02  0.14497134572E+04  0.14530439690E+04  0.00000000000E+00 0.  1.
         13    1    5    5    0    0 -0.20147259742E+03  0.61211979202E+02  0.63518017410E+02  0.21993783768E+03  0.00000000000E+00 0. -1.
        -13    1    5    5    0    0 -0.26784526306E+03 -0.10516366964E+02  0.13677930300E+03  0.30093231240E+03  0.00000000000E+00 0.  1.
          2    1    6    6  503    0  0.43243741748E+02  0.17157169618E+02  0.11757598393E+03  0.12644564709E+03  0.00000000000E+00 0. -1.
         -2    1    6    6    0  503  0.31568800730E+03  0.10017696555E+03  0.39870397572E+03  0.51832345368E+03  0.00000000000E+00 0.  1.
<mgrwt>
<rscale>  0 0.18169559E+04</rscale>
<asrwt>0</asrwt>
<pdfrwt beam="1">  1        2 0.55469122E+00 0.18169559E+04</pdfrwt>
<pdfrwt beam="2">  1       -1 0.35216871E-01 0.18169559E+04</pdfrwt>
<totfact> 0.56866545E+00</totfact>
</mgrwt>
</event>
<event>
12    7  0.1711607E-007  0.1216014E+04  0.7818608E-02  0.9098954E-01
          2   -1    0    0  501    0  0.00000000000E+00  0.00000000000E+00  0.83166111387E+03  0.83166111387E+03  0.00000000000E+00 0. -1.
         -1   -1    0    0    0  501 -0.00000000000E+00 -0.00000000000E+00 -0.44449902833E+03  0.44449902833E+03  0.00000000000E+00 0.  1.
         24    2    1    2    0    0 -0.81563267178E+02 -0.15931176479E+03  0.28903025456E+03  0.34706308031E+03  0.69867651363E+02 0.  0.
        254    2    1    2    0    0  0.81563267178E+02  0.15931176479E+03  0.98131830987E+02  0.92909706189E+03  0.90639874736E+03 0.  0.
         23    2    4    4    0    0 -0.34937623605E+03 -0.12804727131E+03 -0.36629088227E+02  0.38639877304E+03  0.97480581125E+02 0.  0.
         23    2    4    4    0    0  0.43093950322E+03  0.28735903611E+03  0.13476091921E+03  0.54269828886E+03  0.89871331955E+02 0.  0.
          2    1    3    3  502    0 -0.21751745861E+02 -0.65234192811E+02  0.17295467637E+03  0.18612350318E+03  0.00000000000E+00 0. -1.
         -1    1    3    3    0  502 -0.59811521317E+02 -0.94077571982E+02  0.11607557819E+03  0.16093957713E+03  0.00000000000E+00 0.  1.
         13    1    5    5    0    0 -0.28395477929E+03 -0.71367555395E+02 -0.55010475121E+02  0.29790904151E+03  0.00000000000E+00 0.  1.
        -13    1    5    5    0    0 -0.65421456760E+02 -0.56679715918E+02  0.18381386894E+02  0.88489731525E+02  0.00000000000E+00 0. -1.
          2    1    6    6  503    0  0.21003778578E+02  0.18353387769E+02  0.30664219086E+02  0.41452380985E+02  0.00000000000E+00 0. -1.
         -2    1    6    6    0  503  0.40993572465E+03  0.26900564834E+03  0.10409670013E+03  0.50124590787E+03  0.00000000000E+00 0.  1.
<mgrwt>
<rscale>  0 0.12160141E+04</rscale>
<asrwt>0</asrwt>
<pdfrwt beam="1">  1        2 0.12794786E+00 0.12160141E+04</pdfrwt>
<pdfrwt beam="2">  1       -1 0.68384466E-01 0.12160141E+04</pdfrwt>
<totfact> 0.79646959E+01</totfact>
</mgrwt>
</event>
<event>
12    7  0.1711607E-007  0.1309242E+04  0.7818608E-02  0.9022268E-01
         -1   -1    0    0    0  501 -0.00000000000E+00  0.00000000000E+00  0.11592784684E+03  0.11592784684E+03  0.00000000000E+00 0.  1.
          2   -1    0    0  501    0  0.00000000000E+00 -0.00000000000E+00 -0.36965100816E+04  0.36965100816E+04  0.00000000000E+00 0. -1.
         24    2    1    2    0    0  0.15499495085E+03  0.27544238992E+03 -0.12920078992E+04  0.13325453932E+04  0.80627962681E+02 0.  0.
        254    2    1    2    0    0 -0.15499495085E+03 -0.27544238992E+03 -0.22885743355E+04  0.24798925352E+04  0.90133376285E+03 0.  0.
         23    2    4    4    0    0  0.27635661833E+03  0.44310078107E+02 -0.14574630805E+04  0.14867876472E+04  0.89456767566E+02 0.  0.
         23    2    4    4    0    0 -0.43135156918E+03 -0.31975246803E+03 -0.83111125505E+03  0.99310488806E+03  0.84885707781E+02 0.  0.
          4    1    3    3  502    0  0.12534620183E+03  0.15946874005E+03 -0.90480188209E+03  0.92725853741E+03  0.00000000000E+00 0. -1.
         -3    1    3    3    0  502  0.29648749013E+02  0.11597364987E+03 -0.38720601713E+03  0.40528685580E+03  0.00000000000E+00 0.  1.
         13    1    5    5    0    0  0.29486195282E+02  0.25391821480E+02 -0.10794155181E+03  0.11474126946E+03  0.00000000000E+00 0. -1.
        -13    1    5    5    0    0  0.24687042305E+03  0.18918256627E+02 -0.13495215287E+04  0.13720463777E+04  0.00000000000E+00 0.  1.
          2    1    6    6  503    0 -0.35428700355E+03 -0.22177854746E+03 -0.61427016681E+03  0.74298912700E+03  0.00000000000E+00 0.  1.
         -2    1    6    6    0  503 -0.77064565624E+02 -0.97973920571E+02 -0.21684108823E+03  0.25011576106E+03  0.00000000000E+00 0. -1.
<mgrwt>
<rscale>  0 0.13092417E+04</rscale>
<asrwt>0</asrwt>
<pdfrwt beam="1">  1        2 0.56869377E+00 0.13092417E+04</pdfrwt>
<pdfrwt beam="2">  1       -1 0.17835056E-01 0.13092417E+04</pdfrwt>
<totfact> 0.16628791E+01</totfact>
</mgrwt>
</event>
<event>
12    7  0.1711607E-007  0.1302294E+04  0.7818608E-02  0.9027748E-01
          2   -1    0    0  501    0  0.00000000000E+00  0.00000000000E+00  0.34329385658E+04  0.34329385658E+04  0.00000000000E+00 0. -1.
         -1   -1    0    0    0  501 -0.00000000000E+00 -0.00000000000E+00 -0.12350704295E+03  0.12350704295E+03  0.00000000000E+00 0.  1.
         24    2    1    2    0    0 -0.15809959450E+03 -0.45813138984E+02  0.15599860073E+04  0.15706471474E+04  0.79257764403E+02 0.  0.
        254    2    1    2    0    0  0.15809959450E+03  0.45813138984E+02  0.17494455155E+04  0.19857984613E+04  0.92506302040E+03 0.  0.
         23    2    4    4    0    0  0.25449199952E+03  0.11114830813E+03  0.71038590600E+02  0.30105722946E+03  0.92026354043E+02 0.  0.
         23    2    4    4    0    0 -0.96392405019E+02 -0.65335169141E+02  0.16784069249E+04  0.16847412319E+04  0.87994503315E+02 0.  0.
          4    1    3    3  502    0 -0.14467258050E+03 -0.44575084156E+02  0.15332313565E+04  0.15406866930E+04  0.00000000000E+00 0. -1.
         -1    1    3    3    0  502 -0.13427014005E+02 -0.12380548288E+01  0.26754650866E+02  0.29960454399E+02  0.00000000000E+00 0.  1.
         13    1    5    5    0    0  0.64803859110E+02  0.72823050155E+02  0.38551481393E+02  0.10482820950E+03  0.00000000000E+00 0. -1.
        -13    1    5    5    0    0  0.18968814041E+03  0.38325257971E+02  0.32487109207E+02  0.19622901996E+03  0.00000000000E+00 0.  1.
          4    1    6    6  503    0  0.14621054763E+02 -0.44846348629E+01  0.89345711621E+02  0.90645150876E+02  0.00000000000E+00 0. -1.
         -4    1    6    6    0  503 -0.11101345978E+03 -0.60850534278E+02  0.15890612133E+04  0.15940960810E+04  0.00000000000E+00 0.  1.
<mgrwt>
<rscale>  0 0.13022935E+04</rscale>
<asrwt>0</asrwt>
<pdfrwt beam="1">  1        2 0.52814432E+00 0.13022935E+04</pdfrwt>
<pdfrwt beam="2">  1       -1 0.19001086E-01 0.13022935E+04</pdfrwt>
<totfact> 0.22951107E+01</totfact>
</mgrwt>
</event>
<event>
12    7  0.1711607E-007  0.1553864E+04  0.7818608E-02  0.8849404E-01
          2   -1    0    0  501    0  0.00000000000E+00  0.00000000000E+00  0.29478996393E+04  0.29478996393E+04  0.00000000000E+00 0. -1.
         -1   -1    0    0    0  501 -0.00000000000E+00 -0.00000000000E+00 -0.20476375536E+03  0.20476375536E+03  0.00000000000E+00 0.  1.
         24    2    1    2    0    0  0.38745608120E+03  0.24078308901E+03  0.39936629617E+03  0.61174124295E+03  0.81456730822E+02 0.  0.
        254    2    1    2    0    0 -0.38745608120E+03 -0.24078308901E+03  0.23437695877E+04  0.25409221517E+04  0.86886753289E+03 0.  0.
         23    2    4    4    0    0 -0.26336637356E+03 -0.51060790087E+03  0.95755539986E+03  0.11203979160E+04  0.91087163140E+02 0.  0.
         23    2    4    4    0    0 -0.12408970764E+03  0.26982481186E+03  0.13862141879E+04  0.14205242357E+04  0.89975801035E+02 0.  0.
          2    1    3    3  502    0  0.23576742029E+03  0.17067384042E+03  0.29663614944E+03  0.41558253263E+03  0.00000000000E+00 0. -1.
         -1    1    3    3    0  502  0.15168866091E+03  0.70109248591E+02  0.10273014673E+03  0.19615871032E+03  0.00000000000E+00 0.  1.
         13    1    5    5    0    0 -0.41879874428E+02 -0.34704326582E+02  0.63246233284E+02  0.83417025782E+02  0.00000000000E+00 0. -1.
        -13    1    5    5    0    0 -0.22148649914E+03 -0.47590357429E+03  0.89430916658E+03  0.10369808903E+04  0.00000000000E+00 0.  1.
          2    1    6    6  503    0 -0.90564981250E+02  0.99657937481E+02  0.52294035406E+03  0.54000030948E+03  0.00000000000E+00 0. -1.
         -2    1    6    6    0  503 -0.33524726386E+02  0.17016687438E+03  0.86327383382E+03  0.88052392618E+03  0.00000000000E+00 0.  1.
<mgrwt>
<rscale>  0 0.15538636E+04</rscale>
<asrwt>0</asrwt>
<pdfrwt beam="1">  1        2 0.45352299E+00 0.15538636E+04</pdfrwt>
<pdfrwt beam="2">  1       -1 0.31502118E-01 0.15538636E+04</pdfrwt>
<totfact> 0.19366390E+01</totfact>
</mgrwt>
</event>
<event>
12    7  0.1711607E-007  0.2888130E+04  0.7818608E-02  0.8276418E-01
          2   -1    0    0  501    0  0.00000000000E+00  0.00000000000E+00  0.17025171043E+04  0.17025171043E+04  0.00000000000E+00 0. -1.
         -1   -1    0    0    0  501 -0.00000000000E+00 -0.00000000000E+00 -0.12248472185E+04  0.12248472185E+04  0.00000000000E+00 0.  1.
         24    2    1    2    0    0  0.10388712125E+04  0.24280098482E+03  0.97455592070E+03  0.14470959751E+04  0.78241959869E+02 0.  0.
        254    2    1    2    0    0 -0.10388712125E+04 -0.24280098482E+03 -0.49688603495E+03  0.14802683477E+04  0.89782678458E+03 0.  0.
         23    2    4    4    0    0 -0.69243863777E+03 -0.26990596633E+02  0.14534827943E+03  0.71385268374E+03  0.90883289803E+02 0.  0.
         23    2    4    4    0    0 -0.34643257468E+03 -0.21581038818E+03 -0.64223431438E+03  0.76641566393E+03  0.91314855865E+02 0.  0.
          2    1    3    3  502    0  0.50774259183E+02  0.29906847165E+02  0.51109338591E+02  0.78003906275E+02  0.00000000000E+00 0. -1.
         -1    1    3    3    0  502  0.98809695327E+03  0.21289413765E+03  0.92344658211E+03  0.13690920688E+04  0.00000000000E+00 0.  1.
         13    1    5    5    0    0 -0.67360369147E+03 -0.41136436776E+02  0.14517303026E+03  0.69029656547E+03  0.00000000000E+00 0. -1.
        -13    1    5    5    0    0 -0.18834946306E+02  0.14145840143E+02  0.17524917533E+00  0.23556118270E+02  0.00000000000E+00 0.  1.
          1    1    6    6  503    0 -0.28369944421E+03 -0.13217061695E+03 -0.50029296241E+03  0.59012498242E+03  0.00000000000E+00 0. -1.
         -1    1    6    6    0  503 -0.62733130468E+02 -0.83639771234E+02 -0.14194135197E+03  0.17629068151E+03  0.00000000000E+00 0.  1.
<mgrwt>
<rscale>  0 0.28881297E+04</rscale>
<asrwt>0</asrwt>
<pdfrwt beam="1">  1        2 0.26192571E+00 0.28881297E+04</pdfrwt>
<pdfrwt beam="2">  1       -1 0.18843803E+00 0.28881297E+04</pdfrwt>
<totfact> 0.17421311E+00</totfact>
</mgrwt>
</event>
<event>
12    7  0.1711607E-007  0.2245397E+04  0.7818608E-02  0.8499767E-01
          2   -1    0    0  501    0  0.00000000000E+00  0.00000000000E+00  0.25142263423E+04  0.25142263423E+04  0.00000000000E+00 0. -1.
         -1   -1    0    0    0  501 -0.00000000000E+00 -0.00000000000E+00 -0.50132798826E+03  0.50132798826E+03  0.00000000000E+00 0.  1.
         24    2    1    2    0    0 -0.54521141088E+02 -0.42075392334E+03  0.19681323757E+04  0.20150435527E+04  0.82758999122E+02 0.  0.
        254    2    1    2    0    0  0.54521141088E+02  0.42075392334E+03  0.44765978354E+02  0.10005107779E+04  0.90499248897E+03 0.  0.
         23    2    4    4    0    0 -0.17784784543E+03  0.32690961197E+03  0.40124752860E+03  0.55457098133E+03  0.89719806124E+02 0.  0.
         23    2    4    4    0    0  0.23236898652E+03  0.93844311370E+02 -0.35648155024E+03  0.44593979659E+03  0.94768696563E+02 0.  0.
          2    1    3    3  502    0 -0.65161686472E+02 -0.38257164026E+03  0.18552349282E+04  0.18953901298E+04  0.00000000000E+00 0. -1.
         -1    1    3    3    0  502  0.10640545383E+02 -0.38182283075E+02  0.11289744753E+03  0.11965342288E+03  0.00000000000E+00 0.  1.
         13    1    5    5    0    0 -0.61873905341E+02  0.64747372075E+02  0.14302154735E+03  0.16874763808E+03  0.00000000000E+00 0.  1.
        -13    1    5    5    0    0 -0.11597394009E+03  0.26216223989E+03  0.25822598125E+03  0.38582334325E+03  0.00000000000E+00 0. -1.
          4    1    6    6  503    0  0.15653023644E+03  0.29133633990E+02 -0.27241556140E+03  0.31553244150E+03  0.00000000000E+00 0. -1.
         -4    1    6    6    0  503  0.75838750085E+02  0.64710677380E+02 -0.84065988846E+02  0.13040735509E+03  0.00000000000E+00 0.  1.
<mgrwt>
<rscale>  0 0.22453971E+04</rscale>
<asrwt>0</asrwt>
<pdfrwt beam="1">  1        2 0.38680405E+00 0.22453971E+04</pdfrwt>
<pdfrwt beam="2">  1       -1 0.77127384E-01 0.22453971E+04</pdfrwt>
<totfact> 0.59665780E+00</totfact>
</mgrwt>
</event>
<event>
12    7  0.1711607E-007  0.1622984E+04  0.7818608E-02  0.8806551E-01
          2   -1    0    0  501    0  0.00000000000E+00  0.00000000000E+00  0.38110809810E+04  0.38110809810E+04  0.00000000000E+00 0. -1.
         -1   -1    0    0    0  501 -0.00000000000E+00 -0.00000000000E+00 -0.17279072953E+03  0.17279072953E+03  0.00000000000E+00 0.  1.
         24    2    1    2    0    0  0.67856274563E+02 -0.53591823549E+03  0.87102269470E+03  0.10280432297E+04  0.79871886537E+02 0.  0.
        254    2    1    2    0    0 -0.67856274563E+02  0.53591823549E+03  0.27672675568E+04  0.29558284809E+04  0.88732150230E+03 0.  0.
         23    2    4    4    0    0  0.27306262189E+03 -0.10388213286E+03  0.90901163501E+03  0.95915729054E+03  0.91246163847E+02 0.  0.
         23    2    4    4    0    0 -0.34091889645E+03  0.63980036835E+03  0.18582559218E+04  0.19966711904E+04  0.89501766639E+02 0.  0.
          2    1    3    3  502    0  0.20281990916E+02 -0.16829157039E+03  0.34665416389E+03  0.38587889443E+03  0.00000000000E+00 0. -1.
         -1    1    3    3    0  502  0.47574283647E+02 -0.36762666510E+03  0.52436853080E+03  0.64216433524E+03  0.00000000000E+00 0.  1.
         13    1    5    5    0    0  0.69281049300E+02 -0.39836559666E+01  0.12514913951E+03  0.14310150393E+03  0.00000000000E+00 0. -1.
        -13    1    5    5    0    0  0.20378157259E+03 -0.99898476893E+02  0.78386249550E+03  0.81605578661E+03  0.00000000000E+00 0.  1.
          3    1    6    6  503    0 -0.73167172789E+02  0.18643260745E+03  0.42691475102E+03  0.47155779808E+03  0.00000000000E+00 0. -1.
         -3    1    6    6    0  503 -0.26775172366E+03  0.45336776090E+03  0.14313411708E+04  0.15251133923E+04  0.00000000000E+00 0.  1.
<mgrwt>
<rscale>  0 0.16229842E+04</rscale>
<asrwt>0</asrwt>
<pdfrwt beam="1">  1        2 0.58632009E+00 0.16229842E+04</pdfrwt>
<pdfrwt beam="2">  1       -1 0.26583192E-01 0.16229842E+04</pdfrwt>
<totfact> 0.67224245E+00</totfact>
</mgrwt>
</event>
<event>
12    7  0.1711607E-007  0.1853030E+04  0.7818608E-02  0.8678596E-01
          2   -1    0    0  501    0  0.00000000000E+00  0.00000000000E+00  0.40952987781E+04  0.40952987781E+04  0.00000000000E+00 0. -1.
         -1   -1    0    0    0  501 -0.00000000000E+00 -0.00000000000E+00 -0.20961356803E+03  0.20961356803E+03  0.00000000000E+00 0.  1.
         24    2    1    2    0    0 -0.27877204513E+03  0.62334906401E+03  0.11180394135E+04  0.13125683558E+04  0.80905190024E+02 0.  0.
        254    2    1    2    0    0  0.27877204513E+03 -0.62334906401E+03  0.27676457965E+04  0.29923439903E+04  0.90993482870E+03 0.  0.
         23    2    4    4    0    0 -0.20339012517E+03  0.78880410881E+02  0.31187186622E+03  0.39151449514E+03  0.91814360104E+02 0.  0.
         23    2    4    4    0    0  0.48216217031E+03 -0.70222947489E+03  0.24557739303E+04  0.26008294951E+04  0.88779909102E+02 0.  0.
          2    1    3    3  502    0 -0.53922874597E+02  0.60882216394E+02  0.11606442749E+03  0.14172251764E+03  0.00000000000E+00 0. -1.
         -1    1    3    3    0  502 -0.22484917054E+03  0.56246684761E+03  0.10019749861E+04  0.11708458382E+04  0.00000000000E+00 0.  1.
         13    1    5    5    0    0 -0.20747948973E+03  0.59033308713E+02  0.29284305678E+03  0.36371654637E+03  0.00000000000E+00 0.  1.
        -13    1    5    5    0    0  0.40893645571E+01  0.19847102168E+02  0.19028809441E+02  0.27797948768E+02  0.00000000000E+00 0. -1.
          1    1    6    6  503    0  0.57344341861E+02 -0.13434664913E+03  0.37046370540E+03  0.39822198921E+03  0.00000000000E+00 0. -1.
         -1    1    6    6    0  503  0.42481782844E+03 -0.56788282576E+03  0.20853102249E+04  0.22026075059E+04  0.00000000000E+00 0.  1.
<mgrwt>
<rscale>  0 0.18530302E+04</rscale>
<asrwt>0</asrwt>
<pdfrwt beam="1">  1        2 0.63004591E+00 0.18530302E+04</pdfrwt>
<pdfrwt beam="2">  1       -1 0.32248244E-01 0.18530302E+04</pdfrwt>
<totfact> 0.27853733E+00</totfact>
</mgrwt>
</event>
<event>
12    7  0.1711607E-007  0.1168070E+04  0.7818608E-02  0.9141273E-01
         -1   -1    0    0    0  501 -0.00000000000E+00  0.00000000000E+00  0.34083407791E+03  0.34083407791E+03  0.00000000000E+00 0.  1.
          2   -1    0    0  501    0  0.00000000000E+00 -0.00000000000E+00 -0.10007713247E+04  0.10007713247E+04  0.00000000000E+00 0. -1.
         24    2    1    2    0    0  0.20906363032E+03  0.57349367174E+02 -0.26520605671E+03  0.35164883521E+03  0.79536779838E+02 0.  0.
        254    2    1    2    0    0 -0.20906363032E+03 -0.57349367174E+02 -0.39473119005E+03  0.98995656738E+03  0.88159216277E+03 0.  0.
         23    2    4    4    0    0 -0.35641101833E+03 -0.18627055889E+03  0.11984216291E+03  0.43114314846E+03  0.98978459061E+02 0.  0.
         23    2    4    4    0    0  0.14734738801E+03  0.12892119172E+03 -0.51457335296E+03  0.55881341892E+03  0.95680589228E+02 0.  0.
          4    1    3    3  502    0  0.51812146265E+02 -0.17980989801E+02 -0.82750465605E+02  0.99274639524E+02  0.00000000000E+00 0. -1.
         -3    1    3    3    0  502  0.15725148406E+03  0.75330356975E+02 -0.18245559110E+03  0.25237419568E+03  0.00000000000E+00 0.  1.
         13    1    5    5    0    0 -0.23968872937E+03 -0.78650494915E+02  0.99096448044E+02  0.27102895298E+03  0.00000000000E+00 0. -1.
        -13    1    5    5    0    0 -0.11672228896E+03 -0.10762006398E+03  0.20745714868E+02  0.16011419549E+03  0.00000000000E+00 0.  1.
          2    1    6    6  503    0  0.20141929469E+02  0.18432828637E+02 -0.14079515714E+02  0.30719688427E+02  0.00000000000E+00 0.  1.
         -2    1    6    6    0  503  0.12720545854E+03  0.11048836308E+03 -0.50049383725E+03  0.52809373049E+03  0.00000000000E+00 0. -1.
<mgrwt>
<rscale>  0 0.11680702E+04</rscale>
<asrwt>0</asrwt>
<pdfrwt beam="1">  1        2 0.15396482E+00 0.11680702E+04</pdfrwt>
<pdfrwt beam="2">  1       -1 0.52436013E-01 0.11680702E+04</pdfrwt>
<totfact> 0.10395090E+02</totfact>
</mgrwt>
</event>
<event>
12    7  0.1711607E-007  0.1841595E+04  0.7818608E-02  0.8684487E-01
          2   -1    0    0  501    0  0.00000000000E+00  0.00000000000E+00  0.35381496717E+04  0.35381496717E+04  0.00000000000E+00 0. -1.
         -1   -1    0    0    0  501 -0.00000000000E+00 -0.00000000000E+00 -0.23963589332E+03  0.23963589332E+03  0.00000000000E+00 0.  1.
         24    2    1    2    0    0 -0.20981742360E+03  0.43362666621E+03  0.22919532415E+04  0.23435910140E+04  0.85520424835E+02 0.  0.
        254    2    1    2    0    0  0.20981742360E+03 -0.43362666621E+03  0.10065605370E+04  0.14341945510E+04  0.90094087419E+03 0.  0.
         23    2    4    4    0    0  0.52061027914E+03 -0.28748844266E+03  0.36945128727E+03  0.70472616358E+03  0.80374402366E+02 0.  0.
         23    2    4    4    0    0 -0.31079285554E+03 -0.14613822355E+03  0.63710924969E+03  0.72946838746E+03  0.90924984616E+02 0.  0.
          2    1    3    3  502    0 -0.18334174304E+03  0.41758353129E+03  0.21925472154E+04  0.22394761646E+04  0.00000000000E+00 0. -1.
         -3    1    3    3    0  502 -0.26475680564E+02  0.16043134921E+02  0.99406026082E+02  0.10411484938E+03  0.00000000000E+00 0.  1.
         13    1    5    5    0    0  0.30572205904E+03 -0.12323517288E+03  0.20589366629E+03  0.38864519428E+03  0.00000000000E+00 0.  1.
        -13    1    5    5    0    0  0.21488822010E+03 -0.16425326978E+03  0.16355762098E+03  0.31608096930E+03  0.00000000000E+00 0. -1.
          2    1    6    6  503    0 -0.55225613623E+02 -0.94662875327E+01  0.17731330860E+03  0.18595560869E+03  0.00000000000E+00 0. -1.
         -2    1    6    6    0  503 -0.25556724192E+03 -0.13667193602E+03  0.45979594109E+03  0.54351277876E+03  0.00000000000E+00 0.  1.
<mgrwt>
<rscale>  0 0.18415946E+04</rscale>
<asrwt>0</asrwt>
<pdfrwt beam="1">  1        2 0.54433068E+00 0.18415946E+04</pdfrwt>
<pdfrwt beam="2">  1       -1 0.36867063E-01 0.18415946E+04</pdfrwt>
<totfact> 0.58305858E+00</totfact>
</mgrwt>
</event>
<event>
12    7  0.1711607E-007  0.1496203E+04  0.7818608E-02  0.8886982E-01
         -1   -1    0    0    0  501 -0.00000000000E+00  0.00000000000E+00  0.96858247166E+03  0.96858247166E+03  0.00000000000E+00 0.  1.
          2   -1    0    0  501    0  0.00000000000E+00 -0.00000000000E+00 -0.57780945742E+03  0.57780945742E+03  0.00000000000E+00 0. -1.
         24    2    1    2    0    0  0.15969272277E+03  0.41629552488E+03  0.28560111056E+03  0.53559008533E+03  0.80529593396E+02 0.  0.
        254    2    1    2    0    0 -0.15969272277E+03 -0.41629552488E+03  0.10517190369E+03  0.10108018437E+04  0.90103024824E+03 0.  0.
         23    2    4    4    0    0  0.40194548704E+02 -0.39695204257E+03  0.44605276301E+03  0.60444803594E+03  0.84898968860E+02 0.  0.
         23    2    4    4    0    0 -0.19988727148E+03 -0.19343482310E+02 -0.34088085933E+03  0.40635380781E+03  0.92706878144E+02 0.  0.
          4    1    3    3  502    0  0.66000392248E+02  0.19375290005E+03  0.84846298150E+02  0.22157421413E+03  0.00000000000E+00 0. -1.
         -3    1    3    3    0  502  0.93692330527E+02  0.22254262483E+03  0.20075481241E+03  0.31401587121E+03  0.00000000000E+00 0.  1.
         13    1    5    5    0    0 -0.16532489989E+02 -0.40479234879E+02  0.74820360137E+02  0.86660129083E+02  0.00000000000E+00 0. -1.
        -13    1    5    5    0    0  0.56727038693E+02 -0.35647280769E+03  0.37123240288E+03  0.51778790686E+03  0.00000000000E+00 0.  1.
          3    1    6    6  503    0 -0.54363316054E+01 -0.19940161755E+02 -0.10963931385E+02  0.23395972807E+02  0.00000000000E+00 0. -1.
         -3    1    6    6    0  503 -0.19445093987E+03  0.59667944508E+00 -0.32991692794E+03  0.38295783500E+03  0.00000000000E+00 0.  1.
<mgrwt>
<rscale>  0 0.14962033E+04</rscale>
<asrwt>0</asrwt>
<pdfrwt beam="1">  1        2 0.88893763E-01 0.14962033E+04</pdfrwt>
<pdfrwt beam="2">  1       -1 0.14901269E+00 0.14962033E+04</pdfrwt>
<totfact> 0.20362090E+01</totfact>
</mgrwt>
</event>
<event>
12    7  0.1711607E-007  0.1650847E+04  0.7818608E-02  0.8789906E-01
          2   -1    0    0  501    0  0.00000000000E+00  0.00000000000E+00  0.14095339434E+04  0.14095339434E+04  0.00000000000E+00 0. -1.
         -1   -1    0    0    0  501 -0.00000000000E+00 -0.00000000000E+00 -0.48336797660E+03  0.48336797660E+03  0.00000000000E+00 0.  1.
         24    2    1    2    0    0  0.29261079542E+03  0.33304159578E+03  0.75575119561E+03  0.87974435424E+03  0.79072606090E+02 0.  0.
        254    2    1    2    0    0 -0.29261079542E+03 -0.33304159578E+03  0.17041477115E+03  0.10131575657E+04  0.89493534774E+03 0.  0.
         23    2    4    4    0    0 -0.53854082945E+03 -0.44809830775E+03  0.17201091046E+03  0.72682347848E+03  0.88692148290E+02 0.  0.
         23    2    4    4    0    0  0.24593003403E+03  0.11505671196E+03 -0.15961393108E+01  0.28633408724E+03  0.90912228289E+02 0.  0.
          2    1    3    3  502    0  0.26836333040E+03  0.31155766350E+03  0.73194529074E+03  0.83954211534E+03  0.00000000000E+00 0. -1.
         -1    1    3    3    0  502  0.24247465022E+02  0.21483932281E+02  0.23805904876E+02  0.40202238908E+02  0.00000000000E+00 0.  1.
         13    1    5    5    0    0 -0.49177451613E+03 -0.43175844868E+03  0.17431240229E+03  0.67723138314E+03  0.00000000000E+00 0.  1.
        -13    1    5    5    0    0 -0.46766313315E+02 -0.16339859069E+02 -0.23014918312E+01  0.49592095339E+02  0.00000000000E+00 0. -1.
          3    1    6    6  503    0  0.74430597397E+02 -0.54878953579E+01  0.14733441457E+02  0.76073024927E+02  0.00000000000E+00 0. -1.
         -3    1    6    6    0  503  0.17149943663E+03  0.12054460732E+03 -0.16329580767E+02  0.21026106232E+03  0.00000000000E+00 0.  1.
<mgrwt>
<rscale>  0 0.16508465E+04</rscale>
<asrwt>0</asrwt>
<pdfrwt beam="1">  1        2 0.21685137E+00 0.16508465E+04</pdfrwt>
<pdfrwt beam="2">  1       -1 0.74364305E-01 0.16508465E+04</pdfrwt>
<totfact> 0.28313951E+01</totfact>
</mgrwt>
</event>
<event>
12    7  0.1711607E-007  0.1372667E+04  0.7818608E-02  0.8973844E-01
          2   -1    0    0  501    0  0.00000000000E+00  0.00000000000E+00  0.17930367352E+04  0.17930367352E+04  0.00000000000E+00 0. -1.
         -1   -1    0    0    0  501 -0.00000000000E+00 -0.00000000000E+00 -0.26271290992E+03  0.26271290992E+03  0.00000000000E+00 0.  1.
         24    2    1    2    0    0 -0.10124031918E+01  0.38907790879E+03  0.47643826085E+03  0.61997229457E+03  0.77392412844E+02 0.  0.
        254    2    1    2    0    0  0.10124031918E+01 -0.38907790879E+03  0.10538855645E+04  0.14357773506E+04  0.89409125562E+03 0.  0.
         23    2    4    4    0    0 -0.26371350941E+03 -0.55459711359E+03  0.51264981775E+03  0.80537152296E+03  0.93223821599E+02 0.  0.
         23    2    4    4    0    0  0.26472591260E+03  0.16551920480E+03  0.54123574672E+03  0.63040582761E+03  0.83659775306E+02 0.  0.
          4    1    3    3  502    0 -0.19776334322E+01  0.15759960641E+02  0.53658144069E+02  0.55959662422E+02  0.00000000000E+00 0. -1.
         -3    1    3    3    0  502  0.96523024037E+00  0.37331794815E+03  0.42278011678E+03  0.56401263215E+03  0.00000000000E+00 0.  1.
         13    1    5    5    0    0 -0.14353975595E+03 -0.37763724418E+03  0.29529028918E+03  0.50040973673E+03  0.00000000000E+00 0. -1.
        -13    1    5    5    0    0 -0.12017375346E+03 -0.17695986941E+03  0.21735952857E+03  0.30496178623E+03  0.00000000000E+00 0.  1.
          1    1    6    6  503    0  0.23901308616E+03  0.11246511089E+03  0.43574220689E+03  0.50955561756E+03  0.00000000000E+00 0. -1.
         -1    1    6    6    0  503  0.25712826443E+02  0.53054093915E+02  0.10549353982E+03  0.12085021005E+03  0.00000000000E+00 0.  1.
<mgrwt>
<rscale>  0 0.13726673E+04</rscale>
<asrwt>0</asrwt>
<pdfrwt beam="1">  1        2 0.27585180E+00 0.13726673E+04</pdfrwt>
<pdfrwt beam="2">  1       -1 0.40417372E-01 0.13726673E+04</pdfrwt>
<totfact> 0.57805371E+01</totfact>
</mgrwt>
</event>
<event>
12    7  0.1711607E-007  0.1351235E+04  0.7818608E-02  0.8989894E-01
          2   -1    0    0  501    0  0.00000000000E+00  0.00000000000E+00  0.17637045551E+04  0.17637045551E+04  0.00000000000E+00 0. -1.
         -1   -1    0    0    0  501 -0.00000000000E+00 -0.00000000000E+00 -0.25880704853E+03  0.25880704853E+03  0.00000000000E+00 0.  1.
         24    2    1    2    0    0 -0.70634333392E+02  0.20739534078E+03  0.82504068584E+03  0.85713635930E+03  0.77385843133E+02 0.  0.
        254    2    1    2    0    0  0.70634333392E+02 -0.20739534078E+03  0.67985682076E+03  0.11653752444E+04  0.92081058150E+03 0.  0.
         23    2    4    4    0    0 -0.38561150005E+03 -0.19545755779E+03  0.49692103084E+03  0.66517257895E+03  0.92866371895E+02 0.  0.
         23    2    4    4    0    0  0.45624583344E+03 -0.11937782985E+02  0.18293578992E+03  0.50020266541E+03  0.91839164038E+02 0.  0.
          4    1    3    3  502    0 -0.27590290036E+02  0.13094112763E+03  0.36392289981E+03  0.38774563829E+03  0.00000000000E+00 0. -1.
         -3    1    3    3    0  502 -0.43044043356E+02  0.76454213147E+02  0.46111778604E+03  0.46939072102E+03  0.00000000000E+00 0.  1.
         13    1    5    5    0    0 -0.36137199222E+03 -0.20204724949E+03  0.48401175740E+03  0.63693028589E+03  0.00000000000E+00 0.  1.
        -13    1    5    5    0    0 -0.24239507832E+02  0.65896916938E+01  0.12909273442E+02  0.28242293061E+02  0.00000000000E+00 0. -1.
          3    1    6    6  503    0  0.30262300051E+02 -0.72809265432E+01 -0.97871254936E+01  0.32628308585E+02  0.00000000000E+00 0. -1.
         -3    1    6    6    0  503  0.42598353339E+03 -0.46568564416E+01  0.19272291541E+03  0.46757435682E+03  0.00000000000E+00 0.  1.
<mgrwt>
<rscale>  0 0.13512352E+04</rscale>
<asrwt>0</asrwt>
<pdfrwt beam="1">  1        2 0.27133915E+00 0.13512352E+04</pdfrwt>
<pdfrwt beam="2">  1       -1 0.39816470E-01 0.13512352E+04</pdfrwt>
<totfact> 0.61778327E+01</totfact>
</mgrwt>
</event>
<event>
12    7  0.1711607E-007  0.1419707E+04  0.7818608E-02  0.8939676E-01
         -1   -1    0    0    0  501 -0.00000000000E+00  0.00000000000E+00  0.27987106686E+03  0.27987106686E+03  0.00000000000E+00 0.  1.
          2   -1    0    0  501    0  0.00000000000E+00 -0.00000000000E+00 -0.18004434753E+04  0.18004434753E+04  0.00000000000E+00 0. -1.
         24    2    1    2    0    0 -0.10894893582E+03 -0.29274421650E+03 -0.27673314382E+03  0.42564995762E+03  0.83830821441E+02 0.  0.
        254    2    1    2    0    0  0.10894893582E+03  0.29274421650E+03 -0.12438392646E+04  0.16546645845E+04  0.10455667000E+04 0.  0.
         23    2    4    4    0    0 -0.26074609090E+03  0.24595049184E+03 -0.18115678474E+02  0.37042869977E+03  0.91701011205E+02 0.  0.
         23    2    4    4    0    0  0.36969502671E+03  0.46793724665E+02 -0.12257235861E+04  0.12842358847E+04  0.89439547390E+02 0.  0.
          2    1    3    3  502    0 -0.91399062438E+02 -0.22002671706E+03 -0.15996172082E+03  0.28697264149E+03  0.00000000000E+00 0. -1.
         -1    1    3    3    0  502 -0.17549873380E+02 -0.72717499441E+02 -0.11677142300E+03  0.13867731613E+03  0.00000000000E+00 0.  1.
         13    1    5    5    0    0 -0.54788535878E+02  0.11014953334E+03  0.55150289405E+00  0.12302441837E+03  0.00000000000E+00 0.  1.
        -13    1    5    5    0    0 -0.20595755502E+03  0.13580095849E+03 -0.18667181369E+02  0.24740428140E+03  0.00000000000E+00 0. -1.
          2    1    6    6  503    0  0.30586620817E+03  0.24124936659E+02 -0.10927303605E+04  0.11349871323E+04  0.00000000000E+00 0. -1.
         -2    1    6    6    0  503  0.63828818542E+02  0.22668788005E+02 -0.13299322566E+03  0.14924875241E+03  0.00000000000E+00 0.  1.
<mgrwt>
<rscale>  0 0.14197071E+04</rscale>
<asrwt>0</asrwt>
<pdfrwt beam="1">  1        2 0.27699131E+00 0.14197071E+04</pdfrwt>
<pdfrwt beam="2">  1       -1 0.43057086E-01 0.14197071E+04</pdfrwt>
<totfact> 0.50775131E+01</totfact>
</mgrwt>
</event>
<event>
12    7  0.1711607E-007  0.1537358E+04  0.7818608E-02  0.8859984E-01
          2   -1    0    0  501    0  0.00000000000E+00  0.00000000000E+00  0.22438603919E+04  0.22438603919E+04  0.00000000000E+00 0. -1.
         -1   -1    0    0    0  501 -0.00000000000E+00 -0.00000000000E+00 -0.26332612821E+03  0.26332612821E+03  0.00000000000E+00 0.  1.
         24    2    1    2    0    0  0.34757880766E+03  0.34288399508E+03  0.45244101697E+03  0.67070800187E+03  0.82255019972E+02 0.  0.
        254    2    1    2    0    0 -0.34757880766E+03 -0.34288399508E+03  0.15280932467E+04  0.18364785182E+04  0.89398205556E+03 0.  0.
         23    2    4    4    0    0 -0.14006037467E+03 -0.55944287903E+03  0.13553062539E+04  0.14757533123E+04  0.91649078125E+02 0.  0.
         23    2    4    4    0    0 -0.20751843299E+03  0.21655888395E+03  0.17278699285E+03  0.36072520595E+03  0.10151689051E+03 0.  0.
          4    1    3    3  502    0  0.34523911188E+03  0.31892306447E+03  0.43899950425E+03  0.64313492375E+03  0.00000000000E+00 0. -1.
         -3    1    3    3    0  502  0.23396957804E+01  0.23960930616E+02  0.13441512722E+02  0.27573078112E+02  0.00000000000E+00 0.  1.
         13    1    5    5    0    0  0.37427408016E+01 -0.39769971175E+01  0.19668146577E+01  0.58045649861E+01  0.00000000000E+00 0. -1.
        -13    1    5    5    0    0 -0.14380311548E+03 -0.55546588191E+03  0.13533394392E+04  0.14699487473E+04  0.00000000000E+00 0.  1.
          3    1    6    6  503    0 -0.40684310756E+02  0.16888505552E+02  0.66261383182E+02  0.79567616922E+02  0.00000000000E+00 0. -1.
         -3    1    6    6    0  503 -0.16683412223E+03  0.19967037840E+03  0.10652560967E+03  0.28115758902E+03  0.00000000000E+00 0.  1.
<mgrwt>
<rscale>  0 0.15373576E+04</rscale>
<asrwt>0</asrwt>
<pdfrwt beam="1">  1        2 0.34520928E+00 0.15373576E+04</pdfrwt>
<pdfrwt beam="2">  1       -1 0.40511714E-01 0.15373576E+04</pdfrwt>
<totfact> 0.31887737E+01</totfact>
</mgrwt>
</event>
<event>
12    7  0.1711607E-007  0.2099671E+04  0.7818608E-02  0.8561388E-01
          2   -1    0    0  501    0  0.00000000000E+00  0.00000000000E+00  0.21692912649E+04  0.21692912649E+04  0.00000000000E+00 0. -1.
         -1   -1    0    0    0  501 -0.00000000000E+00 -0.00000000000E+00 -0.50807115151E+03  0.50807115151E+03  0.00000000000E+00 0.  1.
         24    2    1    2    0    0  0.27287250047E+03 -0.15003086081E+03  0.16937374576E+04  0.17240642268E+04  0.81744860209E+02 0.  0.
        254    2    1    2    0    0 -0.27287250047E+03  0.15003086081E+03 -0.32517344176E+02  0.95329818963E+03  0.90041734766E+03 0.  0.
         23    2    4    4    0    0  0.25251715392E+02  0.17459117532E+03 -0.41491380438E+03  0.45940443671E+03  0.88200021417E+02 0.  0.
         23    2    4    4    0    0 -0.29812421586E+03 -0.24560314508E+02  0.38239646020E+03  0.49389375291E+03  0.90679265864E+02 0.  0.
          2    1    3    3  502    0  0.16511757184E+03 -0.12721955896E+03  0.98441862674E+03  0.10062448317E+04  0.00000000000E+00 0. -1.
         -1    1    3    3    0  502  0.10775492864E+03 -0.22811301859E+02  0.70931883087E+03  0.71781939508E+03  0.00000000000E+00 0.  1.
         13    1    5    5    0    0  0.50384166004E+02  0.10273369921E+03 -0.30451872286E+03  0.32530667025E+03  0.00000000000E+00 0.  1.
        -13    1    5    5    0    0 -0.25132450613E+02  0.71857476112E+02 -0.11039508152E+03  0.13409776646E+03  0.00000000000E+00 0. -1.
          3    1    6    6  503    0  0.62211242941E-01 -0.14195481015E+02  0.16401292635E+02  0.21691425762E+02  0.00000000000E+00 0. -1.
         -3    1    6    6    0  503 -0.29818642711E+03 -0.10364833493E+02  0.36599516757E+03  0.47220232715E+03  0.00000000000E+00 0.  1.
<mgrwt>
<rscale>  0 0.20996707E+04</rscale>
<asrwt>0</asrwt>
<pdfrwt beam="1">  1        2 0.33373711E+00 0.20996707E+04</pdfrwt>
<pdfrwt beam="2">  1       -1 0.78164794E-01 0.20996707E+04</pdfrwt>
<totfact> 0.92368740E+00</totfact>
</mgrwt>
</event>
<event>
12    7  0.1711607E-007  0.4014171E+04  0.7818608E-02  0.8001694E-01
          2   -1    0    0  501    0  0.00000000000E+00  0.00000000000E+00  0.39126451166E+04  0.39126451166E+04  0.00000000000E+00 0. -1.
         -1   -1    0    0    0  501 -0.00000000000E+00 -0.00000000000E+00 -0.10295829571E+04  0.10295829571E+04  0.00000000000E+00 0.  1.
         24    2    1    2    0    0 -0.50776512779E+03  0.10025568540E+04 -0.52545636470E+03  0.12429769953E+04  0.77082741805E+02 0.  0.
        254    2    1    2    0    0  0.50776512779E+03 -0.10025568540E+04  0.34085185242E+04  0.36992510784E+04  0.89638961443E+03 0.  0.
         23    2    4    4    0    0 -0.13753592041E+03 -0.23553627441E+03  0.23868516889E+03  0.37355678231E+03  0.90446635072E+02 0.  0.
         23    2    4    4    0    0  0.64530104819E+03 -0.76702057961E+03  0.31698333553E+04  0.33256942961E+04  0.87550205062E+02 0.  0.
          4    1    3    3  502    0 -0.24616059599E+03  0.42152949286E+03 -0.25524840297E+03  0.55084834537E+03  0.00000000000E+00 0. -1.
         -3    1    3    3    0  502 -0.26160453180E+03  0.58102736116E+03 -0.27020796173E+03  0.69212864993E+03  0.00000000000E+00 0.  1.
         13    1    5    5    0    0 -0.47125837591E+02 -0.67075943452E+02  0.12985055626E+03  0.15356169353E+03  0.00000000000E+00 0. -1.
        -13    1    5    5    0    0 -0.90410082816E+02 -0.16846033096E+03  0.10883461263E+03  0.21999508878E+03  0.00000000000E+00 0.  1.
          4    1    6    6  503    0  0.15136017494E+03 -0.21038519675E+03  0.93194865042E+03  0.96731593629E+03  0.00000000000E+00 0. -1.
         -4    1    6    6    0  503  0.49394087325E+03 -0.55663538286E+03  0.22378847049E+04  0.23583783598E+04  0.00000000000E+00 0.  1.
<mgrwt>
<rscale>  0 0.40141713E+04</rscale>
<asrwt>0</asrwt>
<pdfrwt beam="1">  1        2 0.60194539E+00 0.40141713E+04</pdfrwt>
<pdfrwt beam="2">  1       -1 0.15839738E+00 0.40141713E+04</pdfrwt>
<totfact> 0.10758675E-01</totfact>
</mgrwt>
</event>
<event>
12    7  0.1711607E-007  0.1429059E+04  0.7818608E-02  0.8933048E-01
          2   -1    0    0  501    0  0.00000000000E+00  0.00000000000E+00  0.16569520234E+04  0.16569520234E+04  0.00000000000E+00 0. -1.
         -1   -1    0    0    0  501 -0.00000000000E+00 -0.00000000000E+00 -0.30812763001E+03  0.30812763001E+03  0.00000000000E+00 0.  1.
         24    2    1    2    0    0  0.41449269555E+02  0.38894292151E+03  0.28875468498E+03  0.49271484858E+03  0.79962589869E+02 0.  0.
        254    2    1    2    0    0 -0.41449269555E+02 -0.38894292151E+03  0.10600697084E+04  0.14723648048E+04  0.94398924447E+03 0.  0.
         23    2    4    4    0    0  0.22011185328E+01 -0.69045275909E+03  0.63646396313E+03  0.94356330158E+03  0.92170875299E+02 0.  0.
         23    2    4    4    0    0 -0.43650388088E+02  0.30150983758E+03  0.42360574530E+03  0.52880150327E+03  0.85881685298E+02 0.  0.
          2    1    3    3  502    0 -0.12079790474E+02  0.20666390479E+03  0.17655404003E+03  0.27207943681E+03  0.00000000000E+00 0. -1.
         -1    1    3    3    0  502  0.53529060029E+02  0.18227901672E+03  0.11220064495E+03  0.22063541178E+03  0.00000000000E+00 0.  1.
         13    1    5    5    0    0  0.14689220828E+02 -0.57988031713E+03  0.48806841175E+03  0.75808161167E+03  0.00000000000E+00 0. -1.
        -13    1    5    5    0    0 -0.12488102295E+02 -0.11057244196E+03  0.14839555138E+03  0.18548168990E+03  0.00000000000E+00 0.  1.
          2    1    6    6  503    0 -0.50139488361E+02  0.27836098243E+03  0.34240779560E+03  0.44411924448E+03  0.00000000000E+00 0.  1.
         -2    1    6    6    0  503  0.64891002728E+01  0.23148855147E+02  0.81197949707E+02  0.84682258789E+02  0.00000000000E+00 0. -1.
<mgrwt>
<rscale>  0 0.14290594E+04</rscale>
<asrwt>0</asrwt>
<pdfrwt beam="1">  1        2 0.25491569E+00 0.14290594E+04</pdfrwt>
<pdfrwt beam="2">  1       -1 0.47404251E-01 0.14290594E+04</pdfrwt>
<totfact> 0.50928050E+01</totfact>
</mgrwt>
</event>
<event>
12    7  0.1711607E-007  0.2081141E+04  0.7818608E-02  0.8569597E-01
          2   -1    0    0  501    0  0.00000000000E+00  0.00000000000E+00  0.15025766064E+04  0.15025766064E+04  0.00000000000E+00 0. -1.
         -1   -1    0    0    0  501 -0.00000000000E+00 -0.00000000000E+00 -0.72062038185E+03  0.72062038185E+03  0.00000000000E+00 0.  1.
         24    2    1    2    0    0  0.52772758100E+03 -0.40840976190E+03 -0.23156625106E+03  0.71240590639E+03  0.92759438686E+02 0.  0.
        254    2    1    2    0    0 -0.52772758100E+03  0.40840976190E+03  0.10135224756E+04  0.15107910819E+04  0.89998163933E+03 0.  0.
         23    2    4    4    0    0 -0.63807289663E+03  0.33072091959E+03  0.30932584237E+03  0.78784434618E+03  0.92211110998E+02 0.  0.
         23    2    4    4    0    0  0.11034531562E+03  0.77688842312E+02  0.70419663326E+03  0.72294673570E+03  0.92452363245E+02 0.  0.
          4    1    3    3  502    0  0.60351083109E+02 -0.52905594471E+02 -0.61337379122E+02  0.10101252020E+03  0.00000000000E+00 0. -1.
         -3    1    3    3    0  502  0.46737649789E+03 -0.35550416743E+03 -0.17022887194E+03  0.61139338619E+03  0.00000000000E+00 0.  1.
         13    1    5    5    0    0 -0.34879855606E+03  0.16490448899E+03  0.21335379517E+03  0.44087840173E+03  0.00000000000E+00 0.  1.
        -13    1    5    5    0    0 -0.28927434057E+03  0.16581643060E+03  0.95972047204E+02  0.34696594446E+03  0.00000000000E+00 0. -1.
          1    1    6    6  503    0  0.52308142257E+02  0.28846380759E+02  0.52457475522E+03  0.52796489395E+03  0.00000000000E+00 0. -1.
         -1    1    6    6    0  503  0.58037173366E+02  0.48842461553E+02  0.17962187804E+03  0.19498184175E+03  0.00000000000E+00 0.  1.
<mgrwt>
<rscale>  0 0.20811413E+04</rscale>
<asrwt>0</asrwt>
<pdfrwt beam="1">  1        2 0.23116563E+00 0.20811413E+04</pdfrwt>
<pdfrwt beam="2">  1       -1 0.11086467E+00 0.20811413E+04</pdfrwt>
<totfact> 0.99663953E+00</totfact>
</mgrwt>
</event>
<event>
12    7  0.1711607E-007  0.1348296E+04  0.7818608E-02  0.8992119E-01
         -1   -1    0    0    0  501 -0.00000000000E+00  0.00000000000E+00  0.28547569511E+03  0.28547569511E+03  0.00000000000E+00 0.  1.
          2   -1    0    0  501    0  0.00000000000E+00 -0.00000000000E+00 -0.15919938415E+04  0.15919938415E+04  0.00000000000E+00 0. -1.
         24    2    1    2    0    0 -0.13959197377E+03  0.15657634950E+03  0.54899460591E+02  0.23113416565E+03  0.80043609313E+02 0.  0.
        254    2    1    2    0    0  0.13959197377E+03 -0.15657634950E+03 -0.13614176070E+04  0.16463353710E+04  0.90164304507E+03 0.  0.
         23    2    4    4    0    0  0.15174415882E+03 -0.43419665121E+03 -0.12475078166E+04  0.13326240020E+04  0.89766120749E+02 0.  0.
         23    2    4    4    0    0 -0.12152185045E+02  0.27762030171E+03 -0.11390979040E+03  0.31371136903E+03  0.90656909209E+02 0.  0.
          2    1    3    3  502    0 -0.27313556988E+01  0.25509746626E+02 -0.14330560528E+02  0.29386603103E+02  0.00000000000E+00 0. -1.
         -1    1    3    3    0  502 -0.13686061807E+03  0.13106660287E+03  0.69230021119E+02  0.20174756255E+03  0.00000000000E+00 0.  1.
         13    1    5    5    0    0  0.14240913642E+03 -0.34635669506E+03 -0.10826903667E+04  0.11456272311E+04  0.00000000000E+00 0. -1.
        -13    1    5    5    0    0  0.93350223981E+01 -0.87839956146E+02 -0.16481744988E+03  0.18699677089E+03  0.00000000000E+00 0.  1.
          3    1    6    6  503    0 -0.37918911934E+02  0.22226659892E+03 -0.62730172412E+02  0.23404136260E+03  0.00000000000E+00 0. -1.
         -3    1    6    6    0  503  0.25766726888E+02  0.55353702794E+02 -0.51179617989E+02  0.79670006434E+02  0.00000000000E+00 0.  1.
<mgrwt>
<rscale>  0 0.13482960E+04</rscale>
<asrwt>0</asrwt>
<pdfrwt beam="1">  1        2 0.24492213E+00 0.13482960E+04</pdfrwt>
<pdfrwt beam="2">  1       -1 0.43919337E-01 0.13482960E+04</pdfrwt>
<totfact> 0.64259844E+01</totfact>
</mgrwt>
</event>
<event>
12    7  0.1711607E-007  0.1102374E+04  0.7818608E-02  0.9202881E-01
         -1   -1    0    0    0  501 -0.00000000000E+00  0.00000000000E+00  0.75600049144E+03  0.75600049144E+03  0.00000000000E+00 0.  1.
          2   -1    0    0  501    0  0.00000000000E+00 -0.00000000000E+00 -0.40186127929E+03  0.40186127929E+03  0.00000000000E+00 0. -1.
         24    2    1    2    0    0  0.13954214679E+03 -0.15686357700E+02  0.14480729881E+01  0.16122647397E+03  0.79207363583E+02 0.  0.
        254    2    1    2    0    0 -0.13954214679E+03  0.15686357700E+02  0.35269113916E+03  0.99663529676E+03  0.92150572573E+03 0.  0.
         23    2    4    4    0    0  0.14922162184E+03 -0.38282101513E+03  0.23991481156E+03  0.48380585776E+03  0.87692469166E+02 0.  0.
         23    2    4    4    0    0 -0.28876376863E+03  0.39850737283E+03  0.11277632760E+03  0.51282943899E+03  0.89904911747E+02 0.  0.
          2    1    3    3  502    0  0.14437143011E+03 -0.13754445309E+02 -0.13255833322E+02  0.14562970752E+03  0.00000000000E+00 0. -1.
         -1    1    3    3    0  502 -0.48292833177E+01 -0.19319123910E+01  0.14703906310E+02  0.15596766447E+02  0.00000000000E+00 0.  1.
         13    1    5    5    0    0  0.14944063437E+03 -0.38756141206E+03  0.23754046724E+03  0.47849955580E+03  0.00000000000E+00 0. -1.
        -13    1    5    5    0    0 -0.21901252917E+00  0.47403969342E+01  0.23743443229E+01  0.53063019651E+01  0.00000000000E+00 0.  1.
          1    1    6    6  503    0 -0.18613866215E+03  0.32130249491E+03  0.73456963449E+02  0.37852188875E+03  0.00000000000E+00 0. -1.
         -1    1    6    6    0  503 -0.10262510648E+03  0.77204877916E+02  0.39319364151E+02  0.13430755024E+03  0.00000000000E+00 0.  1.
<mgrwt>
<rscale>  0 0.11023744E+04</rscale>
<asrwt>0</asrwt>
<pdfrwt beam="1">  1        2 0.61824812E-01 0.11023744E+04</pdfrwt>
<pdfrwt beam="2">  1       -1 0.11630777E+00 0.11023744E+04</pdfrwt>
<totfact> 0.60065297E+01</totfact>
</mgrwt>
</event>
<event>
12    7  0.1711607E-007  0.2093167E+04  0.7818608E-02  0.8564260E-01
          2   -1    0    0  501    0  0.00000000000E+00  0.00000000000E+00  0.16731330647E+04  0.16731330647E+04  0.00000000000E+00 0. -1.
         -1   -1    0    0    0  501 -0.00000000000E+00 -0.00000000000E+00 -0.65466195337E+03  0.65466195337E+03  0.00000000000E+00 0.  1.
         24    2    1    2    0    0  0.80104273311E+02  0.11619379589E+03  0.13269300924E+04  0.13368247711E+04  0.80245284077E+02 0.  0.
        254    2    1    2    0    0 -0.80104273311E+02 -0.11619379589E+03 -0.30845898110E+03  0.99097024698E+03  0.93110546909E+03 0.  0.
         23    2    4    4    0    0 -0.25846495835E+03 -0.42952917710E+03 -0.34872093759E+03  0.61738860703E+03  0.90900776144E+02 0.  0.
         23    2    4    4    0    0  0.17836068504E+03  0.31333538121E+03  0.40261956493E+02  0.37358163995E+03  0.89166257512E+02 0.  0.
          2    1    3    3  502    0  0.74273662277E+02  0.92612788034E+02  0.74600695805E+03  0.75539399447E+03  0.00000000000E+00 0. -1.
         -1    1    3    3    0  502  0.58306110341E+01  0.23581007857E+02  0.58092313440E+03  0.58143077665E+03  0.00000000000E+00 0.  1.
         13    1    5    5    0    0 -0.18191987917E+03 -0.21713475296E+03 -0.18134704093E+03  0.33634668518E+03  0.00000000000E+00 0.  1.
        -13    1    5    5    0    0 -0.76545079182E+02 -0.21239442414E+03 -0.16737389666E+03  0.28104192185E+03  0.00000000000E+00 0. -1.
          2    1    6    6  503    0  0.26929408675E+02  0.13385712297E+03  0.12183422181E+02  0.13708157498E+03  0.00000000000E+00 0. -1.
         -2    1    6    6    0  503  0.15143127637E+03  0.17947825824E+03  0.28078534312E+02  0.23650006497E+03  0.00000000000E+00 0.  1.
<mgrwt>
<rscale>  0 0.20931666E+04</rscale>
<asrwt>0</asrwt>
<pdfrwt beam="1">  1        2 0.25740508E+00 0.20931666E+04</pdfrwt>
<pdfrwt beam="2">  1       -1 0.10071722E+00 0.20931666E+04</pdfrwt>
<totfact> 0.99945235E+00</totfact>
</mgrwt>
</event>
<event>
12    7  0.1711607E-007  0.1338668E+04  0.7818608E-02  0.8999451E-01
          2   -1    0    0  501    0  0.00000000000E+00  0.00000000000E+00  0.56242373105E+03  0.56242373105E+03  0.00000000000E+00 0. -1.
         -1   -1    0    0    0  501 -0.00000000000E+00 -0.00000000000E+00 -0.79656657599E+03  0.79656657599E+03  0.00000000000E+00 0.  1.
         24    2    1    2    0    0  0.15821634172E+03  0.44546930427E+01  0.26140721304E+03  0.31552749220E+03  0.78559609363E+02 0.  0.
        254    2    1    2    0    0 -0.15821634172E+03 -0.44546930427E+01 -0.49555005799E+03  0.10434628148E+04  0.90453995540E+03 0.  0.
         23    2    4    4    0    0 -0.12837876176E+03 -0.25935884760E+03 -0.65930289557E+03  0.72527588000E+03  0.87158910618E+02 0.  0.
         23    2    4    4    0    0 -0.29837579959E+02  0.25490415456E+03  0.16375283758E+03  0.31818693485E+03  0.92528506428E+02 0.  0.
          2    1    3    3  502    0  0.14859306914E+03 -0.13811428425E+02  0.25192392108E+03  0.29280764635E+03  0.00000000000E+00 0. -1.
         -1    1    3    3    0  502  0.96232725816E+01  0.18266121468E+02  0.94832919641E+01  0.22719845843E+02  0.00000000000E+00 0.  1.
         13    1    5    5    0    0 -0.10150686371E+03 -0.12755592446E+03 -0.42369465233E+03  0.45397281379E+03  0.00000000000E+00 0. -1.
        -13    1    5    5    0    0 -0.26871898056E+02 -0.13180292314E+03 -0.23560824324E+03  0.27130306621E+03  0.00000000000E+00 0.  1.
          3    1    6    6  503    0  0.16179126531E+02  0.20216595173E+03  0.12296694947E+03  0.23717863908E+03  0.00000000000E+00 0. -1.
         -3    1    6    6    0  503 -0.46016706490E+02  0.52738202828E+02  0.40785888104E+02  0.81008295762E+02  0.00000000000E+00 0.  1.
<mgrwt>
<rscale>  0 0.13386679E+04</rscale>
<asrwt>0</asrwt>
<pdfrwt beam="1">  1        2 0.86526728E-01 0.13386679E+04</pdfrwt>
<pdfrwt beam="2">  1       -1 0.12254870E+00 0.13386679E+04</pdfrwt>
<totfact> 0.35224353E+01</totfact>
</mgrwt>
</event>
<event>
12    7  0.1711607E-007  0.1543546E+04  0.7818608E-02  0.8856001E-01
          2   -1    0    0  501    0  0.00000000000E+00  0.00000000000E+00  0.13351795244E+04  0.13351795244E+04  0.00000000000E+00 0. -1.
         -1   -1    0    0    0  501 -0.00000000000E+00 -0.00000000000E+00 -0.44610721316E+03  0.44610721316E+03  0.00000000000E+00 0.  1.
         24    2    1    2    0    0  0.18446107817E+03 -0.42268308851E+03  0.52774717228E+03  0.70538713101E+03  0.79793759621E+02 0.  0.
        254    2    1    2    0    0 -0.18446107817E+03  0.42268308851E+03  0.36132513891E+03  0.10758996065E+04  0.90239527070E+03 0.  0.
         23    2    4    4    0    0  0.12460736108E+02  0.33211583044E+03  0.63085485717E+03  0.71835477165E+03  0.87175296752E+02 0.  0.
         23    2    4    4    0    0 -0.19692181428E+03  0.90567258075E+02 -0.26952971825E+03  0.35754483485E+03  0.90616834718E+02 0.  0.
          2    1    3    3  502    0  0.17053778380E+03 -0.35300332050E+03  0.48011254726E+03  0.61984073601E+03  0.00000000000E+00 0. -1.
         -1    1    3    3    0  502  0.13923294370E+02 -0.69679768012E+02  0.47634625024E+02  0.85546395000E+02  0.00000000000E+00 0.  1.
         13    1    5    5    0    0  0.23222557597E+02  0.22597526214E+03  0.50242799344E+03  0.55139640448E+03  0.00000000000E+00 0. -1.
        -13    1    5    5    0    0 -0.10761821489E+02  0.10614056829E+03  0.12842686372E+03  0.16695836716E+03  0.00000000000E+00 0.  1.
          4    1    6    6  503    0 -0.14886863304E+03  0.25550900713E+02 -0.20185816977E+03  0.25211394078E+03  0.00000000000E+00 0.  1.
         -4    1    6    6    0  503 -0.48053181241E+02  0.65016357362E+02 -0.67671548480E+02  0.10543089408E+03  0.00000000000E+00 0. -1.
<mgrwt>
<rscale>  0 0.15435456E+04</rscale>
<asrwt>0</asrwt>
<pdfrwt beam="1">  1        2 0.20541223E+00 0.15435456E+04</pdfrwt>
<pdfrwt beam="2">  1       -1 0.68631880E-01 0.15435456E+04</pdfrwt>
<totfact> 0.37195873E+01</totfact>
</mgrwt>
</event>
<event>
12    7  0.1711607E-007  0.1246677E+04  0.7818608E-02  0.9072954E-01
          2   -1    0    0  501    0  0.00000000000E+00  0.00000000000E+00  0.27217725428E+04  0.27217725428E+04  0.00000000000E+00 0. -1.
         -1   -1    0    0    0  501 -0.00000000000E+00 -0.00000000000E+00 -0.14275654305E+03  0.14275654305E+03  0.00000000000E+00 0.  1.
         24    2    1    2    0    0 -0.23011319965E+03  0.12296876834E+03  0.34600922972E+03  0.43949095066E+03  0.73188154944E+02 0.  0.
        254    2    1    2    0    0  0.23011319965E+03 -0.12296876834E+03  0.22330067700E+04  0.24250381352E+04  0.90907498011E+03 0.  0.
         23    2    4    4    0    0  0.55024780856E+03 -0.12383473929E+03  0.17292589577E+04  0.18211672132E+04  0.90585772603E+02 0.  0.
         23    2    4    4    0    0 -0.32013460891E+03  0.86597095200E+00  0.50374781233E+03  0.60387092197E+03  0.91713217431E+02 0.  0.
          4    1    3    3  502    0 -0.61378035940E+01 -0.23385129694E+00  0.41316378132E+02  0.41770449140E+02  0.00000000000E+00 0. -1.
         -3    1    3    3    0  502 -0.22397539606E+03  0.12320261964E+03  0.30469285158E+03  0.39772050152E+03  0.00000000000E+00 0.  1.
         13    1    5    5    0    0  0.22912857356E+03 -0.62420214236E+01  0.68194449828E+03  0.71943530966E+03  0.00000000000E+00 0.  1.
        -13    1    5    5    0    0  0.32111923500E+03 -0.11759271787E+03  0.10473144594E+04  0.11017319036E+04  0.00000000000E+00 0. -1.
          2    1    6    6  503    0 -0.14990348279E+02  0.16830825672E+02  0.68200948310E+02  0.71828661304E+02  0.00000000000E+00 0. -1.
         -2    1    6    6    0  503 -0.30514426063E+03 -0.15964854720E+02  0.43554686402E+03  0.53204226067E+03  0.00000000000E+00 0.  1.
<mgrwt>
<rscale>  0 0.12466769E+04</rscale>
<asrwt>0</asrwt>
<pdfrwt beam="1">  1        2 0.41873420E+00 0.12466769E+04</pdfrwt>
<pdfrwt beam="2">  1       -1 0.21962547E-01 0.12466769E+04</pdfrwt>
<totfact> 0.50875167E+01</totfact>
</mgrwt>
</event>
<event>
12    7  0.1711607E-007  0.2201404E+04  0.7818608E-02  0.8517844E-01
         -1   -1    0    0    0  501 -0.00000000000E+00  0.00000000000E+00  0.15070725718E+04  0.15070725718E+04  0.00000000000E+00 0.  1.
          2   -1    0    0  501    0  0.00000000000E+00 -0.00000000000E+00 -0.80390589089E+03  0.80390589089E+03  0.00000000000E+00 0. -1.
         24    2    1    2    0    0 -0.47528274046E+03  0.69922634086E+03  0.65945118694E+03  0.10751415381E+04  0.79008225995E+02 0.  0.
        254    2    1    2    0    0  0.47528274046E+03 -0.69922634086E+03  0.43715494015E+02  0.12358369247E+04  0.90031700020E+03 0.  0.
         23    2    4    4    0    0  0.64442585002E+03 -0.77371873099E+03 -0.42648598418E+02  0.10119552961E+04  0.91155183227E+02 0.  0.
         23    2    4    4    0    0 -0.16914310956E+03  0.74492390130E+02  0.86364092433E+02  0.22388162861E+03  0.92226457531E+02 0.  0.
          4    1    3    3  502    0 -0.20636818263E+02  0.65702882174E+02  0.43730342741E+02  0.81578734179E+02  0.00000000000E+00 0. -1.
         -1    1    3    3    0  502 -0.45464592220E+03  0.63352345868E+03  0.61572084420E+03  0.99356280388E+03  0.00000000000E+00 0.  1.
         13    1    5    5    0    0  0.43978114836E+03 -0.51143377734E+03  0.13088988826E+02  0.67464308244E+03  0.00000000000E+00 0.  1.
        -13    1    5    5    0    0  0.20464470167E+03 -0.26228495364E+03 -0.55737587244E+02  0.33731221362E+03  0.00000000000E+00 0. -1.
          3    1    6    6  503    0 -0.15521554450E+02 -0.13900652163E+02 -0.89087171830E+01  0.22660803713E+02  0.00000000000E+00 0. -1.
         -3    1    6    6    0  503 -0.15362155511E+03  0.88393042292E+02  0.95272809616E+02  0.20122082490E+03  0.00000000000E+00 0.  1.
<mgrwt>
<rscale>  0 0.22014037E+04</rscale>
<asrwt>0</asrwt>
<pdfrwt beam="1">  1        2 0.12367783E+00 0.22014037E+04</pdfrwt>
<pdfrwt beam="2">  1       -1 0.23185732E+00 0.22014037E+04</pdfrwt>
<totfact> 0.32740470E+00</totfact>
</mgrwt>
</event>
<event>
12    7  0.1711607E-007  0.1689581E+04  0.7818608E-02  0.8767329E-01
         -1   -1    0    0    0  501 -0.00000000000E+00  0.00000000000E+00  0.53975650531E+03  0.53975650531E+03  0.00000000000E+00 0.  1.
          2   -1    0    0  501    0  0.00000000000E+00 -0.00000000000E+00 -0.13222097510E+04  0.13222097510E+04  0.00000000000E+00 0. -1.
         24    2    1    2    0    0  0.54814733678E+03 -0.20256807190E+03 -0.43579923455E+03  0.73324563415E+03  0.78923130933E+02 0.  0.
        254    2    1    2    0    0 -0.54814733678E+03  0.20256807190E+03 -0.34665401117E+03  0.11287206222E+04  0.90130012368E+03 0.  0.
         23    2    4    4    0    0 -0.29218911680E+03  0.54610606271E+03 -0.13346661945E+03  0.64053344325E+03  0.94145853407E+02 0.  0.
         23    2    4    4    0    0 -0.25595821998E+03 -0.34353799081E+03 -0.21318739173E+03  0.48818717895E+03  0.96669003298E+02 0.  0.
          2    1    3    3  502    0  0.40724770648E+03 -0.13743187979E+03 -0.35921196008E+03  0.56015305791E+03  0.00000000000E+00 0. -1.
         -1    1    3    3    0  502  0.14089963030E+03 -0.65136192109E+02 -0.76587274471E+02  0.17309257624E+03  0.00000000000E+00 0.  1.
         13    1    5    5    0    0 -0.11679049890E+03  0.13159463912E+03 -0.48265699097E+02  0.18244656036E+03  0.00000000000E+00 0.  1.
        -13    1    5    5    0    0 -0.17539861790E+03  0.41451142359E+03 -0.85200920351E+02  0.45808688289E+03  0.00000000000E+00 0. -1.
          2    1    6    6  503    0 -0.13812884437E+03 -0.12401053527E+03 -0.12542915583E+03  0.22403272895E+03  0.00000000000E+00 0. -1.
         -2    1    6    6    0  503 -0.11782937561E+03 -0.21952745554E+03 -0.87758235893E+02  0.26415445001E+03  0.00000000000E+00 0.  1.
<mgrwt>
<rscale>  0 0.16895814E+04</rscale>
<asrwt>0</asrwt>
<pdfrwt beam="1">  1        2 0.20341688E+00 0.16895814E+04</pdfrwt>
<pdfrwt beam="2">  1       -1 0.83039464E-01 0.16895814E+04</pdfrwt>
<totfact> 0.25085731E+01</totfact>
</mgrwt>
</event>
<event>
12    7  0.1711607E-007  0.1582790E+04  0.7818608E-02  0.8831191E-01
          2   -1    0    0  501    0  0.00000000000E+00  0.00000000000E+00  0.11603383539E+04  0.11603383539E+04  0.00000000000E+00 0. -1.
         -1   -1    0    0    0  501 -0.00000000000E+00 -0.00000000000E+00 -0.53976164914E+03  0.53976164914E+03  0.00000000000E+00 0.  1.
         24    2    1    2    0    0  0.43640214199E+03  0.30046596957E+03  0.39286694472E+03  0.66447542185E+03  0.80352483327E+02 0.  0.
        254    2    1    2    0    0 -0.43640214199E+03 -0.30046596957E+03  0.22770976001E+03  0.10356245812E+04  0.86019759934E+03 0.  0.
         23    2    4    4    0    0  0.19648353197E+03 -0.26235493676E+03  0.20139013022E+03  0.39526687457E+03  0.90785606788E+02 0.  0.
         23    2    4    4    0    0 -0.63288567396E+03 -0.38111032810E+02  0.26319629790E+02  0.64035770660E+03  0.85840214128E+02 0.  0.
          2    1    3    3  502    0  0.17916511317E+03  0.97929541077E+02  0.11070080117E+03  0.23226062984E+03  0.00000000000E+00 0. -1.
         -3    1    3    3    0  502  0.25723702882E+03  0.20253642849E+03  0.28216614355E+03  0.43221479201E+03  0.00000000000E+00 0.  1.
         13    1    5    5    0    0  0.16843624738E+03 -0.19303147597E+03  0.19146401434E+03  0.31982868685E+03  0.00000000000E+00 0.  1.
        -13    1    5    5    0    0  0.28047284589E+02 -0.69323460793E+02  0.99261158837E+01  0.75438187715E+02  0.00000000000E+00 0. -1.
          3    1    6    6  503    0 -0.51874800256E+02  0.77233657557E+01  0.23658182111E+02  0.57535683371E+02  0.00000000000E+00 0. -1.
         -3    1    6    6    0  503 -0.58101087371E+03 -0.45834398566E+02  0.26614476783E+01  0.58282202323E+03  0.00000000000E+00 0.  1.
<mgrwt>
<rscale>  0 0.15827901E+04</rscale>
<asrwt>0</asrwt>
<pdfrwt beam="1">  1        2 0.17851359E+00 0.15827901E+04</pdfrwt>
<pdfrwt beam="2">  1       -1 0.83040254E-01 0.15827901E+04</pdfrwt>
<totfact> 0.31557684E+01</totfact>
</mgrwt>
</event>
<event>
12    7  0.1711607E-007  0.1987189E+04  0.7818608E-02  0.8612634E-01
         -1   -1    0    0    0  501 -0.00000000000E+00  0.00000000000E+00  0.51391949443E+03  0.51391949443E+03  0.00000000000E+00 0.  1.
          2   -1    0    0  501    0  0.00000000000E+00 -0.00000000000E+00 -0.19209813171E+04  0.19209813171E+04  0.00000000000E+00 0. -1.
         24    2    1    2    0    0  0.66571883861E+03 -0.23561020110E+03 -0.13482130832E+03  0.72322860874E+03  0.78670810230E+02 0.  0.
        254    2    1    2    0    0 -0.66571883861E+03  0.23561020110E+03 -0.12722405144E+04  0.17116722028E+04  0.90140560488E+03 0.  0.
         23    2    4    4    0    0 -0.32233737061E+03  0.44373235163E+03 -0.11581130662E+04  0.12846323567E+04  0.90855034638E+02 0.  0.
         23    2    4    4    0    0 -0.34338146800E+03 -0.20812215053E+03 -0.11412744813E+03  0.42703984610E+03  0.90068272084E+02 0.  0.
          4    1    3    3  502    0  0.11915598705E+03 -0.73634658164E+02 -0.16743240467E+02  0.14106930295E+03  0.00000000000E+00 0. -1.
         -3    1    3    3    0  502  0.54656285156E+03 -0.16197554294E+03 -0.11807806785E+03  0.58215930579E+03  0.00000000000E+00 0.  1.
         13    1    5    5    0    0 -0.21747376608E+03  0.36449932848E+03 -0.87699789728E+03  0.97430996671E+03  0.00000000000E+00 0.  1.
        -13    1    5    5    0    0 -0.10486360453E+03  0.79233023156E+02 -0.28111516896E+03  0.31032238999E+03  0.00000000000E+00 0. -1.
          2    1    6    6  503    0 -0.28330970061E+02 -0.30897073834E+02  0.12952971675E+02  0.43875420355E+02  0.00000000000E+00 0. -1.
         -2    1    6    6    0  503 -0.31505049794E+03 -0.17722507670E+03 -0.12708041980E+03  0.38316442575E+03  0.00000000000E+00 0.  1.
<mgrwt>
<rscale>  0 0.19871887E+04</rscale>
<asrwt>0</asrwt>
<pdfrwt beam="1">  1        2 0.29553559E+00 0.19871887E+04</pdfrwt>
<pdfrwt beam="2">  1       -1 0.79064536E-01 0.19871887E+04</pdfrwt>
<totfact> 0.12520493E+01</totfact>
</mgrwt>
</event>
<event>
12    7  0.1711607E-007  0.2868341E+04  0.7818608E-02  0.8282360E-01
         -1   -1    0    0    0  501 -0.00000000000E+00  0.00000000000E+00  0.12331114692E+04  0.12331114692E+04  0.00000000000E+00 0.  1.
          2   -1    0    0  501    0  0.00000000000E+00 -0.00000000000E+00 -0.16680127410E+04  0.16680127410E+04  0.00000000000E+00 0. -1.
         24    2    1    2    0    0  0.95504269958E+03  0.70366945381E+02 -0.10739297685E+04  0.14411144252E+04  0.80172151599E+02 0.  0.
        254    2    1    2    0    0 -0.95504269958E+03 -0.70366945381E+02  0.63902849672E+03  0.14600097850E+04  0.89789369512E+03 0.  0.
         23    2    4    4    0    0 -0.93687277819E+03 -0.36022187798E+03  0.49844518939E+03  0.11243305054E+04  0.90449293614E+02 0.  0.
         23    2    4    4    0    0 -0.18169921389E+02  0.28985493260E+03  0.14058330733E+03  0.33567927960E+03  0.92579071394E+02 0.  0.
          4    1    3    3  502    0  0.92284295907E+03  0.62582889876E+02 -0.10129885327E+04  0.13717512575E+04  0.00000000000E+00 0. -1.
         -3    1    3    3    0  502  0.32199740509E+02  0.77840555051E+01 -0.60941235780E+02  0.69363167657E+02  0.00000000000E+00 0.  1.
         13    1    5    5    0    0 -0.77245506287E+03 -0.31882138257E+03  0.44375827998E+03  0.94617932190E+03  0.00000000000E+00 0.  1.
        -13    1    5    5    0    0 -0.16441771531E+03 -0.41400495410E+02  0.54686909407E+02  0.17815118352E+03  0.00000000000E+00 0. -1.
          4    1    6    6  503    0 -0.27584297093E+02  0.93246292953E+02  0.63835572594E+01  0.97450061051E+02  0.00000000000E+00 0. -1.
         -4    1    6    6    0  503  0.94143757038E+01  0.19660863965E+03  0.13419975007E+03  0.23822921855E+03  0.00000000000E+00 0.  1.
<mgrwt>
<rscale>  0 0.28683414E+04</rscale>
<asrwt>0</asrwt>
<pdfrwt beam="1">  1        2 0.25661734E+00 0.28683414E+04</pdfrwt>
<pdfrwt beam="2">  1       -1 0.18970946E+00 0.28683414E+04</pdfrwt>
<totfact> 0.17868587E+00</totfact>
</mgrwt>
</event>
<event>
12    7  0.1711607E-007  0.1478870E+04  0.7818608E-02  0.8898627E-01
          2   -1    0    0  501    0  0.00000000000E+00  0.00000000000E+00  0.30602213588E+04  0.30602213588E+04  0.00000000000E+00 0. -1.
         -1   -1    0    0    0  501 -0.00000000000E+00 -0.00000000000E+00 -0.17866821848E+03  0.17866821848E+03  0.00000000000E+00 0.  1.
         24    2    1    2    0    0 -0.15112870419E+03  0.91326124689E+02  0.18589564770E+04  0.18690339311E+04  0.79926878486E+02 0.  0.
        254    2    1    2    0    0  0.15112870419E+03 -0.91326124689E+02  0.10225966633E+04  0.13698556462E+04  0.89421485634E+03 0.  0.
         23    2    4    4    0    0  0.39452324034E+03 -0.12493749319E+02  0.10208285975E+04  0.10982522463E+04  0.90897139863E+02 0.  0.
         23    2    4    4    0    0 -0.24339453615E+03 -0.78832375370E+02  0.17680658096E+01  0.27160339991E+03  0.91158308195E+02 0.  0.
          4    1    3    3  502    0 -0.13999525638E+03  0.96650173944E+02  0.18248709597E+04  0.18327831152E+04  0.00000000000E+00 0. -1.
         -3    1    3    3    0  502 -0.11133447809E+02 -0.53240492553E+01  0.34085517303E+02  0.36250815858E+02  0.00000000000E+00 0.  1.
         13    1    5    5    0    0  0.48761404959E+02  0.29038352777E+02  0.14922653435E+03  0.15965418598E+03  0.00000000000E+00 0. -1.
        -13    1    5    5    0    0  0.34576183538E+03 -0.41532102096E+02  0.87160206315E+03  0.93859806030E+03  0.00000000000E+00 0.  1.
          4    1    6    6  503    0 -0.19824751342E+03 -0.32748709004E+02  0.26166173865E+02  0.20263075574E+03  0.00000000000E+00 0.  1.
         -4    1    6    6    0  503 -0.45147022736E+02 -0.46083666366E+02 -0.24398108056E+02  0.68972644174E+02  0.00000000000E+00 0. -1.
<mgrwt>
<rscale>  0 0.14788702E+04</rscale>
<asrwt>0</asrwt>
<pdfrwt beam="1">  1        2 0.47080325E+00 0.14788702E+04</pdfrwt>
<pdfrwt beam="2">  1       -1 0.27487420E-01 0.14788702E+04</pdfrwt>
<totfact> 0.21079105E+01</totfact>
</mgrwt>
</event>
<event>
12    7  0.1711607E-007  0.1524238E+04  0.7818608E-02  0.8868493E-01
         -1   -1    0    0    0  501 -0.00000000000E+00  0.00000000000E+00  0.42652004845E+03  0.42652004845E+03  0.00000000000E+00 0.  1.
          2   -1    0    0  501    0  0.00000000000E+00 -0.00000000000E+00 -0.13617780215E+04  0.13617780215E+04  0.00000000000E+00 0. -1.
         24    2    1    2    0    0  0.28930366189E+03 -0.42763662742E+03 -0.52744313815E+03  0.74210973427E+03  0.77206863811E+02 0.  0.
        254    2    1    2    0    0 -0.28930366189E+03  0.42763662742E+03 -0.40781483487E+03  0.10461883356E+04  0.81340481938E+03 0.  0.
         23    2    4    4    0    0 -0.33682323306E+03  0.47765153700E+03 -0.58963891114E+03  0.83505461411E+03  0.89673194907E+02 0.  0.
         23    2    4    4    0    0  0.47519571175E+02 -0.50014909578E+02  0.18182407627E+03  0.21113372153E+03  0.82206160534E+02 0.  0.
          2    1    3    3  502    0  0.18175213468E+03 -0.25954126879E+03 -0.37531320676E+03  0.49117767848E+03  0.00000000000E+00 0. -1.
         -3    1    3    3    0  502  0.10755152720E+03 -0.16809535863E+03 -0.15212993138E+03  0.25093205579E+03  0.00000000000E+00 0.  1.
         13    1    5    5    0    0 -0.22002794647E+03  0.28832199955E+03 -0.42241430144E+03  0.55675462702E+03  0.00000000000E+00 0. -1.
        -13    1    5    5    0    0 -0.11679528660E+03  0.18932953745E+03 -0.16722460970E+03  0.27829998709E+03  0.00000000000E+00 0.  1.
          4    1    6    6  503    0  0.56407058795E+02 -0.52140070438E+02  0.18588743125E+03  0.20113299163E+03  0.00000000000E+00 0. -1.
         -4    1    6    6    0  503 -0.88874876207E+01  0.21251608604E+01 -0.40633549720E+01  0.10000729899E+02  0.00000000000E+00 0.  1.
<mgrwt>
<rscale>  0 0.15242383E+04</rscale>
<asrwt>0</asrwt>
<pdfrwt beam="1">  1        2 0.20950431E+00 0.15242383E+04</pdfrwt>
<pdfrwt beam="2">  1       -1 0.65618469E-01 0.15242383E+04</pdfrwt>
<totfact> 0.39391384E+01</totfact>
</mgrwt>
</event>
<event>
12    7  0.1711607E-007  0.2331185E+04  0.7818608E-02  0.8465726E-01
         -1   -1    0    0    0  501 -0.00000000000E+00  0.00000000000E+00  0.65831107347E+03  0.65831107347E+03  0.00000000000E+00 0.  1.
          2   -1    0    0  501    0  0.00000000000E+00 -0.00000000000E+00 -0.20637742087E+04  0.20637742087E+04  0.00000000000E+00 0. -1.
         24    2    1    2    0    0  0.50967363330E+03  0.37738412521E+03  0.29302308775E+03  0.70305734937E+03  0.79000734831E+02 0.  0.
        254    2    1    2    0    0 -0.50967363330E+03 -0.37738412521E+03 -0.16984862230E+04  0.20190279328E+04  0.88850005817E+03 0.  0.
         23    2    4    4    0    0 -0.34979053193E+03 -0.65508114813E+03 -0.10386024232E+04  0.12809432125E+04  0.10312998308E+03 0.  0.
         23    2    4    4    0    0 -0.15988310136E+03  0.27769702292E+03 -0.65988379982E+03  0.73808472030E+03  0.81511854624E+02 0.  0.
          4    1    3    3  502    0  0.18450801607E+03  0.16110906291E+03  0.76980667305E+02  0.25675934508E+03  0.00000000000E+00 0. -1.
         -3    1    3    3    0  502  0.32516561722E+03  0.21627506230E+03  0.21604242045E+03  0.44629800429E+03  0.00000000000E+00 0.  1.
         13    1    5    5    0    0 -0.31702519019E+03 -0.55151837708E+03 -0.82987329822E+03  0.10456419954E+04  0.00000000000E+00 0.  1.
        -13    1    5    5    0    0 -0.32765341738E+02 -0.10356277105E+03 -0.20872912496E+03  0.23530121711E+03  0.00000000000E+00 0. -1.
          1    1    6    6  503    0 -0.32331929644E+02  0.10816032796E+02 -0.84580041449E+02  0.91192782891E+02  0.00000000000E+00 0. -1.
         -1    1    6    6    0  503 -0.12755117172E+03  0.26688099012E+03 -0.57530375837E+03  0.64689193741E+03  0.00000000000E+00 0.  1.
<mgrwt>
<rscale>  0 0.23311846E+04</rscale>
<asrwt>0</asrwt>
<pdfrwt beam="1">  1        2 0.31750372E+00 0.23311846E+04</pdfrwt>
<pdfrwt beam="2">  1       -1 0.10127863E+00 0.23311846E+04</pdfrwt>
<totfact> 0.58639048E+00</totfact>
</mgrwt>
</event>
<event>
12    7  0.1711607E-007  0.1275934E+04  0.7818608E-02  0.9048870E-01
          2   -1    0    0  501    0  0.00000000000E+00  0.00000000000E+00  0.86459580463E+03  0.86459580463E+03  0.00000000000E+00 0. -1.
         -1   -1    0    0    0  501 -0.00000000000E+00 -0.00000000000E+00 -0.47074260008E+03  0.47074260008E+03  0.00000000000E+00 0.  1.
         24    2    1    2    0    0  0.31640048249E+01 -0.17352987391E+03  0.39999566412E+03  0.44357467910E+03  0.81482124145E+02 0.  0.
        254    2    1    2    0    0 -0.31640048249E+01  0.17352987391E+03 -0.61424595836E+01  0.89176372561E+03  0.87468976468E+03 0.  0.
         23    2    4    4    0    0  0.40213298197E+03  0.20677081436E+03 -0.79608345599E+02  0.46856021060E+03  0.93520465225E+02 0.  0.
         23    2    4    4    0    0 -0.40529698679E+03 -0.33240940444E+02  0.73465886016E+02  0.42320351500E+03  0.91287299650E+02 0.  0.
          2    1    3    3  502    0 -0.14298368229E+02 -0.15924128619E+03  0.38388988721E+03  0.41585295005E+03  0.00000000000E+00 0. -1.
         -1    1    3    3    0  502  0.17462373053E+02 -0.14288587718E+02  0.16105776915E+02  0.27721729053E+02  0.00000000000E+00 0.  1.
         13    1    5    5    0    0  0.28188073323E+03  0.10510084454E+03 -0.79200372313E+02  0.31108782404E+03  0.00000000000E+00 0. -1.
        -13    1    5    5    0    0  0.12025224874E+03  0.10166996981E+03 -0.40797328613E+00  0.15747238656E+03  0.00000000000E+00 0.  1.
          1    1    6    6  503    0 -0.33319028536E+03 -0.38217701712E+00  0.83051306023E+02  0.34338525266E+03  0.00000000000E+00 0. -1.
         -1    1    6    6    0  503 -0.72106701437E+02 -0.32858763427E+02 -0.95854200070E+01  0.79818262339E+02  0.00000000000E+00 0.  1.
<mgrwt>
<rscale>  0 0.12759343E+04</rscale>
<asrwt>0</asrwt>
<pdfrwt beam="1">  1        2 0.13301474E+00 0.12759343E+04</pdfrwt>
<pdfrwt beam="2">  1       -1 0.72421938E-01 0.12759343E+04</pdfrwt>
<totfact> 0.66839002E+01</totfact>
</mgrwt>
</event>
<event>
12    7  0.1711607E-007  0.2218536E+04  0.7818608E-02  0.8510752E-01
          2   -1    0    0  501    0  0.00000000000E+00  0.00000000000E+00  0.16060731295E+04  0.16060731295E+04  0.00000000000E+00 0. -1.
         -1   -1    0    0    0  501 -0.00000000000E+00 -0.00000000000E+00 -0.76613931012E+03  0.76613931012E+03  0.00000000000E+00 0.  1.
         24    2    1    2    0    0 -0.60487167057E+03  0.67215785844E+03  0.20516952827E+03  0.93058703637E+03  0.78941575862E+02 0.  0.
        254    2    1    2    0    0  0.60487167057E+03 -0.67215785844E+03  0.63476429113E+03  0.14416254033E+04  0.92611671702E+03 0.  0.
         23    2    4    4    0    0  0.23219984951E+03 -0.78445819405E+03  0.63894533573E+03  0.10420274481E+04  0.90986989678E+02 0.  0.
         23    2    4    4    0    0  0.37267182107E+03  0.11230033562E+03 -0.41810445977E+01  0.39959795514E+03  0.90362564255E+02 0.  0.
          4    1    3    3  502    0 -0.59850020847E+03  0.67175405578E+03  0.20827074348E+03  0.92348942256E+03  0.00000000000E+00 0. -1.
         -3    1    3    3    0  502 -0.63714621054E+01  0.40380265954E+00 -0.31012152107E+01  0.70976138055E+01  0.00000000000E+00 0.  1.
         13    1    5    5    0    0  0.22405473042E+03 -0.63704758652E+03  0.51516073004E+03  0.84936489655E+03  0.00000000000E+00 0.  1.
        -13    1    5    5    0    0  0.81451190860E+01 -0.14741060754E+03  0.12378460569E+03  0.19266255159E+03  0.00000000000E+00 0. -1.
          1    1    6    6  503    0  0.30454773834E+02  0.35840383064E+02  0.12106359807E+02  0.48565319470E+02  0.00000000000E+00 0. -1.
         -1    1    6    6    0  503  0.34221704723E+03  0.76459952551E+02 -0.16287404404E+02  0.35103263567E+03  0.00000000000E+00 0.  1.
<mgrwt>
<rscale>  0 0.22185362E+04</rscale>
<asrwt>0</asrwt>
<pdfrwt beam="1">  1        2 0.24708817E+00 0.22185362E+04</pdfrwt>
<pdfrwt beam="2">  1       -1 0.11786759E+00 0.22185362E+04</pdfrwt>
<totfact> 0.74392970E+00</totfact>
</mgrwt>
</event>
<event>
12    7  0.1711607E-007  0.2126577E+04  0.7818608E-02  0.8549625E-01
          2   -1    0    0  501    0  0.00000000000E+00  0.00000000000E+00  0.29214918500E+04  0.29214918500E+04  0.00000000000E+00 0. -1.
         -1   -1    0    0    0  501 -0.00000000000E+00 -0.00000000000E+00 -0.38698813397E+03  0.38698813397E+03  0.00000000000E+00 0.  1.
         24    2    1    2    0    0  0.13327288699E+03  0.64734899998E+03  0.15975722302E+03  0.68462809983E+03  0.79817758566E+02 0.  0.
        254    2    1    2    0    0 -0.13327288699E+03 -0.64734899998E+03  0.23747464930E+04  0.26238518841E+04  0.89908587666E+03 0.  0.
         23    2    4    4    0    0 -0.49620339454E+03 -0.38937052229E+03  0.16441912739E+04  0.17633184429E+04  0.89998741228E+02 0.  0.
         23    2    4    4    0    0  0.36293050755E+03 -0.25797847769E+03  0.73055521907E+03  0.86053344122E+03  0.92387375128E+02 0.  0.
          4    1    3    3  502    0  0.83919495884E+02  0.22536227906E+03  0.46588484858E+02  0.24495127176E+03  0.00000000000E+00 0. -1.
         -3    1    3    3    0  502  0.49353391108E+02  0.42198672092E+03  0.11316873816E+03  0.43967682807E+03  0.00000000000E+00 0.  1.
         13    1    5    5    0    0 -0.26847553509E+03 -0.18939428072E+03  0.97019501132E+03  0.10243181471E+04  0.00000000000E+00 0.  1.
        -13    1    5    5    0    0 -0.22772785945E+03 -0.19997624158E+03  0.67399626259E+03  0.73900029577E+03  0.00000000000E+00 0. -1.
          1    1    6    6  503    0  0.32293283239E+03 -0.22768702673E+03  0.57971188479E+03  0.70156458416E+03  0.00000000000E+00 0.  1.
         -1    1    6    6    0  503  0.39997675167E+02 -0.30291450965E+02  0.15084333428E+03  0.15896885706E+03  0.00000000000E+00 0. -1.
<mgrwt>
<rscale>  0 0.21265772E+04</rscale>
<asrwt>0</asrwt>
<pdfrwt beam="1">  1        2 0.44946027E+00 0.21265772E+04</pdfrwt>
<pdfrwt beam="2">  1       -1 0.59536638E-01 0.21265772E+04</pdfrwt>
<totfact> 0.58400968E+00</totfact>
</mgrwt>
</event>
<event>
12    7  0.1711607E-007  0.1304686E+04  0.7818608E-02  0.9025858E-01
         -1   -1    0    0    0  501 -0.00000000000E+00  0.00000000000E+00  0.39995427660E+03  0.39995427660E+03  0.00000000000E+00 0.  1.
          2   -1    0    0  501    0  0.00000000000E+00 -0.00000000000E+00 -0.10639993684E+04  0.10639993684E+04  0.00000000000E+00 0. -1.
         24    2    1    2    0    0  0.28115062226E+03 -0.17806914564E+03 -0.20154997524E+03  0.39706595624E+03  0.79276024515E+02 0.  0.
        254    2    1    2    0    0 -0.28115062226E+03  0.17806914564E+03 -0.46249511661E+03  0.10668876888E+04  0.90199407681E+03 0.  0.
         23    2    4    4    0    0  0.79026921595E+02 -0.25681840928E+02  0.22681933268E+03  0.25800978788E+03  0.90648936444E+02 0.  0.
         23    2    4    4    0    0 -0.36017754385E+03  0.20375098657E+03 -0.68931444928E+03  0.80887790091E+03  0.88807212375E+02 0.  0.
          2    1    3    3  502    0  0.17035965478E+03 -0.71386431436E+02 -0.13836539201E+03  0.23078868317E+03  0.00000000000E+00 0. -1.
         -1    1    3    3    0  502  0.11079096748E+03 -0.10668271420E+03 -0.63184583223E+02  0.16627727307E+03  0.00000000000E+00 0.  1.
         13    1    5    5    0    0  0.32514190918E+02 -0.57095775388E+02  0.10469002476E+03  0.12360057225E+03  0.00000000000E+00 0.  1.
        -13    1    5    5    0    0  0.46512730677E+02  0.31413934460E+02  0.12212930792E+03  0.13440921563E+03  0.00000000000E+00 0. -1.
          1    1    6    6  503    0 -0.28167856390E+03  0.15809467705E+03 -0.60046137267E+03  0.68182886441E+03  0.00000000000E+00 0. -1.
         -1    1    6    6    0  503 -0.78498979957E+02  0.45656309513E+02 -0.88853076608E+02  0.12704903650E+03  0.00000000000E+00 0.  1.
<mgrwt>
<rscale>  0 0.13046856E+04</rscale>
<asrwt>0</asrwt>
<pdfrwt beam="1">  1        2 0.16369221E+00 0.13046856E+04</pdfrwt>
<pdfrwt beam="2">  1       -1 0.61531428E-01 0.13046856E+04</pdfrwt>
<totfact> 0.68679529E+01</totfact>
</mgrwt>
</event>
<event>
12    7  0.1711607E-007  0.2563589E+04  0.7818608E-02  0.8380676E-01
          2   -1    0    0  501    0  0.00000000000E+00  0.00000000000E+00  0.46091773076E+04  0.46091773076E+04  0.00000000000E+00 0. -1.
         -1   -1    0    0    0  501 -0.00000000000E+00 -0.00000000000E+00 -0.35646199731E+03  0.35646199731E+03  0.00000000000E+00 0.  1.
         24    2    1    2    0    0 -0.82770323814E+03 -0.70893108334E+03  0.13463737130E+04  0.17340278210E+04  0.80339140006E+02 0.  0.
        254    2    1    2    0    0  0.82770323814E+03  0.70893108334E+03  0.29063415973E+04  0.32316114840E+04  0.89934163244E+03 0.  0.
         23    2    4    4    0    0  0.91170752578E+03  0.67911005648E+03  0.18902236558E+04  0.22074870406E+04  0.87478476203E+02 0.  0.
         23    2    4    4    0    0 -0.84004287640E+02  0.29821026858E+02  0.10161179415E+04  0.10241244434E+04  0.91592525106E+02 0.  0.
          4    1    3    3  502    0 -0.28272492659E+03 -0.23772953341E+03  0.51763402875E+03  0.63591957266E+03  0.00000000000E+00 0. -1.
         -3    1    3    3    0  502 -0.54497831154E+03 -0.47120154993E+03  0.82873968429E+03  0.10981082483E+04  0.00000000000E+00 0.  1.
         13    1    5    5    0    0  0.58672648636E+03  0.47404217943E+03  0.13071776812E+04  0.15091976172E+04  0.00000000000E+00 0.  1.
        -13    1    5    5    0    0  0.32498103941E+03  0.20506787706E+03  0.58304597469E+03  0.69828942336E+03  0.00000000000E+00 0. -1.
          3    1    6    6  503    0 -0.74769359022E+00  0.40426990243E+02  0.22876610439E+03  0.23231192631E+03  0.00000000000E+00 0. -1.
         -3    1    6    6    0  503 -0.83256594050E+02 -0.10605963384E+02  0.78735183706E+03  0.79181251710E+03  0.00000000000E+00 0.  1.
<mgrwt>
<rscale>  0 0.25635885E+04</rscale>
<asrwt>0</asrwt>
<pdfrwt beam="1">  1        2 0.70910416E+00 0.25635885E+04</pdfrwt>
<pdfrwt beam="2">  1       -1 0.54840311E-01 0.25635885E+04</pdfrwt>
<totfact> 0.32595737E-01</totfact>
</mgrwt>
</event>
<event>
12    7  0.1892146E-007  0.3639938E+04  0.7818608E-02  0.8081404E-01
         -1   -1    0    0    0  501 -0.00000000000E+00  0.00000000000E+00  0.20838386695E+04  0.20838386695E+04  0.00000000000E+00 0.  1.
          2   -1    0    0  501    0  0.00000000000E+00 -0.00000000000E+00 -0.15895122003E+04  0.15895122003E+04  0.00000000000E+00 0. -1.
         24    2    1    2    0    0  0.87791067791E+03  0.14480712919E+04  0.36016037492E+02  0.16956427045E+04  0.79179552624E+02 0.  0.
        254    2    1    2    0    0 -0.87791067791E+03 -0.14480712919E+04  0.45831043168E+03  0.19777081653E+04  0.91304080433E+03 0.  0.
         23    2    4    4    0    0 -0.21621365782E+03 -0.71136040251E+03  0.61730080490E+03  0.97061204940E+03  0.90804727961E+02 0.  0.
         23    2    4    4    0    0 -0.66169702008E+03 -0.73671088942E+03 -0.15899037321E+03  0.10070961159E+04  0.91535604529E+02 0.  0.
          2    1    3    3  502    0  0.77110448209E+03  0.12866448835E+04  0.55916507429E+02  0.15010609029E+04  0.00000000000E+00 0. -1.
         -1    1    3    3    0  502  0.10680619582E+03  0.16142640844E+03 -0.19900469937E+02  0.19458180159E+03  0.00000000000E+00 0.  1.
         13    1    5    5    0    0 -0.21329213110E+02 -0.42340969026E+02  0.15472039566E+02  0.49870602546E+02  0.00000000000E+00 0. -1.
        -13    1    5    5    0    0 -0.19488444471E+03 -0.66901943349E+03  0.60182876533E+03  0.92074144685E+03  0.00000000000E+00 0.  1.
          2    1    6    6  503    0 -0.30230180166E+02 -0.69504338314E+02 -0.14003561885E+02  0.77076692863E+02  0.00000000000E+00 0. -1.
         -2    1    6    6    0  503 -0.63146683992E+03 -0.66720655111E+03 -0.14498681133E+03  0.93001942303E+03  0.00000000000E+00 0.  1.
<mgrwt>
<rscale>  0 0.36399379E+04</rscale>
<asrwt>0</asrwt>
<pdfrwt beam="1">  1        2 0.24454034E+00 0.36399379E+04</pdfrwt>
<pdfrwt beam="2">  1       -1 0.32059057E+00 0.36399379E+04</pdfrwt>
<totfact> 0.25355104E-01</totfact>
</mgrwt>
</event>
<event>
12    7  0.1711607E-007  0.1848598E+04  0.7818608E-02  0.8680874E-01
          2   -1    0    0  501    0  0.00000000000E+00  0.00000000000E+00  0.94483938523E+03  0.94483938523E+03  0.00000000000E+00 0. -1.
         -1   -1    0    0    0  501 -0.00000000000E+00 -0.00000000000E+00 -0.90420551456E+03  0.90420551456E+03  0.00000000000E+00 0.  1.
         24    2    1    2    0    0  0.15289354600E+03 -0.35031966579E+03  0.60640164477E+03  0.72134558808E+03  0.80722970805E+02 0.  0.
        254    2    1    2    0    0 -0.15289354600E+03  0.35031966579E+03 -0.56576777410E+03  0.11276993117E+04  0.89750334750E+03 0.  0.
         23    2    4    4    0    0 -0.18219946911E+03 -0.10265615405E+03 -0.62047539725E+03  0.66173347437E+03  0.95742049272E+02 0.  0.
         23    2    4    4    0    0  0.29305923115E+02  0.45297581985E+03  0.54707623150E+02  0.46596583734E+03  0.89918335425E+02 0.  0.
          2    1    3    3  502    0  0.11773615534E+03 -0.17414297221E+03  0.34990843732E+03  0.40819540854E+03  0.00000000000E+00 0. -1.
         -1    1    3    3    0  502  0.35157390654E+02 -0.17617669358E+03  0.25649320745E+03  0.31315017954E+03  0.00000000000E+00 0.  1.
         13    1    5    5    0    0 -0.11695379699E+03 -0.42873692950E+02 -0.47841346811E+03  0.49436402645E+03  0.00000000000E+00 0. -1.
        -13    1    5    5    0    0 -0.65245672124E+02 -0.59782461102E+02 -0.14206192914E+03  0.16736944792E+03  0.00000000000E+00 0.  1.
          1    1    6    6  503    0  0.60275023965E+02  0.30543936508E+03  0.48512122817E+02  0.31508682980E+03  0.00000000000E+00 0. -1.
         -1    1    6    6    0  503 -0.30969100849E+02  0.14753645476E+03  0.61955003333E+01  0.15087900754E+03  0.00000000000E+00 0.  1.
<mgrwt>
<rscale>  0 0.18485984E+04</rscale>
<asrwt>0</asrwt>
<pdfrwt beam="1">  1        2 0.14535991E+00 0.18485984E+04</pdfrwt>
<pdfrwt beam="2">  1       -1 0.13910854E+00 0.18485984E+04</pdfrwt>
<totfact> 0.12515665E+01</totfact>
</mgrwt>
</event>
<event>
12    7  0.1711607E-007  0.2041366E+04  0.7818608E-02  0.8587521E-01
          2   -1    0    0  501    0  0.00000000000E+00  0.00000000000E+00  0.35777044507E+04  0.35777044507E+04  0.00000000000E+00 0. -1.
         -1   -1    0    0    0  501 -0.00000000000E+00 -0.00000000000E+00 -0.29119057044E+03  0.29119057044E+03  0.00000000000E+00 0.  1.
         24    2    1    2    0    0 -0.79780316979E+03 -0.17319591035E+03  0.15095887577E+04  0.17181288301E+04  0.81374064051E+02 0.  0.
        254    2    1    2    0    0  0.79780316979E+03  0.17319591035E+03  0.17769251225E+04  0.21507661910E+04  0.89545831635E+03 0.  0.
         23    2    4    4    0    0  0.29587567182E+03 -0.20894098148E+03  0.14571806847E+03  0.39939208113E+03  0.84151839390E+02 0.  0.
         23    2    4    4    0    0  0.50192749797E+03  0.38213689183E+03  0.16312070540E+04  0.17513741099E+04  0.92276770256E+02 0.  0.
          4    1    3    3  502    0 -0.75331678019E+03 -0.16576527079E+03  0.13803123200E+04  0.15812104215E+04  0.00000000000E+00 0. -1.
         -3    1    3    3    0  502 -0.44486389597E+02 -0.74306395585E+01  0.12927643773E+03  0.13691840861E+03  0.00000000000E+00 0.  1.
         13    1    5    5    0    0  0.21204073244E+03 -0.18605586403E+03  0.89760284518E+02  0.29603203447E+03  0.00000000000E+00 0. -1.
        -13    1    5    5    0    0  0.83834939374E+02 -0.22885117456E+02  0.55957783954E+02  0.10336004666E+03  0.00000000000E+00 0.  1.
          4    1    6    6  503    0  0.47824964049E+03  0.37936101371E+03  0.15274549612E+04  0.16449182824E+04  0.00000000000E+00 0. -1.
         -4    1    6    6    0  503  0.23677857486E+02  0.27758781277E+01  0.10375209279E+03  0.10645582743E+03  0.00000000000E+00 0.  1.
<mgrwt>
<rscale>  0 0.20413660E+04</rscale>
<asrwt>0</asrwt>
<pdfrwt beam="1">  1        2 0.55041604E+00 0.20413660E+04</pdfrwt>
<pdfrwt beam="2">  1       -1 0.44798552E-01 0.20413660E+04</pdfrwt>
<totfact> 0.37496195E+00</totfact>
</mgrwt>
</event>
<event>
12    7  0.1711607E-007  0.2118049E+04  0.7818608E-02  0.8553334E-01
         -1   -1    0    0    0  501 -0.00000000000E+00  0.00000000000E+00  0.45891697014E+03  0.45891697014E+03  0.00000000000E+00 0.  1.
          2   -1    0    0  501    0  0.00000000000E+00 -0.00000000000E+00 -0.24438679328E+04  0.24438679328E+04  0.00000000000E+00 0. -1.
         24    2    1    2    0    0  0.32639422087E+02 -0.33141615889E+03 -0.19134581979E+04  0.19439221705E+04  0.81296540521E+02 0.  0.
        254    2    1    2    0    0 -0.32639422087E+02  0.33141615889E+03 -0.71492764717E+02  0.95886273242E+03  0.89632835611E+03 0.  0.
         23    2    4    4    0    0  0.11201258889E+03  0.49018534283E+03  0.24423975553E+03  0.56625020571E+03  0.90320246259E+02 0.  0.
         23    2    4    4    0    0 -0.14465201098E+03 -0.15876918394E+03 -0.31573252025E+03  0.39261252671E+03  0.91245349134E+02 0.  0.
          4    1    3    3  502    0  0.51386699933E+02 -0.23933752208E+03 -0.15063067517E+04  0.15260678466E+04  0.00000000000E+00 0. -1.
         -3    1    3    3    0  502 -0.18747277846E+02 -0.92078636816E+02 -0.40715144622E+03  0.41785432383E+03  0.00000000000E+00 0.  1.
         13    1    5    5    0    0  0.84909873086E+02  0.19280612827E+03  0.12309299629E+03  0.24399953972E+03  0.00000000000E+00 0.  1.
        -13    1    5    5    0    0  0.27102715806E+02  0.29737921456E+03  0.12114675924E+03  0.32225066599E+03  0.00000000000E+00 0. -1.
          4    1    6    6  503    0 -0.11887490882E+03 -0.11607817912E+03 -0.16629391326E+03  0.23507244245E+03  0.00000000000E+00 0. -1.
         -4    1    6    6    0  503 -0.25777102160E+02 -0.42691004821E+02 -0.14943860699E+03  0.15754008426E+03  0.00000000000E+00 0.  1.
<mgrwt>
<rscale>  0 0.21180486E+04</rscale>
<asrwt>0</asrwt>
<pdfrwt beam="1">  1        2 0.37597967E+00 0.21180486E+04</pdfrwt>
<pdfrwt beam="2">  1       -1 0.70602612E-01 0.21180486E+04</pdfrwt>
<totfact> 0.79653761E+00</totfact>
</mgrwt>
</event>
<event>
12    7  0.1711607E-007  0.1977873E+04  0.7818608E-02  0.8617036E-01
          2   -1    0    0  501    0  0.00000000000E+00  0.00000000000E+00  0.22961476989E+04  0.22961476989E+04  0.00000000000E+00 0. -1.
         -1   -1    0    0    0  501 -0.00000000000E+00 -0.00000000000E+00 -0.42592858864E+03  0.42592858864E+03  0.00000000000E+00 0.  1.
         24    2    1    2    0    0 -0.51984263570E+03  0.22826909779E+03  0.93809284401E+01  0.57261754383E+03  0.73889801658E+02 0.  0.
        254    2    1    2    0    0  0.51984263570E+03 -0.22826909779E+03  0.18608381818E+04  0.21494587437E+04  0.91384408139E+03 0.  0.
         23    2    4    4    0    0 -0.15570540264E+03  0.11678688026E+03  0.88227225487E+03  0.90796107447E+03  0.90031290277E+02 0.  0.
         23    2    4    4    0    0  0.67554803833E+03 -0.34505597805E+03  0.97856592693E+03  0.12414976692E+04  0.91084626813E+02 0.  0.
          2    1    3    3  502    0 -0.27202453370E+02 -0.72069077601E+00  0.11012243802E+02  0.29355789515E+02  0.00000000000E+00 0. -1.
         -1    1    3    3    0  502 -0.49264018233E+03  0.22898978856E+03 -0.16313153616E+01  0.54326175431E+03  0.00000000000E+00 0.  1.
         13    1    5    5    0    0 -0.28790330851E+02  0.25470617338E+02  0.62219597432E+02  0.73136268723E+02  0.00000000000E+00 0. -1.
        -13    1    5    5    0    0 -0.12691507179E+03  0.91316262925E+02  0.82005265744E+03  0.83482480575E+03  0.00000000000E+00 0.  1.
          4    1    6    6  503    0  0.23877219277E+02 -0.22429843277E+02  0.73749616555E+02  0.80698360652E+02  0.00000000000E+00 0. -1.
         -4    1    6    6    0  503  0.65167081906E+03 -0.32262613477E+03  0.90481631038E+03  0.11607993086E+04  0.00000000000E+00 0.  1.
<mgrwt>
<rscale>  0 0.19778725E+04</rscale>
<asrwt>0</asrwt>
<pdfrwt beam="1">  1        2 0.35325348E+00 0.19778725E+04</pdfrwt>
<pdfrwt beam="2">  1       -1 0.65527477E-01 0.19778725E+04</pdfrwt>
<totfact> 0.11399818E+01</totfact>
</mgrwt>
</event>
<event>
12    7  0.1711607E-007  0.1457598E+04  0.7818608E-02  0.8913150E-01
          2   -1    0    0  501    0  0.00000000000E+00  0.00000000000E+00  0.17301072008E+04  0.17301072008E+04  0.00000000000E+00 0. -1.
         -1   -1    0    0    0  501 -0.00000000000E+00 -0.00000000000E+00 -0.30700310730E+03  0.30700310730E+03  0.00000000000E+00 0.  1.
         24    2    1    2    0    0 -0.37918096331E+03 -0.23145877382E+03  0.46942133742E+03  0.65117172106E+03  0.79478622034E+02 0.  0.
        254    2    1    2    0    0  0.37918096331E+03  0.23145877382E+03  0.95368275609E+03  0.13859385870E+04  0.90219931328E+03 0.  0.
         23    2    4    4    0    0  0.53836694738E+03  0.82086407613E+01  0.20478297298E+03  0.58314949852E+03  0.90669288027E+02 0.  0.
         23    2    4    4    0    0 -0.15918598407E+03  0.22325013306E+03  0.74889978311E+03  0.80278908853E+03  0.91862049185E+02 0.  0.
          4    1    3    3  502    0 -0.32000920575E+03 -0.21930554108E+03  0.37839920165E+03  0.54192874802E+03  0.00000000000E+00 0. -1.
         -3    1    3    3    0  502 -0.59171757561E+02 -0.12153232740E+02  0.91022135771E+02  0.10924297304E+03  0.00000000000E+00 0.  1.
         13    1    5    5    0    0  0.12003615067E+03  0.10571093759E+00  0.87721017091E+02  0.14867301531E+03  0.00000000000E+00 0.  1.
        -13    1    5    5    0    0  0.41833079671E+03  0.81029298238E+01  0.11706195589E+03  0.43447648321E+03  0.00000000000E+00 0. -1.
          2    1    6    6  503    0  0.80297701013E+01  0.53389675481E+00  0.83275315118E+01  0.11580588703E+02  0.00000000000E+00 0.  1.
         -2    1    6    6    0  503 -0.16721575417E+03  0.22271623631E+03  0.74057225160E+03  0.79120849982E+03  0.00000000000E+00 0. -1.
<mgrwt>
<rscale>  0 0.14575984E+04</rscale>
<asrwt>0</asrwt>
<pdfrwt beam="1">  1        2 0.26617033E+00 0.14575984E+04</pdfrwt>
<pdfrwt beam="2">  1       -1 0.47231248E-01 0.14575984E+04</pdfrwt>
<totfact> 0.46591333E+01</totfact>
</mgrwt>
</event>
<event>
12    7  0.1711607E-007  0.3061296E+04  0.7818608E-02  0.8226441E-01
          2   -1    0    0  501    0  0.00000000000E+00  0.00000000000E+00  0.23616757671E+04  0.23616757671E+04  0.00000000000E+00 0. -1.
         -1   -1    0    0    0  501 -0.00000000000E+00 -0.00000000000E+00 -0.99204246886E+03  0.99204246886E+03  0.00000000000E+00 0.  1.
         24    2    1    2    0    0  0.97729141515E+03  0.33762594254E+03 -0.40134528675E+03  0.11119577378E+04  0.79260231516E+02 0.  0.
        254    2    1    2    0    0 -0.97729141515E+03 -0.33762594254E+03  0.17709785849E+04  0.22417604981E+04  0.90555794693E+03 0.  0.
         23    2    4    4    0    0 -0.10663609605E+04 -0.48528775272E+03  0.14430841505E+04  0.18613788879E+04  0.98028555814E+02 0.  0.
         23    2    4    4    0    0  0.89069545337E+02  0.14766181018E+03  0.32789443445E+03  0.38038161023E+03  0.86243928305E+02 0.  0.
          4    1    3    3  502    0  0.15886344483E+03  0.64104367215E+02 -0.36948057439E+02  0.17524874593E+03  0.00000000000E+00 0. -1.
         -3    1    3    3    0  502  0.81842797032E+03  0.27352157533E+03 -0.36439722931E+03  0.93670899190E+03  0.00000000000E+00 0.  1.
         13    1    5    5    0    0 -0.86770040581E+03 -0.35850056399E+03  0.11859606870E+04  0.15125902947E+04  0.00000000000E+00 0.  1.
        -13    1    5    5    0    0 -0.19866055468E+03 -0.12678718872E+03  0.25712346350E+03  0.34878859312E+03  0.00000000000E+00 0. -1.
          3    1    6    6  503    0  0.11860712384E+02 -0.27352142461E+01  0.76295579381E+02  0.77260425370E+02  0.00000000000E+00 0. -1.
         -3    1    6    6    0  503  0.77208832953E+02  0.15039702442E+03  0.25159885507E+03  0.30312118486E+03  0.00000000000E+00 0.  1.
<mgrwt>
<rscale>  0 0.30612956E+04</rscale>
<asrwt>0</asrwt>
<pdfrwt beam="1">  1        2 0.36333473E+00 0.30612956E+04</pdfrwt>
<pdfrwt beam="2">  1       -1 0.15262192E+00 0.30612956E+04</pdfrwt>
<totfact> 0.13475411E+00</totfact>
</mgrwt>
</event>
<event>
12    7  0.1711607E-007  0.2674740E+04  0.7818608E-02  0.8343248E-01
         -1   -1    0    0    0  501 -0.00000000000E+00  0.00000000000E+00  0.88128843681E+03  0.88128843681E+03  0.00000000000E+00 0.  1.
          2   -1    0    0  501    0  0.00000000000E+00 -0.00000000000E+00 -0.20294814139E+04  0.20294814139E+04  0.00000000000E+00 0. -1.
         24    2    1    2    0    0  0.53731838992E+03 -0.39046035913E+02  0.63817724050E+03  0.83894091532E+03  0.79473417196E+02 0.  0.
        254    2    1    2    0    0 -0.53731838992E+03  0.39046035913E+02 -0.17863702176E+04  0.20718289354E+04  0.90062252814E+03 0.  0.
         23    2    4    4    0    0  0.66355488474E+02  0.19500240177E+02  0.58622466223E+02  0.12865536595E+03  0.91281429794E+02 0.  0.
         23    2    4    4    0    0 -0.60367387839E+03  0.19545795736E+02 -0.18449926839E+04  0.19431735695E+04  0.84387961586E+02 0.  0.
          2    1    3    3  502    0  0.23312289923E+03  0.11892475176E+02  0.31674524022E+03  0.39346570919E+03  0.00000000000E+00 0. -1.
         -1    1    3    3    0  502  0.30419549069E+03 -0.50938511089E+02  0.32143200028E+03  0.44547520613E+03  0.00000000000E+00 0.  1.
         13    1    5    5    0    0  0.28800755969E+02 -0.26787203792E+01 -0.22436950124E+02  0.36607046017E+02  0.00000000000E+00 0. -1.
        -13    1    5    5    0    0  0.37554732505E+02  0.22178960556E+02  0.81059416347E+02  0.92048319938E+02  0.00000000000E+00 0.  1.
          4    1    6    6  503    0 -0.33686146021E+03  0.43674427685E+02 -0.11139266227E+04  0.11645667090E+04  0.00000000000E+00 0.  1.
         -4    1    6    6    0  503 -0.26681241818E+03 -0.24128631948E+02 -0.73106606120E+03  0.77860686050E+03  0.00000000000E+00 0. -1.
<mgrwt>
<rscale>  0 0.26747400E+04</rscale>
<asrwt>0</asrwt>
<pdfrwt beam="1">  1        2 0.31222791E+00 0.26747400E+04</pdfrwt>
<pdfrwt beam="2">  1       -1 0.13558284E+00 0.26747400E+04</pdfrwt>
<totfact> 0.29311098E+00</totfact>
</mgrwt>
</event>
<event>
12    7  0.1711607E-007  0.1563907E+04  0.7818608E-02  0.8843033E-01
          2   -1    0    0  501    0  0.00000000000E+00  0.00000000000E+00  0.10844924762E+04  0.10844924762E+04  0.00000000000E+00 0. -1.
         -1   -1    0    0    0  501 -0.00000000000E+00 -0.00000000000E+00 -0.56381324141E+03  0.56381324141E+03  0.00000000000E+00 0.  1.
         24    2    1    2    0    0  0.80974573075E+02  0.33865099552E+02  0.70682477862E+03  0.71611465597E+03  0.74264435460E+02 0.  0.
        254    2    1    2    0    0 -0.80974573075E+02 -0.33865099552E+02 -0.18614554387E+03  0.93219106161E+03  0.90918990612E+03 0.  0.
         23    2    4    4    0    0 -0.26056185884E+03 -0.38360215218E+03 -0.23092891281E+03  0.52594774976E+03  0.90828295487E+02 0.  0.
         23    2    4    4    0    0  0.17958728576E+03  0.34973705263E+03  0.44783368942E+02  0.40624331185E+03  0.91980862670E+02 0.  0.
          4    1    3    3  502    0  0.74865871575E+02  0.49838523206E+02  0.66298263924E+03  0.66905512258E+03  0.00000000000E+00 0. -1.
         -3    1    3    3    0  502  0.61087015005E+01 -0.15973423655E+02  0.43842139379E+02  0.47059533387E+02  0.00000000000E+00 0.  1.
         13    1    5    5    0    0 -0.18418757164E+03 -0.33252814860E+03 -0.19567785898E+03  0.42753930305E+03  0.00000000000E+00 0.  1.
        -13    1    5    5    0    0 -0.76374287193E+02 -0.51074003578E+02 -0.35251053835E+02  0.98408446702E+02  0.00000000000E+00 0. -1.
          3    1    6    6  503    0  0.90393086574E+02  0.14396790757E+03 -0.23964212164E+02  0.17167397000E+03  0.00000000000E+00 0. -1.
         -3    1    6    6    0  503  0.89194199189E+02  0.20576914506E+03  0.68747581106E+02  0.23456934185E+03  0.00000000000E+00 0.  1.
<mgrwt>
<rscale>  0 0.15639069E+04</rscale>
<asrwt>0</asrwt>
<pdfrwt beam="1">  1        2 0.16684500E+00 0.15639069E+04</pdfrwt>
<pdfrwt beam="2">  1       -1 0.86740499E-01 0.15639069E+04</pdfrwt>
<totfact> 0.32007550E+01</totfact>
</mgrwt>
</event>
<event>
12    7  0.1711607E-007  0.1264285E+04  0.7818608E-02  0.9058377E-01
         -1   -1    0    0    0  501 -0.00000000000E+00  0.00000000000E+00  0.15184148635E+04  0.15184148635E+04  0.00000000000E+00 0.  1.
          2   -1    0    0  501    0  0.00000000000E+00 -0.00000000000E+00 -0.26317204174E+03  0.26317204174E+03  0.00000000000E+00 0. -1.
         24    2    1    2    0    0 -0.25006833732E+03 -0.85822879997E+02  0.70296362428E+02  0.28499680972E+03  0.79886562820E+02 0.  0.
        254    2    1    2    0    0  0.25006833732E+03  0.85822879997E+02  0.11849464594E+04  0.14965900955E+04  0.87509088812E+03 0.  0.
         23    2    4    4    0    0 -0.27958702993E+03  0.37529699456E+02  0.15020784641E+03  0.33038388517E+03  0.83748007781E+02 0.  0.
         23    2    4    4    0    0  0.52965536725E+03  0.48293180541E+02  0.10347386130E+04  0.11662062104E+04  0.80535014982E+02 0.  0.
          2    1    3    3  502    0 -0.23307041606E+03 -0.97208617324E+02  0.76070751701E+02  0.26373868391E+03  0.00000000000E+00 0. -1.
         -1    1    3    3    0  502 -0.16997921256E+02  0.11385737327E+02 -0.57743892725E+01  0.21258125811E+02  0.00000000000E+00 0.  1.
         13    1    5    5    0    0 -0.84774608131E+02  0.18364206611E+02  0.54323549130E+01  0.86910809156E+02  0.00000000000E+00 0. -1.
        -13    1    5    5    0    0 -0.19481242180E+03  0.19165492845E+02  0.14477549150E+03  0.24347307601E+03  0.00000000000E+00 0.  1.
          3    1    6    6  503    0  0.28201613426E+03  0.32356132166E+02  0.63726220041E+03  0.69762678514E+03  0.00000000000E+00 0. -1.
         -3    1    6    6    0  503  0.24763923299E+03  0.15937048376E+02  0.39747641255E+03  0.46857942524E+03  0.00000000000E+00 0.  1.
<mgrwt>
<rscale>  0 0.12642853E+04</rscale>
<asrwt>0</asrwt>
<pdfrwt beam="1">  1        2 0.40488007E-01 0.12642853E+04</pdfrwt>
<pdfrwt beam="2">  1       -1 0.23360228E+00 0.12642853E+04</pdfrwt>
<totfact> 0.12800005E+01</totfact>
</mgrwt>
</event>
<event>
12    7  0.1711607E-007  0.1279399E+04  0.7818608E-02  0.9046063E-01
          2   -1    0    0  501    0  0.00000000000E+00  0.00000000000E+00  0.28044618114E+04  0.28044618114E+04  0.00000000000E+00 0. -1.
         -1   -1    0    0    0  501 -0.00000000000E+00 -0.00000000000E+00 -0.14591593285E+03  0.14591593285E+03  0.00000000000E+00 0.  1.
         24    2    1    2    0    0 -0.25761500204E+03 -0.21008515682E+02  0.25681497940E+03  0.37319550042E+03  0.80709980104E+02 0.  0.
        254    2    1    2    0    0  0.25761500204E+03  0.21008515682E+02  0.24017308992E+04  0.25771822439E+04  0.89819271814E+03 0.  0.
         23    2    4    4    0    0  0.60545007267E+01 -0.88239276410E+02 -0.28042783929E+02  0.13031195059E+03  0.91498523783E+02 0.  0.
         23    2    4    4    0    0  0.25156050131E+03  0.10924779209E+03  0.24297736831E+04  0.24468702933E+04  0.90312319276E+02 0.  0.
          4    1    3    3  502    0  0.32135015142E+01  0.33542789555E+01  0.18417991626E+02  0.18994741241E+02  0.00000000000E+00 0. -1.
         -3    1    3    3    0  502 -0.26082850355E+03 -0.24362794638E+02  0.23839698777E+03  0.35420075918E+03  0.00000000000E+00 0.  1.
         13    1    5    5    0    0  0.31355847936E+02 -0.39425042703E+01 -0.28116802418E+02  0.42299965933E+02  0.00000000000E+00 0. -1.
        -13    1    5    5    0    0 -0.25301347209E+02 -0.84296772139E+02  0.74018488892E-01  0.88011984653E+02  0.00000000000E+00 0.  1.
          1    1    6    6  503    0  0.12283423158E+03  0.47804626223E+01  0.10536664541E+04  0.10608129419E+04  0.00000000000E+00 0. -1.
         -1    1    6    6    0  503  0.12872626973E+03  0.10446732947E+03  0.13761072290E+04  0.13860573513E+04  0.00000000000E+00 0.  1.
<mgrwt>
<rscale>  0 0.12793993E+04</rscale>
<asrwt>0</asrwt>
<pdfrwt beam="1">  1        2 0.43145562E+00 0.12793993E+04</pdfrwt>
<pdfrwt beam="2">  1       -1 0.22448607E-01 0.12793993E+04</pdfrwt>
<totfact> 0.43634875E+01</totfact>
</mgrwt>
</event>
<event>
12    7  0.1711607E-007  0.3656224E+04  0.7818608E-02  0.8077733E-01
         -1   -1    0    0    0  501 -0.00000000000E+00  0.00000000000E+00  0.23381545424E+04  0.23381545424E+04  0.00000000000E+00 0.  1.
          2   -1    0    0  501    0  0.00000000000E+00 -0.00000000000E+00 -0.14293294999E+04  0.14293294999E+04  0.00000000000E+00 0. -1.
         24    2    1    2    0    0 -0.92450047509E+03  0.97040022518E+03 -0.67600482829E+03  0.15032685902E+04  0.80350487157E+02 0.  0.
        254    2    1    2    0    0  0.92450047509E+03 -0.97040022518E+03  0.15848298708E+04  0.22642154522E+04  0.90476967740E+03 0.  0.
         23    2    4    4    0    0  0.10226374475E+04 -0.58629728017E+03  0.98119344990E+03  0.15364080163E+04  0.90978881001E+02 0.  0.
         23    2    4    4    0    0 -0.98136972364E+02 -0.38410294501E+03  0.60363642089E+03  0.72780743588E+03  0.90337131868E+02 0.  0.
          2    1    3    3  502    0 -0.69988948536E+03  0.75889598645E+03 -0.55289130359E+03  0.11710923121E+04  0.00000000000E+00 0. -1.
         -1    1    3    3    0  502 -0.22461098973E+03  0.21150423874E+03 -0.12311352470E+03  0.33217627802E+03  0.00000000000E+00 0.  1.
         13    1    5    5    0    0  0.33057154937E+03 -0.16873312954E+03  0.35931378523E+03  0.51657992075E+03  0.00000000000E+00 0.  1.
        -13    1    5    5    0    0  0.69206589809E+03 -0.41756415063E+03  0.62187966467E+03  0.10198280956E+04  0.00000000000E+00 0. -1.
          3    1    6    6  503    0  0.91603437009E+01 -0.25012211803E+02  0.76631414326E+02  0.81128886949E+02  0.00000000000E+00 0. -1.
         -3    1    6    6    0  503 -0.10729731607E+03 -0.35909073320E+03  0.52700500656E+03  0.64667854893E+03  0.00000000000E+00 0.  1.
<mgrwt>
<rscale>  0 0.36562239E+04</rscale>
<asrwt>0</asrwt>
<pdfrwt beam="1">  1        2 0.21989685E+00 0.36562239E+04</pdfrwt>
<pdfrwt beam="2">  1       -1 0.35971608E+00 0.36562239E+04</pdfrwt>
<totfact> 0.17213662E-01</totfact>
</mgrwt>
</event>
<event>
12    7  0.1711607E-007  0.3255564E+04  0.7818608E-02  0.8174295E-01
         -1   -1    0    0    0  501 -0.00000000000E+00  0.00000000000E+00  0.83809022049E+03  0.83809022049E+03  0.00000000000E+00 0.  1.
          2   -1    0    0  501    0  0.00000000000E+00 -0.00000000000E+00 -0.31615625128E+04  0.31615625128E+04  0.00000000000E+00 0. -1.
         24    2    1    2    0    0  0.71635000063E+03 -0.10127794433E+04 -0.29015544232E+02  0.12434195344E+04  0.79816744599E+02 0.  0.
        254    2    1    2    0    0 -0.71635000063E+03  0.10127794433E+04 -0.22944567481E+04  0.27562331988E+04  0.89073573723E+03 0.  0.
         23    2    4    4    0    0 -0.72695687324E+03  0.47787805319E+03 -0.18802182764E+04  0.20737379333E+04  0.91293591384E+02 0.  0.
         23    2    4    4    0    0  0.10606872616E+02  0.53490139006E+03 -0.41423847168E+03  0.68249526555E+03  0.89298786383E+02 0.  0.
          2    1    3    3  502    0  0.31882803034E+03 -0.47288351838E+03 -0.51023029914E+02  0.57260237903E+03  0.00000000000E+00 0. -1.
         -1    1    3    3    0  502  0.39752197029E+03 -0.53989592487E+03  0.22007485681E+02  0.67081715540E+03  0.00000000000E+00 0.  1.
         13    1    5    5    0    0 -0.42104219885E+03  0.31758259112E+03 -0.10669736816E+04  0.11901966530E+04  0.00000000000E+00 0. -1.
        -13    1    5    5    0    0 -0.30591467439E+03  0.16029546208E+03 -0.81324459474E+03  0.88354128033E+03  0.00000000000E+00 0.  1.
          4    1    6    6  503    0  0.30450429521E+02  0.83786334673E+02 -0.49034542047E+02  0.10174362314E+03  0.00000000000E+00 0. -1.
         -4    1    6    6    0  503 -0.19843556905E+02  0.45111505538E+03 -0.36520392963E+03  0.58075164241E+03  0.00000000000E+00 0.  1.
<mgrwt>
<rscale>  0 0.32555642E+04</rscale>
<asrwt>0</asrwt>
<pdfrwt beam="1">  1        2 0.48639423E+00 0.32555642E+04</pdfrwt>
<pdfrwt beam="2">  1       -1 0.12893696E+00 0.32555642E+04</pdfrwt>
<totfact> 0.67641705E-01</totfact>
</mgrwt>
</event>
<event>
12    7  0.1711607E-007  0.1822666E+04  0.7818608E-02  0.8694338E-01
          2   -1    0    0  501    0  0.00000000000E+00  0.00000000000E+00  0.29249240829E+04  0.29249240829E+04  0.00000000000E+00 0. -1.
         -1   -1    0    0    0  501 -0.00000000000E+00 -0.00000000000E+00 -0.28394847890E+03  0.28394847890E+03  0.00000000000E+00 0.  1.
         24    2    1    2    0    0 -0.13731126522E+03  0.63497518846E+03  0.13719455161E+04  0.15201975194E+04  0.81964171203E+02 0.  0.
        254    2    1    2    0    0  0.13731126522E+03 -0.63497518846E+03  0.12690300879E+04  0.16886750424E+04  0.90506251788E+03 0.  0.
         23    2    4    4    0    0  0.26378333621E+03  0.14085167223E+03  0.46894753022E+03  0.56327322618E+03  0.89129676331E+02 0.  0.
         23    2    4    4    0    0 -0.12647207099E+03 -0.77582686069E+03  0.80008255768E+03  0.11254018162E+04  0.92166405455E+02 0.  0.
          2    1    3    3  502    0 -0.14446474397E+03  0.52263823383E+03  0.11351276066E+04  0.12579886601E+04  0.00000000000E+00 0. -1.
         -1    1    3    3    0  502  0.71534787497E+01  0.11233695463E+03  0.23681790951E+03  0.26220885931E+03  0.00000000000E+00 0.  1.
         13    1    5    5    0    0  0.36298994428E+02  0.28951925554E+02  0.26823717216E+02  0.53622222959E+02  0.00000000000E+00 0. -1.
        -13    1    5    5    0    0  0.22748434178E+03  0.11189974668E+03  0.44212381300E+03  0.50965100322E+03  0.00000000000E+00 0.  1.
          1    1    6    6  503    0 -0.99196189980E+02 -0.35645688900E+03  0.40552133443E+03  0.54895259404E+03  0.00000000000E+00 0. -1.
         -1    1    6    6    0  503 -0.27275881014E+02 -0.41936997169E+03  0.39456122325E+03  0.57644922216E+03  0.00000000000E+00 0.  1.
<mgrwt>
<rscale>  0 0.18226659E+04</rscale>
<asrwt>0</asrwt>
<pdfrwt beam="1">  1        2 0.44998830E+00 0.18226659E+04</pdfrwt>
<pdfrwt beam="2">  1       -1 0.43684383E-01 0.18226659E+04</pdfrwt>
<totfact> 0.10802661E+01</totfact>
</mgrwt>
</event>
<event>
12    7  0.1711607E-007  0.2017632E+04  0.7818608E-02  0.8598421E-01
          2   -1    0    0  501    0  0.00000000000E+00  0.00000000000E+00  0.57784458274E+03  0.57784458274E+03  0.00000000000E+00 0. -1.
         -1   -1    0    0    0  501 -0.00000000000E+00 -0.00000000000E+00 -0.17612162706E+04  0.17612162706E+04  0.00000000000E+00 0.  1.
         24    2    1    2    0    0  0.14481337598E+03  0.41572629057E+03 -0.12623101047E+04  0.13392700565E+04  0.80113802353E+02 0.  0.
        254    2    1    2    0    0 -0.14481337598E+03 -0.41572629057E+03  0.78938416891E+02  0.99979079677E+03  0.89417621368E+03 0.  0.
         23    2    4    4    0    0  0.25550781165E+03 -0.47617331440E+03  0.17140783433E+03  0.57463419194E+03  0.93800542196E+02 0.  0.
         23    2    4    4    0    0 -0.40032118763E+03  0.60447023826E+02 -0.92469417442E+02  0.42515660483E+03  0.91085945787E+02 0.  0.
          4    1    3    3  502    0  0.14902162857E+02  0.15430275857E+03 -0.46878100420E+03  0.49374795763E+03  0.00000000000E+00 0. -1.
         -3    1    3    3    0  502  0.12991121312E+03  0.26142353200E+03 -0.79352910053E+03  0.84552209892E+03  0.00000000000E+00 0.  1.
         13    1    5    5    0    0  0.53537380327E+02 -0.14808788671E+03  0.12776975022E+02  0.15798583599E+03  0.00000000000E+00 0. -1.
        -13    1    5    5    0    0  0.20197043132E+03 -0.32808542768E+03  0.15863085931E+03  0.41664835595E+03  0.00000000000E+00 0.  1.
          3    1    6    6  503    0 -0.31807307386E+03  0.84332674247E+02 -0.67131078415E+02  0.33584082829E+03  0.00000000000E+00 0. -1.
         -3    1    6    6    0  503 -0.82248113770E+02 -0.23885650422E+02 -0.25338339027E+02  0.89315776542E+02  0.00000000000E+00 0.  1.
<mgrwt>
<rscale>  0 0.20176316E+04</rscale>
<asrwt>0</asrwt>
<pdfrwt beam="1">  1        2 0.88899169E-01 0.20176316E+04</pdfrwt>
<pdfrwt beam="2">  1       -1 0.27095634E+00 0.20176316E+04</pdfrwt>
<totfact> 0.28013912E+00</totfact>
</mgrwt>
</event>
<event>
12    7  0.1711607E-007  0.1416161E+04  0.7818608E-02  0.8942203E-01
          2   -1    0    0  501    0  0.00000000000E+00  0.00000000000E+00  0.12151089100E+04  0.12151089100E+04  0.00000000000E+00 0. -1.
         -1   -1    0    0    0  501 -0.00000000000E+00 -0.00000000000E+00 -0.41261964219E+03  0.41261964219E+03  0.00000000000E+00 0.  1.
         24    2    1    2    0    0  0.17210886770E+02 -0.21440836848E+03 -0.16896274633E+03  0.28543533195E+03  0.81595073248E+02 0.  0.
        254    2    1    2    0    0 -0.17210886770E+02  0.21440836848E+03  0.97145201412E+03  0.13422932202E+04  0.90097997213E+03 0.  0.
         23    2    4    4    0    0  0.24915124932E+03  0.17063516936E+03 -0.14686997223E+02  0.31596128759E+03  0.91777564273E+02 0.  0.
         23    2    4    4    0    0 -0.26636213609E+03  0.43773199122E+02  0.98613901134E+03  0.10263319326E+04  0.89566766868E+02 0.  0.
          2    1    3    3  502    0 -0.42910268310E+01 -0.16203706241E+02  0.82589806782E+01  0.18686459511E+02  0.00000000000E+00 0. -1.
         -1    1    3    3    0  502  0.21501913601E+02 -0.19820466224E+03 -0.17722172701E+03  0.26674887244E+03  0.00000000000E+00 0.  1.
         13    1    5    5    0    0  0.24807701241E+03  0.17858980047E+03 -0.20012796171E+02  0.30632830906E+03  0.00000000000E+00 0.  1.
        -13    1    5    5    0    0  0.10742369063E+01 -0.79546311030E+01  0.53257989475E+01  0.96329785293E+01  0.00000000000E+00 0. -1.
          4    1    6    6  503    0 -0.30326346899E+02 -0.18837391356E+02  0.19921943501E+03  0.20239297891E+03  0.00000000000E+00 0. -1.
         -4    1    6    6    0  503 -0.23603578919E+03  0.62610590479E+02  0.78691957634E+03  0.82393895371E+03  0.00000000000E+00 0.  1.
<mgrwt>
<rscale>  0 0.14161607E+04</rscale>
<asrwt>0</asrwt>
<pdfrwt beam="1">  1        2 0.18693983E+00 0.14161607E+04</pdfrwt>
<pdfrwt beam="2">  1       -1 0.63479945E-01 0.14161607E+04</pdfrwt>
<totfact> 0.51754442E+01</totfact>
</mgrwt>
</event>
<event>
12    7  0.1711607E-007  0.1288547E+04  0.7818608E-02  0.9038697E-01
          2   -1    0    0  501    0  0.00000000000E+00  0.00000000000E+00  0.29643445108E+03  0.29643445108E+03  0.00000000000E+00 0. -1.
         -1   -1    0    0    0  501 -0.00000000000E+00 -0.00000000000E+00 -0.14002692756E+04  0.14002692756E+04  0.00000000000E+00 0.  1.
         24    2    1    2    0    0  0.18058102261E+03  0.11185537031E+03  0.69351231200E+01  0.22673432101E+03  0.78988776397E+02 0.  0.
        254    2    1    2    0    0 -0.18058102261E+03 -0.11185537031E+03 -0.11107699476E+04  0.14699694057E+04  0.93908415354E+03 0.  0.
         23    2    4    4    0    0  0.16064843514E+03  0.34110419223E+03 -0.42940512006E+03  0.57888240414E+03  0.92499140668E+02 0.  0.
         23    2    4    4    0    0 -0.34122945775E+03 -0.45295956254E+03 -0.68136482758E+03  0.89108700153E+03  0.90377585101E+02 0.  0.
          2    1    3    3  502    0  0.11898800552E+03  0.58679806081E+02  0.40496168655E+02  0.13871339075E+03  0.00000000000E+00 0. -1.
         -1    1    3    3    0  502  0.61593017096E+02  0.53175564233E+02 -0.33561045535E+02  0.88020930261E+02  0.00000000000E+00 0.  1.
         13    1    5    5    0    0  0.34716908090E+02  0.13687995507E+02 -0.45343376008E+02  0.58725179234E+02  0.00000000000E+00 0.  1.
        -13    1    5    5    0    0  0.12593152705E+03  0.32741619672E+03 -0.38406174405E+03  0.52015722491E+03  0.00000000000E+00 0. -1.
          3    1    6    6  503    0 -0.16184577718E+03 -0.27044104483E+03 -0.32907291725E+03  0.45565491239E+03  0.00000000000E+00 0. -1.
         -3    1    6    6    0  503 -0.17938368058E+03 -0.18251851772E+03 -0.35229191033E+03  0.43543208914E+03  0.00000000000E+00 0.  1.
<mgrwt>
<rscale>  0 0.12885466E+04</rscale>
<asrwt>0</asrwt>
<pdfrwt beam="1">  1        2 0.45605300E-01 0.12885466E+04</pdfrwt>
<pdfrwt beam="2">  1       -1 0.21542604E+00 0.12885466E+04</pdfrwt>
<totfact> 0.14776584E+01</totfact>
</mgrwt>
</event>
<event>
12    7  0.1711607E-007  0.1911953E+04  0.7818608E-02  0.8648929E-01
         -1   -1    0    0    0  501 -0.00000000000E+00  0.00000000000E+00  0.40273338598E+03  0.40273338598E+03  0.00000000000E+00 0.  1.
          2   -1    0    0  501    0  0.00000000000E+00 -0.00000000000E+00 -0.22692208232E+04  0.22692208232E+04  0.00000000000E+00 0. -1.
         24    2    1    2    0    0 -0.25340648214E+03 -0.65681099042E+03 -0.10680543306E+04  0.12816429765E+04  0.79076822145E+02 0.  0.
        254    2    1    2    0    0  0.25340648214E+03  0.65681099042E+03 -0.79843310670E+03  0.13903112327E+04  0.89434578084E+03 0.  0.
         23    2    4    4    0    0 -0.30314033197E+03  0.73888969411E+02 -0.27507847467E+03  0.42564466353E+03  0.90286054845E+02 0.  0.
         23    2    4    4    0    0  0.55654681410E+03  0.58292202101E+03 -0.52335463203E+03  0.96466656921E+03  0.84493076817E+02 0.  0.
          4    1    3    3  502    0 -0.24740397547E+03 -0.63048808753E+03 -0.10488027029E+04  0.12484835062E+04  0.00000000000E+00 0. -1.
         -3    1    3    3    0  502 -0.60025066722E+01 -0.26322902887E+02 -0.19251627659E+02  0.33159470295E+02  0.00000000000E+00 0.  1.
         13    1    5    5    0    0 -0.23134845975E+03  0.75879844459E+02 -0.16466814250E+03  0.29393104255E+03  0.00000000000E+00 0.  1.
        -13    1    5    5    0    0 -0.71791872215E+02 -0.19908750480E+01 -0.11041033217E+03  0.13171362097E+03  0.00000000000E+00 0. -1.
          3    1    6    6  503    0  0.56838685083E+02  0.97062454130E+02 -0.57333002012E+02  0.12624907621E+03  0.00000000000E+00 0. -1.
         -3    1    6    6    0  503  0.49970812902E+03  0.48585956688E+03 -0.46602163001E+03  0.83841749301E+03  0.00000000000E+00 0.  1.
<mgrwt>
<rscale>  0 0.19119529E+04</rscale>
<asrwt>0</asrwt>
<pdfrwt beam="1">  1        2 0.34911089E+00 0.19119529E+04</pdfrwt>
<pdfrwt beam="2">  1       -1 0.61958983E-01 0.19119529E+04</pdfrwt>
<totfact> 0.13286781E+01</totfact>
</mgrwt>
</event>
<event>
12    7  0.1711607E-007  0.1377511E+04  0.7818608E-02  0.8970260E-01
          2   -1    0    0  501    0  0.00000000000E+00  0.00000000000E+00  0.27659722772E+04  0.27659722772E+04  0.00000000000E+00 0. -1.
         -1   -1    0    0    0  501 -0.00000000000E+00 -0.00000000000E+00 -0.17150730317E+03  0.17150730317E+03  0.00000000000E+00 0.  1.
         24    2    1    2    0    0  0.25382064173E+03 -0.27061888740E+03  0.71519807794E+03  0.80971016781E+03  0.80391322836E+02 0.  0.
        254    2    1    2    0    0 -0.25382064173E+03  0.27061888740E+03  0.18792668961E+04  0.21277694126E+04  0.92633638919E+03 0.  0.
         23    2    4    4    0    0  0.19461045682E+03 -0.82086979891E+02  0.12610411737E+04  0.12815112925E+04  0.86225570089E+02 0.  0.
         23    2    4    4    0    0 -0.44843109855E+03  0.35270586729E+03  0.61822572247E+03  0.84625812011E+03  0.91966749278E+02 0.  0.
          4    1    3    3  502    0  0.39025214767E+02 -0.30533529741E+02  0.48875170073E+02  0.69599181574E+02  0.00000000000E+00 0. -1.
         -3    1    3    3    0  502  0.21479542696E+03 -0.24008535766E+03  0.66632290786E+03  0.74011098624E+03  0.00000000000E+00 0.  1.
         13    1    5    5    0    0  0.91642384148E+02  0.26670837752E+01  0.62025885074E+03  0.62699799189E+03  0.00000000000E+00 0. -1.
        -13    1    5    5    0    0  0.10296807267E+03 -0.84754063666E+02  0.64078232291E+03  0.65451330060E+03  0.00000000000E+00 0.  1.
          1    1    6    6  503    0 -0.12339328094E+03  0.48195702788E+02  0.14454360247E+03  0.19606524568E+03  0.00000000000E+00 0. -1.
         -1    1    6    6    0  503 -0.32503781761E+03  0.30451016450E+03  0.47368212000E+03  0.65019287444E+03  0.00000000000E+00 0.  1.
<mgrwt>
<rscale>  0 0.13775114E+04</rscale>
<asrwt>0</asrwt>
<pdfrwt beam="1">  1        2 0.42553416E+00 0.13775114E+04</pdfrwt>
<pdfrwt beam="2">  1       -1 0.26385741E-01 0.13775114E+04</pdfrwt>
<totfact> 0.34585201E+01</totfact>
</mgrwt>
</event>
<event>
12    7  0.1711607E-007  0.1206675E+04  0.7818608E-02  0.9107034E-01
          2   -1    0    0  501    0  0.00000000000E+00  0.00000000000E+00  0.44007708898E+03  0.44007708898E+03  0.00000000000E+00 0. -1.
         -1   -1    0    0    0  501 -0.00000000000E+00 -0.00000000000E+00 -0.82716382188E+03  0.82716382188E+03  0.00000000000E+00 0.  1.
         24    2    1    2    0    0 -0.82001467112E+02  0.46272706577E+02 -0.34458365698E+03  0.36508588137E+03  0.75394960898E+02 0.  0.
        254    2    1    2    0    0  0.82001467112E+02 -0.46272706577E+02 -0.42503075910E+02  0.90215502949E+03  0.89622083316E+03 0.  0.
         23    2    4    4    0    0 -0.30499070630E+03  0.21019840734E+03  0.12186002074E+03  0.40055045209E+03  0.91586563634E+02 0.  0.
         23    2    4    4    0    0  0.38699217341E+03 -0.25647111392E+03 -0.16436309665E+03  0.50160457740E+03  0.95139634109E+02 0.  0.
          2    1    3    3  502    0 -0.36307935254E+02  0.61794873288E+02 -0.22470492163E+03  0.23585837770E+03  0.00000000000E+00 0. -1.
         -1    1    3    3    0  502 -0.45693531858E+02 -0.15522166711E+02 -0.11987873536E+03  0.12922750366E+03  0.00000000000E+00 0.  1.
         13    1    5    5    0    0 -0.10683261066E+03  0.10962828146E+03  0.85633649302E+02  0.17539865646E+03  0.00000000000E+00 0. -1.
        -13    1    5    5    0    0 -0.19815809564E+03  0.10057012588E+03  0.36226371438E+02  0.22515179563E+03  0.00000000000E+00 0.  1.
          4    1    6    6  503    0  0.26163223250E+03 -0.14996752469E+03 -0.14908068243E+03  0.33640263587E+03  0.00000000000E+00 0. -1.
         -4    1    6    6    0  503  0.12535994091E+03 -0.10650358923E+03 -0.15282414218E+02  0.16520194154E+03  0.00000000000E+00 0.  1.
<mgrwt>
<rscale>  0 0.12066745E+04</rscale>
<asrwt>0</asrwt>
<pdfrwt beam="1">  1        2 0.67704169E-01 0.12066745E+04</pdfrwt>
<pdfrwt beam="2">  1       -1 0.12725597E+00 0.12066745E+04</pdfrwt>
<totfact> 0.43099153E+01</totfact>
</mgrwt>
</event>
<event>
12    7  0.1711607E-007  0.1534897E+04  0.7818608E-02  0.8861573E-01
         -1   -1    0    0    0  501 -0.00000000000E+00  0.00000000000E+00  0.13159269364E+03  0.13159269364E+03  0.00000000000E+00 0.  1.
          2   -1    0    0  501    0  0.00000000000E+00 -0.00000000000E+00 -0.44757592328E+04  0.44757592328E+04  0.00000000000E+00 0. -1.
         24    2    1    2    0    0 -0.15938481392E+03  0.21193514239E+03 -0.15932535507E+03  0.31862678007E+03  0.76278651807E+02 0.  0.
        254    2    1    2    0    0  0.15938481392E+03 -0.21193514239E+03 -0.41848411841E+04  0.42887251464E+04  0.89997090042E+03 0.  0.
         23    2    4    4    0    0 -0.34937226868E+03  0.90600701557E+01 -0.19867123684E+04  0.20195806095E+04  0.97656217728E+02 0.  0.
         23    2    4    4    0    0  0.50875708260E+03 -0.22099521254E+03 -0.21981288158E+04  0.22691445369E+04  0.97846744558E+02 0.  0.
          4    1    3    3  502    0 -0.13662746908E+02  0.37276371430E+02 -0.56366376066E+02  0.68944665282E+02  0.00000000000E+00 0. -1.
         -3    1    3    3    0  502 -0.14572206701E+03  0.17465877096E+03 -0.10295897901E+03  0.24968211479E+03  0.00000000000E+00 0.  1.
         13    1    5    5    0    0 -0.27455817315E+03  0.47089914999E+02 -0.15648555951E+04  0.15894567261E+04  0.00000000000E+00 0.  1.
        -13    1    5    5    0    0 -0.74814095523E+02 -0.38029844843E+02 -0.42185677324E+03  0.43012388345E+03  0.00000000000E+00 0. -1.
          4    1    6    6  503    0  0.24076565841E+03 -0.10027413814E+03 -0.12315340595E+04  0.12588483407E+04  0.00000000000E+00 0. -1.
         -4    1    6    6    0  503  0.26799142419E+03 -0.12072107440E+03 -0.96659475624E+03  0.10102961962E+04  0.00000000000E+00 0.  1.
<mgrwt>
<rscale>  0 0.15348970E+04</rscale>
<asrwt>0</asrwt>
<pdfrwt beam="1">  1        2 0.68857834E+00 0.15348970E+04</pdfrwt>
<pdfrwt beam="2">  1       -1 0.20245030E-01 0.15348970E+04</pdfrwt>
<totfact> 0.29542321E+00</totfact>
</mgrwt>
</event>
<event>
12    7  0.1711607E-007  0.3143842E+04  0.7818608E-02  0.8203808E-01
          2   -1    0    0  501    0  0.00000000000E+00  0.00000000000E+00  0.18416023385E+04  0.18416023385E+04  0.00000000000E+00 0. -1.
         -1   -1    0    0    0  501 -0.00000000000E+00 -0.00000000000E+00 -0.13417317478E+04  0.13417317478E+04  0.00000000000E+00 0.  1.
         24    2    1    2    0    0  0.59153770812E+03 -0.10321728694E+04 -0.59770105419E+03  0.13337149227E+04  0.79064862091E+02 0.  0.
        254    2    1    2    0    0 -0.59153770812E+03  0.10321728694E+04  0.10975716449E+04  0.18496191636E+04  0.89505856926E+03 0.  0.
         23    2    4    4    0    0 -0.73485385488E+03  0.62491634109E+03  0.45643938865E+03  0.10710289818E+04  0.90749892652E+02 0.  0.
         23    2    4    4    0    0  0.14331614676E+03  0.40725652829E+03  0.64113225626E+03  0.77859018181E+03  0.93566572258E+02 0.  0.
          4    1    3    3  502    0  0.26677109119E+03 -0.46998768524E+03 -0.31559808741E+03  0.62582536873E+03  0.00000000000E+00 0. -1.
         -3    1    3    3    0  502  0.32476661693E+03 -0.56218518414E+03 -0.28210296679E+03  0.70788955396E+03  0.00000000000E+00 0.  1.
         13    1    5    5    0    0 -0.63484974897E+03  0.51069442782E+03  0.35699189953E+03  0.88954270202E+03  0.00000000000E+00 0. -1.
        -13    1    5    5    0    0 -0.10000410591E+03  0.11422191327E+03  0.99447489118E+02  0.18148627981E+03  0.00000000000E+00 0.  1.
          2    1    6    6  503    0  0.21691056400E+02  0.18130278583E+03  0.22594090407E+03  0.29050042032E+03  0.00000000000E+00 0. -1.
         -2    1    6    6    0  503  0.12162509036E+03  0.22595374246E+03  0.41519135219E+03  0.48808976149E+03  0.00000000000E+00 0.  1.
<mgrwt>
<rscale>  0 0.31438424E+04</rscale>
<asrwt>0</asrwt>
<pdfrwt beam="1">  1        2 0.28332344E+00 0.31438424E+04</pdfrwt>
<pdfrwt beam="2">  1       -1 0.20642027E+00 0.31438424E+04</pdfrwt>
<totfact> 0.10709541E+00</totfact>
</mgrwt>
</event>
<event>
12    7  0.1711607E-007  0.1822150E+04  0.7818608E-02  0.8694608E-01
          2   -1    0    0  501    0  0.00000000000E+00  0.00000000000E+00  0.30507971989E+04  0.30507971989E+04  0.00000000000E+00 0. -1.
         -1   -1    0    0    0  501 -0.00000000000E+00 -0.00000000000E+00 -0.27207895363E+03  0.27207895363E+03  0.00000000000E+00 0.  1.
         24    2    1    2    0    0  0.40595269299E+03  0.26145237422E+03  0.19685240741E+04  0.20285089742E+04  0.81281581246E+02 0.  0.
        254    2    1    2    0    0 -0.40595269299E+03 -0.26145237422E+03  0.81019417123E+03  0.12943671783E+04  0.88646312066E+03 0.  0.
         23    2    4    4    0    0  0.56289621105E+02  0.21433352824E+03 -0.44335576394E+01  0.23986483418E+03  0.91695689505E+02 0.  0.
         23    2    4    4    0    0 -0.46224231410E+03 -0.47578590246E+03  0.81462772887E+03  0.10545023441E+04  0.91195807079E+02 0.  0.
          2    1    3    3  502    0  0.36353055761E+03  0.25286263708E+03  0.18520128452E+04  0.19042178337E+04  0.00000000000E+00 0. -1.
         -1    1    3    3    0  502  0.42422135380E+02  0.85897371462E+01  0.11651122888E+03  0.12429114051E+03  0.00000000000E+00 0.  1.
         13    1    5    5    0    0  0.11678202714E+02  0.12108217522E+03 -0.43742996971E+02  0.12926996310E+03  0.00000000000E+00 0.  1.
        -13    1    5    5    0    0  0.44611418391E+02  0.93251353016E+02  0.39309439332E+02  0.11059487109E+03  0.00000000000E+00 0. -1.
          2    1    6    6  503    0 -0.22518350645E+03 -0.18239821809E+03  0.30819176395E+03  0.42303532348E+03  0.00000000000E+00 0. -1.
         -2    1    6    6    0  503 -0.23705880764E+03 -0.29338768438E+03  0.50643596491E+03  0.63146702066E+03  0.00000000000E+00 0.  1.
<mgrwt>
<rscale>  0 0.18221501E+04</rscale>
<asrwt>0</asrwt>
<pdfrwt beam="1">  1        2 0.46935339E+00 0.18221501E+04</pdfrwt>
<pdfrwt beam="2">  1       -1 0.41858303E-01 0.18221501E+04</pdfrwt>
<totfact> 0.97610230E+00</totfact>
</mgrwt>
</event>
<event>
12    7  0.1711607E-007  0.1044707E+04  0.7818608E-02  0.9260826E-01
         -1   -1    0    0    0  501 -0.00000000000E+00  0.00000000000E+00  0.14371064863E+03  0.14371064863E+03  0.00000000000E+00 0.  1.
          2   -1    0    0  501    0  0.00000000000E+00 -0.00000000000E+00 -0.18986274860E+04  0.18986274860E+04  0.00000000000E+00 0. -1.
         24    2    1    2    0    0 -0.99356767226E+02 -0.15927076080E+02 -0.28702469534E+03  0.31559078130E+03  0.84195763322E+02 0.  0.
        254    2    1    2    0    0  0.99356767226E+02  0.15927076080E+02 -0.14678921420E+04  0.17267473533E+04  0.90378296214E+03 0.  0.
         23    2    4    4    0    0 -0.30935092658E+03 -0.23082100912E+03 -0.87523013018E+03  0.96010874461E+03  0.82490524723E+02 0.  0.
         23    2    4    4    0    0  0.40870769381E+03  0.24674808520E+03 -0.59266201184E+03  0.76663860871E+03  0.92519725270E+02 0.  0.
          4    1    3    3  502    0 -0.96840286374E+02 -0.53100644214E+01 -0.28869677388E+03  0.30455223706E+03  0.00000000000E+00 0. -1.
         -3    1    3    3    0  502 -0.25164808519E+01 -0.10617011658E+02  0.16720785361E+01  0.11038544246E+02  0.00000000000E+00 0.  1.
         13    1    5    5    0    0 -0.27922110369E+03 -0.19354879940E+03 -0.69471927427E+03  0.77334367039E+03  0.00000000000E+00 0. -1.
        -13    1    5    5    0    0 -0.30129822891E+02 -0.37272209723E+02 -0.18051085591E+03  0.18676507422E+03  0.00000000000E+00 0.  1.
          2    1    6    6  503    0  0.32555800043E+03  0.16985232027E+03 -0.39870529943E+03  0.54203665756E+03  0.00000000000E+00 0. -1.
         -2    1    6    6    0  503  0.83149693381E+02  0.76895764934E+02 -0.19395671241E+03  0.22460195116E+03  0.00000000000E+00 0.  1.
<mgrwt>
<rscale>  0 0.10447066E+04</rscale>
<asrwt>0</asrwt>
<pdfrwt beam="1">  1        2 0.29209653E+00 0.10447066E+04</pdfrwt>
<pdfrwt beam="2">  1       -1 0.22109331E-01 0.10447066E+04</pdfrwt>
<totfact> 0.14936380E+02</totfact>
</mgrwt>
</event>
<event>
12    7  0.1711607E-007  0.1122078E+04  0.7818608E-02  0.9183937E-01
         -1   -1    0    0    0  501 -0.00000000000E+00  0.00000000000E+00  0.35168692917E+03  0.35168692917E+03  0.00000000000E+00 0.  1.
          2   -1    0    0  501    0  0.00000000000E+00 -0.00000000000E+00 -0.89501336676E+03  0.89501336676E+03  0.00000000000E+00 0. -1.
         24    2    1    2    0    0  0.61154786245E+02 -0.16359258356E+03 -0.12224891023E+03  0.22777015188E+03  0.80199780296E+02 0.  0.
        254    2    1    2    0    0 -0.61154786245E+02  0.16359258356E+03 -0.42107752737E+03  0.10189301440E+04  0.91126829919E+03 0.  0.
         23    2    4    4    0    0 -0.45833347768E+03  0.16755030283E+03 -0.11807833572E+03  0.51100222102E+03  0.95068900146E+02 0.  0.
         23    2    4    4    0    0  0.39717869143E+03 -0.39577192630E+01 -0.30299919165E+03  0.50792792303E+03  0.91737061116E+02 0.  0.
          2    1    3    3  502    0  0.30737607656E+02 -0.63310496871E+01 -0.27102632233E+02  0.41466075152E+02  0.00000000000E+00 0. -1.
         -3    1    3    3    0  502  0.30417178589E+02 -0.15726153388E+03 -0.95146277995E+02  0.18630407673E+03  0.00000000000E+00 0.  1.
         13    1    5    5    0    0 -0.43193856035E+03  0.17806797508E+03 -0.10148539375E+03  0.47809874379E+03  0.00000000000E+00 0. -1.
        -13    1    5    5    0    0 -0.26394917327E+02 -0.10517672251E+02 -0.16592941969E+02  0.32903477225E+02  0.00000000000E+00 0.  1.
          2    1    6    6  503    0  0.33425466108E+03 -0.10125077745E+02 -0.20801820941E+03  0.39382771754E+03  0.00000000000E+00 0. -1.
         -2    1    6    6    0  503  0.62924030353E+02  0.61673584818E+01 -0.94980982238E+02  0.11410020549E+03  0.00000000000E+00 0.  1.
<mgrwt>
<rscale>  0 0.11220775E+04</rscale>
<asrwt>0</asrwt>
<pdfrwt beam="1">  1        2 0.13769436E+00 0.11220775E+04</pdfrwt>
<pdfrwt beam="2">  1       -1 0.54105682E-01 0.11220775E+04</pdfrwt>
<totfact> 0.11529749E+02</totfact>
</mgrwt>
</event>
<event>
12    7  0.1711607E-007  0.2213041E+04  0.7818608E-02  0.8513020E-01
         -1   -1    0    0    0  501 -0.00000000000E+00  0.00000000000E+00  0.12132538380E+04  0.12132538380E+04  0.00000000000E+00 0.  1.
          2   -1    0    0  501    0  0.00000000000E+00 -0.00000000000E+00 -0.10091771662E+04  0.10091771662E+04  0.00000000000E+00 0. -1.
         24    2    1    2    0    0  0.66556418047E+03 -0.12966671537E+03 -0.54595598403E+03  0.87430047077E+03  0.80896485076E+02 0.  0.
        254    2    1    2    0    0 -0.66556418047E+03  0.12966671537E+03  0.75003265584E+03  0.13481305334E+04  0.89169378983E+03 0.  0.
         23    2    4    4    0    0 -0.26638794259E+03  0.19773576115E+03 -0.13569471087E+03  0.36981794327E+03  0.91051026416E+02 0.  0.
         23    2    4    4    0    0 -0.39917623788E+03 -0.68069045779E+02  0.88572736671E+03  0.97831259012E+03  0.92776570119E+02 0.  0.
          4    1    3    3  502    0  0.15781072935E+03 -0.43118702767E+02 -0.17491603994E+03  0.23949753622E+03  0.00000000000E+00 0. -1.
         -3    1    3    3    0  502  0.50775345112E+03 -0.86548012601E+02 -0.37103994409E+03  0.63480293456E+03  0.00000000000E+00 0.  1.
         13    1    5    5    0    0 -0.20410983464E+03  0.19403203519E+03 -0.11247683637E+03  0.30324955729E+03  0.00000000000E+00 0. -1.
        -13    1    5    5    0    0 -0.62278107950E+02  0.37037259614E+01 -0.23217874497E+02  0.66568385980E+02  0.00000000000E+00 0.  1.
          4    1    6    6  503    0 -0.33972039660E+03 -0.89903386651E+02  0.72934720897E+03  0.80959243946E+03  0.00000000000E+00 0. -1.
         -4    1    6    6    0  503 -0.59455841287E+02  0.21834340872E+02  0.15638015775E+03  0.16872015067E+03  0.00000000000E+00 0.  1.
<mgrwt>
<rscale>  0 0.22130414E+04</rscale>
<asrwt>0</asrwt>
<pdfrwt beam="1">  1        2 0.15525802E+00 0.22130414E+04</pdfrwt>
<pdfrwt beam="2">  1       -1 0.18665444E+00 0.22130414E+04</pdfrwt>
<totfact> 0.48271914E+00</totfact>
</mgrwt>
</event>
<event>
12    7  0.1711607E-007  0.2084793E+04  0.7818608E-02  0.8567972E-01
          2   -1    0    0  501    0  0.00000000000E+00  0.00000000000E+00  0.36738160412E+04  0.36738160412E+04  0.00000000000E+00 0. -1.
         -1   -1    0    0    0  501 -0.00000000000E+00 -0.00000000000E+00 -0.29576624012E+03  0.29576624012E+03  0.00000000000E+00 0.  1.
         24    2    1    2    0    0 -0.96048714218E+02 -0.83538351872E+03  0.15503189177E+04  0.17654618450E+04  0.79219950207E+02 0.  0.
        254    2    1    2    0    0  0.96048714218E+02  0.83538351872E+03  0.18277308833E+04  0.22041204363E+04  0.90025315168E+03 0.  0.
         23    2    4    4    0    0 -0.16263592740E+03 -0.12956289880E+03  0.28711232683E+03  0.36571425354E+03  0.89869001329E+02 0.  0.
         23    2    4    4    0    0  0.25868464162E+03  0.96494641752E+03  0.15406185565E+04  0.18384061828E+04  0.90512008903E+02 0.  0.
          2    1    3    3  502    0 -0.42605069941E+02 -0.37582853749E+03  0.78039721260E+03  0.86722666645E+03  0.00000000000E+00 0. -1.
         -1    1    3    3    0  502 -0.53443644277E+02 -0.45955498122E+03  0.76992170512E+03  0.89823517850E+03  0.00000000000E+00 0.  1.
         13    1    5    5    0    0 -0.32297901239E+02 -0.80861551586E+02  0.10127017822E+03  0.13355670686E+03  0.00000000000E+00 0. -1.
        -13    1    5    5    0    0 -0.13033802617E+03 -0.48701347217E+02  0.18584214861E+03  0.23215754669E+03  0.00000000000E+00 0.  1.
          2    1    6    6  503    0  0.20678661972E+03  0.60346028286E+03  0.98400148852E+03  0.11726823732E+04  0.00000000000E+00 0.  1.
         -2    1    6    6    0  503  0.51898021898E+02  0.36148613466E+03  0.55661706800E+03  0.66572380956E+03  0.00000000000E+00 0. -1.
<mgrwt>
<rscale>  0 0.20847933E+04</rscale>
<asrwt>0</asrwt>
<pdfrwt beam="1">  1        2 0.56520244E+00 0.20847933E+04</pdfrwt>
<pdfrwt beam="2">  1       -1 0.45502501E-01 0.20847933E+04</pdfrwt>
<totfact> 0.30921005E+00</totfact>
</mgrwt>
</event>
<event>
12    7  0.1711607E-007  0.1389075E+04  0.7818608E-02  0.8961765E-01
          2   -1    0    0  501    0  0.00000000000E+00  0.00000000000E+00  0.17954521571E+04  0.17954521571E+04  0.00000000000E+00 0. -1.
         -1   -1    0    0    0  501 -0.00000000000E+00 -0.00000000000E+00 -0.26866902599E+03  0.26866902599E+03  0.00000000000E+00 0.  1.
         24    2    1    2    0    0  0.37219726875E+03 -0.24209696389E+02  0.23583060676E+03  0.44845978431E+03  0.79894848322E+02 0.  0.
        254    2    1    2    0    0 -0.37219726875E+03  0.24209696389E+02  0.12909525243E+04  0.16156613988E+04  0.89704315342E+03 0.  0.
         23    2    4    4    0    0  0.74114304274E+02 -0.35302732208E+03  0.41153712433E+03  0.55503486536E+03  0.92626544919E+02 0.  0.
         23    2    4    4    0    0 -0.44631157303E+03  0.37723701847E+03  0.87941540000E+03  0.10606265334E+04  0.10027666364E+03 0.  0.
          4    1    3    3  502    0  0.82176645060E+00  0.37094792961E+01  0.15029016334E+02  0.15501834366E+02  0.00000000000E+00 0. -1.
         -3    1    3    3    0  502  0.37137550230E+03 -0.27919175685E+02  0.22080159042E+03  0.43295794994E+03  0.00000000000E+00 0.  1.
         13    1    5    5    0    0  0.56120276920E+02 -0.20496223584E+03  0.30503487905E+03  0.37175970873E+03  0.00000000000E+00 0.  1.
        -13    1    5    5    0    0  0.17994027354E+02 -0.14806508625E+03  0.10650224529E+03  0.18327515663E+03  0.00000000000E+00 0. -1.
          4    1    6    6  503    0 -0.12274501759E+03  0.84926340862E+02  0.30388247497E+03  0.33856074981E+03  0.00000000000E+00 0. -1.
         -4    1    6    6    0  503 -0.32356655544E+03  0.29231067761E+03  0.57553292502E+03  0.72206578359E+03  0.00000000000E+00 0.  1.
<mgrwt>
<rscale>  0 0.13890751E+04</rscale>
<asrwt>0</asrwt>
<pdfrwt beam="1">  1        2 0.27622340E+00 0.13890751E+04</pdfrwt>
<pdfrwt beam="2">  1       -1 0.41333697E-01 0.13890751E+04</pdfrwt>
<totfact> 0.55233374E+01</totfact>
</mgrwt>
</event>
<event>
12    7  0.1711607E-007  0.2126159E+04  0.7818608E-02  0.8549807E-01
          2   -1    0    0  501    0  0.00000000000E+00  0.00000000000E+00  0.20316215079E+04  0.20316215079E+04  0.00000000000E+00 0. -1.
         -1   -1    0    0    0  501 -0.00000000000E+00 -0.00000000000E+00 -0.55627404614E+03  0.55627404614E+03  0.00000000000E+00 0.  1.
         24    2    1    2    0    0  0.76028467931E+03 -0.15701567894E+03  0.95897704046E+02  0.78645779793E+03  0.81441888895E+02 0.  0.
        254    2    1    2    0    0 -0.76028467931E+03  0.15701567894E+03  0.13794497577E+04  0.18014377561E+04  0.86000560353E+03 0.  0.
         23    2    4    4    0    0 -0.42528944908E+03  0.12110602874E+03  0.83548017619E+02  0.45933558727E+03  0.92038713527E+02 0.  0.
         23    2    4    4    0    0 -0.33499523022E+03  0.35909650201E+02  0.12959017401E+04  0.13421021689E+04  0.91463677947E+02 0.  0.
          4    1    3    3  502    0  0.72345083260E+03 -0.15093174031E+03  0.10872568181E+03  0.74698244377E+03  0.00000000000E+00 0. -1.
         -3    1    3    3    0  502  0.36833846710E+02 -0.60839386256E+01 -0.12827977762E+02  0.39475354161E+02  0.00000000000E+00 0.  1.
         13    1    5    5    0    0 -0.50187510006E+02  0.27965653097E+02  0.40841947249E+02  0.70490627524E+02  0.00000000000E+00 0.  1.
        -13    1    5    5    0    0 -0.37510193908E+03  0.93140375639E+02  0.42706070371E+02  0.38884495975E+03  0.00000000000E+00 0. -1.
          2    1    6    6  503    0 -0.17572299750E+02  0.71795409828E+01  0.19702972717E+03  0.19794202413E+03  0.00000000000E+00 0.  1.
         -2    1    6    6    0  503 -0.31742293047E+03  0.28730109218E+02  0.10988720130E+04  0.11441601447E+04  0.00000000000E+00 0. -1.
<mgrwt>
<rscale>  0 0.21261593E+04</rscale>
<asrwt>0</asrwt>
<pdfrwt beam="1">  1        2 0.31255715E+00 0.21261593E+04</pdfrwt>
<pdfrwt beam="2">  1       -1 0.85580623E-01 0.21261593E+04</pdfrwt>
<totfact> 0.90589892E+00</totfact>
</mgrwt>
</event>
<event>
12    7  0.1711607E-007  0.2134784E+04  0.7818608E-02  0.8546074E-01
          2   -1    0    0  501    0  0.00000000000E+00  0.00000000000E+00  0.54849365852E+03  0.54849365852E+03  0.00000000000E+00 0. -1.
         -1   -1    0    0    0  501 -0.00000000000E+00 -0.00000000000E+00 -0.20771907869E+04  0.20771907869E+04  0.00000000000E+00 0.  1.
         24    2    1    2    0    0  0.43329519185E+03  0.47370760758E+03 -0.13676896374E+04  0.15129884986E+04  0.80097639447E+02 0.  0.
        254    2    1    2    0    0 -0.43329519185E+03 -0.47370760758E+03 -0.16100749094E+03  0.11126959468E+04  0.89444129887E+03 0.  0.
         23    2    4    4    0    0 -0.63464836967E+03 -0.16597544984E+03  0.74282845851E+02  0.66641763627E+03  0.90929212410E+02 0.  0.
         23    2    4    4    0    0  0.20135317782E+03 -0.30773215775E+03 -0.23529033679E+03  0.44627831053E+03  0.92523536068E+02 0.  0.
          4    1    3    3  502    0  0.37629426102E+02  0.69478327455E+02 -0.21333708879E+03  0.22749928604E+03  0.00000000000E+00 0. -1.
         -3    1    3    3    0  502  0.39566576575E+03  0.40422928013E+03 -0.11543525486E+04  0.12854892125E+04  0.00000000000E+00 0.  1.
         13    1    5    5    0    0 -0.57343833574E+03 -0.13699752432E+03  0.41112492432E+02  0.59100768489E+03  0.00000000000E+00 0.  1.
        -13    1    5    5    0    0 -0.61210033933E+02 -0.28977925516E+02  0.33170353420E+02  0.75409951381E+02  0.00000000000E+00 0. -1.
          3    1    6    6  503    0  0.52078533516E+02 -0.15292689015E+03 -0.75289945453E+02  0.17823406877E+03  0.00000000000E+00 0. -1.
         -3    1    6    6    0  503  0.14927464431E+03 -0.15480526759E+03 -0.16000039134E+03  0.26804424175E+03  0.00000000000E+00 0.  1.
<mgrwt>
<rscale>  0 0.21347843E+04</rscale>
<asrwt>0</asrwt>
<pdfrwt beam="1">  1        2 0.84383639E-01 0.21347843E+04</pdfrwt>
<pdfrwt beam="2">  1       -1 0.31956782E+00 0.21347843E+04</pdfrwt>
<totfact> 0.14287675E+00</totfact>
</mgrwt>
</event>
<event>
12    7  0.1711607E-007  0.2849979E+04  0.7818608E-02  0.8287918E-01
          2   -1    0    0  501    0  0.00000000000E+00  0.00000000000E+00  0.13840803721E+04  0.13840803721E+04  0.00000000000E+00 0. -1.
         -1   -1    0    0    0  501 -0.00000000000E+00 -0.00000000000E+00 -0.14671072688E+04  0.14671072688E+04  0.00000000000E+00 0.  1.
         24    2    1    2    0    0 -0.47784659459E+03 -0.89419993040E+03  0.76323339695E+03  0.12715346990E+04  0.79651672441E+02 0.  0.
        254    2    1    2    0    0  0.47784659459E+03  0.89419993040E+03 -0.84626029364E+03  0.15796529420E+04  0.86672720572E+03 0.  0.
         23    2    4    4    0    0  0.48836687507E+03  0.26592337860E+03 -0.74810344813E+03  0.93728190104E+03  0.98087435286E+02 0.  0.
         23    2    4    4    0    0 -0.10520280482E+02  0.62827655180E+03 -0.98156845514E+02  0.64237104098E+03  0.90353119061E+02 0.  0.
          4    1    3    3  502    0 -0.24623875608E+03 -0.42506870697E+03  0.41475736761E+03  0.64291570569E+03  0.00000000000E+00 0. -1.
         -3    1    3    3    0  502 -0.23160783851E+03 -0.46913122344E+03  0.34847602934E+03  0.62861899326E+03  0.00000000000E+00 0.  1.
         13    1    5    5    0    0  0.61056688898E+02  0.74433646957E+02 -0.13530079244E+03  0.16605598904E+03  0.00000000000E+00 0.  1.
        -13    1    5    5    0    0  0.42731018618E+03  0.19148973165E+03 -0.61280265568E+03  0.77122591201E+03  0.00000000000E+00 0. -1.
          3    1    6    6  503    0 -0.34372137965E+02  0.56035134260E+03 -0.10055974720E+03  0.57033966527E+03  0.00000000000E+00 0. -1.
         -3    1    6    6    0  503  0.23851857483E+02  0.67925209202E+02  0.24029016845E+01  0.72031375712E+02  0.00000000000E+00 0.  1.
<mgrwt>
<rscale>  0 0.28499785E+04</rscale>
<asrwt>0</asrwt>
<pdfrwt beam="1">  1        2 0.21293544E+00 0.28499785E+04</pdfrwt>
<pdfrwt beam="2">  1       -1 0.22570881E+00 0.28499785E+04</pdfrwt>
<totfact> 0.14703458E+00</totfact>
</mgrwt>
</event>
<event>
12    7  0.1711607E-007  0.1351460E+04  0.7818608E-02  0.8989724E-01
          2   -1    0    0  501    0  0.00000000000E+00  0.00000000000E+00  0.15595081559E+04  0.15595081559E+04  0.00000000000E+00 0. -1.
         -1   -1    0    0    0  501 -0.00000000000E+00 -0.00000000000E+00 -0.29279156270E+03  0.29279156270E+03  0.00000000000E+00 0.  1.
         24    2    1    2    0    0 -0.99760945665E+02 -0.34088166956E+02  0.82596877617E+03  0.83655619900E+03  0.80545673191E+02 0.  0.
        254    2    1    2    0    0  0.99760945665E+02  0.34088166956E+02  0.44074781706E+03  0.10157435196E+04  0.90904455887E+03 0.  0.
         23    2    4    4    0    0  0.24426574068E+03 -0.16786697682E+03  0.62185253917E+03  0.69485899578E+03  0.91013018648E+02 0.  0.
         23    2    4    4    0    0 -0.14450479502E+03  0.20195514377E+03 -0.18110472211E+03  0.32088452385E+03  0.92197838346E+02 0.  0.
          2    1    3    3  502    0 -0.94152829393E+02 -0.20710990075E+02  0.80669041433E+03  0.81243038161E+03  0.00000000000E+00 0. -1.
         -1    1    3    3    0  502 -0.56081162723E+01 -0.13377176880E+02  0.19278361839E+02  0.24125817388E+02  0.00000000000E+00 0.  1.
         13    1    5    5    0    0  0.23376605938E+03 -0.15204950112E+03  0.50867252089E+03  0.58009771144E+03  0.00000000000E+00 0. -1.
        -13    1    5    5    0    0  0.10499681301E+02 -0.15817475702E+02  0.11318001828E+03  0.11476128434E+03  0.00000000000E+00 0.  1.
          3    1    6    6  503    0 -0.13995995045E+03  0.19923590521E+03 -0.14290985617E+03  0.28232421193E+03  0.00000000000E+00 0. -1.
         -3    1    6    6    0  503 -0.45448445709E+01  0.27192385604E+01 -0.38194865943E+02  0.38560311914E+02  0.00000000000E+00 0.  1.
<mgrwt>
<rscale>  0 0.13514597E+04</rscale>
<asrwt>0</asrwt>
<pdfrwt beam="1">  1        2 0.23992433E+00 0.13514597E+04</pdfrwt>
<pdfrwt beam="2">  1       -1 0.45044857E-01 0.13514597E+04</pdfrwt>
<totfact> 0.63909660E+01</totfact>
</mgrwt>
</event>
<event>
12    7  0.1711607E-007  0.1445509E+04  0.7818608E-02  0.8921520E-01
         -1   -1    0    0    0  501 -0.00000000000E+00  0.00000000000E+00  0.30784730933E+03  0.30784730933E+03  0.00000000000E+00 0.  1.
          2   -1    0    0  501    0  0.00000000000E+00 -0.00000000000E+00 -0.16968606110E+04  0.16968606110E+04  0.00000000000E+00 0. -1.
         24    2    1    2    0    0  0.12566480577E+03 -0.68685584211E+02 -0.99927871776E+03  0.10114557307E+04  0.63050666278E+02 0.  0.
        254    2    1    2    0    0 -0.12566480577E+03  0.68685584211E+02 -0.38973458388E+03  0.99325218959E+03  0.90230123206E+03 0.  0.
         23    2    4    4    0    0  0.19968353899E+02  0.46857953894E+03 -0.18838530295E+03  0.51367353843E+03  0.91684034795E+02 0.  0.
         23    2    4    4    0    0 -0.14563315967E+03 -0.39989395473E+03 -0.20134928093E+03  0.47957865117E+03  0.91268600835E+02 0.  0.
          2    1    3    3  502    0  0.71426255780E+02 -0.72915552656E+02 -0.65442801474E+03  0.66234010471E+03  0.00000000000E+00 0. -1.
         -1    1    3    3    0  502  0.54238549990E+02  0.42299684447E+01 -0.34485070303E+03  0.34911562600E+03  0.00000000000E+00 0.  1.
         13    1    5    5    0    0 -0.12154024330E+02  0.39021161103E+03 -0.17538106909E+03  0.42798521129E+03  0.00000000000E+00 0. -1.
        -13    1    5    5    0    0  0.32122378229E+02  0.78367927919E+02 -0.13004233864E+02  0.85688327138E+02  0.00000000000E+00 0.  1.
          1    1    6    6  503    0 -0.14634385877E+03 -0.29279982179E+03 -0.16429761957E+03  0.36625396713E+03  0.00000000000E+00 0. -1.
         -1    1    6    6    0  503  0.71069909602E+00 -0.10709413294E+03 -0.37051661358E+02  0.11332468404E+03  0.00000000000E+00 0.  1.
<mgrwt>
<rscale>  0 0.14455089E+04</rscale>
<asrwt>0</asrwt>
<pdfrwt beam="1">  1        2 0.26105548E+00 0.14455089E+04</pdfrwt>
<pdfrwt beam="2">  1       -1 0.47361124E-01 0.14455089E+04</pdfrwt>
<totfact> 0.48410428E+01</totfact>
</mgrwt>
</event>
<event>
12    7  0.1711607E-007  0.3724556E+04  0.7818608E-02  0.8062542E-01
          2   -1    0    0  501    0  0.00000000000E+00  0.00000000000E+00  0.23155753065E+04  0.23155753065E+04  0.00000000000E+00 0. -1.
         -1   -1    0    0    0  501 -0.00000000000E+00 -0.00000000000E+00 -0.14977183611E+04  0.14977183611E+04  0.00000000000E+00 0.  1.
         24    2    1    2    0    0  0.15303649468E+04  0.47971690742E+02  0.12615253961E+04  0.19853215003E+04  0.75742862503E+02 0.  0.
        254    2    1    2    0    0 -0.15303649468E+04 -0.47971690742E+02 -0.44366845063E+03  0.18279721673E+04  0.89460739813E+03 0.  0.
         23    2    4    4    0    0 -0.11436432685E+04  0.27009064301E+03 -0.56323366304E+03  0.13056140217E+04  0.80789439660E+02 0.  0.
         23    2    4    4    0    0 -0.38672167827E+03 -0.31806233375E+03  0.11956521241E+03  0.52235814553E+03  0.88571370002E+02 0.  0.
          2    1    3    3  502    0  0.12148317501E+04  0.27416383027E+02  0.10374922646E+04  0.15977978715E+04  0.00000000000E+00 0. -1.
         -1    1    3    3    0  502  0.31553319666E+03  0.20555307715E+02  0.22403313152E+03  0.38752362882E+03  0.00000000000E+00 0.  1.
         13    1    5    5    0    0 -0.10161478357E+04  0.21324351955E+03 -0.49590266638E+03  0.11506296872E+04  0.00000000000E+00 0.  1.
        -13    1    5    5    0    0 -0.12749543278E+03  0.56847123458E+02 -0.67330996653E+02  0.15498433449E+03  0.00000000000E+00 0. -1.
          2    1    6    6  503    0 -0.29174199588E+03 -0.19974845565E+03  0.11020525037E+03  0.37034853166E+03  0.00000000000E+00 0.  1.
         -2    1    6    6    0  503 -0.94979682393E+02 -0.11831387810E+03  0.93599620368E+01  0.15200961386E+03  0.00000000000E+00 0. -1.
<mgrwt>
<rscale>  0 0.37245562E+04</rscale>
<asrwt>0</asrwt>
<pdfrwt beam="1">  1        2 0.35624235E+00 0.37245562E+04</pdfrwt>
<pdfrwt beam="2">  1       -1 0.23041821E+00 0.37245562E+04</pdfrwt>
<totfact> 0.38213816E-01</totfact>
</mgrwt>
</event>
<event>
12    7  0.1711607E-007  0.1786604E+04  0.7818608E-02  0.8713456E-01
         -1   -1    0    0    0  501 -0.00000000000E+00  0.00000000000E+00  0.22990532000E+03  0.22990532000E+03  0.00000000000E+00 0.  1.
          2   -1    0    0  501    0  0.00000000000E+00 -0.00000000000E+00 -0.34709422208E+04  0.34709422208E+04  0.00000000000E+00 0. -1.
         24    2    1    2    0    0  0.55169768866E+02 -0.78042716744E+02  0.14408390680E+03  0.19543333007E+03  0.91102388952E+02 0.  0.
        254    2    1    2    0    0 -0.55169768866E+02  0.78042716744E+02 -0.33851208076E+04  0.35054142107E+04  0.90540131304E+03 0.  0.
         23    2    4    4    0    0  0.32770691192E+03  0.73776662926E+02 -0.60787360749E+03  0.70033411737E+03  0.90126229002E+02 0.  0.
         23    2    4    4    0    0 -0.38287668079E+03  0.42660538183E+01 -0.27772472001E+04  0.28050800933E+04  0.93592562272E+02 0.  0.
          2    1    3    3  502    0 -0.15236954860E+02 -0.56335408540E+02  0.63264998952E+02  0.86071500168E+02  0.00000000000E+00 0. -1.
         -1    1    3    3    0  502  0.70406723726E+02 -0.21707308204E+02  0.80818907844E+02  0.10936182991E+03  0.00000000000E+00 0.  1.
         13    1    5    5    0    0  0.11576442761E+03  0.51444092250E+02 -0.15783517922E+03  0.20238537775E+03  0.00000000000E+00 0. -1.
        -13    1    5    5    0    0  0.21194248431E+03  0.22332570675E+02 -0.45003842827E+03  0.49794873962E+03  0.00000000000E+00 0.  1.
          3    1    6    6  503    0 -0.28148638182E+03 -0.18153658006E+02 -0.22581411707E+04  0.22756901558E+04  0.00000000000E+00 0. -1.
         -3    1    6    6    0  503 -0.10139029896E+03  0.22419711824E+02 -0.51910602943E+03  0.52938993756E+03  0.00000000000E+00 0.  1.
<mgrwt>
<rscale>  0 0.17866036E+04</rscale>
<asrwt>0</asrwt>
<pdfrwt beam="1">  1        2 0.53399109E+00 0.17866036E+04</pdfrwt>
<pdfrwt beam="2">  1       -1 0.35370050E-01 0.17866036E+04</pdfrwt>
<totfact> 0.70360914E+00</totfact>
</mgrwt>
</event>
<event>
12    7  0.1711607E-007  0.2643865E+04  0.7818608E-02  0.8353452E-01
         -1   -1    0    0    0  501 -0.00000000000E+00  0.00000000000E+00  0.63655593438E+03  0.63655593438E+03  0.00000000000E+00 0.  1.
          2   -1    0    0  501    0  0.00000000000E+00 -0.00000000000E+00 -0.27452505308E+04  0.27452505308E+04  0.00000000000E+00 0. -1.
         24    2    1    2    0    0 -0.17200857492E+03 -0.48796978610E+03 -0.22749373529E+04  0.23343796028E+04  0.79288765916E+02 0.  0.
        254    2    1    2    0    0  0.17200857492E+03  0.48796978610E+03  0.16624275652E+03  0.10474268623E+04  0.89541326538E+03 0.  0.
         23    2    4    4    0    0  0.74534676072E+02 -0.24752479730E+03 -0.24567297847E+02  0.27597902391E+03  0.93471526691E+02 0.  0.
         23    2    4    4    0    0  0.97473898844E+02  0.73549458340E+03  0.19081005437E+03  0.77144783841E+03  0.90938701140E+02 0.  0.
          2    1    3    3  502    0 -0.17542358848E+03 -0.41992415853E+03 -0.20005143148E+04  0.20516255160E+04  0.00000000000E+00 0. -1.
         -1    1    3    3    0  502  0.34150135660E+01 -0.68045627577E+02 -0.27442303808E+03  0.28275408676E+03  0.00000000000E+00 0.  1.
         13    1    5    5    0    0 -0.85492440038E+00  0.76610425172E+00 -0.16323764206E+02  0.16364079238E+02  0.00000000000E+00 0.  1.
        -13    1    5    5    0    0  0.75389600472E+02 -0.24829090155E+03 -0.82435336408E+01  0.25961494467E+03  0.00000000000E+00 0. -1.
          4    1    6    6  503    0  0.10880367824E+03  0.67978198574E+03  0.19156440186E+03  0.71458988840E+03  0.00000000000E+00 0. -1.
         -4    1    6    6    0  503 -0.11329779399E+02  0.55712597658E+02 -0.75434749090E+00  0.56857950008E+02  0.00000000000E+00 0.  1.
<mgrwt>
<rscale>  0 0.26438650E+04</rscale>
<asrwt>0</asrwt>
<pdfrwt beam="1">  1        2 0.42234624E+00 0.26438650E+04</pdfrwt>
<pdfrwt beam="2">  1       -1 0.97931681E-01 0.26438650E+04</pdfrwt>
<totfact> 0.24987100E+00</totfact>
</mgrwt>
</event>
<event>
12    7  0.2058401E-007  0.2222830E+04  0.7818608E-02  0.8508985E-01
         -1   -1    0    0    0  501 -0.00000000000E+00  0.00000000000E+00  0.13509579451E+04  0.13509579451E+04  0.00000000000E+00 0.  1.
          2   -1    0    0  501    0  0.00000000000E+00 -0.00000000000E+00 -0.91434621795E+03  0.91434621795E+03  0.00000000000E+00 0. -1.
         24    2    1    2    0    0  0.75788883947E+02  0.34889334805E+02 -0.76080831312E+03  0.76804609144E+03  0.64064722245E+02 0.  0.
        254    2    1    2    0    0 -0.75788883947E+02 -0.34889334805E+02  0.11974200403E+04  0.14972580716E+04  0.89498925108E+03 0.  0.
         23    2    4    4    0    0 -0.29830599965E+03  0.30861691180E+03  0.83342273805E+03  0.94190216888E+03  0.91407700862E+02 0.  0.
         23    2    4    4    0    0  0.22251711570E+03 -0.34350624660E+03  0.36399730221E+03  0.55535590272E+03  0.91737312109E+02 0.  0.
          2    1    3    3  502    0  0.38469415092E+02  0.18506133540E+02 -0.61972596438E+03  0.62119452976E+03  0.00000000000E+00 0. -1.
         -1    1    3    3    0  502  0.37319468855E+02  0.16383201264E+02 -0.14108234874E+03  0.14685156167E+03  0.00000000000E+00 0.  1.
         13    1    5    5    0    0 -0.40173810732E+02  0.45196971959E+02  0.60722904144E+02  0.85696980289E+02  0.00000000000E+00 0.  1.
        -13    1    5    5    0    0 -0.25813218891E+03  0.26341993984E+03  0.77269983390E+03  0.85620518859E+03  0.00000000000E+00 0. -1.
          1    1    6    6  503    0  0.19523810121E+03 -0.26205223765E+03  0.32545398048E+03  0.46120449351E+03  0.00000000000E+00 0. -1.
         -1    1    6    6    0  503  0.27279014486E+02 -0.81454008952E+02  0.38543321725E+02  0.94151409205E+02  0.00000000000E+00 0.  1.
<mgrwt>
<rscale>  0 0.22228300E+04</rscale>
<asrwt>0</asrwt>
<pdfrwt beam="1">  1        2 0.14066865E+00 0.22228300E+04</pdfrwt>
<pdfrwt beam="2">  1       -1 0.20783968E+00 0.22228300E+04</pdfrwt>
<totfact> 0.39679695E+00</totfact>
</mgrwt>
</event>
<event>
12    7  0.1711607E-007  0.1160372E+04  0.7818608E-02  0.9148267E-01
         -1   -1    0    0    0  501 -0.00000000000E+00  0.00000000000E+00  0.24225019456E+03  0.24225019456E+03  0.00000000000E+00 0.  1.
          2   -1    0    0  501    0  0.00000000000E+00 -0.00000000000E+00 -0.13895388369E+04  0.13895388369E+04  0.00000000000E+00 0. -1.
         24    2    1    2    0    0 -0.11392675836E+03  0.18446443712E+03 -0.34053704964E+03  0.41127002111E+03  0.78556433557E+02 0.  0.
        254    2    1    2    0    0  0.11392675836E+03 -0.18446443712E+03 -0.80675159268E+03  0.12205190103E+04  0.88983823667E+03 0.  0.
         23    2    4    4    0    0  0.28428057158E+03 -0.51746006957E+01  0.69344098784E+02  0.30589868919E+03  0.89012269601E+02 0.  0.
         23    2    4    4    0    0 -0.17035381322E+03 -0.17928983643E+03 -0.87609569147E+03  0.91462032114E+03  0.88438702531E+02 0.  0.
          2    1    3    3  502    0 -0.52562901123E+02  0.10932640606E+03 -0.25310507626E+03  0.28067294360E+03  0.00000000000E+00 0. -1.
         -1    1    3    3    0  502 -0.61363857235E+02  0.75138031061E+02 -0.87431973377E+02  0.13059707751E+03  0.00000000000E+00 0.  1.
         13    1    5    5    0    0  0.16846583963E+03 -0.87733375069E+01  0.85130815460E+02  0.18895757808E+03  0.00000000000E+00 0. -1.
        -13    1    5    5    0    0  0.11581473195E+03  0.35987368112E+01 -0.15786716676E+02  0.11694111110E+03  0.00000000000E+00 0.  1.
          2    1    6    6  503    0 -0.86753162372E+02 -0.32357518347E+02 -0.34937421800E+03  0.36143528380E+03  0.00000000000E+00 0.  1.
         -2    1    6    6    0  503 -0.83600650850E+02 -0.14693231808E+03 -0.52672147347E+03  0.55318503733E+03  0.00000000000E+00 0. -1.
<mgrwt>
<rscale>  0 0.11603724E+04</rscale>
<asrwt>0</asrwt>
<pdfrwt beam="1">  1        2 0.21377520E+00 0.11603724E+04</pdfrwt>
<pdfrwt beam="2">  1       -1 0.37269261E-01 0.11603724E+04</pdfrwt>
<totfact> 0.11451775E+02</totfact>
</mgrwt>
</event>
<event>
12    7  0.1711607E-007  0.2534959E+04  0.7818608E-02  0.8390636E-01
         -1   -1    0    0    0  501 -0.00000000000E+00  0.00000000000E+00  0.96080031664E+03  0.96080031664E+03  0.00000000000E+00 0.  1.
          2   -1    0    0  501    0  0.00000000000E+00 -0.00000000000E+00 -0.16720476575E+04  0.16720476575E+04  0.00000000000E+00 0. -1.
         24    2    1    2    0    0  0.21426663666E+03 -0.96677841653E+03 -0.82325863776E+03  0.12901714611E+04  0.78847422849E+02 0.  0.
        254    2    1    2    0    0 -0.21426663666E+03  0.96677841653E+03  0.11201129688E+03  0.13426765131E+04  0.89981275268E+03 0.  0.
         23    2    4    4    0    0  0.15887120901E+03  0.90405645964E+03 -0.44348262877E+02  0.92360065569E+03  0.92267326330E+02 0.  0.
         23    2    4    4    0    0 -0.37313784567E+03  0.62721956888E+02  0.15635955976E+03  0.41907585738E+03  0.89500651206E+02 0.  0.
          4    1    3    3  502    0  0.16664926393E+03 -0.61958178901E+03 -0.56393417425E+03  0.85421035075E+03  0.00000000000E+00 0. -1.
         -3    1    3    3    0  502  0.47617372733E+02 -0.34719662752E+03 -0.25932446350E+03  0.43596111033E+03  0.00000000000E+00 0.  1.
         13    1    5    5    0    0  0.16675857958E+03  0.88127916239E+03 -0.51681832261E+02  0.89840547512E+03  0.00000000000E+00 0. -1.
        -13    1    5    5    0    0 -0.78873705722E+01  0.22777297246E+02  0.73335693840E+01  0.25195180576E+02  0.00000000000E+00 0.  1.
          3    1    6    6  503    0 -0.10586764972E+03 -0.20509308100E+02  0.57455839746E+02  0.12218741546E+03  0.00000000000E+00 0.  1.
         -3    1    6    6    0  503 -0.26727019595E+03  0.83231264988E+02  0.98903720010E+02  0.29688844192E+03  0.00000000000E+00 0. -1.
<mgrwt>
<rscale>  0 0.25349587E+04</rscale>
<asrwt>0</asrwt>
<pdfrwt beam="1">  1        2 0.25723810E+00 0.25349587E+04</pdfrwt>
<pdfrwt beam="2">  1       -1 0.14781543E+00 0.25349587E+04</pdfrwt>
<totfact> 0.37357119E+00</totfact>
</mgrwt>
</event>
<event>
12    7  0.1711607E-007  0.1906946E+04  0.7818608E-02  0.8651406E-01
         -1   -1    0    0    0  501 -0.00000000000E+00  0.00000000000E+00  0.71603157270E+03  0.71603157270E+03  0.00000000000E+00 0.  1.
          2   -1    0    0  501    0  0.00000000000E+00 -0.00000000000E+00 -0.12696522110E+04  0.12696522110E+04  0.00000000000E+00 0. -1.
         24    2    1    2    0    0  0.70601139977E+03 -0.77977749468E+02  0.14834145251E+03  0.73009246232E+03  0.80605154846E+02 0.  0.
        254    2    1    2    0    0 -0.70601139977E+03  0.77977749468E+02 -0.70196209085E+03  0.12555913214E+04  0.76106909239E+03 0.  0.
         23    2    4    4    0    0 -0.84462028487E+03 -0.12207033268E+02 -0.53872798761E+03  0.10060152492E+04  0.91139452199E+02 0.  0.
         23    2    4    4    0    0  0.13860888510E+03  0.90184782735E+02 -0.16323410324E+03  0.24957607219E+03  0.91088557363E+02 0.  0.
          2    1    3    3  502    0  0.39770643496E+02 -0.44205188272E+01  0.28616252065E+02  0.49194867141E+02  0.00000000000E+00 0. -1.
         -1    1    3    3    0  502  0.66624075628E+03 -0.73557230640E+02  0.11972520045E+03  0.68089759518E+03  0.00000000000E+00 0.  1.
         13    1    5    5    0    0 -0.22317525078E+03  0.39308391172E+00 -0.19124245122E+03  0.29390648551E+03  0.00000000000E+00 0.  1.
        -13    1    5    5    0    0 -0.62144503409E+03 -0.12600117179E+02 -0.34748553638E+03  0.71210876371E+03  0.00000000000E+00 0. -1.
          1    1    6    6  503    0  0.12180461210E+03  0.10558635027E+03 -0.15894597635E+03  0.22638167835E+03  0.00000000000E+00 0. -1.
         -1    1    6    6    0  503  0.16804273000E+02 -0.15401567534E+02 -0.42881268910E+01  0.23194393844E+02  0.00000000000E+00 0.  1.
<mgrwt>
<rscale>  0 0.19069463E+04</rscale>
<asrwt>0</asrwt>
<pdfrwt beam="1">  1        2 0.19533111E+00 0.19069463E+04</pdfrwt>
<pdfrwt beam="2">  1       -1 0.11015871E+00 0.19069463E+04</pdfrwt>
<totfact> 0.13979033E+01</totfact>
</mgrwt>
</event>
<event>
12    7  0.1711607E-007  0.1632475E+04  0.7818608E-02  0.8800842E-01
         -1   -1    0    0    0  501 -0.00000000000E+00  0.00000000000E+00  0.21567055747E+03  0.21567055747E+03  0.00000000000E+00 0.  1.
          2   -1    0    0  501    0  0.00000000000E+00 -0.00000000000E+00 -0.30891731247E+04  0.30891731247E+04  0.00000000000E+00 0. -1.
         24    2    1    2    0    0 -0.31828607474E+03 -0.42414525311E+03 -0.14003594308E+04  0.14995052746E+04  0.79399697632E+02 0.  0.
        254    2    1    2    0    0  0.31828607474E+03  0.42414525311E+03 -0.14731431364E+04  0.18053384076E+04  0.89882748310E+03 0.  0.
         23    2    4    4    0    0  0.34551596985E+03  0.67237311713E+03 -0.12191211289E+04  0.14374525297E+04  0.92447575425E+02 0.  0.
         23    2    4    4    0    0 -0.27229895114E+02 -0.24822786402E+03 -0.25402200755E+03  0.36788587788E+03  0.91947262917E+02 0.  0.
          4    1    3    3  502    0 -0.22315405433E+03 -0.27252317186E+03 -0.10207066979E+04  0.10797725568E+04  0.00000000000E+00 0. -1.
         -3    1    3    3    0  502 -0.95132020415E+02 -0.15162208125E+03 -0.37965273291E+03  0.41973271785E+03  0.00000000000E+00 0.  1.
         13    1    5    5    0    0  0.27825486596E+03  0.54437747610E+03 -0.10492936945E+04  0.12144092655E+04  0.00000000000E+00 0.  1.
        -13    1    5    5    0    0  0.67261103896E+02  0.12799564103E+03 -0.16982743439E+03  0.22304326417E+03  0.00000000000E+00 0. -1.
          2    1    6    6  503    0 -0.29333353770E+02 -0.73219713450E+02 -0.13458438976E+03  0.15599528854E+03  0.00000000000E+00 0. -1.
         -2    1    6    6    0  503  0.21034586555E+01 -0.17500815057E+03 -0.11943761779E+03  0.21189058934E+03  0.00000000000E+00 0.  1.
<mgrwt>
<rscale>  0 0.16324750E+04</rscale>
<asrwt>0</asrwt>
<pdfrwt beam="1">  1        2 0.47525743E+00 0.16324750E+04</pdfrwt>
<pdfrwt beam="2">  1       -1 0.33180084E-01 0.16324750E+04</pdfrwt>
<totfact> 0.14309661E+01</totfact>
</mgrwt>
</event>
<event>
12    7  0.1711607E-007  0.1237441E+04  0.7818608E-02  0.9080701E-01
          2   -1    0    0  501    0  0.00000000000E+00  0.00000000000E+00  0.32632921431E+04  0.32632921431E+04  0.00000000000E+00 0. -1.
         -1   -1    0    0    0  501 -0.00000000000E+00 -0.00000000000E+00 -0.11730945385E+03  0.11730945385E+03  0.00000000000E+00 0.  1.
         24    2    1    2    0    0  0.35212933213E+02 -0.18793476823E+03  0.17645644335E+03  0.27076673774E+03  0.74955467374E+02 0.  0.
        254    2    1    2    0    0 -0.35212933213E+02  0.18793476823E+03  0.29695262459E+04  0.31098348592E+04  0.90356366610E+03 0.  0.
         23    2    4    4    0    0  0.28113066403E+03  0.40250752540E+03  0.12665118409E+04  0.13619153103E+04  0.98561204491E+02 0.  0.
         23    2    4    4    0    0 -0.31634359724E+03 -0.21457275717E+03  0.17030144050E+04  0.17479195489E+04  0.94074152575E+02 0.  0.
          4    1    3    3  502    0 -0.18989856138E+02 -0.41657211231E+02  0.62985272934E+02  0.77865797949E+02  0.00000000000E+00 0. -1.
         -3    1    3    3    0  502  0.54202789351E+02 -0.14627755700E+03  0.11347117042E+03  0.19290093979E+03  0.00000000000E+00 0.  1.
         13    1    5    5    0    0  0.26209410611E+03  0.38242263248E+03  0.11092602003E+04  0.12022473049E+04  0.00000000000E+00 0. -1.
        -13    1    5    5    0    0  0.19036557917E+02  0.20084892928E+02  0.15725164063E+03  0.15966800538E+03  0.00000000000E+00 0.  1.
          4    1    6    6  503    0 -0.25650960631E+03 -0.21239826070E+03  0.14024097725E+04  0.14414102016E+04  0.00000000000E+00 0. -1.
         -4    1    6    6    0  503 -0.59833990925E+02 -0.21744964705E+01  0.30060463254E+03  0.30650934735E+03  0.00000000000E+00 0.  1.
<mgrwt>
<rscale>  0 0.12374409E+04</rscale>
<asrwt>0</asrwt>
<pdfrwt beam="1">  1        2 0.50204488E+00 0.12374409E+04</pdfrwt>
<pdfrwt beam="2">  1       -1 0.18047611E-01 0.12374409E+04</pdfrwt>
<totfact> 0.32662352E+01</totfact>
</mgrwt>
</event>
<event>
12    7  0.1711607E-007  0.1335575E+04  0.7818608E-02  0.9001820E-01
          2   -1    0    0  501    0  0.00000000000E+00  0.00000000000E+00  0.17805078553E+04  0.17805078553E+04  0.00000000000E+00 0. -1.
         -1   -1    0    0    0  501 -0.00000000000E+00 -0.00000000000E+00 -0.25045656296E+03  0.25045656296E+03  0.00000000000E+00 0.  1.
         24    2    1    2    0    0 -0.28523522251E+03  0.12710021838E+03  0.95355137939E+02  0.33701098495E+03  0.83487747475E+02 0.  0.
        254    2    1    2    0    0  0.28523522251E+03 -0.12710021838E+03  0.14346961544E+04  0.16939534333E+04  0.84475533798E+03 0.  0.
         23    2    4    4    0    0  0.20046165694E+03  0.79166365520E+02 -0.64914197346E+01  0.23271634797E+03  0.87536111117E+02 0.  0.
         23    2    4    4    0    0  0.84773565565E+02 -0.20626658390E+03  0.14411875741E+04  0.14612370853E+04  0.91976815837E+02 0.  0.
          2    1    3    3  502    0 -0.32171671314E+02  0.33891116250E+02  0.40429237131E+02  0.61791159649E+02  0.00000000000E+00 0. -1.
         -1    1    3    3    0  502 -0.25306355119E+03  0.93209102132E+02  0.54925900808E+02  0.27521982531E+03  0.00000000000E+00 0.  1.
         13    1    5    5    0    0  0.15083458296E+03  0.93685321804E+02  0.11589024189E+02  0.17793908064E+03  0.00000000000E+00 0.  1.
        -13    1    5    5    0    0  0.49627073979E+02 -0.14518956284E+02 -0.18080443924E+02  0.54777267327E+02  0.00000000000E+00 0. -1.
          4    1    6    6  503    0  0.47910043277E+02 -0.61011923044E+02  0.74936864181E+03  0.75337320654E+03  0.00000000000E+00 0. -1.
         -4    1    6    6    0  503  0.36863522289E+02 -0.14525466086E+03  0.69181893229E+03  0.70786387876E+03  0.00000000000E+00 0.  1.
<mgrwt>
<rscale>  0 0.13355746E+04</rscale>
<asrwt>0</asrwt>
<pdfrwt beam="1">  1        2 0.27392428E+00 0.13355746E+04</pdfrwt>
<pdfrwt beam="2">  1       -1 0.38531780E-01 0.13355746E+04</pdfrwt>
<totfact> 0.64269874E+01</totfact>
</mgrwt>
</event>
<event>
12    7  0.1711607E-007  0.1232565E+04  0.7818608E-02  0.9084820E-01
          2   -1    0    0  501    0  0.00000000000E+00  0.00000000000E+00  0.15682300613E+04  0.15682300613E+04  0.00000000000E+00 0. -1.
         -1   -1    0    0    0  501 -0.00000000000E+00 -0.00000000000E+00 -0.24218657323E+03  0.24218657323E+03  0.00000000000E+00 0.  1.
         24    2    1    2    0    0 -0.10481555373E+03 -0.25372485638E+02  0.44398715122E+03  0.46758758985E+03  0.99415795524E+02 0.  0.
        254    2    1    2    0    0  0.10481555373E+03  0.25372485638E+02  0.88205633684E+03  0.13428290447E+04  0.10067454487E+04 0.  0.
         23    2    4    4    0    0  0.29007276459E+03  0.57775273659E+02 -0.11043523950E+03  0.32830847680E+03  0.90057330679E+02 0.  0.
         23    2    4    4    0    0 -0.18525721086E+03 -0.32402788021E+02  0.99249157634E+03  0.10145205679E+04  0.94033391433E+02 0.  0.
          2    1    3    3  502    0 -0.86212519494E+02  0.55872495984E+01  0.40631348646E+03  0.41539675631E+03  0.00000000000E+00 0. -1.
         -1    1    3    3    0  502 -0.18603034241E+02 -0.30959735236E+02  0.37673664764E+02  0.52190833540E+02  0.00000000000E+00 0.  1.
         13    1    5    5    0    0  0.29399100468E+03  0.64175623174E+02 -0.11111405047E+03  0.32077336806E+03  0.00000000000E+00 0. -1.
        -13    1    5    5    0    0 -0.39182400925E+01 -0.64003495154E+01  0.67881096901E+00  0.75351087366E+01  0.00000000000E+00 0.  1.
          1    1    6    6  503    0 -0.19074652083E+03 -0.23840904880E+02  0.97861278393E+03  0.99731419564E+03  0.00000000000E+00 0. -1.
         -1    1    6    6    0  503  0.54893099778E+01 -0.85618831404E+01  0.13878792410E+02  0.17206372241E+02  0.00000000000E+00 0.  1.
<mgrwt>
<rscale>  0 0.12325652E+04</rscale>
<asrwt>0</asrwt>
<pdfrwt beam="1">  1        2 0.24126616E+00 0.12325652E+04</pdfrwt>
<pdfrwt beam="2">  1       -1 0.37259474E-01 0.12325652E+04</pdfrwt>
<totfact> 0.90322875E+01</totfact>
</mgrwt>
</event>
<event>
12    7  0.1711607E-007  0.1946824E+04  0.7818608E-02  0.8631894E-01
         -1   -1    0    0    0  501 -0.00000000000E+00  0.00000000000E+00  0.51382478639E+03  0.51382478639E+03  0.00000000000E+00 0.  1.
          2   -1    0    0  501    0  0.00000000000E+00 -0.00000000000E+00 -0.18440741077E+04  0.18440741077E+04  0.00000000000E+00 0. -1.
         24    2    1    2    0    0 -0.60143510167E+03 -0.22467687296E+03 -0.22876077041E+02  0.64740103817E+03  0.80005690819E+02 0.  0.
        254    2    1    2    0    0  0.60143510167E+03  0.22467687296E+03 -0.13073732443E+04  0.17104978559E+04  0.89686913009E+03 0.  0.
         23    2    4    4    0    0  0.49099317457E+03  0.18864625942E+03 -0.14249361979E+04  0.15216116343E+04  0.90537776326E+02 0.  0.
         23    2    4    4    0    0  0.11044192710E+03  0.36030613546E+02  0.11756295363E+03  0.18888622160E+03  0.91440320816E+02 0.  0.
          4    1    3    3  502    0 -0.17638257328E+03 -0.29439037053E+02  0.41881682159E+01  0.17887148966E+03  0.00000000000E+00 0. -1.
         -3    1    3    3    0  502 -0.42505252839E+03 -0.19523783591E+03 -0.27064245257E+02  0.46852954851E+03  0.00000000000E+00 0.  1.
         13    1    5    5    0    0  0.46476911909E+03  0.19123221332E+03 -0.12965146999E+04  0.13905144590E+04  0.00000000000E+00 0. -1.
        -13    1    5    5    0    0  0.26224055478E+02 -0.25859539034E+01 -0.12842149797E+03  0.13109717535E+03  0.00000000000E+00 0.  1.
          1    1    6    6  503    0  0.79694791215E+02 -0.57815911201E+01  0.26703299404E+02  0.84248161652E+02  0.00000000000E+00 0. -1.
         -1    1    6    6    0  503  0.30747135886E+02  0.41812204666E+02  0.90859654225E+02  0.10463805995E+03  0.00000000000E+00 0.  1.
<mgrwt>
<rscale>  0 0.19468241E+04</rscale>
<asrwt>0</asrwt>
<pdfrwt beam="1">  1        2 0.28370371E+00 0.19468241E+04</pdfrwt>
<pdfrwt beam="2">  1       -1 0.79049967E-01 0.19468241E+04</pdfrwt>
<totfact> 0.13866010E+01</totfact>
</mgrwt>
</event>
<event>
12    7  0.1711607E-007  0.1980594E+04  0.7818608E-02  0.8615748E-01
         -1   -1    0    0    0  501 -0.00000000000E+00  0.00000000000E+00  0.88076616169E+03  0.88076616169E+03  0.00000000000E+00 0.  1.
          2   -1    0    0  501    0  0.00000000000E+00 -0.00000000000E+00 -0.11134483797E+04  0.11134483797E+04  0.00000000000E+00 0. -1.
         24    2    1    2    0    0 -0.70627332112E+03  0.20124710850E+03  0.13878009291E+03  0.75190543609E+03  0.82337523729E+02 0.  0.
        254    2    1    2    0    0  0.70627332112E+03 -0.20124710850E+03 -0.37146231089E+03  0.12423091053E+04  0.93060478282E+03 0.  0.
         23    2    4    4    0    0  0.29775790429E+03 -0.50049112371E+02  0.30051728462E+03  0.43585637786E+03  0.92170822662E+02 0.  0.
         23    2    4    4    0    0  0.40851541683E+03 -0.15119799613E+03 -0.67197959551E+03  0.80645272740E+03  0.95203702292E+02 0.  0.
          4    1    3    3  502    0 -0.62849977815E+03  0.17286171718E+03  0.96499616999E+02  0.65894257753E+03  0.00000000000E+00 0. -1.
         -3    1    3    3    0  502 -0.77773542970E+02  0.28385391316E+02  0.42280475914E+02  0.92962858550E+02  0.00000000000E+00 0.  1.
         13    1    5    5    0    0  0.14486392678E+03  0.22205509316E+02  0.13670106044E+03  0.20041412588E+03  0.00000000000E+00 0. -1.
        -13    1    5    5    0    0  0.15289397751E+03 -0.72254621688E+02  0.16381622418E+03  0.23544225199E+03  0.00000000000E+00 0.  1.
          1    1    6    6  503    0  0.35820287381E+02  0.13641313018E+02 -0.60397914194E+02  0.71533813318E+02  0.00000000000E+00 0. -1.
         -1    1    6    6    0  503  0.37269512945E+03 -0.16483930915E+03 -0.61158168132E+03  0.73491891408E+03  0.00000000000E+00 0.  1.
<mgrwt>
<rscale>  0 0.19805935E+04</rscale>
<asrwt>0</asrwt>
<pdfrwt beam="1">  1        2 0.17129975E+00 0.19805935E+04</pdfrwt>
<pdfrwt beam="2">  1       -1 0.13550249E+00 0.19805935E+04</pdfrwt>
<totfact> 0.10349753E+01</totfact>
</mgrwt>
</event>
<event>
12    7  0.1711607E-007  0.1389374E+04  0.7818608E-02  0.8961547E-01
          2   -1    0    0  501    0  0.00000000000E+00  0.00000000000E+00  0.14895889308E+04  0.14895889308E+04  0.00000000000E+00 0. -1.
         -1   -1    0    0    0  501 -0.00000000000E+00 -0.00000000000E+00 -0.32397512601E+03  0.32397512601E+03  0.00000000000E+00 0.  1.
         24    2    1    2    0    0 -0.17059988298E+03  0.59044834231E+02  0.78515220498E+03  0.80947847480E+03  0.78745181755E+02 0.  0.
        254    2    1    2    0    0  0.17059988298E+03 -0.59044834231E+02  0.38046159977E+03  0.10040855820E+04  0.91150766015E+03 0.  0.
         23    2    4    4    0    0 -0.35491103851E+03 -0.54068186502E+02  0.43162355528E+02  0.37293647022E+03  0.91287501002E+02 0.  0.
         23    2    4    4    0    0  0.52551092149E+03 -0.49766477297E+01  0.33729924424E+03  0.63114911176E+03  0.91607453233E+02 0.  0.
          2    1    3    3  502    0 -0.11625998988E+03  0.55565193161E+02  0.39353257793E+03  0.41409149452E+03  0.00000000000E+00 0. -1.
         -1    1    3    3    0  502 -0.54339893101E+02  0.34796410708E+01  0.39161962705E+03  0.39538698028E+03  0.00000000000E+00 0.  1.
         13    1    5    5    0    0 -0.22722577080E+03 -0.54254816002E+02  0.67030153109E+02  0.24303945647E+03  0.00000000000E+00 0. -1.
        -13    1    5    5    0    0 -0.12768526770E+03  0.18662949996E+00 -0.23867797580E+02  0.12989701374E+03  0.00000000000E+00 0.  1.
          1    1    6    6  503    0  0.33318941345E+03  0.37788686548E+02  0.19259121724E+03  0.38669697054E+03  0.00000000000E+00 0. -1.
         -1    1    6    6    0  503  0.19232150803E+03 -0.42765334278E+02  0.14470802701E+03  0.24445214122E+03  0.00000000000E+00 0.  1.
<mgrwt>
<rscale>  0 0.13893736E+04</rscale>
<asrwt>0</asrwt>
<pdfrwt beam="1">  1        2 0.22916752E+00 0.13893736E+04</pdfrwt>
<pdfrwt beam="2">  1       -1 0.49842328E-01 0.13893736E+04</pdfrwt>
<totfact> 0.57662647E+01</totfact>
</mgrwt>
</event>
<event>
12    7  0.1711607E-007  0.1933220E+04  0.7818608E-02  0.8638495E-01
         -1   -1    0    0    0  501 -0.00000000000E+00  0.00000000000E+00  0.13802132196E+04  0.13802132196E+04  0.00000000000E+00 0.  1.
          2   -1    0    0  501    0  0.00000000000E+00 -0.00000000000E+00 -0.67694942471E+03  0.67694942471E+03  0.00000000000E+00 0. -1.
         24    2    1    2    0    0 -0.64232122369E+03  0.38297431342E+03  0.19620768391E+03  0.77887271797E+03  0.94336506327E+02 0.  0.
        254    2    1    2    0    0  0.64232122369E+03 -0.38297431342E+03  0.50705611096E+03  0.12782899263E+04  0.90425292752E+03 0.  0.
         23    2    4    4    0    0 -0.15961643769E+03 -0.19537217118E+02 -0.95553742517E+02  0.20747546799E+03  0.89757685326E+02 0.  0.
         23    2    4    4    0    0  0.80193766138E+03 -0.36343709630E+03  0.60260985347E+03  0.10708144583E+04  0.91183512624E+02 0.  0.
          4    1    3    3  502    0 -0.23272977633E+03  0.16617555187E+03  0.11577709110E+03  0.30851547393E+03  0.00000000000E+00 0. -1.
         -3    1    3    3    0  502 -0.40959144736E+03  0.21679876155E+03  0.80430592812E+02  0.47035724404E+03  0.00000000000E+00 0.  1.
         13    1    5    5    0    0 -0.30892044376E+00  0.19118043928E+02 -0.34063172435E+01  0.19421586769E+02  0.00000000000E+00 0. -1.
        -13    1    5    5    0    0 -0.15930751724E+03 -0.38655261047E+02 -0.92147425273E+02  0.18805388122E+03  0.00000000000E+00 0.  1.
          1    1    6    6  503    0  0.56280604689E+03 -0.29678303377E+03  0.45169437863E+03  0.78029393643E+03  0.00000000000E+00 0. -1.
         -1    1    6    6    0  503  0.23913161449E+03 -0.66654062534E+02  0.15091547485E+03  0.29052052191E+03  0.00000000000E+00 0.  1.
<mgrwt>
<rscale>  0 0.19332196E+04</rscale>
<asrwt>0</asrwt>
<pdfrwt beam="1">  1        2 0.10414607E+00 0.19332196E+04</pdfrwt>
<pdfrwt beam="2">  1       -1 0.21234049E+00 0.19332196E+04</pdfrwt>
<totfact> 0.56487835E+00</totfact>
</mgrwt>
</event>
<event>
12    7  0.1711607E-007  0.1862601E+04  0.7818608E-02  0.8673699E-01
          2   -1    0    0  501    0  0.00000000000E+00  0.00000000000E+00  0.23426217175E+04  0.23426217175E+04  0.00000000000E+00 0. -1.
         -1   -1    0    0    0  501 -0.00000000000E+00 -0.00000000000E+00 -0.37023516563E+03  0.37023516563E+03  0.00000000000E+00 0.  1.
         24    2    1    2    0    0 -0.23256758466E+03  0.66533773856E+03  0.62023811709E+03  0.94247826254E+03  0.82510397476E+02 0.  0.
        254    2    1    2    0    0  0.23256758466E+03 -0.66533773856E+03  0.13521484348E+04  0.17703786206E+04  0.89954048422E+03 0.  0.
         23    2    4    4    0    0 -0.10577780228E+03 -0.18504598012E+03  0.11009249247E+04  0.11249726620E+04  0.89982455418E+02 0.  0.
         23    2    4    4    0    0  0.33834538694E+03 -0.48029175845E+03  0.25122351015E+03  0.64540595861E+03  0.90982554707E+02 0.  0.
          2    1    3    3  502    0 -0.78159807713E+02  0.26808182994E+03  0.19633813062E+03  0.34135829362E+03  0.00000000000E+00 0. -1.
         -1    1    3    3    0  502 -0.15440777694E+03  0.39725590862E+03  0.42389998646E+03  0.60111996892E+03  0.00000000000E+00 0.  1.
         13    1    5    5    0    0 -0.82161544992E+02 -0.11854885233E+03  0.91128337153E+03  0.92262762429E+03  0.00000000000E+00 0.  1.
        -13    1    5    5    0    0 -0.23616257288E+02 -0.66497127790E+02  0.18964155314E+03  0.20234503772E+03  0.00000000000E+00 0. -1.
          4    1    6    6  503    0  0.17619395657E+02 -0.21755329892E+02  0.36616125474E+02  0.46092061429E+02  0.00000000000E+00 0. -1.
         -4    1    6    6    0  503  0.32072599128E+03 -0.45853642855E+03  0.21460738467E+03  0.59931389718E+03  0.00000000000E+00 0.  1.
<mgrwt>
<rscale>  0 0.18626013E+04</rscale>
<asrwt>0</asrwt>
<pdfrwt beam="1">  1        2 0.36040333E+00 0.18626013E+04</pdfrwt>
<pdfrwt beam="2">  1       -1 0.56959257E-01 0.18626013E+04</pdfrwt>
<totfact> 0.14316465E+01</totfact>
</mgrwt>
</event>
<event>
12    7  0.1711607E-007  0.2805063E+04  0.7818608E-02  0.8301698E-01
         -1   -1    0    0    0  501 -0.00000000000E+00  0.00000000000E+00  0.90843565272E+03  0.90843565272E+03  0.00000000000E+00 0.  1.
          2   -1    0    0  501    0  0.00000000000E+00 -0.00000000000E+00 -0.21653654264E+04  0.21653654264E+04  0.00000000000E+00 0. -1.
         24    2    1    2    0    0 -0.80263550780E+03  0.50310012472E+03  0.33212159045E+03  0.10069443977E+04  0.79364824370E+02 0.  0.
        254    2    1    2    0    0  0.80263550780E+03 -0.50310012472E+03 -0.15890513641E+04  0.20668566814E+04  0.92167174732E+03 0.  0.
         23    2    4    4    0    0 -0.18048253564E+02  0.14974067962E+03 -0.58864565743E+03  0.61456620227E+03  0.91868908657E+02 0.  0.
         23    2    4    4    0    0  0.82068376136E+03 -0.65284080434E+03 -0.10004057067E+04  0.14522904791E+04  0.92806820007E+02 0.  0.
          4    1    3    3  502    0 -0.32808521004E+03  0.17637341464E+03  0.99008726043E+02  0.38542212479E+03  0.00000000000E+00 0. -1.
         -3    1    3    3    0  502 -0.47455029775E+03  0.32672671008E+03  0.23311286441E+03  0.62152227291E+03  0.00000000000E+00 0.  1.
         13    1    5    5    0    0 -0.65764976769E+01  0.12232237024E+03 -0.56016108051E+03  0.57339903095E+03  0.00000000000E+00 0. -1.
        -13    1    5    5    0    0 -0.11471755887E+02  0.27418309372E+02 -0.28484576919E+02  0.41167171317E+02  0.00000000000E+00 0.  1.
          4    1    6    6  503    0  0.63648203476E+03 -0.45465401609E+03 -0.73977282940E+03  0.10766074001E+04  0.00000000000E+00 0. -1.
         -4    1    6    6    0  503  0.18420172660E+03 -0.19818678825E+03 -0.26063287728E+03  0.37568307899E+03  0.00000000000E+00 0.  1.
<mgrwt>
<rscale>  0 0.28050634E+04</rscale>
<asrwt>0</asrwt>
<pdfrwt beam="1">  1        2 0.33313314E+00 0.28050634E+04</pdfrwt>
<pdfrwt beam="2">  1       -1 0.13975933E+00 0.28050634E+04</pdfrwt>
<totfact> 0.22492736E+00</totfact>
</mgrwt>
</event>
<event>
12    7  0.1711607E-007  0.1570678E+04  0.7818608E-02  0.8838767E-01
         -1   -1    0    0    0  501 -0.00000000000E+00  0.00000000000E+00  0.17511514913E+04  0.17511514913E+04  0.00000000000E+00 0.  1.
          2   -1    0    0  501    0  0.00000000000E+00 -0.00000000000E+00 -0.35220122730E+03  0.35220122730E+03  0.00000000000E+00 0. -1.
         24    2    1    2    0    0  0.40317347396E+03  0.14935825390E+03  0.89964282969E+03  0.10003387955E+04  0.80397429807E+02 0.  0.
        254    2    1    2    0    0 -0.40317347396E+03 -0.14935825390E+03  0.49930743430E+03  0.11030139231E+04  0.88457620499E+03 0.  0.
         23    2    4    4    0    0  0.27284724757E+03 -0.22291812413E+02  0.12560173077E+03  0.31503117014E+03  0.92337955236E+02 0.  0.
         23    2    4    4    0    0 -0.67602072153E+03 -0.12706644148E+03  0.37370570352E+03  0.78798275293E+03  0.90060921524E+02 0.  0.
          4    1    3    3  502    0  0.96664965132E+02  0.82730142286E+01  0.15571226892E+03  0.18346353573E+03  0.00000000000E+00 0. -1.
         -3    1    3    3    0  502  0.30650850882E+03  0.14108523967E+03  0.74393056076E+03  0.81687525980E+03  0.00000000000E+00 0.  1.
         13    1    5    5    0    0  0.13705176199E+03  0.20064643834E+01  0.14362944390E+02  0.13781692760E+03  0.00000000000E+00 0.  1.
        -13    1    5    5    0    0  0.13579548558E+03 -0.24298276796E+02  0.11123878638E+03  0.17721424253E+03  0.00000000000E+00 0. -1.
          1    1    6    6  503    0 -0.40622786875E+03 -0.42215831498E+02  0.18773958227E+03  0.44949906399E+03  0.00000000000E+00 0. -1.
         -1    1    6    6    0  503 -0.26979285278E+03 -0.84850609985E+02  0.18596612125E+03  0.33848368894E+03  0.00000000000E+00 0.  1.
<mgrwt>
<rscale>  0 0.15706785E+04</rscale>
<asrwt>0</asrwt>
<pdfrwt beam="1">  1        2 0.54184805E-01 0.15706785E+04</pdfrwt>
<pdfrwt beam="2">  1       -1 0.26940792E+00 0.15706785E+04</pdfrwt>
<totfact> 0.52659274E+00</totfact>
</mgrwt>
</event>
<event>
12    7  0.1711607E-007  0.2659128E+04  0.7818608E-02  0.8348390E-01
          2   -1    0    0  501    0  0.00000000000E+00  0.00000000000E+00  0.28640242604E+04  0.28640242604E+04  0.00000000000E+00 0. -1.
         -1   -1    0    0    0  501 -0.00000000000E+00 -0.00000000000E+00 -0.61722244119E+03  0.61722244119E+03  0.00000000000E+00 0.  1.
         24    2    1    2    0    0  0.54003469248E+02  0.10831139656E+04  0.39377218655E+03  0.11565182313E+04  0.80160134429E+02 0.  0.
        254    2    1    2    0    0 -0.54003469248E+02 -0.10831139656E+04  0.18530296327E+04  0.23247284703E+04  0.89139856626E+03 0.  0.
         23    2    4    4    0    0 -0.39645346024E+03 -0.20502351544E+03  0.56092544759E+03  0.72274494737E+03  0.92265449539E+02 0.  0.
         23    2    4    4    0    0  0.34244999099E+03 -0.87809045019E+03  0.12921041851E+04  0.16019835230E+04  0.92212513467E+02 0.  0.
          2    1    3    3  502    0 -0.86776126297E+01  0.45986103762E+02  0.30330971611E+02  0.55767289149E+02  0.00000000000E+00 0. -1.
         -1    1    3    3    0  502  0.62681081878E+02  0.10371278619E+04  0.36344121494E+03  0.11007509421E+04  0.00000000000E+00 0.  1.
         13    1    5    5    0    0 -0.33281248206E+03 -0.20509840385E+03  0.49951110166E+03  0.63430343225E+03  0.00000000000E+00 0. -1.
        -13    1    5    5    0    0 -0.63640978181E+02  0.74888407154E-01  0.61414345924E+02  0.88441515124E+02  0.00000000000E+00 0.  1.
          1    1    6    6  503    0  0.30382772677E+03 -0.82425305954E+03  0.12273728336E+04  0.15093536585E+04  0.00000000000E+00 0. -1.
         -1    1    6    6    0  503  0.38622264228E+02 -0.53837390652E+02  0.64731351483E+02  0.92629864467E+02  0.00000000000E+00 0.  1.
<mgrwt>
<rscale>  0 0.26591277E+04</rscale>
<asrwt>0</asrwt>
<pdfrwt beam="1">  1        2 0.44061911E+00 0.26591277E+04</pdfrwt>
<pdfrwt beam="2">  1       -1 0.94957301E-01 0.26591277E+04</pdfrwt>
<totfact> 0.22668756E+00</totfact>
</mgrwt>
</event>
<event>
12    7  0.1711607E-007  0.3128125E+04  0.7818608E-02  0.8208061E-01
          2   -1    0    0  501    0  0.00000000000E+00  0.00000000000E+00  0.13849248338E+04  0.13849248338E+04  0.00000000000E+00 0. -1.
         -1   -1    0    0    0  501 -0.00000000000E+00 -0.00000000000E+00 -0.17663718278E+04  0.17663718278E+04  0.00000000000E+00 0.  1.
         24    2    1    2    0    0 -0.73416744342E+03 -0.10056481123E+04 -0.87572495179E+03  0.15242680591E+04  0.78542753030E+02 0.  0.
        254    2    1    2    0    0  0.73416744342E+03  0.10056481123E+04  0.49427795778E+03  0.16270286024E+04  0.92335335205E+03 0.  0.
         23    2    4    4    0    0  0.29866724702E+03  0.75872285833E+03 -0.12042267234E+03  0.82896692572E+03  0.88442318693E+02 0.  0.
         23    2    4    4    0    0  0.43550019640E+03  0.24692525399E+03  0.61470063012E+03  0.79806167669E+03  0.91722805295E+02 0.  0.
          2    1    3    3  502    0 -0.66262702213E+03 -0.87556537070E+03 -0.79160233548E+03  0.13536334609E+04  0.00000000000E+00 0. -1.
         -1    1    3    3    0  502 -0.71540421294E+02 -0.13008274162E+03 -0.84122616311E+02  0.17063459825E+03  0.00000000000E+00 0.  1.
         13    1    5    5    0    0  0.90815845318E+02  0.35059639768E+03 -0.53163018547E+02  0.36604871038E+03  0.00000000000E+00 0. -1.
        -13    1    5    5    0    0  0.20785140170E+03  0.40812646065E+03 -0.67259653794E+02  0.46291821535E+03  0.00000000000E+00 0.  1.
          4    1    6    6  503    0  0.43866170760E+03  0.23807449870E+03  0.60744176674E+03  0.78618640323E+03  0.00000000000E+00 0. -1.
         -4    1    6    6    0  503 -0.31615111958E+01  0.88507552893E+01  0.72588633809E+01  0.11875273463E+02  0.00000000000E+00 0.  1.
<mgrwt>
<rscale>  0 0.31281255E+04</rscale>
<asrwt>0</asrwt>
<pdfrwt beam="1">  1        2 0.21306536E+00 0.31281255E+04</pdfrwt>
<pdfrwt beam="2">  1       -1 0.27174951E+00 0.31281255E+04</pdfrwt>
<totfact> 0.71673827E-01</totfact>
</mgrwt>
</event>
<event>
12    7  0.1711607E-007  0.1771283E+04  0.7818608E-02  0.8721721E-01
          2   -1    0    0  501    0  0.00000000000E+00  0.00000000000E+00  0.18724834130E+04  0.18724834130E+04  0.00000000000E+00 0. -1.
         -1   -1    0    0    0  501 -0.00000000000E+00 -0.00000000000E+00 -0.41888816523E+03  0.41888816523E+03  0.00000000000E+00 0.  1.
         24    2    1    2    0    0 -0.25529491708E+03  0.31088954943E+03  0.11993628765E+04  0.12675758383E+04  0.80308093128E+02 0.  0.
        254    2    1    2    0    0  0.25529491708E+03 -0.31088954943E+03  0.25423237128E+03  0.10237957399E+04  0.90647438562E+03 0.  0.
         23    2    4    4    0    0  0.27645728203E+01  0.15495051241E+03  0.42302227833E+03  0.46028498548E+03  0.94324523503E+02 0.  0.
         23    2    4    4    0    0  0.25253034426E+03 -0.46584006184E+03 -0.16878990705E+03  0.56351075441E+03  0.90971421998E+02 0.  0.
          4    1    3    3  502    0 -0.18289182627E+03  0.22057724342E+03  0.73178958264E+03  0.78588786331E+03  0.00000000000E+00 0. -1.
         -3    1    3    3    0  502 -0.72403090810E+02  0.90312306013E+02  0.46757329385E+03  0.48168797504E+03  0.00000000000E+00 0.  1.
         13    1    5    5    0    0  0.28077251658E+02  0.10729811423E+03  0.18065939748E+03  0.21198829042E+03  0.00000000000E+00 0. -1.
        -13    1    5    5    0    0 -0.25312678837E+02  0.47652398183E+02  0.24236288085E+03  0.24829669506E+03  0.00000000000E+00 0.  1.
          2    1    6    6  503    0  0.46311592256E+02 -0.14629613040E+03 -0.18415719776E+02  0.15455245091E+03  0.00000000000E+00 0. -1.
         -2    1    6    6    0  503  0.20621875201E+03 -0.31954393144E+03 -0.15037418728E+03  0.40895830350E+03  0.00000000000E+00 0.  1.
<mgrwt>
<rscale>  0 0.17712833E+04</rscale>
<asrwt>0</asrwt>
<pdfrwt beam="1">  1        2 0.28807437E+00 0.17712833E+04</pdfrwt>
<pdfrwt beam="2">  1       -1 0.64444334E-01 0.17712833E+04</pdfrwt>
<totfact> 0.20695591E+01</totfact>
</mgrwt>
</event>
<event>
12    7  0.1711607E-007  0.2017752E+04  0.7818608E-02  0.8598366E-01
         -1   -1    0    0    0  501 -0.00000000000E+00  0.00000000000E+00  0.23123149491E+04  0.23123149491E+04  0.00000000000E+00 0.  1.
          2   -1    0    0  501    0  0.00000000000E+00 -0.00000000000E+00 -0.44017821328E+03  0.44017821328E+03  0.00000000000E+00 0. -1.
         24    2    1    2    0    0 -0.23267616058E+03 -0.39824092114E+03  0.16474560796E+04  0.17127684811E+04  0.82038459081E+02 0.  0.
        254    2    1    2    0    0  0.23267616058E+03  0.39824092114E+03  0.22468065622E+03  0.10397246813E+04  0.90432957961E+03 0.  0.
         23    2    4    4    0    0  0.31005158381E+03  0.11085301869E+03 -0.28379289245E+03  0.44349967789E+03  0.87938513163E+02 0.  0.
         23    2    4    4    0    0 -0.77375423231E+02  0.28738790244E+03  0.50847354867E+03  0.59622500337E+03  0.91433814057E+02 0.  0.
          4    1    3    3  502    0  0.11947959158E+01 -0.18346803952E+02  0.32621869356E+02  0.37446216269E+02  0.00000000000E+00 0. -1.
         -3    1    3    3    0  502 -0.23387095650E+03 -0.37989411719E+03  0.16148342103E+04  0.16753222649E+04  0.00000000000E+00 0.  1.
         13    1    5    5    0    0  0.13228470463E+03  0.74607311414E+02 -0.83727179530E+02  0.17342356987E+03  0.00000000000E+00 0. -1.
        -13    1    5    5    0    0  0.17776687919E+03  0.36245707280E+02 -0.20006571292E+03  0.27007610801E+03  0.00000000000E+00 0.  1.
          3    1    6    6  503    0 -0.24886486463E+02  0.53822529880E+02  0.18180504550E+03  0.19123095069E+03  0.00000000000E+00 0. -1.
         -3    1    6    6    0  503 -0.52488936768E+02  0.23356537256E+03  0.32666850317E+03  0.40499405268E+03  0.00000000000E+00 0.  1.
<mgrwt>
<rscale>  0 0.20177519E+04</rscale>
<asrwt>0</asrwt>
<pdfrwt beam="1">  1        2 0.67719727E-01 0.20177519E+04</pdfrwt>
<pdfrwt beam="2">  1       -1 0.35574075E+00 0.20177519E+04</pdfrwt>
<totfact> 0.10777467E+00</totfact>
</mgrwt>
</event>
<event>
12    7  0.1711607E-007  0.3060175E+04  0.7818608E-02  0.8226753E-01
          2   -1    0    0  501    0  0.00000000000E+00  0.00000000000E+00  0.32809174087E+04  0.32809174087E+04  0.00000000000E+00 0. -1.
         -1   -1    0    0    0  501 -0.00000000000E+00 -0.00000000000E+00 -0.71357096471E+03  0.71357096471E+03  0.00000000000E+00 0.  1.
         24    2    1    2    0    0 -0.22276321843E+03  0.10714037004E+04  0.44974348675E+02  0.10981209448E+04  0.79483183680E+02 0.  0.
        254    2    1    2    0    0  0.22276321843E+03 -0.10714037004E+04  0.25223720953E+04  0.28963674286E+04  0.91052399954E+03 0.  0.
         23    2    4    4    0    0  0.30471793907E+03 -0.10571723863E+03  0.23140651311E+03  0.40711144541E+03  0.90341561563E+02 0.  0.
         23    2    4    4    0    0 -0.81954720639E+02 -0.96568646181E+03  0.22909655822E+04  0.24892559832E+04  0.92763853381E+02 0.  0.
          2    1    3    3  502    0 -0.14317031120E+03  0.76718701502E+03 -0.23190534523E+00  0.78043174449E+03  0.00000000000E+00 0. -1.
         -1    1    3    3    0  502 -0.79592907225E+02  0.30421668541E+03  0.45206254020E+02  0.31768920026E+03  0.00000000000E+00 0.  1.
         13    1    5    5    0    0  0.20154437187E+03 -0.10353931955E+03  0.12455402314E+03  0.25856184794E+03  0.00000000000E+00 0. -1.
        -13    1    5    5    0    0  0.10317356719E+03 -0.21779190755E+01  0.10685248996E+03  0.14854959748E+03  0.00000000000E+00 0.  1.
          1    1    6    6  503    0 -0.64968327688E+02 -0.80186426351E+03  0.19838764724E+04  0.21407879480E+04  0.00000000000E+00 0. -1.
         -1    1    6    6    0  503 -0.16986392951E+02 -0.16382219829E+03  0.30708910978E+03  0.34846803519E+03  0.00000000000E+00 0.  1.
<mgrwt>
<rscale>  0 0.30601748E+04</rscale>
<asrwt>0</asrwt>
<pdfrwt beam="1">  1        2 0.50475652E+00 0.30601748E+04</pdfrwt>
<pdfrwt beam="2">  1       -1 0.10978015E+00 0.30601748E+04</pdfrwt>
<totfact> 0.85025818E-01</totfact>
</mgrwt>
</event>
<event>
12    7  0.1711607E-007  0.1440790E+04  0.7818608E-02  0.8924810E-01
         -3   -1    0    0    0  501 -0.00000000000E+00  0.00000000000E+00  0.34254190165E+03  0.34254190165E+03  0.00000000000E+00 0.  1.
          4   -1    0    0  501    0  0.00000000000E+00 -0.00000000000E+00 -0.15150533300E+04  0.15150533300E+04  0.00000000000E+00 0. -1.
         24    2    1    2    0    0 -0.36897729539E+03 -0.16624483330E+03 -0.51861746277E+03  0.66264675394E+03  0.79718622046E+02 0.  0.
        254    2    1    2    0    0  0.36897729539E+03  0.16624483330E+03 -0.65389396557E+03  0.11949484777E+04  0.91462722300E+03 0.  0.
         23    2    4    4    0    0  0.60856488355E+03  0.18555817308E+03 -0.19947063207E+03  0.67318116582E+03  0.92743171610E+02 0.  0.
         23    2    4    4    0    0 -0.23958758815E+03 -0.19313339775E+02 -0.45442333350E+03  0.52176731188E+03  0.89248777172E+02 0.  0.
          2    1    3    3  502    0 -0.15535293609E+03 -0.69817257117E+02 -0.28305328785E+03  0.33034549778E+03  0.00000000000E+00 0. -1.
         -1    1    3    3    0  502 -0.21362435930E+03 -0.96427576185E+02 -0.23556417492E+03  0.33230125615E+03  0.00000000000E+00 0.  1.
         13    1    5    5    0    0  0.12974024956E+03  0.54132695126E+02 -0.73410609282E+01  0.14077205765E+03  0.00000000000E+00 0.  1.
        -13    1    5    5    0    0  0.47882463398E+03  0.13142547795E+03 -0.19212957114E+03  0.53240910818E+03  0.00000000000E+00 0. -1.
          4    1    6    6  503    0 -0.22884678043E+03 -0.10271346694E+02 -0.45303549400E+03  0.50765885031E+03  0.00000000000E+00 0. -1.
         -4    1    6    6    0  503 -0.10740807724E+02 -0.90419930817E+01 -0.13878395048E+01  0.14108461573E+02  0.00000000000E+00 0.  1.
<mgrwt>
<rscale>  0 0.14407904E+04</rscale>
<asrwt>0</asrwt>
<pdfrwt beam="1">  1        4 0.23308513E+00 0.14407904E+04</pdfrwt>
<pdfrwt beam="2">  1       -3 0.52698754E-01 0.14407904E+04</pdfrwt>
<totfact> 0.63748724E-01</totfact>
</mgrwt>
</event>
<event>
12    7  0.1711607E-007  0.1214943E+04  0.7818608E-02  0.9099876E-01
          2   -1    0    0  501    0  0.00000000000E+00  0.00000000000E+00  0.17637028000E+04  0.17637028000E+04  0.00000000000E+00 0. -1.
         -1   -1    0    0    0  501 -0.00000000000E+00 -0.00000000000E+00 -0.20923125535E+03  0.20923125535E+03  0.00000000000E+00 0.  1.
         24    2    1    2    0    0  0.23827332943E+03  0.96714760090E+02  0.32816639470E+03  0.42453998589E+03  0.80081787368E+02 0.  0.
        254    2    1    2    0    0 -0.23827332943E+03 -0.96714760090E+02  0.12263051499E+04  0.15483940694E+04  0.90970981594E+03 0.  0.
         23    2    4    4    0    0 -0.29647619462E+03 -0.45564736865E+03  0.87692673004E+03  0.10359193947E+04  0.92821570684E+02 0.  0.
         23    2    4    4    0    0  0.58202865189E+02  0.35893260856E+03  0.34937841988E+03  0.51247467471E+03  0.91349991455E+02 0.  0.
          4    1    3    3  502    0  0.77470035587E+02 -0.34879245793E+01  0.71212745896E+02  0.10528545583E+03  0.00000000000E+00 0. -1.
         -3    1    3    3    0  502  0.16080329384E+03  0.10020268467E+03  0.25695364881E+03  0.31925453006E+03  0.00000000000E+00 0.  1.
         13    1    5    5    0    0 -0.46540904640E+02 -0.90992227243E+02  0.10611523856E+03  0.14732985128E+03  0.00000000000E+00 0. -1.
        -13    1    5    5    0    0 -0.24993528998E+03 -0.36465514141E+03  0.77081149148E+03  0.88858954345E+03  0.00000000000E+00 0.  1.
          2    1    6    6  503    0  0.36192078230E+02  0.87038458398E+02  0.13919094487E+03  0.16810615367E+03  0.00000000000E+00 0. -1.
         -2    1    6    6    0  503  0.22010786959E+02  0.27189415016E+03  0.21018747501E+03  0.34436852104E+03  0.00000000000E+00 0.  1.
<mgrwt>
<rscale>  0 0.12149432E+04</rscale>
<asrwt>0</asrwt>
<pdfrwt beam="1">  1        2 0.27133888E+00 0.12149432E+04</pdfrwt>
<pdfrwt beam="2">  1       -1 0.32189425E-01 0.12149432E+04</pdfrwt>
<totfact> 0.91470177E+01</totfact>
</mgrwt>
</event>
<event>
12    7  0.1711607E-007  0.1756492E+04  0.7818608E-02  0.8729785E-01
          2   -1    0    0  501    0  0.00000000000E+00  0.00000000000E+00  0.17135430812E+04  0.17135430812E+04  0.00000000000E+00 0. -1.
         -1   -1    0    0    0  501 -0.00000000000E+00 -0.00000000000E+00 -0.45012924266E+03  0.45012924266E+03  0.00000000000E+00 0.  1.
         24    2    1    2    0    0 -0.37314878398E+03  0.30196852612E+03  0.99991234129E+03  0.11119931236E+04  0.79240209760E+02 0.  0.
        254    2    1    2    0    0  0.37314878398E+03 -0.30196852612E+03  0.26350149726E+03  0.10516792003E+04  0.89787031109E+03 0.  0.
         23    2    4    4    0    0  0.52541864249E+03 -0.50176741147E+03  0.27818719293E+03  0.78369821940E+03  0.94654633729E+02 0.  0.
         23    2    4    4    0    0 -0.15226985852E+03  0.19979888535E+03 -0.14685695663E+02  0.26798098091E+03  0.92154392569E+02 0.  0.
          4    1    3    3  502    0 -0.25394445973E+03  0.21575243074E+03  0.77042350974E+03  0.83939816795E+03  0.00000000000E+00 0. -1.
         -3    1    3    3    0  502 -0.11920432424E+03  0.86216095373E+02  0.22948883156E+03  0.27259495562E+03  0.00000000000E+00 0.  1.
         13    1    5    5    0    0  0.51869184849E+02 -0.72679923666E+02  0.71987995168E+01  0.89580167199E+02  0.00000000000E+00 0. -1.
        -13    1    5    5    0    0  0.47354945764E+03 -0.42908748780E+03  0.27098839341E+03  0.69411805220E+03  0.00000000000E+00 0.  1.
          2    1    6    6  503    0 -0.11096463093E+03  0.13597387087E+03 -0.52338448591E+02  0.18314299353E+03  0.00000000000E+00 0.  1.
         -2    1    6    6    0  503 -0.41305227586E+02  0.63825014481E+02  0.37652752928E+02  0.84837987379E+02  0.00000000000E+00 0. -1.
<mgrwt>
<rscale>  0 0.17564918E+04</rscale>
<asrwt>0</asrwt>
<pdfrwt beam="1">  1        2 0.26362201E+00 0.17564918E+04</pdfrwt>
<pdfrwt beam="2">  1       -1 0.69250654E-01 0.17564918E+04</pdfrwt>
<totfact> 0.21937998E+01</totfact>
</mgrwt>
</event>
<event>
12    7  0.1711607E-007  0.1492797E+04  0.7818608E-02  0.8889257E-01
          2   -1    0    0  501    0  0.00000000000E+00  0.00000000000E+00  0.25181474742E+04  0.25181474742E+04  0.00000000000E+00 0. -1.
         -1   -1    0    0    0  501 -0.00000000000E+00 -0.00000000000E+00 -0.22123844798E+03  0.22123844798E+03  0.00000000000E+00 0.  1.
         24    2    1    2    0    0  0.44354440943E+02  0.24799125636E+03  0.14694794645E+04  0.14931429896E+04  0.81480741786E+02 0.  0.
        254    2    1    2    0    0 -0.44354440943E+02 -0.24799125636E+03  0.82742956177E+03  0.12462429326E+04  0.89722616305E+03 0.  0.
         23    2    4    4    0    0  0.36988421422E+03 -0.32296234350E+03  0.46995703063E+03  0.68571253164E+03  0.90681079380E+02 0.  0.
         23    2    4    4    0    0 -0.41423865517E+03  0.74971087148E+02  0.35747253114E+03  0.56053040095E+03  0.95882180418E+02 0.  0.
          4    1    3    3  502    0  0.54264861440E+02  0.23483908327E+03  0.12486281355E+04  0.12716785329E+04  0.00000000000E+00 0. -1.
         -3    1    3    3    0  502 -0.99104204967E+01  0.13152173087E+02  0.22085132896E+03  0.22146445673E+03  0.00000000000E+00 0.  1.
         13    1    5    5    0    0  0.30167409381E+03 -0.23270524002E+03  0.31801764520E+03  0.49628037465E+03  0.00000000000E+00 0. -1.
        -13    1    5    5    0    0  0.68210120418E+02 -0.90257103483E+02  0.15193938543E+03  0.18943215699E+03  0.00000000000E+00 0.  1.
          3    1    6    6  503    0 -0.25165273880E+03  0.46022721276E+02  0.27618955831E+03  0.37646761340E+03  0.00000000000E+00 0. -1.
         -3    1    6    6    0  503 -0.16258591637E+03  0.28948365872E+02  0.81282972837E+02  0.18406278755E+03  0.00000000000E+00 0.  1.
<mgrwt>
<rscale>  0 0.14927974E+04</rscale>
<asrwt>0</asrwt>
<pdfrwt beam="1">  1        2 0.38740729E+00 0.14927974E+04</pdfrwt>
<pdfrwt beam="2">  1       -1 0.34036686E-01 0.14927974E+04</pdfrwt>
<totfact> 0.30606152E+01</totfact>
</mgrwt>
</event>
<event>
12    7  0.1711607E-007  0.1697243E+04  0.7818608E-02  0.8762938E-01
         -1   -1    0    0    0  501 -0.00000000000E+00  0.00000000000E+00  0.60989981907E+03  0.60989981907E+03  0.00000000000E+00 0.  1.
          2   -1    0    0  501    0  0.00000000000E+00 -0.00000000000E+00 -0.11807822145E+04  0.11807822145E+04  0.00000000000E+00 0. -1.
         24    2    1    2    0    0  0.53118039347E+03 -0.30181962186E+03 -0.22570805146E+03  0.65613093397E+03  0.79473161960E+02 0.  0.
        254    2    1    2    0    0 -0.53118039347E+03  0.30181962186E+03 -0.34517434398E+03  0.11345510996E+04  0.89152295277E+03 0.  0.
         23    2    4    4    0    0 -0.77615084377E+02 -0.71465248988E+02  0.25396863887E+03  0.29058268559E+03  0.93844789429E+02 0.  0.
         23    2    4    4    0    0 -0.45356530910E+03  0.37328487085E+03 -0.59914298285E+03  0.84396841401E+03  0.90814566699E+02 0.  0.
          2    1    3    3  502    0  0.21674498564E+03 -0.10648539445E+03 -0.12784941562E+03  0.27324531306E+03  0.00000000000E+00 0. -1.
         -1    1    3    3    0  502  0.31443540783E+03 -0.19533422742E+03 -0.97858635831E+02  0.38288562092E+03  0.00000000000E+00 0.  1.
         13    1    5    5    0    0 -0.87008968486E+02 -0.69931866224E+02  0.25732140684E+03  0.28049123503E+03  0.00000000000E+00 0.  1.
        -13    1    5    5    0    0  0.93938841086E+01 -0.15333827639E+01 -0.33527679747E+01  0.10091450562E+02  0.00000000000E+00 0. -1.
          4    1    6    6  503    0 -0.15118609348E+03  0.17629033012E+03 -0.26180153233E+03  0.34996508067E+03  0.00000000000E+00 0. -1.
         -4    1    6    6    0  503 -0.30237921562E+03  0.19699454074E+03 -0.33734145051E+03  0.49400333334E+03  0.00000000000E+00 0.  1.
<mgrwt>
<rscale>  0 0.16972435E+04</rscale>
<asrwt>0</asrwt>
<pdfrwt beam="1">  1        2 0.18165880E+00 0.16972435E+04</pdfrwt>
<pdfrwt beam="2">  1       -1 0.93830742E-01 0.16972435E+04</pdfrwt>
<totfact> 0.23244053E+01</totfact>
</mgrwt>
</event>
<event>
12    7  0.1711607E-007  0.1814615E+04  0.7818608E-02  0.8698566E-01
          2   -1    0    0  501    0  0.00000000000E+00  0.00000000000E+00  0.10719648436E+04  0.10719648436E+04  0.00000000000E+00 0. -1.
         -1   -1    0    0    0  501 -0.00000000000E+00 -0.00000000000E+00 -0.76794204726E+03  0.76794204726E+03  0.00000000000E+00 0.  1.
         24    2    1    2    0    0  0.52707730309E+02  0.53316024915E+03  0.54271126199E+03  0.76697483907E+03  0.81712506819E+02 0.  0.
        254    2    1    2    0    0 -0.52707730309E+02 -0.53316024915E+03 -0.23868846562E+03  0.10729320518E+04  0.89842809846E+03 0.  0.
         23    2    4    4    0    0 -0.44813655687E+03 -0.14977352861E+03 -0.16980241837E+03  0.51043228841E+03  0.91922664754E+02 0.  0.
         23    2    4    4    0    0  0.39542882656E+03 -0.38338672055E+03 -0.68886047245E+02  0.56249976341E+03  0.91166671340E+02 0.  0.
          4    1    3    3  502    0  0.42557427799E+02  0.49728423026E+03  0.47151597526E+03  0.68660764287E+03  0.00000000000E+00 0. -1.
         -3    1    3    3    0  502  0.10150302510E+02  0.35876018894E+02  0.71195286731E+02  0.80367196203E+02  0.00000000000E+00 0.  1.
         13    1    5    5    0    0 -0.31242251716E+03 -0.13081658795E+03 -0.15537843358E+03  0.37264361867E+03  0.00000000000E+00 0. -1.
        -13    1    5    5    0    0 -0.13571403971E+03 -0.18956940657E+02 -0.14423984793E+02  0.13778866974E+03  0.00000000000E+00 0.  1.
          3    1    6    6  503    0  0.26478467790E+03 -0.28601798720E+03 -0.12109318243E+02  0.38995365140E+03  0.00000000000E+00 0. -1.
         -3    1    6    6    0  503  0.13064414866E+03 -0.97368733346E+02 -0.56776729002E+02  0.17254611201E+03  0.00000000000E+00 0.  1.
<mgrwt>
<rscale>  0 0.18146150E+04</rscale>
<asrwt>0</asrwt>
<pdfrwt beam="1">  1        2 0.16491767E+00 0.18146150E+04</pdfrwt>
<pdfrwt beam="2">  1       -1 0.11814493E+00 0.18146150E+04</pdfrwt>
<totfact> 0.15688716E+01</totfact>
</mgrwt>
</event>
<event>
12    7  0.1711607E-007  0.1743084E+04  0.7818608E-02  0.8737166E-01
          2   -1    0    0  501    0  0.00000000000E+00  0.00000000000E+00  0.12207845607E+04  0.12207845607E+04  0.00000000000E+00 0. -1.
         -1   -1    0    0    0  501 -0.00000000000E+00 -0.00000000000E+00 -0.62221115698E+03  0.62221115698E+03  0.00000000000E+00 0.  1.
         24    2    1    2    0    0  0.51796344182E+02 -0.33469695622E+02 -0.45107152568E+03  0.46251257477E+03  0.81543109702E+02 0.  0.
        254    2    1    2    0    0 -0.51796344182E+02  0.33469695622E+02  0.10496449294E+04  0.13804831429E+04  0.89452565543E+03 0.  0.
         23    2    4    4    0    0  0.24303314858E+03  0.25855309130E+03  0.13786366644E+03  0.39148571446E+03  0.91322843653E+02 0.  0.
         23    2    4    4    0    0 -0.29482949276E+03 -0.22508339568E+03  0.91178126293E+03  0.98899742842E+03  0.95832547601E+02 0.  0.
          4    1    3    3  502    0 -0.41802001562E+01 -0.23840861014E+02 -0.34834921965E+02  0.42418539762E+02  0.00000000000E+00 0. -1.
         -3    1    3    3    0  502  0.55976544339E+02 -0.96288346078E+01 -0.41623660372E+03  0.42009403500E+03  0.00000000000E+00 0.  1.
         13    1    5    5    0    0  0.12558599410E+03  0.12822936290E+03  0.21044671822E+02  0.18071383355E+03  0.00000000000E+00 0. -1.
        -13    1    5    5    0    0  0.11744715448E+03  0.13032372840E+03  0.11681899462E+03  0.21077188091E+03  0.00000000000E+00 0.  1.
          2    1    6    6  503    0 -0.28246860814E+03 -0.19191946578E+03  0.76089916656E+03  0.83401986643E+03  0.00000000000E+00 0. -1.
         -2    1    6    6    0  503 -0.12360884617E+02 -0.33163929904E+02  0.15088209636E+03  0.15497756198E+03  0.00000000000E+00 0.  1.
<mgrwt>
<rscale>  0 0.17430844E+04</rscale>
<asrwt>0</asrwt>
<pdfrwt beam="1">  1        2 0.18781301E+00 0.17430844E+04</pdfrwt>
<pdfrwt beam="2">  1       -1 0.95724793E-01 0.17430844E+04</pdfrwt>
<totfact> 0.20952968E+01</totfact>
</mgrwt>
</event>
<event>
12    7  0.1711607E-007  0.1261957E+04  0.7818608E-02  0.9060290E-01
         -1   -1    0    0    0  501 -0.00000000000E+00  0.00000000000E+00  0.28072713076E+03  0.28072713076E+03  0.00000000000E+00 0.  1.
          2   -1    0    0  501    0  0.00000000000E+00 -0.00000000000E+00 -0.14182231465E+04  0.14182231465E+04  0.00000000000E+00 0. -1.
         24    2    1    2    0    0 -0.19553504103E+02 -0.11055065053E+03 -0.58135759051E+03  0.59910171056E+03  0.91336880238E+02 0.  0.
        254    2    1    2    0    0  0.19553504103E+02  0.11055065053E+03 -0.55613842520E+03  0.10998485667E+04  0.94221713834E+03 0.  0.
         23    2    4    4    0    0  0.12368319900E+03 -0.98991181186E+02 -0.75736568261E+03  0.77835742213E+03  0.84502732020E+02 0.  0.
         23    2    4    4    0    0 -0.10412969490E+03  0.20954183172E+03  0.20122725741E+03  0.32149114455E+03  0.90074271033E+02 0.  0.
          2    1    3    3  502    0 -0.49492792166E+02 -0.67098755832E+02 -0.44783527332E+03  0.45553069220E+03  0.00000000000E+00 0. -1.
         -1    1    3    3    0  502  0.29939288063E+02 -0.43451894701E+02 -0.13352231719E+03  0.14357101835E+03  0.00000000000E+00 0.  1.
         13    1    5    5    0    0  0.66154859617E+02 -0.40494390246E+02 -0.54847108962E+03  0.55392851276E+03  0.00000000000E+00 0.  1.
        -13    1    5    5    0    0  0.57528339383E+02 -0.58496790940E+02 -0.20889459299E+03  0.22442890937E+03  0.00000000000E+00 0. -1.
          3    1    6    6  503    0 -0.89549310163E+02  0.20979074542E+03  0.20471709666E+03  0.30649686047E+03  0.00000000000E+00 0.  1.
         -3    1    6    6    0  503 -0.14580384735E+02 -0.24891369772E+00 -0.34898392557E+01  0.14994284080E+02  0.00000000000E+00 0. -1.
<mgrwt>
<rscale>  0 0.12619568E+04</rscale>
<asrwt>0</asrwt>
<pdfrwt beam="1">  1        2 0.21818818E+00 0.12619568E+04</pdfrwt>
<pdfrwt beam="2">  1       -1 0.43188789E-01 0.12619568E+04</pdfrwt>
<totfact> 0.83614063E+01</totfact>
</mgrwt>
</event>
<event>
12    7  0.1711607E-007  0.2192023E+04  0.7818608E-02  0.8521756E-01
          2   -1    0    0  501    0  0.00000000000E+00  0.00000000000E+00  0.68372383098E+03  0.68372383098E+03  0.00000000000E+00 0. -1.
         -1   -1    0    0    0  501 -0.00000000000E+00 -0.00000000000E+00 -0.17569099927E+04  0.17569099927E+04  0.00000000000E+00 0.  1.
         24    2    1    2    0    0 -0.44952407045E+03  0.32254432098E+02  0.43297520994E+03  0.62895623238E+03  0.70754303893E+02 0.  0.
        254    2    1    2    0    0  0.44952407045E+03 -0.32254432098E+02 -0.15061613717E+04  0.18116775913E+04  0.90030071588E+03 0.  0.
         23    2    4    4    0    0  0.41580733555E+03 -0.11388441254E+03 -0.17279299674E+03  0.47237737029E+03  0.86125260674E+02 0.  0.
         23    2    4    4    0    0  0.33716734907E+02  0.81629980440E+02 -0.13333683750E+04  0.13393002210E+04  0.89741778496E+02 0.  0.
          4    1    3    3  502    0 -0.35957539164E+03 -0.25853310344E+01  0.33461215237E+03  0.49118880150E+03  0.00000000000E+00 0. -1.
         -3    1    3    3    0  502 -0.89948678813E+02  0.34839763132E+02  0.98363057573E+02  0.13776743088E+03  0.00000000000E+00 0.  1.
         13    1    5    5    0    0  0.15398657033E+03 -0.45719206874E+02 -0.20562795096E+02  0.16194115679E+03  0.00000000000E+00 0. -1.
        -13    1    5    5    0    0  0.26182076521E+03 -0.68165205664E+02 -0.15223020164E+03  0.31043621350E+03  0.00000000000E+00 0.  1.
          1    1    6    6  503    0  0.65854616569E+01  0.16560525832E+02 -0.37541257024E+02  0.41556772012E+02  0.00000000000E+00 0. -1.
         -1    1    6    6    0  503  0.27131273251E+02  0.65069454608E+02 -0.12958271179E+04  0.12977434490E+04  0.00000000000E+00 0.  1.
<mgrwt>
<rscale>  0 0.21920230E+04</rscale>
<asrwt>0</asrwt>
<pdfrwt beam="1">  1        2 0.10518828E+00 0.21920230E+04</pdfrwt>
<pdfrwt beam="2">  1       -1 0.27029385E+00 0.21920230E+04</pdfrwt>
<totfact> 0.22668572E+00</totfact>
</mgrwt>
</event>
<event>
12    7  0.1711607E-007  0.1485930E+04  0.7818608E-02  0.8893864E-01
          2   -1    0    0  501    0  0.00000000000E+00  0.00000000000E+00  0.19617108918E+04  0.19617108918E+04  0.00000000000E+00 0. -1.
         -1   -1    0    0    0  501 -0.00000000000E+00 -0.00000000000E+00 -0.28138546231E+03  0.28138546231E+03  0.00000000000E+00 0.  1.
         24    2    1    2    0    0  0.20163936730E+03 -0.13012503807E+03  0.11366813182E+04  0.11643545256E+04  0.78013345223E+02 0.  0.
        254    2    1    2    0    0 -0.20163936730E+03  0.13012503807E+03  0.54364411125E+03  0.10787418285E+04  0.90030220089E+03 0.  0.
         23    2    4    4    0    0  0.53204207425E+02  0.15584993228E+03 -0.20789484671E+03  0.27958143057E+03  0.88462534164E+02 0.  0.
         23    2    4    4    0    0 -0.25484357472E+03 -0.25724894202E+02  0.75153895796E+03  0.79916039795E+03  0.90771793884E+02 0.  0.
          4    1    3    3  502    0  0.19166196180E+03 -0.13373013482E+03  0.11229031129E+04  0.11469653253E+04  0.00000000000E+00 0. -1.
         -3    1    3    3    0  502  0.99774055016E+01  0.36050967481E+01  0.13778205370E+02  0.17389200279E+02  0.00000000000E+00 0.  1.
         13    1    5    5    0    0  0.11793982638E+02  0.23227670435E+02 -0.10093391647E+03  0.10424144183E+03  0.00000000000E+00 0. -1.
        -13    1    5    5    0    0  0.41410224787E+02  0.13262226184E+03 -0.10696093024E+03  0.17533998874E+03  0.00000000000E+00 0.  1.
          2    1    6    6  503    0 -0.17647917429E+03 -0.26758580687E+02  0.38540655521E+03  0.42473419146E+03  0.00000000000E+00 0.  1.
         -2    1    6    6    0  503 -0.78364400434E+02  0.10336864849E+01  0.36613240276E+03  0.37442620650E+03  0.00000000000E+00 0. -1.
<mgrwt>
<rscale>  0 0.14859299E+04</rscale>
<asrwt>0</asrwt>
<pdfrwt beam="1">  1        2 0.30180167E+00 0.14859299E+04</pdfrwt>
<pdfrwt beam="2">  1       -1 0.43290072E-01 0.14859299E+04</pdfrwt>
<totfact> 0.40710266E+01</totfact>
</mgrwt>
</event>
<event>
12    7  0.1711607E-007  0.1501219E+04  0.7818608E-02  0.8883643E-01
          2   -1    0    0  501    0  0.00000000000E+00  0.00000000000E+00  0.67818708045E+03  0.67818708045E+03  0.00000000000E+00 0. -1.
         -1   -1    0    0    0  501 -0.00000000000E+00 -0.00000000000E+00 -0.83076564053E+03  0.83076564053E+03  0.00000000000E+00 0.  1.
         24    2    1    2    0    0 -0.20879057488E+03 -0.12131689456E+03  0.36057367945E+03  0.44188661419E+03  0.83301311091E+02 0.  0.
        254    2    1    2    0    0  0.20879057488E+03  0.12131689456E+03 -0.51315223953E+03  0.10670661068E+04  0.90387696189E+03 0.  0.
         23    2    4    4    0    0 -0.14039627868E+03  0.34706743360E+03  0.19428409559E+02  0.38546726406E+03  0.89669560224E+02 0.  0.
         23    2    4    4    0    0  0.34918685356E+03 -0.22575053904E+03 -0.53258064909E+03  0.68159884273E+03  0.89666437677E+02 0.  0.
          4    1    3    3  502    0 -0.15744262096E+03 -0.12322487436E+03  0.31561452007E+03  0.37361085883E+03  0.00000000000E+00 0. -1.
         -3    1    3    3    0  502 -0.51347953918E+02  0.19079798052E+01  0.44959159379E+02  0.68275755365E+02  0.00000000000E+00 0.  1.
         13    1    5    5    0    0 -0.12548594242E+03  0.19468998924E+03  0.18431043551E+02  0.23235881094E+03  0.00000000000E+00 0.  1.
        -13    1    5    5    0    0 -0.14910336256E+02  0.15237744436E+03  0.99736600786E+00  0.15310845312E+03  0.00000000000E+00 0. -1.
          3    1    6    6  503    0  0.26674018230E+03 -0.18286177866E+03 -0.34880685709E+03  0.47566267302E+03  0.00000000000E+00 0. -1.
         -3    1    6    6    0  503  0.82446671255E+02 -0.42888760381E+02 -0.18377379200E+03  0.20593616971E+03  0.00000000000E+00 0.  1.
<mgrwt>
<rscale>  0 0.15012189E+04</rscale>
<asrwt>0</asrwt>
<pdfrwt beam="1">  1        2 0.10433647E+00 0.15012189E+04</pdfrwt>
<pdfrwt beam="2">  1       -1 0.12781010E+00 0.15012189E+04</pdfrwt>
<totfact> 0.24916640E+01</totfact>
</mgrwt>
</event>
<event>
12    7  0.1711607E-007  0.1220117E+04  0.7818608E-02  0.9095428E-01
         -1   -1    0    0    0  501 -0.00000000000E+00  0.00000000000E+00  0.15981712658E+03  0.15981712658E+03  0.00000000000E+00 0.  1.
          2   -1    0    0  501    0  0.00000000000E+00 -0.00000000000E+00 -0.23287318210E+04  0.23287318210E+04  0.00000000000E+00 0. -1.
         24    2    1    2    0    0 -0.23290479457E+03 -0.11527969342E+03 -0.33518680207E+03  0.43217850952E+03  0.83030240057E+02 0.  0.
        254    2    1    2    0    0  0.23290479457E+03  0.11527969342E+03 -0.18337278924E+04  0.20563704381E+04  0.89362595324E+03 0.  0.
         23    2    4    4    0    0  0.43837097128E+02 -0.21944444135E+03 -0.15532970016E+04  0.15719359824E+04  0.90407984519E+02 0.  0.
         23    2    4    4    0    0  0.18906769744E+03  0.33472413477E+03 -0.28043089079E+03  0.48443445569E+03  0.90820794647E+02 0.  0.
          4    1    3    3  502    0 -0.23241912066E+03 -0.98752616128E+02 -0.29265453507E+03  0.38654547435E+03  0.00000000000E+00 0. -1.
         -3    1    3    3    0  502 -0.48567390301E+00 -0.16527077290E+02 -0.42532267006E+02  0.45633035178E+02  0.00000000000E+00 0.  1.
         13    1    5    5    0    0  0.46204705189E+01 -0.18688069732E+03 -0.10986631444E+04  0.11144534304E+04  0.00000000000E+00 0.  1.
        -13    1    5    5    0    0  0.39216626609E+02 -0.32563744035E+02 -0.45463385720E+03  0.45748255195E+03  0.00000000000E+00 0. -1.
          1    1    6    6  503    0 -0.37166277538E+01  0.48873655463E+02 -0.48127060480E+02  0.68692513935E+02  0.00000000000E+00 0. -1.
         -1    1    6    6    0  503  0.19278432519E+03  0.28585047931E+03 -0.23230383031E+03  0.41574194176E+03  0.00000000000E+00 0.  1.
<mgrwt>
<rscale>  0 0.12201168E+04</rscale>
<asrwt>0</asrwt>
<pdfrwt beam="1">  1        2 0.35826638E+00 0.12201168E+04</pdfrwt>
<pdfrwt beam="2">  1       -1 0.24587254E-01 0.12201168E+04</pdfrwt>
<totfact> 0.70924349E+01</totfact>
</mgrwt>
</event>
<event>
12    7  0.1711607E-007  0.1205433E+04  0.7818608E-02  0.9108114E-01
          2   -1    0    0  501    0  0.00000000000E+00  0.00000000000E+00  0.17669233935E+04  0.17669233935E+04  0.00000000000E+00 0. -1.
         -1   -1    0    0    0  501 -0.00000000000E+00 -0.00000000000E+00 -0.20559317514E+03  0.20559317514E+03  0.00000000000E+00 0.  1.
         24    2    1    2    0    0  0.76664204626E+02 -0.23517960839E+03  0.16641605969E+03  0.30856434262E+03  0.79566325420E+02 0.  0.
        254    2    1    2    0    0 -0.76664204626E+02  0.23517960839E+03  0.13949141586E+04  0.16639522260E+04  0.87279129919E+03 0.  0.
         23    2    4    4    0    0 -0.30549925769E+03 -0.21886791365E+03  0.51399630065E+03  0.64282634228E+03  0.88320717700E+02 0.  0.
         23    2    4    4    0    0  0.22883505307E+03  0.45404752204E+03  0.88091785798E+03  0.10211258837E+04  0.90317019899E+02 0.  0.
          2    1    3    3  502    0  0.43863427491E+01 -0.33736744042E+02  0.61342740961E+02  0.70145133615E+02  0.00000000000E+00 0. -1.
         -1    1    3    3    0  502  0.72277861877E+02 -0.20144286435E+03  0.10507331873E+03  0.23841920901E+03  0.00000000000E+00 0.  1.
         13    1    5    5    0    0 -0.10754319250E+03 -0.61072858100E+02  0.23865052799E+03  0.26879268360E+03  0.00000000000E+00 0. -1.
        -13    1    5    5    0    0 -0.19795606520E+03 -0.15779505555E+03  0.27534577266E+03  0.37403365868E+03  0.00000000000E+00 0.  1.
          2    1    6    6  503    0  0.61573735407E+02  0.83833862334E+02  0.12204377565E+03  0.16035624260E+03  0.00000000000E+00 0. -1.
         -2    1    6    6    0  503  0.16726131766E+03  0.37021365970E+03  0.75887408233E+03  0.86076964110E+03  0.00000000000E+00 0.  1.
<mgrwt>
<rscale>  0 0.12054334E+04</rscale>
<asrwt>0</asrwt>
<pdfrwt beam="1">  1        2 0.27183436E+00 0.12054334E+04</pdfrwt>
<pdfrwt beam="2">  1       -1 0.31629720E-01 0.12054334E+04</pdfrwt>
<totfact> 0.94030949E+01</totfact>
</mgrwt>
</event>
<event>
12    7  0.1711607E-007  0.1428910E+04  0.7818608E-02  0.8933154E-01
          2   -1    0    0  501    0  0.00000000000E+00  0.00000000000E+00  0.94014800377E+03  0.94014800377E+03  0.00000000000E+00 0. -1.
         -1   -1    0    0    0  501 -0.00000000000E+00 -0.00000000000E+00 -0.54294203347E+03  0.54294203347E+03  0.00000000000E+00 0.  1.
         24    2    1    2    0    0  0.45426765047E+02 -0.29817076839E+03 -0.19742051056E+03  0.36920868735E+03  0.79817283342E+02 0.  0.
        254    2    1    2    0    0 -0.45426765047E+02  0.29817076839E+03  0.59462648086E+03  0.11138813499E+04  0.89229009396E+03 0.  0.
         23    2    4    4    0    0 -0.35008645269E+03 -0.71205297421E+02  0.30863151254E+02  0.36879516119E+03  0.86177828224E+02 0.  0.
         23    2    4    4    0    0  0.30465968764E+03  0.36937606581E+03  0.56376332961E+03  0.74508618869E+03  0.89822789422E+02 0.  0.
          4    1    3    3  502    0 -0.64694567503E+01 -0.16306149197E+02  0.51054298433E+01  0.18270462123E+02  0.00000000000E+00 0. -1.
         -3    1    3    3    0  502  0.51896221798E+02 -0.28186461919E+03 -0.20252594041E+03  0.35093822523E+03  0.00000000000E+00 0.  1.
         13    1    5    5    0    0 -0.25345183468E+03 -0.34848016560E+02 -0.14005591441E+02  0.25621938520E+03  0.00000000000E+00 0.  1.
        -13    1    5    5    0    0 -0.96634618005E+02 -0.36357280862E+02  0.44868742695E+02  0.11257577599E+03  0.00000000000E+00 0. -1.
          1    1    6    6  503    0  0.35808686185E+02  0.35787035929E+02  0.24213122599E+02  0.56118172216E+02  0.00000000000E+00 0. -1.
         -1    1    6    6    0  503  0.26885100146E+03  0.33358902988E+03  0.53955020701E+03  0.68896801648E+03  0.00000000000E+00 0.  1.
<mgrwt>
<rscale>  0 0.14289099E+04</rscale>
<asrwt>0</asrwt>
<pdfrwt beam="1">  1        2 0.14463815E+00 0.14289099E+04</pdfrwt>
<pdfrwt beam="2">  1       -1 0.83529544E-01 0.14289099E+04</pdfrwt>
<totfact> 0.43444661E+01</totfact>
</mgrwt>
</event>
<event>
12    7  0.1711607E-007  0.2828684E+04  0.7818608E-02  0.8294418E-01
         -1   -1    0    0    0  501 -0.00000000000E+00  0.00000000000E+00  0.77263356861E+03  0.77263356861E+03  0.00000000000E+00 0.  1.
          2   -1    0    0  501    0  0.00000000000E+00 -0.00000000000E+00 -0.25890188259E+04  0.25890188259E+04  0.00000000000E+00 0. -1.
         24    2    1    2    0    0  0.58440711050E+03  0.96842485405E+03 -0.14928425918E+04  0.18745657270E+04  0.77712883844E+02 0.  0.
        254    2    1    2    0    0 -0.58440711050E+03 -0.96842485405E+03 -0.32354266553E+03  0.14870866675E+04  0.90959800545E+03 0.  0.
         23    2    4    4    0    0 -0.70317214695E+03 -0.10598069873E+04 -0.26484150377E+03  0.13023369200E+04  0.91096171860E+02 0.  0.
         23    2    4    4    0    0  0.11876503645E+03  0.91382133255E+02 -0.58701161757E+02  0.18474974749E+03  0.90723837253E+02 0.  0.
          4    1    3    3  502    0  0.47443540614E+03  0.83502617450E+03 -0.12449680090E+04  0.15723558790E+04  0.00000000000E+00 0. -1.
         -3    1    3    3    0  502  0.10997170436E+03  0.13339867956E+03 -0.24787458282E+03  0.30220984808E+03  0.00000000000E+00 0.  1.
         13    1    5    5    0    0 -0.35119889357E+03 -0.52797035813E+03 -0.17855641858E+03  0.65876836333E+03  0.00000000000E+00 0. -1.
        -13    1    5    5    0    0 -0.35197325338E+03 -0.53183662918E+03 -0.86285085193E+02  0.64356855669E+03  0.00000000000E+00 0.  1.
          4    1    6    6  503    0  0.54564315229E+01 -0.17297183726E+02 -0.72195079511E+01  0.19521437060E+02  0.00000000000E+00 0. -1.
         -4    1    6    6    0  503  0.11330860493E+03  0.10867931698E+03 -0.51481653805E+02  0.16522831043E+03  0.00000000000E+00 0.  1.
<mgrwt>
<rscale>  0 0.28286837E+04</rscale>
<asrwt>0</asrwt>
<pdfrwt beam="1">  1        2 0.39831059E+00 0.28286837E+04</pdfrwt>
<pdfrwt beam="2">  1       -1 0.11886670E+00 0.28286837E+04</pdfrwt>
<totfact> 0.19308208E+00</totfact>
</mgrwt>
</event>
<event>
12    7  0.1711607E-007  0.2079567E+04  0.7818608E-02  0.8570298E-01
          2   -1    0    0  501    0  0.00000000000E+00  0.00000000000E+00  0.23111074134E+04  0.23111074134E+04  0.00000000000E+00 0. -1.
         -1   -1    0    0    0  501 -0.00000000000E+00 -0.00000000000E+00 -0.46780571886E+03  0.46780571886E+03  0.00000000000E+00 0.  1.
         24    2    1    2    0    0  0.14084009058E+03  0.39669820477E+03 -0.22561452562E+03  0.48430345873E+03  0.80265367273E+02 0.  0.
        254    2    1    2    0    0 -0.14084009058E+03 -0.39669820477E+03  0.20689162202E+04  0.22946096736E+04  0.89867337283E+03 0.  0.
         23    2    4    4    0    0 -0.20595164659E+03  0.22620882084E+03  0.41911240883E+03  0.52759836331E+03  0.95489844361E+02 0.  0.
         23    2    4    4    0    0  0.65111556017E+02 -0.62290702561E+03  0.16498038114E+04  0.17670113103E+04  0.90684492893E+02 0.  0.
          4    1    3    3  502    0  0.60512179847E+02  0.73378199654E+02 -0.42891005673E+02  0.10433466568E+03  0.00000000000E+00 0. -1.
         -3    1    3    3    0  502  0.80327910730E+02  0.32332000512E+03 -0.18272351995E+03  0.37996879305E+03  0.00000000000E+00 0.  1.
         13    1    5    5    0    0 -0.65392257968E+02  0.30377563956E+02  0.14923698397E+03  0.16574263537E+03  0.00000000000E+00 0.  1.
        -13    1    5    5    0    0 -0.14055938863E+03  0.19583125689E+03  0.26987542485E+03  0.36185572794E+03  0.00000000000E+00 0. -1.
          3    1    6    6  503    0  0.18124850609E+02 -0.37321691881E+03  0.86957184710E+03  0.94645368400E+03  0.00000000000E+00 0.  1.
         -3    1    6    6    0  503  0.46986705408E+02 -0.24969010681E+03  0.78023196428E+03  0.82055762626E+03  0.00000000000E+00 0. -1.
<mgrwt>
<rscale>  0 0.20795666E+04</rscale>
<asrwt>0</asrwt>
<pdfrwt beam="1">  1        2 0.35555498E+00 0.20795666E+04</pdfrwt>
<pdfrwt beam="2">  1       -1 0.71970112E-01 0.20795666E+04</pdfrwt>
<totfact> 0.91475640E+00</totfact>
</mgrwt>
</event>
<event>
12    7  0.1711607E-007  0.3238011E+04  0.7818608E-02  0.8178850E-01
          2   -1    0    0  501    0  0.00000000000E+00  0.00000000000E+00  0.15374148890E+04  0.15374148890E+04  0.00000000000E+00 0. -1.
         -1   -1    0    0    0  501 -0.00000000000E+00 -0.00000000000E+00 -0.17049265410E+04  0.17049265410E+04  0.00000000000E+00 0.  1.
         24    2    1    2    0    0 -0.64759781900E+03 -0.74148729394E+03  0.10185433694E+04  0.14186123902E+04  0.76447211149E+02 0.  0.
        254    2    1    2    0    0  0.64759781900E+03  0.74148729394E+03 -0.11860550215E+04  0.18237290398E+04  0.97471778176E+03 0.  0.
         23    2    4    4    0    0  0.44633038226E+02  0.68564042845E+03 -0.93103181828E+03  0.11606198769E+04  0.90129610681E+02 0.  0.
         23    2    4    4    0    0  0.60296478078E+03  0.55846865487E+02 -0.25502320326E+03  0.66310916288E+03  0.89395349171E+02 0.  0.
          2    1    3    3  502    0 -0.50406592134E+03 -0.61203441465E+03  0.84662840537E+03  0.11599345820E+04  0.00000000000E+00 0. -1.
         -1    1    3    3    0  502 -0.14353189766E+03 -0.12945287929E+03  0.17191496406E+03  0.25867780823E+03  0.00000000000E+00 0.  1.
         13    1    5    5    0    0  0.68298799518E+00  0.18896134111E+02 -0.66935529235E+01  0.20058265321E+02  0.00000000000E+00 0. -1.
        -13    1    5    5    0    0  0.43950050231E+02  0.66674429434E+03 -0.92433826535E+03  0.11405616116E+04  0.00000000000E+00 0.  1.
          2    1    6    6  503    0  0.12111634257E+01 -0.12290030512E+01  0.48579560287E+01  0.51552984511E+01  0.00000000000E+00 0. -1.
         -2    1    6    6    0  503  0.60175361735E+03  0.57075868538E+02 -0.25988115928E+03  0.65795386443E+03  0.00000000000E+00 0.  1.
<mgrwt>
<rscale>  0 0.32380114E+04</rscale>
<asrwt>0</asrwt>
<pdfrwt beam="1">  1        2 0.23652537E+00 0.32380114E+04</pdfrwt>
<pdfrwt beam="2">  1       -1 0.26229639E+00 0.32380114E+04</pdfrwt>
<totfact> 0.66990483E-01</totfact>
</mgrwt>
</event>
<event>
12    7  0.2362560E-007  0.2638193E+04  0.7818608E-02  0.8355342E-01
         -1   -1    0    0    0  501 -0.00000000000E+00  0.00000000000E+00  0.75842857384E+03  0.75842857384E+03  0.00000000000E+00 0.  1.
          2   -1    0    0  501    0  0.00000000000E+00 -0.00000000000E+00 -0.22942379348E+04  0.22942379348E+04  0.00000000000E+00 0. -1.
         24    2    1    2    0    0 -0.76899736648E+03  0.71412912568E+03 -0.12584461224E+04  0.16406285149E+04  0.81473449470E+02 0.  0.
        254    2    1    2    0    0  0.76899736648E+03 -0.71412912568E+03 -0.27736323851E+03  0.14120379937E+04  0.90309665701E+03 0.  0.
         23    2    4    4    0    0  0.47747997720E+03 -0.39357314576E+03  0.29208538730E+03  0.69030847259E+03  0.91241241635E+02 0.  0.
         23    2    4    4    0    0  0.29151738929E+03 -0.32055597992E+03 -0.56944862581E+03  0.72172952115E+03  0.94250940249E+02 0.  0.
          2    1    3    3  502    0 -0.26818779084E+03  0.26285052751E+03 -0.39240590252E+03  0.54313670774E+03  0.00000000000E+00 0. -1.
         -1    1    3    3    0  502 -0.50080957565E+03  0.45127859817E+03 -0.86604021991E+03  0.10974918071E+04  0.00000000000E+00 0.  1.
         13    1    5    5    0    0  0.11862417578E+02  0.45877871152E+01  0.41797073908E+01  0.13387856261E+02  0.00000000000E+00 0. -1.
        -13    1    5    5    0    0  0.46561755962E+03 -0.39816093287E+03  0.28790567991E+03  0.67692061633E+03  0.00000000000E+00 0.  1.
          2    1    6    6  503    0  0.12322896935E+02 -0.16604827221E+02 -0.30322210787E+01  0.20899005732E+02  0.00000000000E+00 0. -1.
         -2    1    6    6    0  503  0.27919449235E+03 -0.30395115270E+03 -0.56641640473E+03  0.70083051542E+03  0.00000000000E+00 0.  1.
<mgrwt>
<rscale>  0 0.26381930E+04</rscale>
<asrwt>0</asrwt>
<pdfrwt beam="1">  1        2 0.35295968E+00 0.26381930E+04</pdfrwt>
<pdfrwt beam="2">  1       -1 0.11668132E+00 0.26381930E+04</pdfrwt>
<totfact> 0.30357866E+00</totfact>
</mgrwt>
</event>
<event>
12    7  0.1711607E-007  0.1440567E+04  0.7818608E-02  0.8924966E-01
          2   -1    0    0  501    0  0.00000000000E+00  0.00000000000E+00  0.15786468614E+04  0.15786468614E+04  0.00000000000E+00 0. -1.
         -1   -1    0    0    0  501 -0.00000000000E+00 -0.00000000000E+00 -0.32864128036E+03  0.32864128036E+03  0.00000000000E+00 0.  1.
         24    2    1    2    0    0  0.27886069848E+03  0.26377574075E+03  0.64520991532E+03  0.75495434037E+03  0.79493966189E+02 0.  0.
        254    2    1    2    0    0 -0.27886069848E+03 -0.26377574075E+03  0.60479566575E+03  0.11523338014E+04  0.90263750309E+03 0.  0.
         23    2    4    4    0    0 -0.25729461984E+03 -0.46664136390E+03  0.72165466166E+03  0.90199112525E+03  0.94063039736E+02 0.  0.
         23    2    4    4    0    0 -0.21566078640E+02  0.20286562315E+03 -0.11685899591E+03  0.25034267615E+03  0.85999266138E+02 0.  0.
          2    1    3    3  502    0  0.16322870782E+03  0.14396638712E+03  0.43832650384E+03  0.48938742898E+03  0.00000000000E+00 0. -1.
         -1    1    3    3    0  502  0.11563199066E+03  0.11980935363E+03  0.20688341147E+03  0.26556691139E+03  0.00000000000E+00 0.  1.
         13    1    5    5    0    0 -0.13347190294E+03 -0.31575246468E+03  0.41218304528E+03  0.53610561519E+03  0.00000000000E+00 0. -1.
        -13    1    5    5    0    0 -0.12382271690E+03 -0.15088889921E+03  0.30947161638E+03  0.36588551006E+03  0.00000000000E+00 0.  1.
          1    1    6    6  503    0 -0.90338219169E+01  0.18290852740E+03 -0.12883370096E+03  0.22390904813E+03  0.00000000000E+00 0. -1.
         -1    1    6    6    0  503 -0.12532256723E+02  0.19957095748E+02  0.11974705049E+02  0.26433628020E+02  0.00000000000E+00 0.  1.
<mgrwt>
<rscale>  0 0.14405673E+04</rscale>
<asrwt>0</asrwt>
<pdfrwt beam="1">  1        2 0.24286874E+00 0.14405673E+04</pdfrwt>
<pdfrwt beam="2">  1       -1 0.50560198E-01 0.14405673E+04</pdfrwt>
<totfact> 0.49801755E+01</totfact>
</mgrwt>
</event>
<event>
12    7  0.1711607E-007  0.1447012E+04  0.7818608E-02  0.8920475E-01
         -1   -1    0    0    0  501 -0.00000000000E+00  0.00000000000E+00  0.26419714578E+03  0.26419714578E+03  0.00000000000E+00 0.  1.
          2   -1    0    0  501    0  0.00000000000E+00 -0.00000000000E+00 -0.19813258793E+04  0.19813258793E+04  0.00000000000E+00 0. -1.
         24    2    1    2    0    0  0.10821983504E+03  0.37574705114E+03 -0.24695513360E+03  0.46921090294E+03  0.79212715495E+02 0.  0.
        254    2    1    2    0    0 -0.10821983504E+03 -0.37574705114E+03 -0.14701735999E+04  0.17763121221E+04  0.91704796070E+03 0.  0.
         23    2    4    4    0    0  0.10812733062E+03  0.27207588696E+03 -0.50166625717E+03  0.58770229518E+03  0.89488246609E+02 0.  0.
         23    2    4    4    0    0 -0.21634716566E+03 -0.64782293810E+03 -0.96850734275E+03  0.11886098270E+04  0.91138315666E+02 0.  0.
          2    1    3    3  502    0  0.74607366494E+01 -0.14069905460E+01 -0.99556944090E+01  0.12520306103E+02  0.00000000000E+00 0. -1.
         -1    1    3    3    0  502  0.10075909839E+03  0.37715404168E+03 -0.23699943919E+03  0.45669059684E+03  0.00000000000E+00 0.  1.
         13    1    5    5    0    0  0.11101411415E+03  0.24520622598E+03 -0.39729451913E+03  0.47988869723E+03  0.00000000000E+00 0. -1.
        -13    1    5    5    0    0 -0.28867835310E+01  0.26869660980E+02 -0.10437173804E+03  0.10781359795E+03  0.00000000000E+00 0.  1.
          4    1    6    6  503    0 -0.14169351593E+03 -0.42952766563E+03 -0.71299251500E+03  0.84435146381E+03  0.00000000000E+00 0. -1.
         -4    1    6    6    0  503 -0.74653649732E+02 -0.21829527247E+03 -0.25551482775E+03  0.34425836315E+03  0.00000000000E+00 0.  1.
<mgrwt>
<rscale>  0 0.14470116E+04</rscale>
<asrwt>0</asrwt>
<pdfrwt beam="1">  1        2 0.30481937E+00 0.14470116E+04</pdfrwt>
<pdfrwt beam="2">  1       -1 0.40645714E-01 0.14470116E+04</pdfrwt>
<totfact> 0.44739169E+01</totfact>
</mgrwt>
</event>
<event>
12    7  0.1711607E-007  0.2196970E+04  0.7818608E-02  0.8519690E-01
         -1   -1    0    0    0  501 -0.00000000000E+00  0.00000000000E+00  0.22191227582E+04  0.22191227582E+04  0.00000000000E+00 0.  1.
          2   -1    0    0  501    0  0.00000000000E+00 -0.00000000000E+00 -0.54375955048E+03  0.54375955048E+03  0.00000000000E+00 0. -1.
         24    2    1    2    0    0 -0.54187049239E+03  0.43484776327E+03  0.14339491864E+04  0.15954069517E+04  0.79980401511E+02 0.  0.
        254    2    1    2    0    0  0.54187049239E+03 -0.43484776327E+03  0.24141402129E+03  0.11674753570E+04  0.90664313359E+03 0.  0.
         23    2    4    4    0    0 -0.56083865656E+02  0.12504651617E+02 -0.24775118917E+03  0.27029468545E+03  0.91524854261E+02 0.  0.
         23    2    4    4    0    0  0.59795435804E+03 -0.44735241488E+03  0.48916521046E+03  0.89718067151E+03  0.89313810778E+02 0.  0.
          4    1    3    3  502    0 -0.82838063393E+02  0.10535876231E+03  0.29364039432E+03  0.32278056744E+03  0.00000000000E+00 0. -1.
         -3    1    3    3    0  502 -0.45903242900E+03  0.32948900096E+03  0.11403087921E+04  0.12726263843E+04  0.00000000000E+00 0.  1.
         13    1    5    5    0    0 -0.21401117443E+02 -0.39563931134E+02 -0.11693562442E+03  0.12528867759E+03  0.00000000000E+00 0. -1.
        -13    1    5    5    0    0 -0.34682748212E+02  0.52068582751E+02 -0.13081556475E+03  0.14500600786E+03  0.00000000000E+00 0.  1.
          1    1    6    6  503    0  0.16750337679E+03 -0.78950158131E+02  0.13231002759E+03  0.22758833913E+03  0.00000000000E+00 0. -1.
         -1    1    6    6    0  503  0.43045098125E+03 -0.36840225675E+03  0.35685518287E+03  0.66959233238E+03  0.00000000000E+00 0.  1.
<mgrwt>
<rscale>  0 0.21969699E+04</rscale>
<asrwt>0</asrwt>
<pdfrwt beam="1">  1        2 0.83655317E-01 0.21969699E+04</pdfrwt>
<pdfrwt beam="2">  1       -1 0.34140350E+00 0.21969699E+04</pdfrwt>
<totfact> 0.10326082E+00</totfact>
</mgrwt>
</event>
<event>
12    7  0.1711607E-007  0.2167901E+04  0.7818608E-02  0.8531908E-01
          2   -1    0    0  501    0  0.00000000000E+00  0.00000000000E+00  0.16664036328E+04  0.16664036328E+04  0.00000000000E+00 0. -1.
         -1   -1    0    0    0  501 -0.00000000000E+00 -0.00000000000E+00 -0.70508038108E+03  0.70508038108E+03  0.00000000000E+00 0.  1.
         24    2    1    2    0    0  0.25162378986E+03  0.22758666594E+03 -0.52277282936E+03  0.62862486001E+03  0.82265189279E+02 0.  0.
        254    2    1    2    0    0 -0.25162378986E+03 -0.22758666594E+03  0.14840960811E+04  0.17428591539E+04  0.84847311700E+03 0.  0.
         23    2    4    4    0    0 -0.92372761854E+02 -0.54698380473E+02  0.14827643146E+04  0.14893822750E+04  0.90249147136E+02 0.  0.
         23    2    4    4    0    0 -0.15925102801E+03 -0.17288828547E+03  0.13317665484E+01  0.25347687892E+03  0.94855181061E+02 0.  0.
          2    1    3    3  502    0  0.82270048007E+02  0.75767345495E+02 -0.10740767774E+03  0.15506598815E+03  0.00000000000E+00 0. -1.
         -1    1    3    3    0  502  0.16935374185E+03  0.15181932045E+03 -0.41536515161E+03  0.47355887186E+03  0.00000000000E+00 0.  1.
         13    1    5    5    0    0  0.14058557778E+02  0.32951033776E+01  0.72819932531E+02  0.74237748665E+02  0.00000000000E+00 0. -1.
        -13    1    5    5    0    0 -0.10643131963E+03 -0.57993483851E+02  0.14099443820E+04  0.14151445263E+04  0.00000000000E+00 0.  1.
          2    1    6    6  503    0 -0.74015780176E+02 -0.44432995000E+02  0.39078126856E+02  0.94761420200E+02  0.00000000000E+00 0. -1.
         -2    1    6    6    0  503 -0.85235247831E+02 -0.12845529047E+03 -0.37746360307E+02  0.15871545872E+03  0.00000000000E+00 0.  1.
<mgrwt>
<rscale>  0 0.21679008E+04</rscale>
<asrwt>0</asrwt>
<pdfrwt beam="1">  1        2 0.25636979E+00 0.21679008E+04</pdfrwt>
<pdfrwt beam="2">  1       -1 0.10847391E+00 0.21679008E+04</pdfrwt>
<totfact> 0.84292143E+00</totfact>
</mgrwt>
</event>
<event>
12    7  0.1711607E-007  0.1859095E+04  0.7818608E-02  0.8675490E-01
         -1   -1    0    0    0  501 -0.00000000000E+00  0.00000000000E+00  0.58913472077E+03  0.58913472077E+03  0.00000000000E+00 0.  1.
          2   -1    0    0  501    0  0.00000000000E+00 -0.00000000000E+00 -0.14666571715E+04  0.14666571715E+04  0.00000000000E+00 0. -1.
         24    2    1    2    0    0  0.51593966880E+03 -0.18692332814E+03  0.15076551719E+03  0.57462969309E+03  0.79592528322E+02 0.  0.
        254    2    1    2    0    0 -0.51593966880E+03  0.18692332814E+03 -0.10282879679E+04  0.14811621992E+04  0.91396457419E+03 0.  0.
         23    2    4    4    0    0  0.72198888133E+02 -0.24942048865E+03 -0.95736908465E+02  0.29189573575E+03  0.92813281923E+02 0.  0.
         23    2    4    4    0    0 -0.58813855693E+03  0.43634381679E+03 -0.93255105947E+03  0.11892664634E+04  0.91653444838E+02 0.  0.
          4    1    3    3  502    0  0.11722068953E+03 -0.57439834293E+02  0.44517112721E+01  0.13061333144E+03  0.00000000000E+00 0. -1.
         -3    1    3    3    0  502  0.39871897927E+03 -0.12948349385E+03  0.14631380592E+03  0.44401636165E+03  0.00000000000E+00 0.  1.
         13    1    5    5    0    0 -0.77332891871E+01  0.22085894975E+01  0.48184194682E+01  0.93754357441E+01  0.00000000000E+00 0. -1.
        -13    1    5    5    0    0  0.79932177320E+02 -0.25162907815E+03 -0.10055532793E+03  0.28252030001E+03  0.00000000000E+00 0.  1.
          2    1    6    6  503    0 -0.17870947576E+03  0.95793525634E+02 -0.21299902142E+03  0.29407832189E+03  0.00000000000E+00 0. -1.
         -2    1    6    6    0  503 -0.40942908117E+03  0.34055029115E+03 -0.71955203805E+03  0.89518814155E+03  0.00000000000E+00 0.  1.
<mgrwt>
<rscale>  0 0.18590951E+04</rscale>
<asrwt>0</asrwt>
<pdfrwt beam="1">  1        2 0.22563956E+00 0.18590951E+04</pdfrwt>
<pdfrwt beam="2">  1       -1 0.90636112E-01 0.18590951E+04</pdfrwt>
<totfact> 0.16882583E+01</totfact>
</mgrwt>
</event>
<event>
12    7  0.1711607E-007  0.1284964E+04  0.7818608E-02  0.9041575E-01
          2   -1    0    0  501    0  0.00000000000E+00  0.00000000000E+00  0.23023060660E+04  0.23023060660E+04  0.00000000000E+00 0. -1.
         -1   -1    0    0    0  501 -0.00000000000E+00 -0.00000000000E+00 -0.17929116662E+03  0.17929116662E+03  0.00000000000E+00 0.  1.
         24    2    1    2    0    0  0.40014728962E+02 -0.10563106759E+03  0.11525422213E+04  0.11606495070E+04  0.77424835800E+02 0.  0.
        254    2    1    2    0    0 -0.40014728962E+02  0.10563106759E+03  0.97047267808E+03  0.13209477256E+04  0.88900313497E+03 0.  0.
         23    2    4    4    0    0  0.37929154865E+03 -0.11947519049E+03  0.50543265417E+03  0.64930865181E+03  0.89460367755E+02 0.  0.
         23    2    4    4    0    0 -0.41930627761E+03  0.22510625808E+03  0.46504002391E+03  0.67163907382E+03  0.91357757077E+02 0.  0.
          2    1    3    3  502    0  0.47309804348E+02 -0.44781576135E+02  0.81418640411E+03  0.81678828823E+03  0.00000000000E+00 0. -1.
         -1    1    3    3    0  502 -0.72950753859E+01 -0.60849491454E+02  0.33835581720E+03  0.34386121876E+03  0.00000000000E+00 0.  1.
         13    1    5    5    0    0  0.21751098883E+02  0.14103961801E+02  0.32107655537E+02  0.41266615868E+02  0.00000000000E+00 0. -1.
        -13    1    5    5    0    0  0.35754044977E+03 -0.13357915229E+03  0.47332499863E+03  0.60804203594E+03  0.00000000000E+00 0.  1.
          3    1    6    6  503    0 -0.27304686820E+02  0.36627322239E+02  0.21760574930E+02  0.50602660780E+02  0.00000000000E+00 0. -1.
         -3    1    6    6    0  503 -0.39200159079E+03  0.18847893584E+03  0.44327944898E+03  0.62103641304E+03  0.00000000000E+00 0.  1.
<mgrwt>
<rscale>  0 0.12849640E+04</rscale>
<asrwt>0</asrwt>
<pdfrwt beam="1">  1        2 0.35420091E+00 0.12849640E+04</pdfrwt>
<pdfrwt beam="2">  1       -1 0.27583258E-01 0.12849640E+04</pdfrwt>
<totfact> 0.59879667E+01</totfact>
</mgrwt>
</event>
<event>
12    7  0.1711607E-007  0.2782735E+04  0.7818608E-02  0.8308648E-01
          2   -1    0    0  501    0  0.00000000000E+00  0.00000000000E+00  0.25003896485E+04  0.25003896485E+04  0.00000000000E+00 0. -1.
         -3   -1    0    0    0  501 -0.00000000000E+00 -0.00000000000E+00 -0.77424100390E+03  0.77424100390E+03  0.00000000000E+00 0.  1.
         24    2    1    2    0    0  0.10552740807E+04  0.17358638638E+03  0.26020166479E+02  0.10728478541E+04  0.81177891264E+02 0.  0.
        254    2    1    2    0    0 -0.10552740807E+04 -0.17358638638E+03  0.17001284781E+04  0.22017827983E+04  0.90203937263E+03 0.  0.
         23    2    4    4    0    0 -0.64154246846E+02 -0.11512813624E+03 -0.66307652365E+02  0.17338286212E+03  0.91075007401E+02 0.  0.
         23    2    4    4    0    0 -0.99111983387E+03 -0.58458250135E+02  0.17664361305E+04  0.20283999362E+04  0.91508501602E+02 0.  0.
          2    1    3    3  502    0  0.53172260064E+03  0.48959596004E+02 -0.13214958278E+01  0.53397351285E+03  0.00000000000E+00 0. -1.
         -1    1    3    3    0  502  0.52355148008E+03  0.12462679037E+03  0.27341662307E+02  0.53887434126E+03  0.00000000000E+00 0.  1.
         13    1    5    5    0    0 -0.32463290941E+02 -0.86852154281E+01  0.13922081429E+02  0.36374751918E+02  0.00000000000E+00 0.  1.
        -13    1    5    5    0    0 -0.31690955905E+02 -0.10644292081E+03 -0.80229733794E+02  0.13700811021E+03  0.00000000000E+00 0. -1.
          4    1    6    6  503    0 -0.39093009022E+03  0.21659430400E+02  0.69747532822E+03  0.79985454918E+03  0.00000000000E+00 0.  1.
         -4    1    6    6    0  503 -0.60018974365E+03 -0.80117680535E+02  0.10689608023E+04  0.12285453870E+04  0.00000000000E+00 0. -1.
<mgrwt>
<rscale>  0 0.27827355E+04</rscale>
<asrwt>0</asrwt>
<pdfrwt beam="1">  1        2 0.38467533E+00 0.27827355E+04</pdfrwt>
<pdfrwt beam="2">  1       -3 0.11911400E+00 0.27827355E+04</pdfrwt>
<totfact> 0.11130820E+00</totfact>
</mgrwt>
</event>
<event>
12    7  0.1711607E-007  0.1539787E+04  0.7818608E-02  0.8858418E-01
          2   -1    0    0  501    0  0.00000000000E+00  0.00000000000E+00  0.11740409695E+04  0.11740409695E+04  0.00000000000E+00 0. -1.
         -1   -1    0    0    0  501 -0.00000000000E+00 -0.00000000000E+00 -0.50486826785E+03  0.50486826785E+03  0.00000000000E+00 0.  1.
         24    2    1    2    0    0 -0.80606222409E+01 -0.39885404851E+03 -0.12982781864E+03  0.42395602148E+03  0.61105809991E+02 0.  0.
        254    2    1    2    0    0  0.80606222409E+01  0.39885404851E+03  0.79900052029E+03  0.12549532159E+04  0.88167806877E+03 0.  0.
         23    2    4    4    0    0 -0.32322085544E+03  0.37855951818E+03  0.16248701439E+03  0.53119544742E+03  0.89373056972E+02 0.  0.
         23    2    4    4    0    0  0.33128147768E+03  0.20294530331E+02  0.63651350590E+03  0.72375776846E+03  0.92285311889E+02 0.  0.
          4    1    3    3  502    0  0.18627915795E+02 -0.14084712625E+03 -0.66960655825E+02  0.15706254056E+03  0.00000000000E+00 0. -1.
         -3    1    3    3    0  502 -0.26688538036E+02 -0.25800692226E+03 -0.62867162816E+02  0.26689348092E+03  0.00000000000E+00 0.  1.
         13    1    5    5    0    0 -0.23249772128E+03  0.30809327921E+03  0.15545930629E+03  0.41610606221E+03  0.00000000000E+00 0.  1.
        -13    1    5    5    0    0 -0.90723134160E+02  0.70466238972E+02  0.70277081068E+01  0.11508938521E+03  0.00000000000E+00 0. -1.
          2    1    6    6  503    0  0.12903179037E+01 -0.10668428940E+02  0.87004691209E+01  0.13826729883E+02  0.00000000000E+00 0. -1.
         -2    1    6    6    0  503  0.32999115978E+03  0.30962959272E+02  0.62781303678E+03  0.70993103857E+03  0.00000000000E+00 0.  1.
<mgrwt>
<rscale>  0 0.15397870E+04</rscale>
<asrwt>0</asrwt>
<pdfrwt beam="1">  1        2 0.18062169E+00 0.15397870E+04</pdfrwt>
<pdfrwt beam="2">  1       -1 0.77672041E-01 0.15397870E+04</pdfrwt>
<totfact> 0.35825220E+01</totfact>
</mgrwt>
</event>
<event>
12    7  0.1711607E-007  0.1144277E+04  0.7818608E-02  0.9163080E-01
          2   -1    0    0  501    0  0.00000000000E+00  0.00000000000E+00  0.58612950129E+03  0.58612950129E+03  0.00000000000E+00 0. -1.
         -1   -1    0    0    0  501 -0.00000000000E+00 -0.00000000000E+00 -0.55848120196E+03  0.55848120196E+03  0.00000000000E+00 0.  1.
         24    2    1    2    0    0  0.16906345774E+03  0.10902021186E+03  0.30781279800E+02  0.22004509138E+03  0.83692865389E+02 0.  0.
        254    2    1    2    0    0 -0.16906345774E+03 -0.10902021186E+03 -0.31329804651E+01  0.92456561187E+03  0.90241004857E+03 0.  0.
         23    2    4    4    0    0  0.21483842601E+03 -0.23699046596E+03  0.26928508820E+03  0.42794784782E+03  0.91131067633E+02 0.  0.
         23    2    4    4    0    0 -0.38390188375E+03  0.12797025410E+03 -0.27241806866E+03  0.49661776405E+03  0.93062114499E+02 0.  0.
          2    1    3    3  502    0  0.10924020008E+03  0.42767104098E+02  0.51954234586E+02  0.12830311375E+03  0.00000000000E+00 0. -1.
         -3    1    3    3    0  502  0.59823257662E+02  0.66253107759E+02 -0.21172954786E+02  0.91741977630E+02  0.00000000000E+00 0.  1.
         13    1    5    5    0    0  0.15826812112E+03 -0.11322458837E+03  0.13557606065E+03  0.23716971518E+03  0.00000000000E+00 0. -1.
        -13    1    5    5    0    0  0.56570304887E+02 -0.12376587759E+03  0.13370902754E+03  0.19077813265E+03  0.00000000000E+00 0.  1.
          2    1    6    6  503    0 -0.16496638985E+03  0.15933806393E+02 -0.78286488105E+02  0.18329367198E+03  0.00000000000E+00 0. -1.
         -2    1    6    6    0  503 -0.21893549389E+03  0.11203644771E+03 -0.19413158056E+03  0.31332409207E+03  0.00000000000E+00 0.  1.
<mgrwt>
<rscale>  0 0.11442767E+04</rscale>
<asrwt>0</asrwt>
<pdfrwt beam="1">  1        2 0.90173769E-01 0.11442767E+04</pdfrwt>
<pdfrwt beam="2">  1       -1 0.85920185E-01 0.11442767E+04</pdfrwt>
<totfact> 0.77265227E+01</totfact>
</mgrwt>
</event>
<event>
12    7  0.1711607E-007  0.2137423E+04  0.7818608E-02  0.8544935E-01
         -1   -1    0    0    0  501 -0.00000000000E+00  0.00000000000E+00  0.62833037008E+03  0.62833037008E+03  0.00000000000E+00 0.  1.
          2   -1    0    0  501    0  0.00000000000E+00 -0.00000000000E+00 -0.18177446772E+04  0.18177446772E+04  0.00000000000E+00 0. -1.
         24    2    1    2    0    0  0.43304504345E+03  0.54640537853E+03  0.14299738824E+03  0.71596930765E+03  0.77954788879E+02 0.  0.
        254    2    1    2    0    0 -0.43304504345E+03 -0.54640537853E+03 -0.13324116953E+04  0.17301057396E+04  0.85548705250E+03 0.  0.
         23    2    4    4    0    0  0.14036568061E+03 -0.48980007864E+03 -0.56338333754E+03  0.76483717719E+03  0.89266350151E+02 0.  0.
         23    2    4    4    0    0 -0.57341072406E+03 -0.56605299893E+02 -0.76902835780E+03  0.96526856242E+03  0.91294928925E+02 0.  0.
          2    1    3    3  502    0  0.67204779643E+02  0.11295538865E+03  0.17618412056E+01  0.13144773226E+03  0.00000000000E+00 0. -1.
         -1    1    3    3    0  502  0.36584026380E+03  0.43344998988E+03  0.14123554704E+03  0.58452157539E+03  0.00000000000E+00 0.  1.
         13    1    5    5    0    0  0.14882468334E+03 -0.48223931687E+03 -0.54170913352E+03  0.74037310219E+03  0.00000000000E+00 0. -1.
        -13    1    5    5    0    0 -0.84590027309E+01 -0.75607617654E+01 -0.21674204024E+02  0.24464075003E+02  0.00000000000E+00 0.  1.
          2    1    6    6  503    0 -0.57268996226E+03 -0.56059307420E+02 -0.74561453470E+03  0.94183728593E+03  0.00000000000E+00 0. -1.
         -2    1    6    6    0  503 -0.72076179981E+00 -0.54599247339E+00 -0.23413823107E+02  0.23431276488E+02  0.00000000000E+00 0.  1.
<mgrwt>
<rscale>  0 0.21374229E+04</rscale>
<asrwt>0</asrwt>
<pdfrwt beam="1">  1        2 0.27965303E+00 0.21374229E+04</pdfrwt>
<pdfrwt beam="2">  1       -1 0.96666211E-01 0.21374229E+04</pdfrwt>
<totfact> 0.90845052E+00</totfact>
</mgrwt>
</event>
<event>
12    7  0.1711607E-007  0.2057282E+04  0.7818608E-02  0.8580298E-01
          2   -1    0    0  501    0  0.00000000000E+00  0.00000000000E+00  0.23137404282E+04  0.23137404282E+04  0.00000000000E+00 0. -1.
         -1   -1    0    0    0  501 -0.00000000000E+00 -0.00000000000E+00 -0.45731238864E+03  0.45731238864E+03  0.00000000000E+00 0.  1.
         24    2    1    2    0    0  0.73382254235E+03  0.33630567448E+03  0.48357846617E+03  0.94429298570E+03  0.79019488433E+02 0.  0.
        254    2    1    2    0    0 -0.73382254235E+03 -0.33630567448E+03  0.13728495734E+04  0.18267598312E+04  0.89483992936E+03 0.  0.
         23    2    4    4    0    0 -0.50216286853E+03  0.16594195572E+03  0.10516624783E+04  0.11807355287E+04  0.91859355670E+02 0.  0.
         23    2    4    4    0    0 -0.23165967382E+03 -0.50224763020E+03  0.32118709511E+03  0.64602430248E+03  0.90925039525E+02 0.  0.
          2    1    3    3  502    0  0.28234588700E+01  0.56965690658E+01  0.12252224160E+02  0.13803616047E+02  0.00000000000E+00 0. -1.
         -1    1    3    3    0  502  0.73099908348E+03  0.33060910542E+03  0.47132624201E+03  0.93048936965E+03  0.00000000000E+00 0.  1.
         13    1    5    5    0    0 -0.40472228111E+03  0.15300443717E+03  0.78204533506E+03  0.89375913350E+03  0.00000000000E+00 0.  1.
        -13    1    5    5    0    0 -0.97440587420E+02  0.12937518549E+02  0.26961714324E+03  0.28697639519E+03  0.00000000000E+00 0. -1.
          3    1    6    6  503    0 -0.10015277461E+02 -0.10450092247E+01 -0.13047078416E+01  0.10153821421E+02  0.00000000000E+00 0. -1.
         -3    1    6    6    0  503 -0.22164439636E+03 -0.50120262097E+03  0.32249180295E+03  0.63587048106E+03  0.00000000000E+00 0.  1.
<mgrwt>
<rscale>  0 0.20572819E+04</rscale>
<asrwt>0</asrwt>
<pdfrwt beam="1">  1        2 0.35596006E+00 0.20572819E+04</pdfrwt>
<pdfrwt beam="2">  1       -1 0.70355753E-01 0.20572819E+04</pdfrwt>
<totfact> 0.95715155E+00</totfact>
</mgrwt>
</event>
<event>
12    7  0.1711607E-007  0.2313485E+04  0.7818608E-02  0.8472623E-01
         -1   -1    0    0    0  501 -0.00000000000E+00  0.00000000000E+00  0.40601709045E+03  0.40601709045E+03  0.00000000000E+00 0.  1.
          2   -1    0    0  501    0  0.00000000000E+00 -0.00000000000E+00 -0.32955599104E+04  0.32955599104E+04  0.00000000000E+00 0. -1.
         24    2    1    2    0    0  0.34582898979E+03 -0.72800136111E+03 -0.33411257824E+03  0.87608702791E+03  0.79458124640E+02 0.  0.
        254    2    1    2    0    0 -0.34582898979E+03  0.72800136111E+03 -0.25554302418E+04  0.28254899730E+04  0.89642969330E+03 0.  0.
         23    2    4    4    0    0  0.23219639481E+03  0.29920102737E+03 -0.14625429820E+04  0.15135364257E+04  0.91236599111E+02 0.  0.
         23    2    4    4    0    0 -0.57802538460E+03  0.42880033374E+03 -0.10928872597E+04  0.13119535473E+04  0.94002533929E+02 0.  0.
          2    1    3    3  502    0 -0.19799529380E+01 -0.16531882005E+02 -0.14537190991E+02  0.22103240897E+02  0.00000000000E+00 0. -1.
         -1    1    3    3    0  502  0.34780894273E+03 -0.71146947910E+03 -0.31957538725E+03  0.85398378701E+03  0.00000000000E+00 0.  1.
         13    1    5    5    0    0  0.14987038338E+03  0.24897852991E+03 -0.10188434027E+04  0.10594778523E+04  0.00000000000E+00 0.  1.
        -13    1    5    5    0    0  0.82326011428E+02  0.50222497460E+02 -0.44369957927E+03  0.45405857337E+03  0.00000000000E+00 0. -1.
          1    1    6    6  503    0 -0.83362089156E+02  0.10723842252E+03 -0.20499772937E+03  0.24591337138E+03  0.00000000000E+00 0. -1.
         -1    1    6    6    0  503 -0.49466329545E+03  0.32156191121E+03 -0.88788953037E+03  0.10660401760E+04  0.00000000000E+00 0.  1.
<mgrwt>
<rscale>  0 0.23134854E+04</rscale>
<asrwt>0</asrwt>
<pdfrwt beam="1">  1        2 0.50700921E+00 0.23134854E+04</pdfrwt>
<pdfrwt beam="2">  1       -1 0.62464168E-01 0.23134854E+04</pdfrwt>
<totfact> 0.30086775E+00</totfact>
</mgrwt>
</event>
<event>
12    7  0.1711607E-007  0.2056610E+04  0.7818608E-02  0.8580602E-01
          2   -1    0    0  501    0  0.00000000000E+00  0.00000000000E+00  0.13072938377E+04  0.13072938377E+04  0.00000000000E+00 0. -1.
         -1   -1    0    0    0  501 -0.00000000000E+00 -0.00000000000E+00 -0.80885472225E+03  0.80885472225E+03  0.00000000000E+00 0.  1.
         24    2    1    2    0    0  0.13173974523E+01 -0.11988656760E+03 -0.64392736144E+03  0.65827935157E+03  0.65686629285E+02 0.  0.
        254    2    1    2    0    0 -0.13173974523E+01  0.11988656760E+03  0.11423664769E+04  0.14578692084E+04  0.89777889072E+03 0.  0.
         23    2    4    4    0    0 -0.93888488254E+01 -0.31626815758E+03  0.13348982826E+03  0.35508227012E+03  0.90278382385E+02 0.  0.
         23    2    4    4    0    0  0.80714513732E+01  0.43615472517E+03  0.10088766486E+04  0.11027869383E+04  0.89503332049E+02 0.  0.
          4    1    3    3  502    0 -0.15332033103E+02 -0.70697369645E+01 -0.16949245197E+03  0.17033127632E+03  0.00000000000E+00 0. -1.
         -1    1    3    3    0  502  0.16649430555E+02 -0.11281683063E+03 -0.47443490947E+03  0.48794807525E+03  0.00000000000E+00 0.  1.
         13    1    5    5    0    0 -0.29562316699E+01 -0.31194733558E+03  0.14269665329E+03  0.34304841399E+03  0.00000000000E+00 0. -1.
        -13    1    5    5    0    0 -0.64326171555E+01 -0.43208219923E+01 -0.92068250295E+01  0.12033856127E+02  0.00000000000E+00 0.  1.
          2    1    6    6  503    0 -0.20966016572E+02  0.36629779473E+03  0.78586743211E+03  0.86729537594E+03  0.00000000000E+00 0. -1.
         -2    1    6    6    0  503  0.29037467945E+02  0.69856930443E+02  0.22300921652E+03  0.23549156233E+03  0.00000000000E+00 0.  1.
<mgrwt>
<rscale>  0 0.20566096E+04</rscale>
<asrwt>0</asrwt>
<pdfrwt beam="1">  1        2 0.20112213E+00 0.20566096E+04</pdfrwt>
<pdfrwt beam="2">  1       -1 0.12443919E+00 0.20566096E+04</pdfrwt>
<totfact> 0.97665122E+00</totfact>
</mgrwt>
</event>
<event>
12    7  0.1711607E-007  0.2437301E+04  0.7818608E-02  0.8425669E-01
         -1   -1    0    0    0  501 -0.00000000000E+00  0.00000000000E+00  0.79740640414E+03  0.79740640414E+03  0.00000000000E+00 0.  1.
          2   -1    0    0  501    0  0.00000000000E+00 -0.00000000000E+00 -0.18624241714E+04  0.18624241714E+04  0.00000000000E+00 0. -1.
         24    2    1    2    0    0  0.28302395819E+03 -0.93971270513E+03 -0.47742403470E+02  0.98583274646E+03  0.80151966928E+02 0.  0.
        254    2    1    2    0    0 -0.28302395819E+03  0.93971270513E+03 -0.10172753638E+04  0.16739978291E+04  0.89680378953E+03 0.  0.
         23    2    4    4    0    0  0.22717349564E+03  0.24212891082E+03 -0.10233181143E+02  0.34387551854E+03  0.88946319060E+02 0.  0.
         23    2    4    4    0    0 -0.51019745383E+03  0.69758379431E+03 -0.10070421827E+04  0.13301223106E+04  0.90370412166E+02 0.  0.
          2    1    3    3  502    0  0.12923522126E+03 -0.36750114414E+03  0.16037777026E+02  0.38989234880E+03  0.00000000000E+00 0. -1.
         -1    1    3    3    0  502  0.15378873693E+03 -0.57221156099E+03 -0.63780180496E+02  0.59594039766E+03  0.00000000000E+00 0.  1.
         13    1    5    5    0    0  0.23159844849E+03  0.21999632304E+03 -0.85005957300E+00  0.31943222457E+03  0.00000000000E+00 0.  1.
        -13    1    5    5    0    0 -0.44249528438E+01  0.22132587778E+02 -0.93831215701E+01  0.24443293964E+02  0.00000000000E+00 0. -1.
          2    1    6    6  503    0 -0.36629594201E+03  0.52445108157E+03 -0.68570514299E+03  0.93777033288E+03  0.00000000000E+00 0.  1.
         -2    1    6    6    0  503 -0.14390151182E+03  0.17313271274E+03 -0.32133703969E+03  0.39235197769E+03  0.00000000000E+00 0. -1.
<mgrwt>
<rscale>  0 0.24373009E+04</rscale>
<asrwt>0</asrwt>
<pdfrwt beam="1">  1        2 0.28652679E+00 0.24373009E+04</pdfrwt>
<pdfrwt beam="2">  1       -1 0.12267791E+00 0.24373009E+04</pdfrwt>
<totfact> 0.47662747E+00</totfact>
</mgrwt>
</event>
<event>
12    7  0.1711607E-007  0.1193338E+04  0.7818608E-02  0.9118708E-01
         -3   -1    0    0    0  501 -0.00000000000E+00  0.00000000000E+00  0.10435776060E+04  0.10435776060E+04  0.00000000000E+00 0.  1.
          2   -1    0    0  501    0  0.00000000000E+00 -0.00000000000E+00 -0.34114728571E+03  0.34114728571E+03  0.00000000000E+00 0. -1.
         24    2    1    2    0    0 -0.10060340505E+03  0.34908846042E+02  0.39671686879E+03  0.41842944001E+03  0.79744903562E+02 0.  0.
        254    2    1    2    0    0  0.10060340505E+03 -0.34908846042E+02  0.30571345154E+03  0.96629545174E+03  0.91045401475E+03 0.  0.
         23    2    4    4    0    0  0.27444917222E+03 -0.34314225492E+03 -0.56219221832E+02  0.45199941226E+03  0.89854952755E+02 0.  0.
         23    2    4    4    0    0 -0.17384576717E+03  0.30823340888E+03  0.36193267338E+03  0.51429603949E+03  0.90966867945E+02 0.  0.
          2    1    3    3  502    0 -0.84275152403E+02  0.44514200519E+02  0.20837698529E+03  0.22913922266E+03  0.00000000000E+00 0. -1.
         -1    1    3    3    0  502 -0.16328252645E+02 -0.96053544777E+01  0.18833988349E+03  0.18929021735E+03  0.00000000000E+00 0.  1.
         13    1    5    5    0    0  0.34220137192E+02 -0.63999305406E+01 -0.56997852988E+01  0.35276967739E+02  0.00000000000E+00 0. -1.
        -13    1    5    5    0    0  0.24022903503E+03 -0.33674232438E+03 -0.50519436533E+02  0.41672244452E+03  0.00000000000E+00 0.  1.
          3    1    6    6  503    0  0.51018249677E+01 -0.32544712828E+01  0.76427893217E+01  0.97484578241E+01  0.00000000000E+00 0. -1.
         -3    1    6    6    0  503 -0.17894759214E+03  0.31148788016E+03  0.35428988406E+03  0.50454758166E+03  0.00000000000E+00 0.  1.
<mgrwt>
<rscale>  0 0.11933376E+04</rscale>
<asrwt>0</asrwt>
<pdfrwt beam="1">  1        2 0.52484198E-01 0.11933376E+04</pdfrwt>
<pdfrwt beam="2">  1       -3 0.16055040E+00 0.11933376E+04</pdfrwt>
<totfact> 0.15822534E+01</totfact>
</mgrwt>
</event>
<event>
12    7  0.1711607E-007  0.1845673E+04  0.7818608E-02  0.8682381E-01
         -1   -1    0    0    0  501 -0.00000000000E+00  0.00000000000E+00  0.44482718357E+03  0.44482718357E+03  0.00000000000E+00 0.  1.
          2   -1    0    0  501    0  0.00000000000E+00 -0.00000000000E+00 -0.19145127290E+04  0.19145127290E+04  0.00000000000E+00 0. -1.
         24    2    1    2    0    0  0.49497174575E+03 -0.29106442793E+03 -0.50193115250E+02  0.58208313678E+03  0.81153552079E+02 0.  0.
        254    2    1    2    0    0 -0.49497174575E+03  0.29106442793E+03 -0.14194924302E+04  0.17772567758E+04  0.90220139519E+03 0.  0.
         23    2    4    4    0    0 -0.44960875326E+03 -0.93542295472E+02 -0.22800378028E+03  0.52107537152E+03  0.92928073941E+02 0.  0.
         23    2    4    4    0    0 -0.45362992484E+02  0.38460672340E+03 -0.11914886499E+04  0.12561814043E+04  0.91467944318E+02 0.  0.
          2    1    3    3  502    0  0.16044830812E+03 -0.11473966099E+03 -0.51760281667E+02  0.20393130251E+03  0.00000000000E+00 0. -1.
         -1    1    3    3    0  502  0.33452343763E+03 -0.17632476694E+03  0.15671664167E+01  0.37815183428E+03  0.00000000000E+00 0.  1.
         13    1    5    5    0    0 -0.83356157967E+02 -0.23952477585E+02 -0.86004803846E+02  0.12214252551E+03  0.00000000000E+00 0. -1.
        -13    1    5    5    0    0 -0.36625259530E+03 -0.69589817887E+02 -0.14199897644E+03  0.39893284601E+03  0.00000000000E+00 0.  1.
          3    1    6    6  503    0 -0.49737014215E+02  0.88187112835E+02 -0.28506197294E+03  0.30250796001E+03  0.00000000000E+00 0. -1.
         -3    1    6    6    0  503  0.43740217303E+01  0.29641961057E+03 -0.90642667698E+03  0.95367344428E+03  0.00000000000E+00 0.  1.
<mgrwt>
<rscale>  0 0.18456731E+04</rscale>
<asrwt>0</asrwt>
<pdfrwt beam="1">  1        2 0.29454042E+00 0.18456731E+04</pdfrwt>
<pdfrwt beam="2">  1       -1 0.68434952E-01 0.18456731E+04</pdfrwt>
<totfact> 0.17255603E+01</totfact>
</mgrwt>
</event>
<event>
12    7  0.1711607E-007  0.2490950E+04  0.7818608E-02  0.8406217E-01
          2   -1    0    0  501    0  0.00000000000E+00  0.00000000000E+00  0.13872523157E+04  0.13872523157E+04  0.00000000000E+00 0. -1.
         -1   -1    0    0    0  501 -0.00000000000E+00 -0.00000000000E+00 -0.11181873697E+04  0.11181873697E+04  0.00000000000E+00 0.  1.
         24    2    1    2    0    0  0.72089706418E+03  0.38509874631E+03  0.82805119278E+03  0.11662431239E+04  0.80378010848E+02 0.  0.
        254    2    1    2    0    0 -0.72089706418E+03 -0.38509874631E+03 -0.55898624677E+03  0.13391965615E+04  0.90165857433E+03 0.  0.
         23    2    4    4    0    0 -0.75687334029E+03 -0.44139292421E+03 -0.12427295896E+03  0.88986432963E+03  0.93433345394E+02 0.  0.
         23    2    4    4    0    0  0.35976276117E+02  0.56294177898E+02 -0.43471328782E+03  0.44933223185E+03  0.91980895141E+02 0.  0.
          4    1    3    3  502    0  0.32196269029E+03  0.12800011977E+03  0.36132093552E+03  0.50059646727E+03  0.00000000000E+00 0. -1.
         -3    1    3    3    0  502  0.39893437389E+03  0.25709862653E+03  0.46673025727E+03  0.66564665663E+03  0.00000000000E+00 0.  1.
         13    1    5    5    0    0 -0.54301078132E+03 -0.26849074679E+03 -0.73527964857E+02  0.61020844910E+03  0.00000000000E+00 0.  1.
        -13    1    5    5    0    0 -0.21386255898E+03 -0.17290217742E+03 -0.50744994100E+02  0.27965588053E+03  0.00000000000E+00 0. -1.
          1    1    6    6  503    0 -0.34969375321E+00 -0.92625637969E+01 -0.11518772438E+01  0.93404601063E+01  0.00000000000E+00 0. -1.
         -1    1    6    6    0  503  0.36325969870E+02  0.65556741695E+02 -0.43356141057E+03  0.43999177175E+03  0.00000000000E+00 0.  1.
<mgrwt>
<rscale>  0 0.24909500E+04</rscale>
<asrwt>0</asrwt>
<pdfrwt beam="1">  1        2 0.21342343E+00 0.24909500E+04</pdfrwt>
<pdfrwt beam="2">  1       -1 0.17202882E+00 0.24909500E+04</pdfrwt>
<totfact> 0.35582296E+00</totfact>
</mgrwt>
</event>
<event>
12    7  0.1711607E-007  0.1129922E+04  0.7818608E-02  0.9176509E-01
         -1   -1    0    0    0  501 -0.00000000000E+00  0.00000000000E+00  0.18998103960E+04  0.18998103960E+04  0.00000000000E+00 0.  1.
          2   -1    0    0  501    0  0.00000000000E+00 -0.00000000000E+00 -0.16800663886E+03  0.16800663886E+03  0.00000000000E+00 0. -1.
         24    2    1    2    0    0  0.11838183786E+03  0.44021632771E+02  0.57788933540E+03  0.59680291560E+03  0.79154737089E+02 0.  0.
        254    2    1    2    0    0 -0.11838183786E+03 -0.44021632771E+02  0.11539144217E+04  0.14710141192E+04  0.90355513538E+03 0.  0.
         23    2    4    4    0    0 -0.13612527396E+03  0.40458388503E+03  0.70465210149E+03  0.82939371461E+03  0.95609306381E+02 0.  0.
         23    2    4    4    0    0  0.17743436096E+02 -0.44860551780E+03  0.44926232024E+03  0.64162040463E+03  0.90985554524E+02 0.  0.
          4    1    3    3  502    0  0.11514972825E+03  0.49195489693E+02  0.40751234332E+03  0.42631674385E+03  0.00000000000E+00 0. -1.
         -3    1    3    3    0  502  0.32321096137E+01 -0.51738569217E+01  0.17037699208E+03  0.17048617175E+03  0.00000000000E+00 0.  1.
         13    1    5    5    0    0 -0.11161589730E+03  0.18775557800E+03  0.32726911048E+03  0.39346580064E+03  0.00000000000E+00 0.  1.
        -13    1    5    5    0    0 -0.24509376655E+02  0.21682830703E+03  0.37738299101E+03  0.43592791397E+03  0.00000000000E+00 0. -1.
          2    1    6    6  503    0 -0.51311142189E+01  0.29695040502E+01  0.59367500918E+01  0.83899516735E+01  0.00000000000E+00 0. -1.
         -2    1    6    6    0  503  0.22874550314E+02 -0.45157502185E+03  0.44332557014E+03  0.63323045296E+03  0.00000000000E+00 0.  1.
<mgrwt>
<rscale>  0 0.11299217E+04</rscale>
<asrwt>0</asrwt>
<pdfrwt beam="1">  1        2 0.25847177E-01 0.11299217E+04</pdfrwt>
<pdfrwt beam="2">  1       -1 0.29227851E+00 0.11299217E+04</pdfrwt>
<totfact> 0.89699481E+00</totfact>
</mgrwt>
</event>
<event>
12    7  0.1711607E-007  0.2578870E+04  0.7818608E-02  0.8375414E-01
          2   -1    0    0  501    0  0.00000000000E+00  0.00000000000E+00  0.30586185970E+04  0.30586185970E+04  0.00000000000E+00 0. -1.
         -1   -1    0    0    0  501 -0.00000000000E+00 -0.00000000000E+00 -0.54359281856E+03  0.54359281856E+03  0.00000000000E+00 0.  1.
         24    2    1    2    0    0  0.65508705511E+03 -0.42467736405E+03  0.22830456893E+04  0.24141652287E+04  0.80038858455E+02 0.  0.
        254    2    1    2    0    0 -0.65508705511E+03  0.42467736405E+03  0.23198008916E+03  0.11880461868E+04  0.86495610698E+03 0.  0.
         23    2    4    4    0    0 -0.33035160963E+03  0.51432741748E+03  0.46021964778E+03  0.77060162853E+03  0.91432310093E+02 0.  0.
         23    2    4    4    0    0 -0.32473544549E+03 -0.89650053432E+02 -0.22823955862E+03  0.41744455832E+03  0.93147310851E+02 0.  0.
          4    1    3    3  502    0  0.48327151283E+03 -0.27911751113E+03  0.16928368259E+04  0.17824574215E+04  0.00000000000E+00 0. -1.
         -3    1    3    3    0  502  0.17181554229E+03 -0.14555985291E+03  0.59020886341E+03  0.63170780730E+03  0.00000000000E+00 0.  1.
         13    1    5    5    0    0 -0.31114588655E+02  0.62895083383E+02  0.20879789730E+02  0.73211165543E+02  0.00000000000E+00 0.  1.
        -13    1    5    5    0    0 -0.29923702097E+03  0.45143233409E+03  0.43933985805E+03  0.69739046298E+03  0.00000000000E+00 0. -1.
          3    1    6    6  503    0 -0.30496563680E+03 -0.84075853121E+02 -0.23683764870E+03  0.39517699901E+03  0.00000000000E+00 0. -1.
         -3    1    6    6    0  503 -0.19769808687E+02 -0.55742003107E+01  0.85980900800E+01  0.22267559311E+02  0.00000000000E+00 0.  1.
<mgrwt>
<rscale>  0 0.25788704E+04</rscale>
<asrwt>0</asrwt>
<pdfrwt beam="1">  1        2 0.47055670E+00 0.25788704E+04</pdfrwt>
<pdfrwt beam="2">  1       -1 0.83629666E-01 0.25788704E+04</pdfrwt>
<totfact> 0.22848354E+00</totfact>
</mgrwt>
</event>
<event>
12    7  0.1711607E-007  0.1741273E+04  0.7818608E-02  0.8738169E-01
         -1   -1    0    0    0  501 -0.00000000000E+00  0.00000000000E+00  0.49861615860E+03  0.49861615860E+03  0.00000000000E+00 0.  1.
          2   -1    0    0  501    0  0.00000000000E+00 -0.00000000000E+00 -0.15202231515E+04  0.15202231515E+04  0.00000000000E+00 0. -1.
         24    2    1    2    0    0 -0.95727566513E+02  0.41741646879E+03  0.21279195336E+03  0.48374665199E+03  0.73007756335E+02 0.  0.
        254    2    1    2    0    0  0.95727566513E+02 -0.41741646879E+03 -0.12343989463E+04  0.15350926581E+04  0.80583399968E+03 0.  0.
         23    2    4    4    0    0  0.56064527887E+02 -0.32387609838E+03 -0.13267846094E+04  0.13699668544E+04  0.91721449333E+02 0.  0.
         23    2    4    4    0    0  0.39663038626E+02 -0.93540370413E+02  0.92385663079E+02  0.16512580368E+03  0.91697670458E+02 0.  0.
          4    1    3    3  502    0 -0.15642231763E+02  0.87723376169E+01  0.69809206465E+01  0.19244910363E+02  0.00000000000E+00 0. -1.
         -3    1    3    3    0  502 -0.80085334750E+02  0.40864413118E+03  0.20581103272E+03  0.46450174163E+03  0.00000000000E+00 0.  1.
         13    1    5    5    0    0  0.39461150084E+02 -0.20901044263E+03 -0.10204845012E+04  0.10424160229E+04  0.00000000000E+00 0.  1.
        -13    1    5    5    0    0  0.16603377803E+02 -0.11486565575E+03 -0.30630010813E+03  0.32755083157E+03  0.00000000000E+00 0. -1.
          3    1    6    6  503    0  0.68951299645E+02 -0.60872470155E+02  0.71686524835E+02  0.11661345200E+03  0.00000000000E+00 0. -1.
         -3    1    6    6    0  503 -0.29288261019E+02 -0.32667900258E+02  0.20699138244E+02  0.48512351673E+02  0.00000000000E+00 0.  1.
<mgrwt>
<rscale>  0 0.17412729E+04</rscale>
<asrwt>0</asrwt>
<pdfrwt beam="1">  1        2 0.23388049E+00 0.17412729E+04</pdfrwt>
<pdfrwt beam="2">  1       -1 0.76710178E-01 0.17412729E+04</pdfrwt>
<totfact> 0.22785285E+01</totfact>
</mgrwt>
</event>
<event>
12    7  0.1711607E-007  0.1643734E+04  0.7818608E-02  0.8794122E-01
         -1   -1    0    0    0  501 -0.00000000000E+00  0.00000000000E+00  0.15841801673E+04  0.15841801673E+04  0.00000000000E+00 0.  1.
          2   -1    0    0  501    0  0.00000000000E+00 -0.00000000000E+00 -0.42638163070E+03  0.42638163070E+03  0.00000000000E+00 0. -1.
         24    2    1    2    0    0 -0.27813536495E+03  0.85725969097E+01 -0.20819491284E+03  0.35634157184E+03  0.78749117059E+02 0.  0.
        254    2    1    2    0    0  0.27813536495E+03 -0.85725969097E+01  0.13659934495E+04  0.16542202262E+04  0.89054684441E+03 0.  0.
         23    2    4    4    0    0  0.41853667133E+03 -0.32547393852E+03  0.57981236741E+03  0.79002895338E+03  0.82807824978E+02 0.  0.
         23    2    4    4    0    0 -0.14040130639E+03  0.31690134161E+03  0.78618108207E+03  0.86419127281E+03  0.92773245334E+02 0.  0.
          4    1    3    3  502    0 -0.27404257162E+03 -0.56082858474E+01 -0.19353957542E+03  0.33554187694E+03  0.00000000000E+00 0. -1.
         -3    1    3    3    0  502 -0.40927933324E+01  0.14180882757E+02 -0.14655337420E+02  0.20799694900E+02  0.00000000000E+00 0.  1.
         13    1    5    5    0    0  0.19677607041E+03 -0.10826218957E+03  0.27389235792E+03  0.35420128078E+03  0.00000000000E+00 0. -1.
        -13    1    5    5    0    0  0.22176060092E+03 -0.21721174895E+03  0.30592000948E+03  0.43582767260E+03  0.00000000000E+00 0.  1.
          1    1    6    6  503    0 -0.14092577979E+03  0.32244405908E+03  0.76128951788E+03  0.83868467059E+03  0.00000000000E+00 0. -1.
         -1    1    6    6    0  503  0.52447340433E+00 -0.55427174648E+01  0.24891564194E+02  0.25506602229E+02  0.00000000000E+00 0.  1.
<mgrwt>
<rscale>  0 0.16437339E+04</rscale>
<asrwt>0</asrwt>
<pdfrwt beam="1">  1        2 0.65597175E-01 0.16437339E+04</pdfrwt>
<pdfrwt beam="2">  1       -1 0.24372002E+00 0.16437339E+04</pdfrwt>
<totfact> 0.61965012E+00</totfact>
</mgrwt>
</event>
<event>
12    7  0.1711607E-007  0.2588642E+04  0.7818608E-02  0.8372070E-01
          2   -1    0    0  501    0  0.00000000000E+00  0.00000000000E+00  0.22238885341E+04  0.22238885341E+04  0.00000000000E+00 0. -1.
         -1   -1    0    0    0  501 -0.00000000000E+00 -0.00000000000E+00 -0.75330516360E+03  0.75330516360E+03  0.00000000000E+00 0.  1.
         24    2    1    2    0    0 -0.10191781369E+03 -0.35585523735E+03 -0.58498402320E+03  0.69723903339E+03  0.83161118216E+02 0.  0.
        254    2    1    2    0    0  0.10191781369E+03  0.35585523735E+03  0.20555673937E+04  0.22799546643E+04  0.91422960494E+03 0.  0.
         23    2    4    4    0    0 -0.35746845276E+03  0.73791903626E+02  0.12566029075E+04  0.13117625108E+04  0.91875338755E+02 0.  0.
         23    2    4    4    0    0  0.45938626646E+03  0.28206333373E+03  0.79896448617E+03  0.96819215346E+03  0.91958304832E+02 0.  0.
          4    1    3    3  502    0 -0.55639302926E+02 -0.71338648347E+02 -0.15784867918E+03  0.18193718778E+03  0.00000000000E+00 0. -1.
         -3    1    3    3    0  502 -0.46278510766E+02 -0.28451658901E+03 -0.42713534403E+03  0.51530184562E+03  0.00000000000E+00 0.  1.
         13    1    5    5    0    0 -0.26431751124E+03  0.15419963822E+02  0.94227374223E+03  0.97876520541E+03  0.00000000000E+00 0. -1.
        -13    1    5    5    0    0 -0.93150941522E+02  0.58371939804E+02  0.31432916530E+03  0.33299730542E+03  0.00000000000E+00 0.  1.
          3    1    6    6  503    0  0.21065604324E+03  0.91112591538E+02  0.39454212730E+03  0.45644382251E+03  0.00000000000E+00 0.  1.
         -3    1    6    6    0  503  0.24873022322E+03  0.19095074219E+03  0.40442235887E+03  0.51174833095E+03  0.00000000000E+00 0. -1.
<mgrwt>
<rscale>  0 0.25886419E+04</rscale>
<asrwt>0</asrwt>
<pdfrwt beam="1">  1        2 0.34213669E+00 0.25886419E+04</pdfrwt>
<pdfrwt beam="2">  1       -1 0.11589310E+00 0.25886419E+04</pdfrwt>
<totfact> 0.33963556E+00</totfact>
</mgrwt>
</event>
<event>
12    7  0.1711607E-007  0.3965348E+04  0.7818608E-02  0.8011574E-01
          2   -1    0    0  501    0  0.00000000000E+00  0.00000000000E+00  0.32226514135E+04  0.32226514135E+04  0.00000000000E+00 0. -1.
         -1   -1    0    0    0  501 -0.00000000000E+00 -0.00000000000E+00 -0.12198019679E+04  0.12198019679E+04  0.00000000000E+00 0.  1.
         24    2    1    2    0    0  0.55119454422E+03 -0.14693766142E+04  0.21074094211E+04  0.26287412816E+04  0.78887243982E+02 0.  0.
        254    2    1    2    0    0 -0.55119454422E+03  0.14693766142E+04 -0.10455997559E+03  0.18137120998E+04  0.90318089688E+03 0.  0.
         23    2    4    4    0    0  0.30937972073E+01  0.75388324180E+03  0.30223722551E+03  0.81686597047E+03  0.87023901272E+02 0.  0.
         23    2    4    4    0    0 -0.55428834143E+03  0.71549337242E+03 -0.40679720109E+03  0.99684612933E+03  0.95141533085E+02 0.  0.
          4    1    3    3  502    0  0.49174661524E+03 -0.12294409321E+04  0.17794661978E+04  0.22180711639E+04  0.00000000000E+00 0. -1.
         -3    1    3    3    0  502  0.59447928981E+02 -0.23993568208E+03  0.32794322335E+03  0.41067011765E+03  0.00000000000E+00 0.  1.
         13    1    5    5    0    0 -0.40807722889E+02  0.42160215957E+03  0.17690390589E+03  0.45903011134E+03  0.00000000000E+00 0.  1.
        -13    1    5    5    0    0  0.43901520097E+02  0.33228108223E+03  0.12533331961E+03  0.35783585913E+03  0.00000000000E+00 0. -1.
          2    1    6    6  503    0  0.14039933748E+01  0.13811867501E+02 -0.12849334919E+02  0.18916772693E+02  0.00000000000E+00 0.  1.
         -2    1    6    6    0  503 -0.55569233480E+03  0.70168150492E+03 -0.39394786618E+03  0.97792935663E+03  0.00000000000E+00 0. -1.
<mgrwt>
<rscale>  0 0.39653482E+04</rscale>
<asrwt>0</asrwt>
<pdfrwt beam="1">  1        2 0.49579252E+00 0.39653482E+04</pdfrwt>
<pdfrwt beam="2">  1       -1 0.18766184E+00 0.39653482E+04</pdfrwt>
<totfact> 0.20634465E-01</totfact>
</mgrwt>
</event>
<event>
12    7  0.1711607E-007  0.1054022E+04  0.7818608E-02  0.9251202E-01
         -1   -1    0    0    0  501 -0.00000000000E+00  0.00000000000E+00  0.37560698027E+03  0.37560698027E+03  0.00000000000E+00 0.  1.
          2   -1    0    0  501    0  0.00000000000E+00 -0.00000000000E+00 -0.73944451870E+03  0.73944451870E+03  0.00000000000E+00 0. -1.
         24    2    1    2    0    0  0.82959222672E+02  0.71893066636E+02 -0.10639368837E+03  0.17111579849E+03  0.76877525399E+02 0.  0.
        254    2    1    2    0    0 -0.82959222672E+02 -0.71893066636E+02 -0.25744385006E+03  0.94393570048E+03  0.90149122295E+03 0.  0.
         23    2    4    4    0    0  0.29396312116E+03 -0.44035023588E+02  0.17807489642E+03  0.35831762823E+03  0.91254885135E+02 0.  0.
         23    2    4    4    0    0 -0.37692234383E+03 -0.27858043049E+02 -0.43551874648E+03  0.58561807225E+03  0.10210496641E+03 0.  0.
          2    1    3    3  502    0  0.16903223373E+02  0.14296922124E+02 -0.74715862400E+02  0.77926767140E+02  0.00000000000E+00 0. -1.
         -1    1    3    3    0  502  0.66055999299E+02  0.57596144512E+02 -0.31677825970E+02  0.93189031352E+02  0.00000000000E+00 0.  1.
         13    1    5    5    0    0  0.24681193648E+03 -0.69866589274E+02  0.15582917089E+03  0.30013364154E+03  0.00000000000E+00 0.  1.
        -13    1    5    5    0    0  0.47151184676E+02  0.25831565687E+02  0.22245725539E+02  0.58183986688E+02  0.00000000000E+00 0. -1.
          3    1    6    6  503    0 -0.17785362357E+03 -0.60907013745E+02 -0.18277585271E+03  0.26219951959E+03  0.00000000000E+00 0. -1.
         -3    1    6    6    0  503 -0.19906872026E+03  0.33048970697E+02 -0.25274289377E+03  0.32341855265E+03  0.00000000000E+00 0.  1.
<mgrwt>
<rscale>  0 0.10540219E+04</rscale>
<asrwt>0</asrwt>
<pdfrwt beam="1">  1        2 0.11376069E+00 0.10540219E+04</pdfrwt>
<pdfrwt beam="2">  1       -1 0.57785691E-01 0.10540219E+04</pdfrwt>
<totfact> 0.13170042E+02</totfact>
</mgrwt>
</event>
<event>
12    7  0.1711607E-007  0.1689568E+04  0.7818608E-02  0.8767336E-01
         -1   -1    0    0    0  501 -0.00000000000E+00  0.00000000000E+00  0.81587991498E+03  0.81587991498E+03  0.00000000000E+00 0.  1.
          2   -1    0    0  501    0  0.00000000000E+00 -0.00000000000E+00 -0.87471246131E+03  0.87471246131E+03  0.00000000000E+00 0. -1.
         24    2    1    2    0    0  0.37655789041E+03 -0.45922258890E+03 -0.13258768055E+03  0.61371725389E+03  0.79925863799E+02 0.  0.
        254    2    1    2    0    0 -0.37655789041E+03  0.45922258890E+03  0.73755134212E+02  0.10768751224E+04  0.89528709274E+03 0.  0.
         23    2    4    4    0    0  0.21533969092E+03  0.41100003480E+03  0.20242824620E+02  0.47267785636E+03  0.87877032599E+02 0.  0.
         23    2    4    4    0    0 -0.59189758133E+03  0.48222554097E+02  0.53512309591E+02  0.60419726604E+03  0.97583848541E+02 0.  0.
          4    1    3    3  502    0  0.19417021773E+03 -0.27626494907E+03 -0.10646706515E+03  0.35406162105E+03  0.00000000000E+00 0. -1.
         -3    1    3    3    0  502  0.18238767268E+03 -0.18295763983E+03 -0.26120615396E+02  0.25965563284E+03  0.00000000000E+00 0.  1.
         13    1    5    5    0    0  0.17464794694E+03  0.38058387315E+03  0.21493030697E+01  0.41874886194E+03  0.00000000000E+00 0. -1.
        -13    1    5    5    0    0  0.40691743979E+02  0.30416161650E+02  0.18093521551E+02  0.53928994425E+02  0.00000000000E+00 0.  1.
          4    1    6    6  503    0 -0.40931124886E+03 -0.12211154512E+02  0.35748635043E+02  0.41105081881E+03  0.00000000000E+00 0. -1.
         -4    1    6    6    0  503 -0.18258633248E+03  0.60433708609E+02  0.17763674549E+02  0.19314644723E+03  0.00000000000E+00 0.  1.
<mgrwt>
<rscale>  0 0.16895684E+04</rscale>
<asrwt>0</asrwt>
<pdfrwt beam="1">  1        2 0.13457115E+00 0.16895684E+04</pdfrwt>
<pdfrwt beam="2">  1       -1 0.12551999E+00 0.16895684E+04</pdfrwt>
<totfact> 0.18371086E+01</totfact>
</mgrwt>
</event>
<event>
12    7  0.1711607E-007  0.1735931E+04  0.7818608E-02  0.8741133E-01
          2   -1    0    0  501    0  0.00000000000E+00  0.00000000000E+00  0.19731477365E+04  0.19731477365E+04  0.00000000000E+00 0. -1.
         -1   -1    0    0    0  501 -0.00000000000E+00 -0.00000000000E+00 -0.38180804598E+03  0.38180804598E+03  0.00000000000E+00 0.  1.
         24    2    1    2    0    0 -0.51861045823E+03 -0.10368838567E+03  0.10483880769E+04  0.11781541780E+04  0.96029258871E+02 0.  0.
        254    2    1    2    0    0  0.51861045823E+03  0.10368838567E+03  0.54295161357E+03  0.11768016045E+04  0.90019857415E+03 0.  0.
         23    2    4    4    0    0  0.63036362496E+03  0.15970132723E+02  0.70016555101E+03  0.94654057632E+03  0.89966210263E+02 0.  0.
         23    2    4    4    0    0 -0.11175316673E+03  0.87718252943E+02 -0.15721393743E+03  0.23026102816E+03  0.90114686878E+02 0.  0.
          2    1    3    3  502    0 -0.50501681610E+03 -0.94033821450E+02  0.10389156563E+04  0.11589780348E+04  0.00000000000E+00 0. -1.
         -1    1    3    3    0  502 -0.13593642126E+02 -0.96545642169E+01  0.94724205926E+01  0.19176143208E+02  0.00000000000E+00 0.  1.
         13    1    5    5    0    0  0.16712428138E+03 -0.27795559584E+02  0.15299348682E+03  0.22827642359E+03  0.00000000000E+00 0.  1.
        -13    1    5    5    0    0  0.46323934358E+03  0.43765692307E+02  0.54717206419E+03  0.71826415273E+03  0.00000000000E+00 0. -1.
          3    1    6    6  503    0 -0.65006871282E+02  0.32881438177E+02 -0.20433812239E+02  0.75661238247E+02  0.00000000000E+00 0.  1.
         -3    1    6    6    0  503 -0.46746295445E+02  0.54836814767E+02 -0.13678012520E+03  0.15459978991E+03  0.00000000000E+00 0. -1.
<mgrwt>
<rscale>  0 0.17359305E+04</rscale>
<asrwt>0</asrwt>
<pdfrwt beam="1">  1        2 0.30356118E+00 0.17359305E+04</pdfrwt>
<pdfrwt beam="2">  1       -1 0.58739700E-01 0.17359305E+04</pdfrwt>
<totfact> 0.21951715E+01</totfact>
</mgrwt>
</event>
<event>
12    7  0.1711607E-007  0.1662026E+04  0.7818608E-02  0.8783324E-01
         -1   -1    0    0    0  501 -0.00000000000E+00  0.00000000000E+00  0.35051952341E+03  0.35051952341E+03  0.00000000000E+00 0.  1.
          2   -1    0    0  501    0  0.00000000000E+00 -0.00000000000E+00 -0.19701693174E+04  0.19701693174E+04  0.00000000000E+00 0. -1.
         24    2    1    2    0    0 -0.43486139019E+03  0.13476201315E+03 -0.10957665489E+04  0.11894547868E+04  0.82662757390E+02 0.  0.
        254    2    1    2    0    0  0.43486139019E+03 -0.13476201315E+03 -0.52388324514E+03  0.11312340540E+04  0.89329256210E+03 0.  0.
         23    2    4    4    0    0  0.19573458846E+03  0.23582933495E+03 -0.59409720259E+03  0.67441478927E+03  0.89198192357E+02 0.  0.
         23    2    4    4    0    0  0.23912680173E+03 -0.37059134810E+03  0.70213957455E+02  0.45681926471E+03  0.96095089365E+02 0.  0.
          4    1    3    3  502    0 -0.41147691741E+03  0.14573385597E+03 -0.10230734996E+04  0.11123088582E+04  0.00000000000E+00 0. -1.
         -3    1    3    3    0  502 -0.23384472783E+02 -0.10971842820E+02 -0.72693049218E+02  0.77145928647E+02  0.00000000000E+00 0.  1.
         13    1    5    5    0    0  0.28135332187E+02 -0.13952777681E+00 -0.35600558545E+02  0.45376383218E+02  0.00000000000E+00 0.  1.
        -13    1    5    5    0    0  0.16759925628E+03  0.23596886272E+03 -0.55849664405E+03  0.62903840605E+03  0.00000000000E+00 0. -1.
          4    1    6    6  503    0  0.20843146083E+03 -0.36452964491E+03  0.61935067069E+02  0.42445434196E+03  0.00000000000E+00 0. -1.
         -4    1    6    6    0  503  0.30695340899E+02 -0.60617031932E+01  0.82788903859E+01  0.32364922749E+02  0.00000000000E+00 0.  1.
<mgrwt>
<rscale>  0 0.16620262E+04</rscale>
<asrwt>0</asrwt>
<pdfrwt beam="1">  1        2 0.30310298E+00 0.16620262E+04</pdfrwt>
<pdfrwt beam="2">  1       -1 0.53926079E-01 0.16620262E+04</pdfrwt>
<totfact> 0.26196113E+01</totfact>
</mgrwt>
</event>
<event>
12    7  0.1711607E-007  0.1469006E+04  0.7818608E-02  0.8905329E-01
         -1   -1    0    0    0  501 -0.00000000000E+00  0.00000000000E+00  0.62737730106E+03  0.62737730106E+03  0.00000000000E+00 0.  1.
          2   -1    0    0  501    0  0.00000000000E+00 -0.00000000000E+00 -0.85992037688E+03  0.85992037688E+03  0.00000000000E+00 0. -1.
         24    2    1    2    0    0  0.29715084438E+03 -0.17019089862E+03  0.22947056763E+03  0.41998873935E+03  0.80437761555E+02 0.  0.
        254    2    1    2    0    0 -0.29715084438E+03  0.17019089862E+03 -0.46201364345E+03  0.10673089386E+04  0.89912635227E+03 0.  0.
         23    2    4    4    0    0 -0.58758967182E+03  0.89200979955E+02 -0.45031086727E+03  0.75181834818E+03  0.96085973090E+02 0.  0.
         23    2    4    4    0    0  0.29043882744E+03  0.80989918669E+02 -0.11702776181E+02  0.31549059040E+03  0.92104713493E+02 0.  0.
          2    1    3    3  502    0  0.11093980031E+03 -0.21714741058E+02  0.85002351525E+02  0.14143750930E+03  0.00000000000E+00 0. -1.
         -1    1    3    3    0  502  0.18621104407E+03 -0.14847615757E+03  0.14446821610E+03  0.27855123005E+03  0.00000000000E+00 0.  1.
         13    1    5    5    0    0 -0.45652848499E+03  0.48205879387E+02 -0.38777886504E+03  0.60092804277E+03  0.00000000000E+00 0.  1.
        -13    1    5    5    0    0 -0.13106118683E+03  0.40995100568E+02 -0.62532002225E+02  0.15089030541E+03  0.00000000000E+00 0. -1.
          2    1    6    6  503    0  0.72037353929E+01  0.25670340959E+02 -0.20883685403E+01  0.26743625254E+02  0.00000000000E+00 0.  1.
         -2    1    6    6    0  503  0.28323509205E+03  0.55319577710E+02 -0.96144076408E+01  0.28874696514E+03  0.00000000000E+00 0. -1.
<mgrwt>
<rscale>  0 0.14690058E+04</rscale>
<asrwt>0</asrwt>
<pdfrwt beam="1">  1        2 0.13229544E+00 0.14690058E+04</pdfrwt>
<pdfrwt beam="2">  1       -1 0.96519586E-01 0.14690058E+04</pdfrwt>
<totfact> 0.35686514E+01</totfact>
</mgrwt>
</event>
<event>
12    7  0.1711607E-007  0.2890057E+04  0.7818608E-02  0.8275842E-01
         -1   -1    0    0    0  501 -0.00000000000E+00  0.00000000000E+00  0.14056435747E+04  0.14056435747E+04  0.00000000000E+00 0.  1.
          2   -1    0    0  501    0  0.00000000000E+00 -0.00000000000E+00 -0.14855169198E+04  0.14855169198E+04  0.00000000000E+00 0. -1.
         24    2    1    2    0    0 -0.72255676801E+03 -0.10733526931E+04  0.79861463137E+02  0.12988626895E+04  0.80573855740E+02 0.  0.
        254    2    1    2    0    0  0.72255676801E+03  0.10733526931E+04 -0.15973480828E+03  0.15922978049E+04  0.91417875924E+03 0.  0.
         23    2    4    4    0    0  0.33787379858E+03  0.14877074346E+03 -0.40758574873E+03  0.55673808638E+03  0.86831540231E+02 0.  0.
         23    2    4    4    0    0  0.38468296944E+03  0.92458194963E+03  0.24785094046E+03  0.10355597185E+04  0.90116998658E+02 0.  0.
          2    1    3    3  502    0 -0.24264145036E+03 -0.34341790203E+03 -0.10597591472E+02  0.42062220319E+03  0.00000000000E+00 0. -1.
         -1    1    3    3    0  502 -0.47991531765E+03 -0.72993479105E+03  0.90459054609E+02  0.87824048635E+03  0.00000000000E+00 0.  1.
         13    1    5    5    0    0  0.33928793745E+03  0.15279582602E+03 -0.39161967186E+03  0.54021184394E+03  0.00000000000E+00 0. -1.
        -13    1    5    5    0    0 -0.14141388689E+01 -0.40250825638E+01 -0.15966076870E+02  0.16526242435E+02  0.00000000000E+00 0.  1.
          3    1    6    6  503    0  0.29219681919E+03  0.76820329178E+03  0.17825842288E+03  0.84100614979E+03  0.00000000000E+00 0. -1.
         -3    1    6    6    0  503  0.92486150241E+02  0.15637865784E+03  0.69592517571E+02  0.19455356876E+03  0.00000000000E+00 0.  1.
<mgrwt>
<rscale>  0 0.28900570E+04</rscale>
<asrwt>0</asrwt>
<pdfrwt beam="1">  1        2 0.22854106E+00 0.28900570E+04</pdfrwt>
<pdfrwt beam="2">  1       -1 0.21625286E+00 0.28900570E+04</pdfrwt>
<totfact> 0.14838763E+00</totfact>
</mgrwt>
</event>
<event>
12    7  0.1711607E-007  0.1246860E+04  0.7818608E-02  0.9072801E-01
          2   -1    0    0  501    0  0.00000000000E+00  0.00000000000E+00  0.26269403989E+04  0.26269403989E+04  0.00000000000E+00 0. -1.
         -1   -1    0    0    0  501 -0.00000000000E+00 -0.00000000000E+00 -0.14795347634E+03  0.14795347634E+03  0.00000000000E+00 0.  1.
         24    2    1    2    0    0  0.38424632985E+01 -0.12333476533E+03  0.10744268285E+02  0.14739328641E+03  0.79894384739E+02 0.  0.
        254    2    1    2    0    0 -0.38424632985E+01  0.12333476533E+03  0.24682426543E+04  0.26275005888E+04  0.89236277100E+03 0.  0.
         23    2    4    4    0    0  0.34192612992E+03  0.11018513528E+03  0.47467850745E+03  0.60212425387E+03  0.90441634826E+02 0.  0.
         23    2    4    4    0    0 -0.34576859321E+03  0.13149630053E+02  0.19935641468E+04  0.20253763350E+04  0.90124679680E+02 0.  0.
          4    1    3    3  502    0  0.28878288989E+02 -0.95022392872E+01  0.72187287833E+00  0.30410018528E+02  0.00000000000E+00 0. -1.
         -3    1    3    3    0  502 -0.25035825691E+02 -0.11383252604E+03  0.10022395407E+02  0.11698326788E+03  0.00000000000E+00 0.  1.
         13    1    5    5    0    0  0.12921450960E+03  0.84195516167E+02  0.16874853946E+03  0.22860740147E+03  0.00000000000E+00 0. -1.
        -13    1    5    5    0    0  0.21271162031E+03  0.25989619112E+02  0.30592996799E+03  0.37351685241E+03  0.00000000000E+00 0.  1.
          3    1    6    6  503    0 -0.24169398888E+01  0.60067989595E+01  0.78137308994E+01  0.10147789056E+02  0.00000000000E+00 0. -1.
         -3    1    6    6    0  503 -0.34335165333E+03  0.71428310940E+01  0.19857504159E+04  0.20152285459E+04  0.00000000000E+00 0.  1.
<mgrwt>
<rscale>  0 0.12468600E+04</rscale>
<asrwt>0</asrwt>
<pdfrwt beam="1">  1        2 0.40414464E+00 0.12468600E+04</pdfrwt>
<pdfrwt beam="2">  1       -1 0.22762075E-01 0.12468600E+04</pdfrwt>
<totfact> 0.54439056E+01</totfact>
</mgrwt>
</event>
<event>
12    7  0.1711607E-007  0.1430936E+04  0.7818608E-02  0.8931725E-01
         -1   -1    0    0    0  501 -0.00000000000E+00  0.00000000000E+00  0.11519762636E+03  0.11519762636E+03  0.00000000000E+00 0.  1.
          2   -1    0    0  501    0  0.00000000000E+00 -0.00000000000E+00 -0.44436220148E+04  0.44436220148E+04  0.00000000000E+00 0. -1.
         24    2    1    2    0    0  0.15223851807E+03  0.22780499740E+03 -0.20054179314E+04  0.20256469914E+04  0.80454776399E+02 0.  0.
        254    2    1    2    0    0 -0.15223851807E+03 -0.22780499740E+03 -0.23230064570E+04  0.25331726497E+04  0.97238520693E+03 0.  0.
         23    2    4    4    0    0  0.21429318122E+03  0.14405207307E+03 -0.18528542054E+03  0.33072226414E+03  0.91509352865E+02 0.  0.
         23    2    4    4    0    0 -0.36653169929E+03 -0.37185707046E+03 -0.21377210365E+04  0.22024503856E+04  0.91177319759E+02 0.  0.
          2    1    3    3  502    0  0.21332545216E+01  0.34847397346E+02 -0.42518131519E+03  0.42661228611E+03  0.00000000000E+00 0. -1.
         -1    1    3    3    0  502  0.15010526355E+03  0.19295760005E+03 -0.15802366162E+04  0.15990347053E+04  0.00000000000E+00 0.  1.
         13    1    5    5    0    0  0.11092162601E+03  0.94798254377E+02 -0.15372313084E+03  0.21194602404E+03  0.00000000000E+00 0. -1.
        -13    1    5    5    0    0  0.10337155521E+03  0.49253818688E+02 -0.31562289698E+02  0.11877624010E+03  0.00000000000E+00 0.  1.
          3    1    6    6  503    0  0.21211380501E+01 -0.20048478070E+02 -0.68419130496E+02  0.71327541086E+02  0.00000000000E+00 0. -1.
         -3    1    6    6    0  503 -0.36865283734E+03 -0.35180859239E+03 -0.20693019060E+04  0.21311228445E+04  0.00000000000E+00 0.  1.
<mgrwt>
<rscale>  0 0.14309363E+04</rscale>
<asrwt>0</asrwt>
<pdfrwt beam="1">  1        2 0.68363410E+00 0.14309363E+04</pdfrwt>
<pdfrwt beam="2">  1       -1 0.17722713E-01 0.14309363E+04</pdfrwt>
<totfact> 0.40113317E+00</totfact>
</mgrwt>
</event>
<event>
12    7  0.1711607E-007  0.1685356E+04  0.7818608E-02  0.8769761E-01
          2   -1    0    0  501    0  0.00000000000E+00  0.00000000000E+00  0.22635456162E+04  0.22635456162E+04  0.00000000000E+00 0. -1.
         -1   -1    0    0    0  501 -0.00000000000E+00 -0.00000000000E+00 -0.31371416994E+03  0.31371416994E+03  0.00000000000E+00 0.  1.
         24    2    1    2    0    0 -0.57390581211E+03 -0.63571620447E+02  0.81363460165E+03  0.10008307026E+04  0.79067049164E+02 0.  0.
        254    2    1    2    0    0  0.57390581211E+03  0.63571620447E+02  0.11361968447E+04  0.15764290835E+04  0.92778022908E+03 0.  0.
         23    2    4    4    0    0  0.48379342024E+03 -0.32749253643E+03  0.96239631231E+03  0.11295111390E+04  0.91001737940E+02 0.  0.
         23    2    4    4    0    0  0.90112391873E+02  0.39106415687E+03  0.17380053235E+03  0.44691794452E+03  0.92073916662E+02 0.  0.
          2    1    3    3  502    0 -0.28157105288E+03 -0.13902874733E+02  0.45781421232E+03  0.53765174672E+03  0.00000000000E+00 0. -1.
         -1    1    3    3    0  502 -0.29233475923E+03 -0.49668745715E+02  0.35582038933E+03  0.46317895593E+03  0.00000000000E+00 0.  1.
         13    1    5    5    0    0  0.61515695317E+02 -0.25723706042E+02  0.16628649361E+03  0.17915660127E+03  0.00000000000E+00 0. -1.
        -13    1    5    5    0    0  0.42227772492E+03 -0.30176883039E+03  0.79610981870E+03  0.95035453773E+03  0.00000000000E+00 0.  1.
          4    1    6    6  503    0  0.16480470311E+01  0.90053353305E+02  0.39592504917E+01  0.90155411180E+02  0.00000000000E+00 0. -1.
         -4    1    6    6    0  503  0.88464344842E+02  0.30101080357E+03  0.16984128185E+03  0.35676253334E+03  0.00000000000E+00 0.  1.
<mgrwt>
<rscale>  0 0.16853561E+04</rscale>
<asrwt>0</asrwt>
<pdfrwt beam="1">  1        2 0.34823778E+00 0.16853561E+04</pdfrwt>
<pdfrwt beam="2">  1       -1 0.48263720E-01 0.16853561E+04</pdfrwt>
<totfact> 0.22158853E+01</totfact>
</mgrwt>
</event>
<event>
12    7  0.1711607E-007  0.2548226E+04  0.7818608E-02  0.8386004E-01
         -1   -1    0    0    0  501 -0.00000000000E+00  0.00000000000E+00  0.40684797557E+03  0.40684797557E+03  0.00000000000E+00 0.  1.
          2   -1    0    0  501    0  0.00000000000E+00 -0.00000000000E+00 -0.39900982117E+04  0.39900982117E+04  0.00000000000E+00 0. -1.
         24    2    1    2    0    0  0.21300908171E+03  0.79515106713E+01 -0.34511923731E+04  0.34587275285E+04  0.81432329738E+02 0.  0.
        254    2    1    2    0    0 -0.21300908171E+03 -0.79515106713E+01 -0.13205786301E+03  0.93821865882E+03  0.90409008243E+03 0.  0.
         23    2    4    4    0    0  0.28628037978E+03  0.14037301600E+03  0.11994276120E+03  0.35246087699E+03  0.90450894810E+02 0.  0.
         23    2    4    4    0    0 -0.49928946150E+03 -0.14832452667E+03 -0.25200062421E+03  0.58575778183E+03  0.91201605238E+02 0.  0.
          4    1    3    3  502    0  0.98390586732E+02  0.42902490707E+02 -0.14687626049E+04  0.14726795037E+04  0.00000000000E+00 0. -1.
         -3    1    3    3    0  502  0.11461849498E+03 -0.34950980035E+02 -0.19824297683E+04  0.19860480247E+04  0.00000000000E+00 0.  1.
         13    1    5    5    0    0  0.33105253787E+02  0.21096017289E+02 -0.14666669059E+02  0.41905977557E+02  0.00000000000E+00 0.  1.
        -13    1    5    5    0    0  0.25317512600E+03  0.11927699871E+03  0.13460943026E+03  0.31055489943E+03  0.00000000000E+00 0. -1.
          3    1    6    6  503    0 -0.26200618481E+03 -0.59300686912E+02 -0.17607627311E+03  0.32119568225E+03  0.00000000000E+00 0. -1.
         -3    1    6    6    0  503 -0.23728327669E+03 -0.89023839760E+02 -0.75924351094E+02  0.26456209957E+03  0.00000000000E+00 0.  1.
<mgrwt>
<rscale>  0 0.25482256E+04</rscale>
<asrwt>0</asrwt>
<pdfrwt beam="1">  1        2 0.61386127E+00 0.25482256E+04</pdfrwt>
<pdfrwt beam="2">  1       -1 0.62591995E-01 0.25482256E+04</pdfrwt>
<totfact> 0.91406332E-01</totfact>
</mgrwt>
</event>
<event>
12    7  0.1711607E-007  0.1943764E+04  0.7818608E-02  0.8633374E-01
          2   -1    0    0  501    0  0.00000000000E+00  0.00000000000E+00  0.13513447905E+04  0.13513447905E+04  0.00000000000E+00 0. -1.
         -1   -1    0    0    0  501 -0.00000000000E+00 -0.00000000000E+00 -0.69897369525E+03  0.69897369525E+03  0.00000000000E+00 0.  1.
         24    2    1    2    0    0  0.41196982610E+00 -0.21339575970E+03  0.10034903522E+04  0.10290301677E+04  0.79826555953E+02 0.  0.
        254    2    1    2    0    0 -0.41196982610E+00  0.21339575970E+03 -0.35111925698E+03  0.10212883181E+04  0.93499046840E+03 0.  0.
         23    2    4    4    0    0  0.10177204008E+03  0.55704877805E+03 -0.12199397722E+03  0.58625065146E+03  0.90257446191E+02 0.  0.
         23    2    4    4    0    0 -0.10218400990E+03 -0.34365301835E+03 -0.22912527976E+03  0.43503766659E+03  0.90666469152E+02 0.  0.
          4    1    3    3  502    0 -0.43285665019E+01 -0.21979148791E+03  0.97191829866E+03  0.99646987607E+03  0.00000000000E+00 0. -1.
         -3    1    3    3    0  502  0.47405363280E+01  0.63957282169E+01  0.31572053566E+02  0.32560291622E+02  0.00000000000E+00 0.  1.
         13    1    5    5    0    0  0.79154040670E+02  0.52440765950E+03 -0.96488043722E+02  0.53905352060E+03  0.00000000000E+00 0.  1.
        -13    1    5    5    0    0  0.22617999408E+02  0.32641118551E+02 -0.25505933499E+02  0.47197130857E+02  0.00000000000E+00 0. -1.
          4    1    6    6  503    0 -0.10123204018E+03 -0.18544276182E+03 -0.13997061496E+03  0.25343385118E+03  0.00000000000E+00 0. -1.
         -4    1    6    6    0  503 -0.95196972227E+00 -0.15821025653E+03 -0.89154664798E+02  0.18160381541E+03  0.00000000000E+00 0.  1.
<mgrwt>
<rscale>  0 0.19437638E+04</rscale>
<asrwt>0</asrwt>
<pdfrwt beam="1">  1        2 0.20789920E+00 0.19437638E+04</pdfrwt>
<pdfrwt beam="2">  1       -1 0.10753441E+00 0.19437638E+04</pdfrwt>
<totfact> 0.13219062E+01</totfact>
</mgrwt>
</event>
<event>
12    7  0.1711607E-007  0.2105792E+04  0.7818608E-02  0.8558696E-01
          2   -1    0    0  501    0  0.00000000000E+00  0.00000000000E+00  0.13032671737E+04  0.13032671737E+04  0.00000000000E+00 0. -1.
         -1   -1    0    0    0  501 -0.00000000000E+00 -0.00000000000E+00 -0.85062386828E+03  0.85062386828E+03  0.00000000000E+00 0.  1.
         24    2    1    2    0    0  0.59478924573E+03  0.37273354291E+03 -0.29611344742E+03  0.76590522112E+03  0.78886584094E+02 0.  0.
        254    2    1    2    0    0 -0.59478924573E+03 -0.37273354291E+03  0.74875675284E+03  0.13879858209E+04  0.93443213941E+03 0.  0.
         23    2    4    4    0    0 -0.67451028818E+03  0.19275626774E+02  0.69808820020E+03  0.97481400350E+03  0.87175268917E+02 0.  0.
         23    2    4    4    0    0  0.79721042452E+02 -0.39200916969E+03  0.50668552635E+02  0.41317181736E+03  0.90094476576E+02 0.  0.
          2    1    3    3  502    0  0.85318533612E+02  0.69521812172E+02 -0.19876282295E+02  0.11183738706E+03  0.00000000000E+00 0. -1.
         -1    1    3    3    0  502  0.50947071212E+03  0.30321173074E+03 -0.27623716512E+03  0.65406783407E+03  0.00000000000E+00 0.  1.
         13    1    5    5    0    0 -0.53082615087E+02  0.24557493492E+02  0.50422537221E+02  0.77222190923E+02  0.00000000000E+00 0. -1.
        -13    1    5    5    0    0 -0.62142767310E+03 -0.52818667184E+01  0.64766566298E+03  0.89759181258E+03  0.00000000000E+00 0.  1.
          4    1    6    6  503    0 -0.75406575724E+01 -0.64184583023E+01  0.12565595409E+02  0.15998509667E+02  0.00000000000E+00 0. -1.
         -4    1    6    6    0  503  0.87261700025E+02 -0.38559071139E+03  0.38102957226E+02  0.39717330770E+03  0.00000000000E+00 0.  1.
<mgrwt>
<rscale>  0 0.21057922E+04</rscale>
<asrwt>0</asrwt>
<pdfrwt beam="1">  1        2 0.20050264E+00 0.21057922E+04</pdfrwt>
<pdfrwt beam="2">  1       -1 0.13086521E+00 0.21057922E+04</pdfrwt>
<totfact> 0.86180747E+00</totfact>
</mgrwt>
</event>
<event>
12    7  0.1711607E-007  0.1334318E+04  0.7818608E-02  0.9002785E-01
         -1   -1    0    0    0  501 -0.00000000000E+00  0.00000000000E+00  0.40672683616E+03  0.40672683616E+03  0.00000000000E+00 0.  1.
          2   -1    0    0  501    0  0.00000000000E+00 -0.00000000000E+00 -0.10943492850E+04  0.10943492850E+04  0.00000000000E+00 0. -1.
         24    2    1    2    0    0  0.29445741780E+03  0.19966624657E+03 -0.19720182137E+03  0.41444450800E+03  0.79397172113E+02 0.  0.
        254    2    1    2    0    0 -0.29445741780E+03 -0.19966624657E+03 -0.49042062747E+03  0.10866316132E+04  0.90204439468E+03 0.  0.
         23    2    4    4    0    0  0.49901987425E+02 -0.42091330716E+03 -0.50718038294E+03  0.66718215067E+03  0.90784694965E+02 0.  0.
         23    2    4    4    0    0 -0.34435940522E+03  0.22124706059E+03  0.16759755469E+02  0.41944946249E+03  0.90129353695E+02 0.  0.
          2    1    3    3  502    0  0.11990573155E+03  0.87946111762E+02 -0.12724684531E+03  0.19571321538E+03  0.00000000000E+00 0. -1.
         -1    1    3    3    0  502  0.17455168625E+03  0.11172013481E+03 -0.69954976060E+02  0.21873129262E+03  0.00000000000E+00 0.  1.
         13    1    5    5    0    0  0.65893350347E+02 -0.40540652252E+03 -0.47368239206E+03  0.62695405786E+03  0.00000000000E+00 0. -1.
        -13    1    5    5    0    0 -0.15991362922E+02 -0.15506784640E+02 -0.33497990880E+02  0.40228092808E+02  0.00000000000E+00 0.  1.
          4    1    6    6  503    0 -0.27871519036E+03  0.15734314411E+03  0.45851704504E+02  0.32332862717E+03  0.00000000000E+00 0. -1.
         -4    1    6    6    0  503 -0.65644214860E+02  0.63903916477E+02 -0.29091949034E+02  0.96120835329E+02  0.00000000000E+00 0.  1.
<mgrwt>
<rscale>  0 0.13343181E+04</rscale>
<asrwt>0</asrwt>
<pdfrwt beam="1">  1        2 0.16836143E+00 0.13343181E+04</pdfrwt>
<pdfrwt beam="2">  1       -1 0.62573360E-01 0.13343181E+04</pdfrwt>
<totfact> 0.63451064E+01</totfact>
</mgrwt>
</event>
<event>
12    7  0.1711607E-007  0.2125922E+04  0.7818608E-02  0.8549910E-01
         -1   -1    0    0    0  501 -0.00000000000E+00  0.00000000000E+00  0.17040105577E+04  0.17040105577E+04  0.00000000000E+00 0.  1.
          2   -1    0    0  501    0  0.00000000000E+00 -0.00000000000E+00 -0.66307443197E+03  0.66307443197E+03  0.00000000000E+00 0. -1.
         24    2    1    2    0    0  0.95989501507E+02 -0.84705457423E+03  0.62295492882E+03  0.10589129294E+04  0.80674113825E+02 0.  0.
        254    2    1    2    0    0 -0.95989501507E+02  0.84705457423E+03  0.41798119692E+03  0.13081720603E+04  0.89993912135E+03 0.  0.
         23    2    4    4    0    0  0.34633561668E+03  0.17925040913E+03  0.94555719105E-01  0.40008498201E+03  0.89380732458E+02 0.  0.
         23    2    4    4    0    0 -0.44232511819E+03  0.66780416509E+03  0.41788664120E+03  0.90808707825E+03  0.91536788715E+02 0.  0.
          4    1    3    3  502    0 -0.89653901902E+01 -0.29621088212E+02  0.12825987675E+02  0.33500642501E+02  0.00000000000E+00 0. -1.
         -3    1    3    3    0  502  0.10495489170E+03 -0.81743348602E+03  0.61012894114E+03  0.10254122869E+04  0.00000000000E+00 0.  1.
         13    1    5    5    0    0  0.29353219955E+03  0.18496833064E+03  0.15274417159E+01  0.34695355394E+03  0.00000000000E+00 0.  1.
        -13    1    5    5    0    0  0.52803417130E+02 -0.57179215040E+01 -0.14328859968E+01  0.53131428074E+02  0.00000000000E+00 0. -1.
          4    1    6    6  503    0 -0.11110007604E+03  0.16569826691E+03  0.15009496555E+03  0.24965504449E+03  0.00000000000E+00 0. -1.
         -4    1    6    6    0  503 -0.33122504215E+03  0.50210589818E+03  0.26779167565E+03  0.65843203376E+03  0.00000000000E+00 0.  1.
<mgrwt>
<rscale>  0 0.21259218E+04</rscale>
<asrwt>0</asrwt>
<pdfrwt beam="1">  1        2 0.10201145E+00 0.21259218E+04</pdfrwt>
<pdfrwt beam="2">  1       -1 0.26215547E+00 0.21259218E+04</pdfrwt>
<totfact> 0.26751587E+00</totfact>
</mgrwt>
</event>
<event>
12    7  0.1711607E-007  0.1511074E+04  0.7818608E-02  0.8877122E-01
          2   -1    0    0  501    0  0.00000000000E+00  0.00000000000E+00  0.13596262973E+04  0.13596262973E+04  0.00000000000E+00 0. -1.
         -1   -1    0    0    0  501 -0.00000000000E+00 -0.00000000000E+00 -0.41984763370E+03  0.41984763370E+03  0.00000000000E+00 0.  1.
         24    2    1    2    0    0 -0.20556560814E+03  0.43496997154E+03  0.28821240632E+03  0.56643830971E+03  0.79560493697E+02 0.  0.
        254    2    1    2    0    0  0.20556560814E+03 -0.43496997154E+03  0.65156625729E+03  0.12130356213E+04  0.90302864600E+03 0.  0.
         23    2    4    4    0    0  0.32896907905E+03 -0.27674638234E+00  0.67056940038E+03  0.75206459701E+03  0.87847059084E+02 0.  0.
         23    2    4    4    0    0 -0.12340347091E+03 -0.43469322516E+03 -0.19003143096E+02  0.46097102428E+03  0.89143418973E+02 0.  0.
          2    1    3    3  502    0 -0.76152747290E+02  0.85344368006E+02  0.57551321564E+02  0.12804318289E+03  0.00000000000E+00 0. -1.
         -1    1    3    3    0  502 -0.12941286085E+03  0.34962560354E+03  0.23066108476E+03  0.43839512682E+03  0.00000000000E+00 0.  1.
         13    1    5    5    0    0  0.86794496732E+02  0.11400214854E+02  0.26996293339E+03  0.28380140057E+03  0.00000000000E+00 0. -1.
        -13    1    5    5    0    0  0.24217458232E+03 -0.11676961236E+02  0.40060646700E+03  0.46826319645E+03  0.00000000000E+00 0.  1.
          2    1    6    6  503    0 -0.50043607489E+01 -0.98200956706E+01  0.14984722697E+02  0.18601607989E+02  0.00000000000E+00 0. -1.
         -2    1    6    6    0  503 -0.11839911016E+03 -0.42487312949E+03 -0.33987865793E+02  0.44236941629E+03  0.00000000000E+00 0.  1.
<mgrwt>
<rscale>  0 0.15110736E+04</rscale>
<asrwt>0</asrwt>
<pdfrwt beam="1">  1        2 0.20917327E+00 0.15110736E+04</pdfrwt>
<pdfrwt beam="2">  1       -1 0.64591944E-01 0.15110736E+04</pdfrwt>
<totfact> 0.40823377E+01</totfact>
</mgrwt>
</event>
<event>
12    7  0.1711607E-007  0.1543127E+04  0.7818608E-02  0.8856270E-01
          2   -1    0    0  501    0  0.00000000000E+00  0.00000000000E+00  0.13632379885E+04  0.13632379885E+04  0.00000000000E+00 0. -1.
         -1   -1    0    0    0  501 -0.00000000000E+00 -0.00000000000E+00 -0.43668863730E+03  0.43668863730E+03  0.00000000000E+00 0.  1.
         24    2    1    2    0    0 -0.33623169923E+03 -0.28615427120E+03  0.58669039570E+03  0.73871663512E+03  0.80997679604E+02 0.  0.
        254    2    1    2    0    0  0.33623169923E+03  0.28615427120E+03  0.33985895548E+03  0.10612099907E+04  0.90317579251E+03 0.  0.
         23    2    4    4    0    0  0.21753441867E+03  0.48691590470E+03 -0.10427889435E+03  0.55116722113E+03  0.92211150529E+02 0.  0.
         23    2    4    4    0    0  0.11869728056E+03 -0.20076163351E+03  0.44413784983E+03  0.51004276954E+03  0.92146183864E+02 0.  0.
          2    1    3    3  502    0 -0.18575442800E+03 -0.20727852865E+03  0.38345517651E+03  0.47382166303E+03  0.00000000000E+00 0. -1.
         -1    1    3    3    0  502 -0.15047727124E+03 -0.78875742545E+02  0.20323521919E+03  0.26489497209E+03  0.00000000000E+00 0.  1.
         13    1    5    5    0    0  0.10273325279E+02  0.64674206108E+02  0.12154629503E+02  0.66603522176E+02  0.00000000000E+00 0.  1.
        -13    1    5    5    0    0  0.20726109339E+03  0.42224169860E+03 -0.11643352385E+03  0.48456369895E+03  0.00000000000E+00 0. -1.
          3    1    6    6  503    0  0.26110344509E+02 -0.10735390242E+03  0.27069583706E+03  0.29237449727E+03  0.00000000000E+00 0. -1.
         -3    1    6    6    0  503  0.92586936054E+02 -0.93407731086E+02  0.17344201277E+03  0.21766827226E+03  0.00000000000E+00 0.  1.
<mgrwt>
<rscale>  0 0.15431274E+04</rscale>
<asrwt>0</asrwt>
<pdfrwt beam="1">  1        2 0.20972892E+00 0.15431274E+04</pdfrwt>
<pdfrwt beam="2">  1       -1 0.67182868E-01 0.15431274E+04</pdfrwt>
<totfact> 0.37425912E+01</totfact>
</mgrwt>
</event>
<event>
12    7  0.1711607E-007  0.2609822E+04  0.7818608E-02  0.8364873E-01
          2   -1    0    0  501    0  0.00000000000E+00  0.00000000000E+00  0.25040930560E+04  0.25040930560E+04  0.00000000000E+00 0. -1.
         -1   -1    0    0    0  501 -0.00000000000E+00 -0.00000000000E+00 -0.68000364393E+03  0.68000364393E+03  0.00000000000E+00 0.  1.
         24    2    1    2    0    0 -0.37866671339E+03  0.54171285132E+03 -0.33725011188E+03  0.74612636388E+03  0.78266338853E+02 0.  0.
        254    2    1    2    0    0  0.37866671339E+03 -0.54171285132E+03  0.21613395240E+04  0.24379703361E+04  0.91404022264E+03 0.  0.
         23    2    4    4    0    0  0.12490676137E+02  0.16714416520E+03  0.10484384564E+04  0.10656874529E+04  0.91506072599E+02 0.  0.
         23    2    4    4    0    0  0.36617603725E+03 -0.70885701652E+03  0.11129010675E+04  0.13722828832E+04  0.89712681891E+02 0.  0.
          4    1    3    3  502    0 -0.13250537672E+03  0.24535836760E+03 -0.11742408481E+03  0.30256704894E+03  0.00000000000E+00 0. -1.
         -3    1    3    3    0  502 -0.24616133667E+03  0.29635448372E+03 -0.21982602707E+03  0.44355931494E+03  0.00000000000E+00 0.  1.
         13    1    5    5    0    0  0.23682656347E+02  0.30968162874E+01  0.20363607714E+03  0.20503197409E+03  0.00000000000E+00 0.  1.
        -13    1    5    5    0    0 -0.11191980210E+02  0.16404734892E+03  0.84480237928E+03  0.86065547877E+03  0.00000000000E+00 0. -1.
          4    1    6    6  503    0  0.37149306416E+03 -0.69877110112E+03  0.10994307780E+04  0.13546350742E+04  0.00000000000E+00 0. -1.
         -4    1    6    6    0  503 -0.53170269063E+01 -0.10085915404E+02  0.13470289499E+02  0.17647809038E+02  0.00000000000E+00 0.  1.
<mgrwt>
<rscale>  0 0.26098218E+04</rscale>
<asrwt>0</asrwt>
<pdfrwt beam="1">  1        2 0.38524508E+00 0.26098218E+04</pdfrwt>
<pdfrwt beam="2">  1       -1 0.10461595E+00 0.26098218E+04</pdfrwt>
<totfact> 0.29871981E+00</totfact>
</mgrwt>
</event>
<event>
12    7  0.1711607E-007  0.1462205E+04  0.7818608E-02  0.8909982E-01
          2   -1    0    0  501    0  0.00000000000E+00  0.00000000000E+00  0.90250578430E+03  0.90250578430E+03  0.00000000000E+00 0. -1.
         -1   -1    0    0    0  501 -0.00000000000E+00 -0.00000000000E+00 -0.59225210638E+03  0.59225210638E+03  0.00000000000E+00 0.  1.
         24    2    1    2    0    0 -0.54620533051E+02  0.42314575558E+03  0.21730021910E+03  0.48610993437E+03  0.83950878328E+02 0.  0.
        254    2    1    2    0    0  0.54620533051E+02 -0.42314575558E+03  0.92953458813E+02  0.10086479563E+04  0.90922748593E+03 0.  0.
         23    2    4    4    0    0  0.10039541132E+03 -0.60782393943E+03 -0.19411792686E+03  0.65233926912E+03  0.91299356790E+02 0.  0.
         23    2    4    4    0    0 -0.45774878269E+02  0.18467818384E+03  0.28707138568E+03  0.35630868719E+03  0.91348393666E+02 0.  0.
          2    1    3    3  502    0 -0.33434715348E+02  0.38686705392E+03  0.21541006860E+03  0.44405573440E+03  0.00000000000E+00 0. -1.
         -1    1    3    3    0  502 -0.21185817703E+02  0.36278701667E+02  0.18901505004E+01  0.42054199972E+02  0.00000000000E+00 0.  1.
         13    1    5    5    0    0  0.93761764662E+02 -0.46032786395E+03 -0.18338485796E+03  0.50430448835E+03  0.00000000000E+00 0. -1.
        -13    1    5    5    0    0  0.66336466576E+01 -0.14749607548E+03 -0.10733068904E+02  0.14803478077E+03  0.00000000000E+00 0.  1.
          3    1    6    6  503    0 -0.50778007534E+02  0.11388300061E+03  0.24200021137E+03  0.27223490992E+03  0.00000000000E+00 0. -1.
         -3    1    6    6    0  503  0.50031292650E+01  0.70795183230E+02  0.45071174311E+02  0.84073777272E+02  0.00000000000E+00 0.  1.
<mgrwt>
<rscale>  0 0.14622051E+04</rscale>
<asrwt>0</asrwt>
<pdfrwt beam="1">  1        2 0.13884704E+00 0.14622051E+04</pdfrwt>
<pdfrwt beam="2">  1       -1 0.91115709E-01 0.14622051E+04</pdfrwt>
<totfact> 0.37975579E+01</totfact>
</mgrwt>
</event>
<event>
12    7  0.1711607E-007  0.2783603E+04  0.7818608E-02  0.8308377E-01
          2   -1    0    0  501    0  0.00000000000E+00  0.00000000000E+00  0.10930686080E+04  0.10930686080E+04  0.00000000000E+00 0. -1.
         -1   -1    0    0    0  501 -0.00000000000E+00 -0.00000000000E+00 -0.17721773246E+04  0.17721773246E+04  0.00000000000E+00 0.  1.
         24    2    1    2    0    0  0.80421501128E+03  0.67318468351E+03 -0.10174861047E+04  0.14634300257E+04  0.80062877859E+02 0.  0.
        254    2    1    2    0    0 -0.80421501128E+03 -0.67318468351E+03  0.33837738817E+03  0.14018159069E+04  0.86640012555E+03 0.  0.
         23    2    4    4    0    0 -0.75616208231E+03 -0.70156277480E+03  0.54264745455E+03  0.11692788516E+04  0.93676844807E+02 0.  0.
         23    2    4    4    0    0 -0.48052928973E+02  0.28378091289E+02 -0.20427006639E+03  0.23253705527E+03  0.96087574656E+02 0.  0.
          2    1    3    3  502    0  0.21506185170E+03  0.14538075901E+03 -0.28270537796E+03  0.38380919201E+03  0.00000000000E+00 0. -1.
         -1    1    3    3    0  502  0.58915315958E+03  0.52780392450E+03 -0.73478072672E+03  0.10796208337E+04  0.00000000000E+00 0.  1.
         13    1    5    5    0    0 -0.61544811801E+03 -0.52014979880E+03  0.43456811283E+03  0.91552260695E+03  0.00000000000E+00 0.  1.
        -13    1    5    5    0    0 -0.14071396430E+03 -0.18141297600E+03  0.10807934172E+03  0.25375624468E+03  0.00000000000E+00 0. -1.
          2    1    6    6  503    0 -0.34193987554E+02  0.40571739544E+02 -0.38043387879E+02  0.65288545671E+02  0.00000000000E+00 0. -1.
         -2    1    6    6    0  503 -0.13858941419E+02 -0.12193648255E+02 -0.16622667851E+03  0.16724850960E+03  0.00000000000E+00 0.  1.
<mgrwt>
<rscale>  0 0.27836030E+04</rscale>
<asrwt>0</asrwt>
<pdfrwt beam="1">  1        2 0.16816440E+00 0.27836030E+04</pdfrwt>
<pdfrwt beam="2">  1       -1 0.27264266E+00 0.27836030E+04</pdfrwt>
<totfact> 0.10851311E+00</totfact>
</mgrwt>
</event>
<event>
12    7  0.1711607E-007  0.1460609E+04  0.7818608E-02  0.8911078E-01
          2   -1    0    0  501    0  0.00000000000E+00  0.00000000000E+00  0.13688442535E+04  0.13688442535E+04  0.00000000000E+00 0. -1.
         -1   -1    0    0    0  501 -0.00000000000E+00 -0.00000000000E+00 -0.38963133505E+03  0.38963133505E+03  0.00000000000E+00 0.  1.
         24    2    1    2    0    0  0.79062793528E+01  0.31867830028E+03  0.68156461003E+03  0.75641116150E+03  0.77518767230E+02 0.  0.
        254    2    1    2    0    0 -0.79062793528E+01 -0.31867830028E+03  0.29764830846E+03  0.10020644271E+04  0.90217527798E+03 0.  0.
         23    2    4    4    0    0 -0.33592217197E+03  0.77685860282E+02  0.31671756029E+03  0.47919350685E+03  0.10216460007E+03 0.  0.
         23    2    4    4    0    0  0.32801589261E+03 -0.39636416056E+03 -0.19069251830E+02  0.52287092025E+03  0.91276444313E+02 0.  0.
          2    1    3    3  502    0 -0.26705556509E+01  0.22951539366E+03  0.40358176352E+03  0.46428728999E+03  0.00000000000E+00 0. -1.
         -1    1    3    3    0  502  0.10576835004E+02  0.89162906622E+02  0.27798284651E+03  0.29212387152E+03  0.00000000000E+00 0.  1.
         13    1    5    5    0    0 -0.38121352429E+02 -0.14064668731E+02  0.73169701135E+02  0.83695027222E+02  0.00000000000E+00 0. -1.
        -13    1    5    5    0    0 -0.29780081954E+03  0.91750529012E+02  0.24354785915E+03  0.39549847963E+03  0.00000000000E+00 0.  1.
          2    1    6    6  503    0  0.36419578252E+02 -0.87551895319E+02 -0.25137796690E+02  0.98100096210E+02  0.00000000000E+00 0. -1.
         -2    1    6    6    0  503  0.29159631436E+03 -0.30881226525E+03  0.60685448603E+01  0.42477082404E+03  0.00000000000E+00 0.  1.
<mgrwt>
<rscale>  0 0.14606089E+04</rscale>
<asrwt>0</asrwt>
<pdfrwt beam="1">  1        2 0.21059142E+00 0.14606089E+04</pdfrwt>
<pdfrwt beam="2">  1       -1 0.59943283E-01 0.14606089E+04</pdfrwt>
<totfact> 0.46994629E+01</totfact>
</mgrwt>
</event>
<event>
12    7  0.1711607E-007  0.1965886E+04  0.7818608E-02  0.8622738E-01
          2   -1    0    0  501    0  0.00000000000E+00  0.00000000000E+00  0.25746671016E+04  0.25746671016E+04  0.00000000000E+00 0. -1.
         -1   -1    0    0    0  501 -0.00000000000E+00 -0.00000000000E+00 -0.37526294451E+03  0.37526294451E+03  0.00000000000E+00 0.  1.
         24    2    1    2    0    0  0.59273587213E+02  0.71525410432E+03  0.34538568838E+03  0.80067751033E+03  0.81801038588E+02 0.  0.
        254    2    1    2    0    0 -0.59273587213E+02 -0.71525410432E+03  0.18540184687E+04  0.21492525358E+04  0.81657834186E+03 0.  0.
         23    2    4    4    0    0 -0.26974468443E+02 -0.18736963900E+03  0.14804519131E+04  0.14953068857E+04  0.91486675849E+02 0.  0.
         23    2    4    4    0    0 -0.32299118771E+02 -0.52788446532E+03  0.37356655566E+03  0.65394565013E+03  0.91584387439E+02 0.  0.
          4    1    3    3  502    0  0.26327556601E+02  0.32371398144E+03  0.20163700885E+03  0.38228440376E+03  0.00000000000E+00 0. -1.
         -3    1    3    3    0  502  0.32946030612E+02  0.39154012288E+03  0.14374867953E+03  0.41839310657E+03  0.00000000000E+00 0.  1.
         13    1    5    5    0    0 -0.14254624554E+02 -0.19312873328E+03  0.14261786770E+04  0.14392663134E+04  0.00000000000E+00 0.  1.
        -13    1    5    5    0    0 -0.12719843889E+02  0.57590942794E+01  0.54273236033E+02  0.56040572311E+02  0.00000000000E+00 0. -1.
          2    1    6    6  503    0 -0.26014670738E+01 -0.44972597955E+03  0.34025027238E+03  0.56394190495E+03  0.00000000000E+00 0.  1.
         -2    1    6    6    0  503 -0.29697651697E+02 -0.78158485772E+02  0.33316283280E+02  0.90003745178E+02  0.00000000000E+00 0. -1.
<mgrwt>
<rscale>  0 0.19658862E+04</rscale>
<asrwt>0</asrwt>
<pdfrwt beam="1">  1        2 0.39610262E+00 0.19658862E+04</pdfrwt>
<pdfrwt beam="2">  1       -1 0.57732762E-01 0.19658862E+04</pdfrwt>
<totfact> 0.10158386E+01</totfact>
</mgrwt>
</event>
<event>
12    7  0.1711607E-007  0.1989551E+04  0.7818608E-02  0.8611522E-01
          2   -1    0    0  501    0  0.00000000000E+00  0.00000000000E+00  0.30939656837E+04  0.30939656837E+04  0.00000000000E+00 0. -1.
         -1   -1    0    0    0  501 -0.00000000000E+00 -0.00000000000E+00 -0.31984126972E+03  0.31984126972E+03  0.00000000000E+00 0.  1.
         24    2    1    2    0    0 -0.55359829011E+03 -0.31579076644E+03  0.18981940923E+04  0.20038734073E+04  0.78568094953E+02 0.  0.
        254    2    1    2    0    0  0.55359829011E+03  0.31579076644E+03  0.87593032169E+03  0.14099335461E+04  0.90247648224E+03 0.  0.
         23    2    4    4    0    0  0.49634224813E+03  0.60955095465E+03  0.60219669054E+03  0.99432176144E+03  0.90149418036E+02 0.  0.
         23    2    4    4    0    0  0.57256041974E+02 -0.29376018821E+03  0.27373363115E+03  0.41561178467E+03  0.90717981736E+02 0.  0.
          4    1    3    3  502    0 -0.44832055099E+03 -0.22961438578E+03  0.14193686694E+04  0.15060947853E+04  0.00000000000E+00 0. -1.
         -1    1    3    3    0  502 -0.10527773912E+03 -0.86176380657E+02  0.47882542290E+03  0.49777862203E+03  0.00000000000E+00 0.  1.
         13    1    5    5    0    0  0.32070200825E+03  0.32360238568E+03  0.35194115666E+03  0.57570032123E+03  0.00000000000E+00 0.  1.
        -13    1    5    5    0    0  0.17564023988E+03  0.28594856897E+03  0.25025553388E+03  0.41862144021E+03  0.00000000000E+00 0. -1.
          2    1    6    6  503    0  0.49223120156E+02 -0.24584952935E+03  0.17557779381E+03  0.30609225459E+03  0.00000000000E+00 0. -1.
         -2    1    6    6    0  503  0.80329218181E+01 -0.47910658868E+02  0.98155837335E+02  0.10951953008E+03  0.00000000000E+00 0.  1.
<mgrwt>
<rscale>  0 0.19895506E+04</rscale>
<asrwt>0</asrwt>
<pdfrwt beam="1">  1        2 0.47599470E+00 0.19895506E+04</pdfrwt>
<pdfrwt beam="2">  1       -1 0.49206351E-01 0.19895506E+04</pdfrwt>
<totfact> 0.66692067E+00</totfact>
</mgrwt>
</event>
<event>
12    7  0.1711607E-007  0.1348682E+04  0.7818608E-02  0.8991827E-01
          2   -1    0    0  501    0  0.00000000000E+00  0.00000000000E+00  0.10625236023E+04  0.10625236023E+04  0.00000000000E+00 0. -1.
         -1   -1    0    0    0  501 -0.00000000000E+00 -0.00000000000E+00 -0.42797684005E+03  0.42797684005E+03  0.00000000000E+00 0.  1.
         24    2    1    2    0    0  0.34970463270E+03 -0.58195557777E+01  0.19886616902E+03  0.41036467100E+03  0.80772598501E+02 0.  0.
        254    2    1    2    0    0 -0.34970463270E+03  0.58195557777E+01  0.43568059321E+03  0.10801357713E+04  0.92441792921E+03 0.  0.
         23    2    4    4    0    0  0.19390268540E+03  0.29143129051E+03  0.21782967531E+03  0.42222528146E+03  0.91071248851E+02 0.  0.
         23    2    4    4    0    0 -0.54360731810E+03 -0.28561173473E+03  0.21785091791E+03  0.65791048987E+03  0.91127443391E+02 0.  0.
          4    1    3    3  502    0  0.53431709672E+02 -0.88225979104E+01  0.66749848117E+02  0.85955384101E+02  0.00000000000E+00 0. -1.
         -3    1    3    3    0  502  0.29627292302E+03  0.30030421328E+01  0.13211632090E+03  0.32440928690E+03  0.00000000000E+00 0.  1.
         13    1    5    5    0    0  0.15046145987E+03  0.23627689890E+03  0.12736422444E+03  0.30771264116E+03  0.00000000000E+00 0. -1.
        -13    1    5    5    0    0  0.43441225526E+02  0.55154391614E+02  0.90465450866E+02  0.11451264031E+03  0.00000000000E+00 0.  1.
          2    1    6    6  503    0 -0.20902774917E+03 -0.12707341157E+03  0.13152573721E+03  0.27773957478E+03  0.00000000000E+00 0. -1.
         -2    1    6    6    0  503 -0.33457956893E+03 -0.15853832317E+03  0.86325180695E+02  0.38017091509E+03  0.00000000000E+00 0.  1.
<mgrwt>
<rscale>  0 0.13486816E+04</rscale>
<asrwt>0</asrwt>
<pdfrwt beam="1">  1        2 0.16346517E+00 0.13486816E+04</pdfrwt>
<pdfrwt beam="2">  1       -1 0.65842591E-01 0.13486816E+04</pdfrwt>
<totfact> 0.59890629E+01</totfact>
</mgrwt>
</event>
<event>
12    7  0.1711607E-007  0.1696642E+04  0.7818608E-02  0.8763282E-01
          2   -1    0    0  501    0  0.00000000000E+00  0.00000000000E+00  0.23770929827E+04  0.23770929827E+04  0.00000000000E+00 0. -1.
         -1   -1    0    0    0  501 -0.00000000000E+00 -0.00000000000E+00 -0.30274323971E+03  0.30274323971E+03  0.00000000000E+00 0.  1.
         24    2    1    2    0    0  0.32789911509E+03  0.50269187382E+03  0.86583847092E+03  0.10563784766E+04  0.77732093734E+02 0.  0.
        254    2    1    2    0    0 -0.32789911509E+03 -0.50269187382E+03  0.12085112721E+04  0.16234577458E+04  0.90271734672E+03 0.  0.
         23    2    4    4    0    0 -0.20153338361E+03 -0.57545176126E+03  0.12918743952E+04  0.14314838531E+04  0.91902853225E+02 0.  0.
         23    2    4    4    0    0 -0.12636573149E+03  0.72759887445E+02 -0.83363123110E+02  0.19197389275E+03  0.92963788055E+02 0.  0.
          2    1    3    3  502    0  0.40393967302E+02  0.28410122430E+02  0.53988801995E+02  0.73168288157E+02  0.00000000000E+00 0. -1.
         -1    1    3    3    0  502  0.28750514779E+03  0.47428175139E+03  0.81184966892E+03  0.98321018843E+03  0.00000000000E+00 0.  1.
         13    1    5    5    0    0 -0.18536919242E+03 -0.44119714835E+03  0.10608243864E+04  0.11637719020E+04  0.00000000000E+00 0.  1.
        -13    1    5    5    0    0 -0.16164191184E+02 -0.13425461291E+03  0.23105000883E+03  0.26771195107E+03  0.00000000000E+00 0. -1.
          3    1    6    6  503    0 -0.10850423702E+03  0.47679206582E+02 -0.18206323111E+02  0.11990807476E+03  0.00000000000E+00 0. -1.
         -3    1    6    6    0  503 -0.17861494468E+02  0.25080680862E+02 -0.65156799999E+02  0.72065817995E+02  0.00000000000E+00 0.  1.
<mgrwt>
<rscale>  0 0.16966424E+04</rscale>
<asrwt>0</asrwt>
<pdfrwt beam="1">  1        2 0.36570660E+00 0.16966424E+04</pdfrwt>
<pdfrwt beam="2">  1       -1 0.46575885E-01 0.16966424E+04</pdfrwt>
<totfact> 0.20412511E+01</totfact>
</mgrwt>
</event>
<event>
12    7  0.1711607E-007  0.1781335E+04  0.7818608E-02  0.8716289E-01
         -1   -1    0    0    0  501 -0.00000000000E+00  0.00000000000E+00  0.36946027001E+03  0.36946027001E+03  0.00000000000E+00 0.  1.
          2   -1    0    0  501    0  0.00000000000E+00 -0.00000000000E+00 -0.21471544716E+04  0.21471544716E+04  0.00000000000E+00 0. -1.
         24    2    1    2    0    0 -0.46016127670E+03 -0.13635062767E+02  0.37125725927E+01  0.46745957061E+03  0.81057704454E+02 0.  0.
        254    2    1    2    0    0  0.46016127670E+03  0.13635062767E+02 -0.17814067742E+04  0.20491551710E+04  0.90204905869E+03 0.  0.
         23    2    4    4    0    0  0.57460892757E+03 -0.13719798975E+02 -0.52446718899E+03  0.78323799830E+03  0.89622972142E+02 0.  0.
         23    2    4    4    0    0 -0.11444765087E+03  0.27354861742E+02 -0.12569395852E+04  0.12659171727E+04  0.93822247239E+02 0.  0.
          4    1    3    3  502    0 -0.17866003624E+03  0.22295522252E+02 -0.26836874046E+02  0.18203493256E+03  0.00000000000E+00 0. -1.
         -3    1    3    3    0  502 -0.28150124045E+03 -0.35930585019E+02  0.30549446639E+02  0.28542463805E+03  0.00000000000E+00 0.  1.
         13    1    5    5    0    0  0.49321308284E+03 -0.30545495872E+02 -0.41192668324E+03  0.64333176882E+03  0.00000000000E+00 0.  1.
        -13    1    5    5    0    0  0.81395844726E+02  0.16825696898E+02 -0.11254050575E+03  0.13990622949E+03  0.00000000000E+00 0. -1.
          4    1    6    6  503    0 -0.11400780876E+03  0.49907381371E+02 -0.94444127613E+03  0.95260582154E+03  0.00000000000E+00 0.  1.
         -4    1    6    6    0  503 -0.43984211411E+00 -0.22552519629E+02 -0.31249830907E+03  0.31331135118E+03  0.00000000000E+00 0. -1.
<mgrwt>
<rscale>  0 0.17813346E+04</rscale>
<asrwt>0</asrwt>
<pdfrwt beam="1">  1        2 0.33033146E+00 0.17813346E+04</pdfrwt>
<pdfrwt beam="2">  1       -1 0.56840041E-01 0.17813346E+04</pdfrwt>
<totfact> 0.18657999E+01</totfact>
</mgrwt>
</event>
<event>
12    7  0.2612735E-007  0.2319189E+04  0.7818608E-02  0.8470393E-01
          2   -1    0    0  501    0  0.00000000000E+00  0.00000000000E+00  0.20394434542E+04  0.20394434542E+04  0.00000000000E+00 0. -1.
         -1   -1    0    0    0  501 -0.00000000000E+00 -0.00000000000E+00 -0.65932683639E+03  0.65932683639E+03  0.00000000000E+00 0.  1.
         24    2    1    2    0    0  0.29086523477E+03  0.62547131777E+03  0.14030791357E+04  0.15656509688E+04  0.82552655547E+02 0.  0.
        254    2    1    2    0    0 -0.29086523477E+03 -0.62547131777E+03 -0.22962517829E+02  0.11331193218E+04  0.89867411565E+03 0.  0.
         23    2    4    4    0    0 -0.14018429455E+03  0.16357778503E+03  0.18494156000E+03  0.29856116226E+03  0.92336660131E+02 0.  0.
         23    2    4    4    0    0 -0.15068094022E+03 -0.78904910280E+03 -0.20790407782E+03  0.83455815957E+03  0.89218741095E+02 0.  0.
          2    1    3    3  502    0  0.25070408135E+03  0.48477817970E+03  0.11591322154E+04  0.12811908183E+04  0.00000000000E+00 0. -1.
         -1    1    3    3    0  502  0.40161153418E+02  0.14069313807E+03  0.24394692021E+03  0.28446015050E+03  0.00000000000E+00 0.  1.
         13    1    5    5    0    0 -0.55395636885E+02  0.10473713271E+03  0.14652907157E+03  0.18843914765E+03  0.00000000000E+00 0. -1.
        -13    1    5    5    0    0 -0.84788657668E+02  0.58840652320E+02  0.38412488429E+02  0.11012201461E+03  0.00000000000E+00 0.  1.
          1    1    6    6  503    0 -0.15977859433E+03 -0.76609085526E+03 -0.20843360451E+03  0.80985737338E+03  0.00000000000E+00 0. -1.
         -1    1    6    6    0  503  0.90976541131E+01 -0.22958247532E+02  0.52952668177E+00  0.24700786194E+02  0.00000000000E+00 0.  1.
<mgrwt>
<rscale>  0 0.23191893E+04</rscale>
<asrwt>0</asrwt>
<pdfrwt beam="1">  1        2 0.31376053E+00 0.23191893E+04</pdfrwt>
<pdfrwt beam="2">  1       -1 0.10143490E+00 0.23191893E+04</pdfrwt>
<totfact> 0.60347790E+00</totfact>
</mgrwt>
</event>
<event>
12    7  0.1711607E-007  0.2037184E+04  0.7818608E-02  0.8589431E-01
         -1   -1    0    0    0  501 -0.00000000000E+00  0.00000000000E+00  0.12808594044E+04  0.12808594044E+04  0.00000000000E+00 0.  1.
          2   -1    0    0  501    0  0.00000000000E+00 -0.00000000000E+00 -0.81002626232E+03  0.81002626232E+03  0.00000000000E+00 0. -1.
         24    2    1    2    0    0 -0.69951374877E+03 -0.12395091199E+03  0.64277620216E+03  0.96149886656E+03  0.81458646029E+02 0.  0.
        254    2    1    2    0    0  0.69951374877E+03  0.12395091199E+03 -0.17194306010E+03  0.11293868002E+04  0.86096853318E+03 0.  0.
         23    2    4    4    0    0  0.17590994375E+03 -0.35094852998E+03 -0.50060055437E+02  0.40599630935E+03  0.90652165180E+02 0.  0.
         23    2    4    4    0    0  0.52360380502E+03  0.47489944197E+03 -0.12188300466E+03  0.72339049080E+03  0.93530266415E+02 0.  0.
          2    1    3    3  502    0 -0.99584240316E+02 -0.46901910280E+02  0.92373882829E+02  0.14370018906E+03  0.00000000000E+00 0. -1.
         -1    1    3    3    0  502 -0.59992950846E+03 -0.77049001708E+02  0.55040231934E+03  0.81779867750E+03  0.00000000000E+00 0.  1.
         13    1    5    5    0    0  0.13194304973E+03 -0.22684323165E+03  0.69580715152E+01  0.26251711349E+03  0.00000000000E+00 0.  1.
        -13    1    5    5    0    0  0.43966894023E+02 -0.12410529833E+03 -0.57018126952E+02  0.14347919586E+03  0.00000000000E+00 0. -1.
          1    1    6    6  503    0  0.43682559920E+03  0.35468524574E+03 -0.73698698623E+02  0.56749425181E+03  0.00000000000E+00 0. -1.
         -1    1    6    6    0  503  0.86778205818E+02  0.12021419623E+03 -0.48184306041E+02  0.15589623898E+03  0.00000000000E+00 0.  1.
<mgrwt>
<rscale>  0 0.20371841E+04</rscale>
<asrwt>0</asrwt>
<pdfrwt beam="1">  1        2 0.12461943E+00 0.20371841E+04</pdfrwt>
<pdfrwt beam="2">  1       -1 0.19705529E+00 0.20371841E+04</pdfrwt>
<totfact> 0.56480402E+00</totfact>
</mgrwt>
</event>
<event>
12    7  0.1711607E-007  0.1724524E+04  0.7818608E-02  0.8747500E-01
         -1   -1    0    0    0  501 -0.00000000000E+00  0.00000000000E+00  0.36588974232E+03  0.36588974232E+03  0.00000000000E+00 0.  1.
          2   -1    0    0  501    0  0.00000000000E+00 -0.00000000000E+00 -0.20320204983E+04  0.20320204983E+04  0.00000000000E+00 0. -1.
         24    2    1    2    0    0  0.10919132474E+03  0.46366643237E+03 -0.12088978065E+04  0.13018565821E+04  0.80544074463E+02 0.  0.
        254    2    1    2    0    0 -0.10919132474E+03 -0.46366643237E+03 -0.45723294948E+03  0.10960536585E+04  0.87484989932E+03 0.  0.
         23    2    4    4    0    0  0.31392737202E+03 -0.43812822543E+03 -0.15550883589E+03  0.56856966903E+03  0.92637647215E+02 0.  0.
         23    2    4    4    0    0 -0.42311869676E+03 -0.25538206948E+02 -0.30172411359E+03  0.52748398948E+03  0.86719587609E+02 0.  0.
          2    1    3    3  502    0  0.66010916037E+02  0.36415967203E+03 -0.10035887109E+04  0.10696541537E+04  0.00000000000E+00 0. -1.
         -1    1    3    3    0  502  0.43180408698E+02  0.99506760348E+02 -0.20530909554E+03  0.23220242842E+03  0.00000000000E+00 0.  1.
         13    1    5    5    0    0  0.79786673566E+02 -0.18800054112E+03 -0.54621452374E+02  0.21140865593E+03  0.00000000000E+00 0.  1.
        -13    1    5    5    0    0  0.23414069846E+03 -0.25012768430E+03 -0.10088738352E+03  0.35716101310E+03  0.00000000000E+00 0. -1.
          4    1    6    6  503    0 -0.40385173872E+03 -0.41419188557E+01 -0.28211146561E+03  0.49264618276E+03  0.00000000000E+00 0. -1.
         -4    1    6    6    0  503 -0.19266958033E+02 -0.21396288092E+02 -0.19612647979E+02  0.34837806715E+02  0.00000000000E+00 0.  1.
<mgrwt>
<rscale>  0 0.17245237E+04</rscale>
<asrwt>0</asrwt>
<pdfrwt beam="1">  1        2 0.31261854E+00 0.17245237E+04</pdfrwt>
<pdfrwt beam="2">  1       -1 0.56290729E-01 0.17245237E+04</pdfrwt>
<totfact> 0.22152438E+01</totfact>
</mgrwt>
</event>
<event>
12    7  0.1711607E-007  0.1775516E+04  0.7818608E-02  0.8719429E-01
          2   -1    0    0  501    0  0.00000000000E+00  0.00000000000E+00  0.25023489497E+04  0.25023489497E+04  0.00000000000E+00 0. -1.
         -1   -1    0    0    0  501 -0.00000000000E+00 -0.00000000000E+00 -0.31494973699E+03  0.31494973699E+03  0.00000000000E+00 0.  1.
         24    2    1    2    0    0  0.10273949668E+03 -0.38895452037E+03  0.16435831313E+04  0.16937059191E+04  0.73710297749E+02 0.  0.
        254    2    1    2    0    0 -0.10273949668E+03  0.38895452037E+03  0.54381608142E+03  0.11235927675E+04  0.89715313841E+03 0.  0.
         23    2    4    4    0    0  0.73522102377E+02  0.60310974042E+03  0.15224636304E+03  0.63379236015E+03  0.96782964423E+02 0.  0.
         23    2    4    4    0    0 -0.17626159906E+03 -0.21415522005E+03  0.39156971838E+03  0.48980040739E+03  0.98219067105E+02 0.  0.
          2    1    3    3  502    0  0.23307056081E+02 -0.23036572772E+03  0.91396338006E+03  0.94283649031E+03  0.00000000000E+00 0. -1.
         -1    1    3    3    0  502  0.79432440602E+02 -0.15858879265E+03  0.72961975122E+03  0.75086942882E+03  0.00000000000E+00 0.  1.
         13    1    5    5    0    0  0.83321947367E+02  0.55344963890E+03  0.16108964208E+03  0.58240786610E+03  0.00000000000E+00 0.  1.
        -13    1    5    5    0    0 -0.97998449905E+01  0.49660101523E+02 -0.88432790390E+01  0.51384494055E+02  0.00000000000E+00 0. -1.
          1    1    6    6  503    0 -0.36836128741E+02 -0.93399062131E+02  0.82823952659E+02  0.13015410989E+03  0.00000000000E+00 0. -1.
         -1    1    6    6    0  503 -0.13942547032E+03 -0.12075615792E+03  0.30874576572E+03  0.35964629749E+03  0.00000000000E+00 0.  1.
<mgrwt>
<rscale>  0 0.17755159E+04</rscale>
<asrwt>0</asrwt>
<pdfrwt beam="1">  1        2 0.38497675E+00 0.17755159E+04</pdfrwt>
<pdfrwt beam="2">  1       -1 0.48453807E-01 0.17755159E+04</pdfrwt>
<totfact> 0.15945955E+01</totfact>
</mgrwt>
</event>
<event>
12    7  0.1711607E-007  0.1091300E+04  0.7818608E-02  0.9213714E-01
          2   -1    0    0  501    0  0.00000000000E+00  0.00000000000E+00  0.96316752140E+03  0.96316752140E+03  0.00000000000E+00 0. -1.
         -1   -1    0    0    0  501 -0.00000000000E+00 -0.00000000000E+00 -0.30911935755E+03  0.30911935755E+03  0.00000000000E+00 0.  1.
         24    2    1    2    0    0 -0.92432560694E+02  0.10565579844E+03  0.22813229604E+02  0.16022969420E+03  0.73798275307E+02 0.  0.
        254    2    1    2    0    0  0.92432560694E+02 -0.10565579844E+03  0.63123493425E+03  0.11120571848E+04  0.90471360878E+03 0.  0.
         23    2    4    4    0    0  0.84064508439E+02 -0.49701187014E+03  0.32199871418E+03  0.60520012025E+03  0.92175772226E+02 0.  0.
         23    2    4    4    0    0  0.83680522549E+01  0.39135607170E+03  0.30923622008E+03  0.50685706450E+03  0.89707551911E+02 0.  0.
          2    1    3    3  502    0 -0.83344979582E+02  0.10045232965E+03  0.43051511337E+02  0.13744267453E+03  0.00000000000E+00 0. -1.
         -1    1    3    3    0  502 -0.90875811118E+01  0.52034687874E+01 -0.20238281733E+02  0.22787019669E+02  0.00000000000E+00 0.  1.
         13    1    5    5    0    0  0.49331557325E+02 -0.45292472752E+03  0.27643042179E+03  0.53290542261E+03  0.00000000000E+00 0.  1.
        -13    1    5    5    0    0  0.34732951114E+02 -0.44087142612E+02  0.45568292384E+02  0.72294697645E+02  0.00000000000E+00 0. -1.
          4    1    6    6  503    0 -0.31056546367E+02  0.18311426835E+03  0.17988603296E+03  0.25856204130E+03  0.00000000000E+00 0. -1.
         -4    1    6    6    0  503  0.39424598622E+02  0.20824180336E+03  0.12935018712E+03  0.24829502321E+03  0.00000000000E+00 0.  1.
<mgrwt>
<rscale>  0 0.10912996E+04</rscale>
<asrwt>0</asrwt>
<pdfrwt beam="1">  1        2 0.14817962E+00 0.10912996E+04</pdfrwt>
<pdfrwt beam="2">  1       -1 0.47556825E-01 0.10912996E+04</pdfrwt>
<totfact> 0.13305465E+02</totfact>
</mgrwt>
</event>
<event>
12    7  0.1711607E-007  0.1602721E+04  0.7818608E-02  0.8818878E-01
          4   -1    0    0  501    0  0.00000000000E+00  0.00000000000E+00  0.75606096280E+03  0.75606096280E+03  0.00000000000E+00 0. -1.
         -3   -1    0    0    0  501 -0.00000000000E+00 -0.00000000000E+00 -0.84937411216E+03  0.84937411216E+03  0.00000000000E+00 0.  1.
         24    2    1    2    0    0 -0.69759320825E+02 -0.89581024256E+01  0.51027035174E+03  0.52107037676E+03  0.78688596514E+02 0.  0.
        254    2    1    2    0    0  0.69759320825E+02  0.89581024256E+01 -0.60358350111E+03  0.10843646982E+04  0.89810196830E+03 0.  0.
         23    2    4    4    0    0 -0.88444705191E+02  0.37554895143E+03 -0.54026507897E+03  0.67024732301E+03  0.92117520847E+02 0.  0.
         23    2    4    4    0    0  0.15820402602E+03 -0.36659084901E+03 -0.63318422135E+02  0.41411737520E+03  0.89814327555E+02 0.  0.
          4    1    3    3  502    0 -0.76894050528E+01  0.26578308880E+02  0.23644368043E+03  0.23805702566E+03  0.00000000000E+00 0. -1.
         -3    1    3    3    0  502 -0.62069915773E+02 -0.35536411305E+02  0.27382667132E+03  0.28301335109E+03  0.00000000000E+00 0.  1.
         13    1    5    5    0    0  0.10636157696E+02  0.13356170227E+03 -0.15892958842E+03  0.20787128286E+03  0.00000000000E+00 0.  1.
        -13    1    5    5    0    0 -0.99080862887E+02  0.24198724916E+03 -0.38133549055E+03  0.46237604015E+03  0.00000000000E+00 0. -1.
          1    1    6    6  503    0  0.98340933310E+02 -0.11861824991E+03 -0.20132044766E+02  0.15539153002E+03  0.00000000000E+00 0. -1.
         -1    1    6    6    0  503  0.59863092707E+02 -0.24797259910E+03 -0.43186377369E+02  0.25872584517E+03  0.00000000000E+00 0.  1.
<mgrwt>
<rscale>  0 0.16027209E+04</rscale>
<asrwt>0</asrwt>
<pdfrwt beam="1">  1        4 0.11631707E+00 0.16027209E+04</pdfrwt>
<pdfrwt beam="2">  1       -3 0.13067294E+00 0.16027209E+04</pdfrwt>
<totfact> 0.57475004E-01</totfact>
</mgrwt>
</event>
<event>
12    7  0.1711607E-007  0.1947886E+04  0.7818608E-02  0.8631381E-01
          2   -1    0    0  501    0  0.00000000000E+00  0.00000000000E+00  0.64959066589E+03  0.64959066589E+03  0.00000000000E+00 0. -1.
         -1   -1    0    0    0  501 -0.00000000000E+00 -0.00000000000E+00 -0.14602510276E+04  0.14602510276E+04  0.00000000000E+00 0.  1.
         24    2    1    2    0    0 -0.59063066265E+03 -0.31901960531E+03  0.84700391433E+02  0.68158894280E+03  0.82287559169E+02 0.  0.
        254    2    1    2    0    0  0.59063066265E+03  0.31901960531E+03 -0.89536075316E+03  0.14282527507E+04  0.88747786078E+03 0.  0.
         23    2    4    4    0    0  0.94517940771E+02  0.54356146126E+03 -0.41488445169E+03  0.69635316107E+03  0.91574632826E+02 0.  0.
         23    2    4    4    0    0  0.49611272188E+03 -0.22454185595E+03 -0.48047630147E+03  0.73189958964E+03  0.90954137671E+02 0.  0.
          4    1    3    3  502    0 -0.51052393463E+03 -0.26577654489E+03  0.10002471526E+03  0.58418901334E+03  0.00000000000E+00 0. -1.
         -3    1    3    3    0  502 -0.80106728024E+02 -0.53243060420E+02 -0.15324323824E+02  0.97399929457E+02  0.00000000000E+00 0.  1.
         13    1    5    5    0    0  0.94398618213E+02  0.43152647719E+03 -0.28918354930E+03  0.52797095074E+03  0.00000000000E+00 0. -1.
        -13    1    5    5    0    0  0.11932255869E+00  0.11203498407E+03 -0.12570090239E+03  0.16838221033E+03  0.00000000000E+00 0.  1.
          3    1    6    6  503    0  0.26355408348E+03 -0.16746550875E+03 -0.28545034357E+03  0.42306896623E+03  0.00000000000E+00 0. -1.
         -3    1    6    6    0  503  0.23255863840E+03 -0.57076347196E+02 -0.19502595790E+03  0.30883062341E+03  0.00000000000E+00 0.  1.
<mgrwt>
<rscale>  0 0.19478865E+04</rscale>
<asrwt>0</asrwt>
<pdfrwt beam="1">  1        2 0.99937026E-01 0.19478865E+04</pdfrwt>
<pdfrwt beam="2">  1       -1 0.22465400E+00 0.19478865E+04</pdfrwt>
<totfact> 0.49100488E+00</totfact>
</mgrwt>
</event>
<event>
12    7  0.1711607E-007  0.1626379E+04  0.7818608E-02  0.8804504E-01
          2   -1    0    0  501    0  0.00000000000E+00  0.00000000000E+00  0.94051958457E+03  0.94051958457E+03  0.00000000000E+00 0. -1.
         -1   -1    0    0    0  501 -0.00000000000E+00 -0.00000000000E+00 -0.70309754043E+03  0.70309754043E+03  0.00000000000E+00 0.  1.
         24    2    1    2    0    0 -0.23781623569E+03 -0.39547074661E+03  0.39732113195E+03  0.61448725036E+03  0.82321477055E+02 0.  0.
        254    2    1    2    0    0  0.23781623569E+03  0.39547074661E+03 -0.15989908781E+03  0.10291298746E+04  0.90586252113E+03 0.  0.
         23    2    4    4    0    0  0.34622772747E+03 -0.10078089933E+03  0.17810969938E+03  0.41272913837E+03  0.92692220326E+02 0.  0.
         23    2    4    4    0    0 -0.10841149178E+03  0.49625164594E+03 -0.33800878720E+03  0.61640073626E+03  0.87642340189E+02 0.  0.
          2    1    3    3  502    0 -0.12296042539E+03 -0.25236424373E+03  0.28115669924E+03  0.39731104598E+03  0.00000000000E+00 0. -1.
         -1    1    3    3    0  502 -0.11485581030E+03 -0.14310650288E+03  0.11616443270E+03  0.21717620439E+03  0.00000000000E+00 0.  1.
         13    1    5    5    0    0  0.87925473834E+02 -0.10692702333E+02  0.87621151080E+02  0.12459008367E+03  0.00000000000E+00 0. -1.
        -13    1    5    5    0    0  0.25830225363E+03 -0.90088196997E+02  0.90488548303E+02  0.28813905470E+03  0.00000000000E+00 0.  1.
          2    1    6    6  503    0 -0.33683891013E+02  0.66082210214E+02 -0.80703996644E+02  0.10961112213E+03  0.00000000000E+00 0. -1.
         -2    1    6    6    0  503 -0.74727600762E+02  0.43016943573E+03 -0.25730479055E+03  0.50678961413E+03  0.00000000000E+00 0.  1.
<mgrwt>
<rscale>  0 0.16263788E+04</rscale>
<asrwt>0</asrwt>
<pdfrwt beam="1">  1        2 0.14469532E+00 0.16263788E+04</pdfrwt>
<pdfrwt beam="2">  1       -1 0.10816885E+00 0.16263788E+04</pdfrwt>
<totfact> 0.23890641E+01</totfact>
</mgrwt>
</event>
<event>
12    7  0.1711607E-007  0.1689267E+04  0.7818608E-02  0.8767509E-01
          2   -1    0    0  501    0  0.00000000000E+00  0.00000000000E+00  0.13236649999E+04  0.13236649999E+04  0.00000000000E+00 0. -1.
         -1   -1    0    0    0  501 -0.00000000000E+00 -0.00000000000E+00 -0.53896259951E+03  0.53896259951E+03  0.00000000000E+00 0.  1.
         24    2    1    2    0    0  0.34829566159E+03  0.47186136610E+03  0.12322302385E+03  0.60418948089E+03  0.76798427742E+02 0.  0.
        254    2    1    2    0    0 -0.34829566159E+03 -0.47186136610E+03  0.66147937652E+03  0.12584381185E+04  0.89562744255E+03 0.  0.
         23    2    4    4    0    0 -0.56171389013E+02 -0.68928056777E+03  0.43147186138E+03  0.82010053252E+03  0.90188636905E+02 0.  0.
         23    2    4    4    0    0 -0.29212427257E+03  0.21741920167E+03  0.23000751514E+03  0.43833758599E+03  0.81416720557E+02 0.  0.
          2    1    3    3  502    0  0.15198229498E+03  0.16030850748E+03  0.72347885069E+02  0.23244709513E+03  0.00000000000E+00 0. -1.
         -3    1    3    3    0  502  0.19631336660E+03  0.31155285862E+03  0.50875138785E+02  0.37174238575E+03  0.00000000000E+00 0.  1.
         13    1    5    5    0    0  0.10479443112E+02 -0.39042850062E+03  0.22413006552E+03  0.45030935932E+03  0.00000000000E+00 0. -1.
        -13    1    5    5    0    0 -0.66650832126E+02 -0.29885206715E+03  0.20734179586E+03  0.36979117320E+03  0.00000000000E+00 0.  1.
          3    1    6    6  503    0 -0.27363267898E+03  0.20444584380E+03  0.18615022808E+03  0.38900495301E+03  0.00000000000E+00 0. -1.
         -3    1    6    6    0  503 -0.18491593595E+02  0.12973357865E+02  0.43857287058E+02  0.49332632973E+02  0.00000000000E+00 0.  1.
<mgrwt>
<rscale>  0 0.16892672E+04</rscale>
<asrwt>0</asrwt>
<pdfrwt beam="1">  1        2 0.20364077E+00 0.16892672E+04</pdfrwt>
<pdfrwt beam="2">  1       -1 0.82917323E-01 0.16892672E+04</pdfrwt>
<totfact> 0.25117018E+01</totfact>
</mgrwt>
</event>
<event>
12    7  0.1711607E-007  0.1618121E+04  0.7818608E-02  0.8809492E-01
          2   -1    0    0  501    0  0.00000000000E+00  0.00000000000E+00  0.11650608514E+04  0.11650608514E+04  0.00000000000E+00 0. -1.
         -1   -1    0    0    0  501 -0.00000000000E+00 -0.00000000000E+00 -0.56184112343E+03  0.56184112343E+03  0.00000000000E+00 0.  1.
         24    2    1    2    0    0  0.11040716180E+02 -0.35082840243E+03 -0.23921960316E+03  0.43216419578E+03  0.79607840148E+02 0.  0.
        254    2    1    2    0    0 -0.11040716180E+02  0.35082840243E+03  0.84243933111E+03  0.12947377790E+04  0.91838958207E+03 0.  0.
         23    2    4    4    0    0 -0.11585240774E+03  0.61382089513E+03  0.75406834489E+03  0.98314354860E+03  0.88058484609E+02 0.  0.
         23    2    4    4    0    0  0.10481169156E+03 -0.26299249270E+03  0.88370986215E+02  0.31159423042E+03  0.95556220747E+02 0.  0.
          4    1    3    3  502    0 -0.18006646484E+02 -0.19678717411E+02 -0.25931827118E+02  0.37201490484E+02  0.00000000000E+00 0. -1.
         -3    1    3    3    0  502  0.29047362664E+02 -0.33114968502E+03 -0.21328777604E+03  0.39496270530E+03  0.00000000000E+00 0.  1.
         13    1    5    5    0    0  0.14461710869E+02  0.45051703962E+02  0.58155672392E+02  0.74972523917E+02  0.00000000000E+00 0.  1.
        -13    1    5    5    0    0 -0.13031411861E+03  0.56876919117E+03  0.69591267250E+03  0.90817102469E+03  0.00000000000E+00 0. -1.
          3    1    6    6  503    0  0.86907096423E+02 -0.99988027658E+02  0.58902688127E+02  0.14498267397E+03  0.00000000000E+00 0.  1.
         -3    1    6    6    0  503  0.17904595139E+02 -0.16300446504E+03  0.29468298087E+02  0.16661155645E+03  0.00000000000E+00 0. -1.
<mgrwt>
<rscale>  0 0.16181213E+04</rscale>
<asrwt>0</asrwt>
<pdfrwt beam="1">  1        2 0.17924013E+00 0.16181213E+04</pdfrwt>
<pdfrwt beam="2">  1       -1 0.86437096E-01 0.16181213E+04</pdfrwt>
<totfact> 0.28661148E+01</totfact>
</mgrwt>
</event>
<event>
12    7  0.1711607E-007  0.1654355E+04  0.7818608E-02  0.8787835E-01
         -1   -1    0    0    0  501 -0.00000000000E+00  0.00000000000E+00  0.23562780619E+03  0.23562780619E+03  0.00000000000E+00 0.  1.
          2   -1    0    0  501    0  0.00000000000E+00 -0.00000000000E+00 -0.29038262696E+04  0.29038262696E+04  0.00000000000E+00 0. -1.
         24    2    1    2    0    0  0.44266519823E+03  0.17331862589E+02 -0.23728857118E+03  0.50934124713E+03  0.82884068613E+02 0.  0.
        254    2    1    2    0    0 -0.44266519823E+03 -0.17331862589E+02 -0.24309098922E+04  0.26301128286E+04  0.90106476800E+03 0.  0.
         23    2    4    4    0    0 -0.70306380868E+03  0.66426323449E+02 -0.18188978325E+04  0.19534260453E+04  0.93663300684E+02 0.  0.
         23    2    4    4    0    0  0.26039861045E+03 -0.83758186038E+02 -0.61201205973E+03  0.67668678334E+03  0.92322107031E+02 0.  0.
          2    1    3    3  502    0  0.74911621343E+02  0.27570089523E+02 -0.20856651946E+02  0.82503701608E+02  0.00000000000E+00 0. -1.
         -1    1    3    3    0  502  0.36775357689E+03 -0.10238226934E+02 -0.21643191923E+03  0.42683754552E+03  0.00000000000E+00 0.  1.
         13    1    5    5    0    0 -0.31932807301E+03  0.77058841416E+02 -0.84094412041E+03  0.90282639356E+03  0.00000000000E+00 0. -1.
        -13    1    5    5    0    0 -0.38373573567E+03 -0.10632517967E+02 -0.97795371206E+03  0.10505996517E+04  0.00000000000E+00 0.  1.
          3    1    6    6  503    0  0.18927040272E+03 -0.96621839647E+02 -0.50112818783E+03  0.54432391632E+03  0.00000000000E+00 0. -1.
         -3    1    6    6    0  503  0.71128207731E+02  0.12863653609E+02 -0.11088387190E+03  0.13236286702E+03  0.00000000000E+00 0.  1.
<mgrwt>
<rscale>  0 0.16543545E+04</rscale>
<asrwt>0</asrwt>
<pdfrwt beam="1">  1        2 0.44674247E+00 0.16543545E+04</pdfrwt>
<pdfrwt beam="2">  1       -1 0.36250434E-01 0.16543545E+04</pdfrwt>
<totfact> 0.15899251E+01</totfact>
</mgrwt>
</event>
<event>
12    7  0.1711607E-007  0.2012490E+04  0.7818608E-02  0.8600804E-01
          2   -1    0    0  501    0  0.00000000000E+00  0.00000000000E+00  0.53620868462E+03  0.53620868462E+03  0.00000000000E+00 0. -1.
         -1   -1    0    0    0  501 -0.00000000000E+00 -0.00000000000E+00 -0.18883106671E+04  0.18883106671E+04  0.00000000000E+00 0.  1.
         24    2    1    2    0    0 -0.72315609336E+02 -0.72483003630E+03 -0.94669421074E+03  0.11971079688E+04  0.78926747096E+02 0.  0.
        254    2    1    2    0    0  0.72315609336E+02  0.72483003630E+03 -0.40540777175E+03  0.12274113829E+04  0.90087463761E+03 0.  0.
         23    2    4    4    0    0 -0.20844540336E+03 -0.34600448642E+02 -0.33815581478E+03  0.40902482738E+03  0.91133293131E+02 0.  0.
         23    2    4    4    0    0  0.28076101269E+03  0.75943048495E+03 -0.67251956968E+02  0.81838655556E+03  0.98347958221E+02 0.  0.
          4    1    3    3  502    0 -0.67198231141E+01 -0.13438774168E+03 -0.22714566958E+03  0.26400828840E+03  0.00000000000E+00 0. -1.
         -3    1    3    3    0  502 -0.65595786222E+02 -0.59044229463E+03 -0.71954854116E+03  0.93309968039E+03  0.00000000000E+00 0.  1.
         13    1    5    5    0    0 -0.15849604017E+03  0.12065130751E+02 -0.26408236053E+03  0.30823052294E+03  0.00000000000E+00 0. -1.
        -13    1    5    5    0    0 -0.49949363184E+02 -0.46665579393E+02 -0.74073454254E+02  0.10079430444E+03  0.00000000000E+00 0.  1.
          2    1    6    6  503    0  0.14106617309E+03  0.48777067158E+03 -0.11642011646E+02  0.50789312820E+03  0.00000000000E+00 0.  1.
         -2    1    6    6    0  503  0.13969483960E+03  0.27165981337E+03 -0.55609945321E+02  0.31049342735E+03  0.00000000000E+00 0. -1.
<mgrwt>
<rscale>  0 0.20124896E+04</rscale>
<asrwt>0</asrwt>
<pdfrwt beam="1">  1        2 0.82493644E-01 0.20124896E+04</pdfrwt>
<pdfrwt beam="2">  1       -1 0.29050933E+00 0.20124896E+04</pdfrwt>
<totfact> 0.22895515E+00</totfact>
</mgrwt>
</event>
<event>
12    7  0.1711607E-007  0.1506149E+04  0.7818608E-02  0.8880374E-01
          2   -1    0    0  501    0  0.00000000000E+00  0.00000000000E+00  0.55771344777E+03  0.55771344777E+03  0.00000000000E+00 0. -1.
         -1   -1    0    0    0  501 -0.00000000000E+00 -0.00000000000E+00 -0.10168684460E+04  0.10168684460E+04  0.00000000000E+00 0.  1.
         24    2    1    2    0    0  0.48212773214E+03 -0.21040423722E+02 -0.19429640716E+03  0.52610629150E+03  0.78402082846E+02 0.  0.
        254    2    1    2    0    0 -0.48212773214E+03  0.21040423722E+02 -0.26485859110E+03  0.10484756023E+04  0.89233467142E+03 0.  0.
         23    2    4    4    0    0  0.22009765873E+03 -0.17219158685E+02 -0.24042220394E+03  0.33886825215E+03  0.91046017870E+02 0.  0.
         23    2    4    4    0    0 -0.70222539087E+03  0.38259582407E+02 -0.24436387164E+02  0.70960735015E+03  0.91439374145E+02 0.  0.
          4    1    3    3  502    0  0.73477385311E+02 -0.13277102699E+02 -0.27327268804E+01  0.74717303246E+02  0.00000000000E+00 0. -1.
         -3    1    3    3    0  502  0.40865034683E+03 -0.77633210232E+01 -0.19156368028E+03  0.45138898826E+03  0.00000000000E+00 0.  1.
         13    1    5    5    0    0  0.90587356654E+02 -0.33733275742E+02 -0.15557899672E+03  0.18316338962E+03  0.00000000000E+00 0.  1.
        -13    1    5    5    0    0  0.12951030207E+03  0.16514117057E+02 -0.84843207216E+02  0.15570486253E+03  0.00000000000E+00 0. -1.
          1    1    6    6  503    0 -0.16985767363E+03 -0.24407483293E+02 -0.26005505695E+02  0.17356163418E+03  0.00000000000E+00 0. -1.
         -1    1    6    6    0  503 -0.53236771724E+03  0.62667065700E+02  0.15691185310E+01  0.53604571597E+03  0.00000000000E+00 0.  1.
<mgrwt>
<rscale>  0 0.15061490E+04</rscale>
<asrwt>0</asrwt>
<pdfrwt beam="1">  1        2 0.85802069E-01 0.15061490E+04</pdfrwt>
<pdfrwt beam="2">  1       -1 0.15644130E+00 0.15061490E+04</pdfrwt>
<totfact> 0.18592720E+01</totfact>
</mgrwt>
</event>
<event>
12    7  0.1711607E-007  0.1277474E+04  0.7818608E-02  0.9047622E-01
          2   -1    0    0  501    0  0.00000000000E+00  0.00000000000E+00  0.26119996098E+03  0.26119996098E+03  0.00000000000E+00 0. -1.
         -1   -1    0    0    0  501 -0.00000000000E+00 -0.00000000000E+00 -0.15619629543E+04  0.15619629543E+04  0.00000000000E+00 0.  1.
         24    2    1    2    0    0  0.49670576656E+02  0.27490743411E+03 -0.12751940232E+03  0.31807851083E+03  0.82894375978E+02 0.  0.
        254    2    1    2    0    0 -0.49670576656E+02 -0.27490743411E+03 -0.11732435910E+04  0.15050844045E+04  0.90040950528E+03 0.  0.
         23    2    4    4    0    0  0.21590243705E+03  0.19600729919E+03 -0.75846564088E+03  0.81789044591E+03  0.92961978531E+02 0.  0.
         23    2    4    4    0    0 -0.26557301370E+03 -0.47091473330E+03 -0.41477795017E+03  0.68719395859E+03  0.88910500674E+02 0.  0.
          4    1    3    3  502    0  0.12857775505E+02  0.13749329605E+03 -0.19515554383E+02  0.13946535668E+03  0.00000000000E+00 0. -1.
         -3    1    3    3    0  502  0.36812801151E+02  0.13741413806E+03 -0.10800384794E+03  0.17861315415E+03  0.00000000000E+00 0.  1.
         13    1    5    5    0    0  0.13178010800E+03  0.17312222546E+03 -0.50588231221E+03  0.55068522372E+03  0.00000000000E+00 0.  1.
        -13    1    5    5    0    0  0.84122329052E+02  0.22885073729E+02 -0.25258332867E+03  0.26720522219E+03  0.00000000000E+00 0. -1.
          2    1    6    6  503    0 -0.49558036996E+01 -0.34962416710E+02 -0.52689965603E+02  0.63428408838E+02  0.00000000000E+00 0. -1.
         -2    1    6    6    0  503 -0.26061721000E+03 -0.43595231659E+03 -0.36208798456E+03  0.62376554975E+03  0.00000000000E+00 0.  1.
<mgrwt>
<rscale>  0 0.12774735E+04</rscale>
<asrwt>0</asrwt>
<pdfrwt beam="1">  1        2 0.40184609E-01 0.12774735E+04</pdfrwt>
<pdfrwt beam="2">  1       -1 0.24030199E+00 0.12774735E+04</pdfrwt>
<totfact> 0.11651700E+01</totfact>
</mgrwt>
</event>
<event>
12    7  0.1711607E-007  0.1815920E+04  0.7818608E-02  0.8697879E-01
          2   -1    0    0  501    0  0.00000000000E+00  0.00000000000E+00  0.16194812539E+04  0.16194812539E+04  0.00000000000E+00 0. -1.
         -1   -1    0    0    0  501 -0.00000000000E+00 -0.00000000000E+00 -0.50904643574E+03  0.50904643574E+03  0.00000000000E+00 0.  1.
         24    2    1    2    0    0 -0.20449516303E+03 -0.20048298728E+03  0.10743833350E+04  0.11147853890E+04  0.80219779210E+02 0.  0.
        254    2    1    2    0    0  0.20449516303E+03  0.20048298728E+03  0.36051483155E+02  0.10137423007E+04  0.97178291964E+03 0.  0.
         23    2    4    4    0    0 -0.14278905194E+03 -0.32750757255E+03  0.74143526961E+02  0.37567402804E+03  0.89352052708E+02 0.  0.
         23    2    4    4    0    0  0.34728421497E+03  0.52799055983E+03 -0.38092043806E+02  0.63806827266E+03  0.79371024514E+02 0.  0.
          2    1    3    3  502    0 -0.20339623755E+03 -0.20225209920E+03  0.99875116548E+03  0.10391245506E+04  0.00000000000E+00 0. -1.
         -1    1    3    3    0  502 -0.10989254817E+01  0.17691119189E+01  0.75632169550E+02  0.75660838385E+02  0.00000000000E+00 0.  1.
         13    1    5    5    0    0 -0.10261706767E+03 -0.26086181377E+03  0.20316844444E+02  0.28105501709E+03  0.00000000000E+00 0. -1.
        -13    1    5    5    0    0 -0.40171984267E+02 -0.66645758781E+02  0.53826682517E+02  0.94619010956E+02  0.00000000000E+00 0.  1.
          3    1    6    6  503    0  0.15147670590E+03  0.18437714144E+03  0.14693163053E+02  0.23907323513E+03  0.00000000000E+00 0. -1.
         -3    1    6    6    0  503  0.19580750907E+03  0.34361341839E+03 -0.52785206859E+02  0.39899503752E+03  0.00000000000E+00 0.  1.
<mgrwt>
<rscale>  0 0.18159198E+04</rscale>
<asrwt>0</asrwt>
<pdfrwt beam="1">  1        2 0.24915096E+00 0.18159198E+04</pdfrwt>
<pdfrwt beam="2">  1       -1 0.78314837E-01 0.18159198E+04</pdfrwt>
<totfact> 0.19065675E+01</totfact>
</mgrwt>
</event>
<event>
12    7  0.1711607E-007  0.1527694E+04  0.7818608E-02  0.8866243E-01
          2   -1    0    0  501    0  0.00000000000E+00  0.00000000000E+00  0.15468361346E+04  0.15468361346E+04  0.00000000000E+00 0. -1.
         -1   -1    0    0    0  501 -0.00000000000E+00 -0.00000000000E+00 -0.37719708133E+03  0.37719708133E+03  0.00000000000E+00 0.  1.
         24    2    1    2    0    0 -0.22281414407E+03 -0.32385860979E+03  0.21488337132E+03  0.45515091510E+03  0.80355151148E+02 0.  0.
        254    2    1    2    0    0  0.22281414407E+03  0.32385860979E+03  0.95475568190E+03  0.14688823008E+04  0.10447613409E+04 0.  0.
         23    2    4    4    0    0 -0.21717188611E+03 -0.30380003256E+02 -0.10906430937E+03  0.26080402525E+03  0.89650115956E+02 0.  0.
         23    2    4    4    0    0  0.43998603018E+03  0.35423861305E+03  0.10638199913E+04  0.12080782755E+04  0.93099109986E+02 0.  0.
          2    1    3    3  502    0 -0.16396056601E+03 -0.26367344646E+03  0.13321238774E+03  0.33786431274E+03  0.00000000000E+00 0. -1.
         -1    1    3    3    0  502 -0.58853578055E+02 -0.60185163328E+02  0.81670983575E+02  0.11728660236E+03  0.00000000000E+00 0.  1.
         13    1    5    5    0    0 -0.19964296986E+03 -0.69449579963E+01 -0.11562380719E+03  0.23081250539E+03  0.00000000000E+00 0. -1.
        -13    1    5    5    0    0 -0.17528916253E+02 -0.23435045260E+02  0.65594978261E+01  0.29991519852E+02  0.00000000000E+00 0.  1.
          3    1    6    6  503    0  0.31857017337E+03  0.24569260193E+03  0.83897568200E+03  0.93044720698E+03  0.00000000000E+00 0. -1.
         -3    1    6    6    0  503  0.12141585681E+03  0.10854601112E+03  0.22484430927E+03  0.27763106856E+03  0.00000000000E+00 0.  1.
<mgrwt>
<rscale>  0 0.15276938E+04</rscale>
<asrwt>0</asrwt>
<pdfrwt beam="1">  1        2 0.23797479E+00 0.15276938E+04</pdfrwt>
<pdfrwt beam="2">  1       -1 0.58030321E-01 0.15276938E+04</pdfrwt>
<totfact> 0.39477655E+01</totfact>
</mgrwt>
</event>
<event>
12    7  0.1711607E-007  0.1730177E+04  0.7818608E-02  0.8744338E-01
         -1   -1    0    0    0  501 -0.00000000000E+00  0.00000000000E+00  0.26567093867E+03  0.26567093867E+03  0.00000000000E+00 0.  1.
          2   -1    0    0  501    0  0.00000000000E+00 -0.00000000000E+00 -0.28169355733E+04  0.28169355733E+04  0.00000000000E+00 0. -1.
         24    2    1    2    0    0 -0.25295560583E+03  0.28832991472E+03 -0.18419528865E+04  0.18831351213E+04  0.79289159946E+02 0.  0.
        254    2    1    2    0    0  0.25295560583E+03 -0.28832991472E+03 -0.70931174814E+03  0.11994713906E+04  0.88796834553E+03 0.  0.
         23    2    4    4    0    0  0.42284859448E+03  0.61620571750E+02 -0.65672363441E+02  0.44181692701E+03  0.91056624977E+02 0.  0.
         23    2    4    4    0    0 -0.16989298866E+03 -0.34995048647E+03 -0.64363938470E+03  0.75765446363E+03  0.91867612021E+02 0.  0.
          2    1    3    3  502    0 -0.20561151121E+03  0.18055709813E+03 -0.12522568551E+04  0.12818050516E+04  0.00000000000E+00 0. -1.
         -1    1    3    3    0  502 -0.47344094624E+02  0.10777281660E+03 -0.58969603138E+03  0.60133006969E+03  0.00000000000E+00 0.  1.
         13    1    5    5    0    0  0.23555490143E+03  0.43630618694E+02  0.81430705494E+01  0.23969992088E+03  0.00000000000E+00 0.  1.
        -13    1    5    5    0    0  0.18729369306E+03  0.17989953056E+02 -0.73815433990E+02  0.20211700613E+03  0.00000000000E+00 0. -1.
          3    1    6    6  503    0 -0.25175871057E+02 -0.18213411281E+02 -0.21127446680E+02  0.37575548395E+02  0.00000000000E+00 0. -1.
         -3    1    6    6    0  503 -0.14471711760E+03 -0.33173707519E+03 -0.62251193802E+03  0.72007891523E+03  0.00000000000E+00 0.  1.
<mgrwt>
<rscale>  0 0.17301768E+04</rscale>
<asrwt>0</asrwt>
<pdfrwt beam="1">  1        2 0.43337470E+00 0.17301768E+04</pdfrwt>
<pdfrwt beam="2">  1       -1 0.40872452E-01 0.17301768E+04</pdfrwt>
<totfact> 0.14336406E+01</totfact>
</mgrwt>
</event>
<event>
12    7  0.1711607E-007  0.1601468E+04  0.7818608E-02  0.8819647E-01
         -1   -1    0    0    0  501 -0.00000000000E+00  0.00000000000E+00  0.43101678058E+03  0.43101678058E+03  0.00000000000E+00 0.  1.
          2   -1    0    0  501    0  0.00000000000E+00 -0.00000000000E+00 -0.14875867670E+04  0.14875867670E+04  0.00000000000E+00 0. -1.
         24    2    1    2    0    0 -0.21937766220E+01 -0.30693521541E+03  0.18137378275E+03  0.36533937223E+03  0.79764457718E+02 0.  0.
        254    2    1    2    0    0  0.21937766220E+01  0.30693521541E+03 -0.12379437692E+04  0.15532641754E+04  0.88651609333E+03 0.  0.
         23    2    4    4    0    0  0.32785230296E+03 -0.11510830686E+02 -0.15075847310E+03  0.37063248778E+03  0.83789569807E+02 0.  0.
         23    2    4    4    0    0 -0.32565852634E+03  0.31844604610E+03 -0.10871852961E+04  0.11826316876E+04  0.95835694910E+02 0.  0.
          4    1    3    3  502    0 -0.15530137517E+02 -0.84162954520E+01  0.15894439371E+02  0.23762415773E+02  0.00000000000E+00 0. -1.
         -3    1    3    3    0  502  0.13336360895E+02 -0.29851891996E+03  0.16547934338E+03  0.34157695646E+03  0.00000000000E+00 0.  1.
         13    1    5    5    0    0  0.25256127747E+03 -0.40405745513E+02 -0.13203573140E+03  0.28784241786E+03  0.00000000000E+00 0. -1.
        -13    1    5    5    0    0  0.75291025488E+02  0.28894914827E+02 -0.18722741694E+02  0.82790069926E+02  0.00000000000E+00 0.  1.
          3    1    6    6  503    0 -0.25621148806E+03  0.29485542452E+03 -0.87838325731E+03  0.96132262780E+03  0.00000000000E+00 0. -1.
         -3    1    6    6    0  503 -0.69447038284E+02  0.23590621578E+02 -0.20880203880E+03  0.22130905982E+03  0.00000000000E+00 0.  1.
<mgrwt>
<rscale>  0 0.16014679E+04</rscale>
<asrwt>0</asrwt>
<pdfrwt beam="1">  1        2 0.22885950E+00 0.16014679E+04</pdfrwt>
<pdfrwt beam="2">  1       -1 0.66310275E-01 0.16014679E+04</pdfrwt>
<totfact> 0.32484436E+01</totfact>
</mgrwt>
</event>
<event>
12    7  0.1711607E-007  0.2613455E+04  0.7818608E-02  0.8363645E-01
          2   -1    0    0  501    0  0.00000000000E+00  0.00000000000E+00  0.92274669671E+03  0.92274669671E+03  0.00000000000E+00 0. -1.
         -1   -1    0    0    0  501 -0.00000000000E+00 -0.00000000000E+00 -0.18504940526E+04  0.18504940526E+04  0.00000000000E+00 0.  1.
         24    2    1    2    0    0  0.49103689154E+03  0.65254912864E+03 -0.12720405179E+04  0.15137155112E+04  0.79435353620E+02 0.  0.
        254    2    1    2    0    0 -0.49103689154E+03 -0.65254912864E+03  0.34429316205E+03  0.12595252381E+04  0.89494605976E+03 0.  0.
         23    2    4    4    0    0  0.23603976224E+03 -0.57429322094E+02  0.13759229461E+03  0.29389458465E+03  0.91812259285E+02 0.  0.
         23    2    4    4    0    0 -0.72707665378E+03 -0.59511980654E+03  0.20670086744E+03  0.96563065347E+03  0.83121992950E+02 0.  0.
          4    1    3    3  502    0  0.41723036959E+02  0.93320789975E+02 -0.18348892241E+03  0.21004229646E+03  0.00000000000E+00 0. -1.
         -3    1    3    3    0  502  0.44931385458E+03  0.55922833866E+03 -0.10885515955E+04  0.13036732147E+04  0.00000000000E+00 0.  1.
         13    1    5    5    0    0  0.15137626084E+03  0.73763737297E+01  0.96274249784E+02  0.17954919773E+03  0.00000000000E+00 0. -1.
        -13    1    5    5    0    0  0.84663501399E+02 -0.64805695823E+02  0.41318044826E+02  0.11434538691E+03  0.00000000000E+00 0.  1.
          2    1    6    6  503    0 -0.67546458812E+03 -0.56072697344E+03  0.17202048702E+03  0.89457151558E+03  0.00000000000E+00 0. -1.
         -2    1    6    6    0  503 -0.51612065664E+02 -0.34392833106E+02  0.34680380424E+02  0.71059137889E+02  0.00000000000E+00 0.  1.
<mgrwt>
<rscale>  0 0.26134554E+04</rscale>
<asrwt>0</asrwt>
<pdfrwt beam="1">  1        2 0.14196103E+00 0.26134554E+04</pdfrwt>
<pdfrwt beam="2">  1       -1 0.28469139E+00 0.26134554E+04</pdfrwt>
<totfact> 0.11833759E+00</totfact>
</mgrwt>
</event>
<event>
12    7  0.1711607E-007  0.1014074E+04  0.7818608E-02  0.9293242E-01
         -1   -1    0    0    0  501 -0.00000000000E+00  0.00000000000E+00  0.53689957072E+03  0.53689957072E+03  0.00000000000E+00 0.  1.
          2   -1    0    0  501    0  0.00000000000E+00 -0.00000000000E+00 -0.47883512950E+03  0.47883512950E+03  0.00000000000E+00 0. -1.
         24    2    1    2    0    0  0.15275441596E+02 -0.21076073296E+02  0.68182978866E+02  0.11727768246E+03  0.91801940151E+02 0.  0.
        254    2    1    2    0    0 -0.15275441596E+02  0.21076073296E+02 -0.10118537647E+02  0.89845701775E+03  0.89802287719E+03 0.  0.
         23    2    4    4    0    0  0.71507989587E+01  0.33174203081E+03 -0.30549520758E+03  0.45971963298E+03  0.88943297470E+02 0.  0.
         23    2    4    4    0    0 -0.22426240555E+02 -0.31066595751E+03  0.29537666993E+03  0.43873738477E+03  0.90701941742E+02 0.  0.
          2    1    3    3  502    0  0.37474389649E+02 -0.44419607638E+02  0.61041038898E+02  0.84281907027E+02  0.00000000000E+00 0. -1.
         -1    1    3    3    0  502 -0.22198948052E+02  0.23343534342E+02  0.71419399684E+01  0.32995775437E+02  0.00000000000E+00 0.  1.
         13    1    5    5    0    0 -0.21758899121E+02  0.33505580294E+02 -0.61356578684E+02  0.73216824225E+02  0.00000000000E+00 0.  1.
        -13    1    5    5    0    0  0.28909698079E+02  0.29823645051E+03 -0.24413862889E+03  0.38650280875E+03  0.00000000000E+00 0. -1.
          4    1    6    6  503    0 -0.19934505268E+02 -0.25053966724E+03  0.18176063070E+03  0.31016839980E+03  0.00000000000E+00 0. -1.
         -4    1    6    6    0  503 -0.24917352872E+01 -0.60126290266E+02  0.11361603923E+03  0.12856898497E+03  0.00000000000E+00 0.  1.
<mgrwt>
<rscale>  0 0.10140737E+04</rscale>
<asrwt>0</asrwt>
<pdfrwt beam="1">  1        2 0.73666943E-01 0.10140737E+04</pdfrwt>
<pdfrwt beam="2">  1       -1 0.82599934E-01 0.10140737E+04</pdfrwt>
<totfact> 0.10768495E+02</totfact>
</mgrwt>
</event>
<event>
12    7  0.1711607E-007  0.2831567E+04  0.7818608E-02  0.8293535E-01
         -1   -1    0    0    0  501 -0.00000000000E+00  0.00000000000E+00  0.64657684366E+03  0.64657684366E+03  0.00000000000E+00 0.  1.
          2   -1    0    0  501    0  0.00000000000E+00 -0.00000000000E+00 -0.31000835127E+04  0.31000835127E+04  0.00000000000E+00 0. -1.
         24    2    1    2    0    0  0.12068582337E+04 -0.36824107423E+03 -0.86391710086E+03  0.15311303208E+04  0.76805059434E+02 0.  0.
        254    2    1    2    0    0 -0.12068582337E+04  0.36824107423E+03 -0.15895895682E+04  0.22155300355E+04  0.88863381553E+03 0.  0.
         23    2    4    4    0    0 -0.84793518790E+03 -0.18623657894E+03 -0.97601385134E+03  0.13093359820E+04  0.89886203251E+02 0.  0.
         23    2    4    4    0    0 -0.35892304581E+03  0.55447765317E+03 -0.61357571682E+03  0.90619405353E+03  0.91876448042E+02 0.  0.
          4    1    3    3  502    0  0.77596238562E+03 -0.20368887215E+03 -0.57160644109E+03  0.98505873126E+03  0.00000000000E+00 0. -1.
         -3    1    3    3    0  502  0.43089584808E+03 -0.16455220209E+03 -0.29231065977E+03  0.54607158956E+03  0.00000000000E+00 0.  1.
         13    1    5    5    0    0 -0.77987228361E+03 -0.14911578854E+03 -0.86795589909E+03  0.11763433767E+04  0.00000000000E+00 0. -1.
        -13    1    5    5    0    0 -0.68062904284E+02 -0.37120790396E+02 -0.10805795225E+03  0.13299260530E+03  0.00000000000E+00 0.  1.
          2    1    6    6  503    0 -0.15225590170E+03  0.20961519481E+03 -0.18361494604E+03  0.31754501714E+03  0.00000000000E+00 0.  1.
         -2    1    6    6    0  503 -0.20666714411E+03  0.34486245836E+03 -0.42996077078E+03  0.58864903639E+03  0.00000000000E+00 0. -1.
<mgrwt>
<rscale>  0 0.28315665E+04</rscale>
<asrwt>0</asrwt>
<pdfrwt beam="1">  1        2 0.47693593E+00 0.28315665E+04</pdfrwt>
<pdfrwt beam="2">  1       -1 0.99473360E-01 0.28315665E+04</pdfrwt>
<totfact> 0.14311111E+00</totfact>
</mgrwt>
</event>
<event>
12    7  0.1711607E-007  0.1976736E+04  0.7818608E-02  0.8617575E-01
          2   -1    0    0  501    0  0.00000000000E+00  0.00000000000E+00  0.14950140133E+04  0.14950140133E+04  0.00000000000E+00 0. -1.
         -1   -1    0    0    0  501 -0.00000000000E+00 -0.00000000000E+00 -0.65341980805E+03  0.65341980805E+03  0.00000000000E+00 0.  1.
         24    2    1    2    0    0 -0.12472174614E+03 -0.22043886024E+03  0.11062743034E+04  0.11380904962E+04  0.85195880128E+02 0.  0.
        254    2    1    2    0    0  0.12472174614E+03  0.22043886024E+03 -0.26468009817E+03  0.10103433252E+04  0.94158869754E+03 0.  0.
         23    2    4    4    0    0  0.27690226907E+03 -0.27970926021E+03  0.24759668338E+02  0.40576432512E+03  0.95496122962E+02 0.  0.
         23    2    4    4    0    0 -0.15218052293E+03  0.50014812045E+03 -0.28943976651E+03  0.60457900008E+03  0.91833190914E+02 0.  0.
          4    1    3    3  502    0 -0.12534875463E+03 -0.21548141893E+03  0.11052176578E+04  0.11329830640E+04  0.00000000000E+00 0. -1.
         -3    1    3    3    0  502  0.62700849066E+00 -0.49574413040E+01  0.10566456907E+01  0.51074322361E+01  0.00000000000E+00 0.  1.
         13    1    5    5    0    0  0.15767519173E+03 -0.18255746175E+03 -0.28736145106E+02  0.24292891751E+03  0.00000000000E+00 0. -1.
        -13    1    5    5    0    0  0.11922707734E+03 -0.97151798460E+02  0.53495813444E+02  0.16283540761E+03  0.00000000000E+00 0.  1.
          3    1    6    6  503    0 -0.94638329667E+02  0.38228767836E+03 -0.17680246364E+03  0.43169363397E+03  0.00000000000E+00 0. -1.
         -3    1    6    6    0  503 -0.57542193258E+02  0.11786044209E+03 -0.11263730287E+03  0.17288536610E+03  0.00000000000E+00 0.  1.
<mgrwt>
<rscale>  0 0.19767365E+04</rscale>
<asrwt>0</asrwt>
<pdfrwt beam="1">  1        2 0.23000216E+00 0.19767365E+04</pdfrwt>
<pdfrwt beam="2">  1       -1 0.10052612E+00 0.19767365E+04</pdfrwt>
<totfact> 0.12760592E+01</totfact>
</mgrwt>
</event>
<event>
12    7  0.1711607E-007  0.3153731E+04  0.7818608E-02  0.8201145E-01
         -1   -1    0    0    0  501 -0.00000000000E+00  0.00000000000E+00  0.69109905010E+03  0.69109905010E+03  0.00000000000E+00 0.  1.
          2   -1    0    0  501    0  0.00000000000E+00 -0.00000000000E+00 -0.35978999040E+04  0.35978999040E+04  0.00000000000E+00 0. -1.
         24    2    1    2    0    0 -0.58468527407E+02  0.37904456262E+03 -0.32261178993E+04  0.32498684873E+04  0.81945931647E+02 0.  0.
        254    2    1    2    0    0  0.58468527407E+02 -0.37904456262E+03  0.31931704535E+03  0.10391304668E+04  0.91144687308E+03 0.  0.
         23    2    4    4    0    0  0.25447362414E+03 -0.52019631625E+03  0.46005497992E+03  0.74509720304E+03  0.90322890789E+02 0.  0.
         23    2    4    4    0    0 -0.19600509673E+03  0.14115175363E+03 -0.14073793458E+03  0.29403326377E+03  0.91140432700E+02 0.  0.
          4    1    3    3  502    0 -0.74105876640E+02  0.33178984637E+03 -0.29210255550E+04  0.29407425043E+04  0.00000000000E+00 0. -1.
         -3    1    3    3    0  502  0.15637349233E+02  0.47254716251E+02 -0.30509234423E+03  0.30912598306E+03  0.00000000000E+00 0.  1.
         13    1    5    5    0    0  0.47454863437E+02 -0.19085957316E+03  0.16818083676E+03  0.25877429274E+03  0.00000000000E+00 0. -1.
        -13    1    5    5    0    0  0.20701876070E+03 -0.32933674309E+03  0.29187414316E+03  0.48632291030E+03  0.00000000000E+00 0.  1.
          2    1    6    6  503    0 -0.14687020882E+03  0.56105122865E+02 -0.65553127015E+02  0.17034041069E+03  0.00000000000E+00 0.  1.
         -2    1    6    6    0  503 -0.49134887910E+02  0.85046630764E+02 -0.75184807563E+02  0.12369285308E+03  0.00000000000E+00 0. -1.
<mgrwt>
<rscale>  0 0.31537313E+04</rscale>
<asrwt>0</asrwt>
<pdfrwt beam="1">  1        2 0.55352306E+00 0.31537313E+04</pdfrwt>
<pdfrwt beam="2">  1       -1 0.10632293E+00 0.31537313E+04</pdfrwt>
<totfact> 0.54918793E-01</totfact>
</mgrwt>
</event>
<event>
12    7  0.1711607E-007  0.1668575E+04  0.7818608E-02  0.8779493E-01
         -1   -1    0    0    0  501 -0.00000000000E+00  0.00000000000E+00  0.39475759412E+03  0.39475759412E+03  0.00000000000E+00 0.  1.
          2   -1    0    0  501    0  0.00000000000E+00 -0.00000000000E+00 -0.17631972337E+04  0.17631972337E+04  0.00000000000E+00 0. -1.
         24    2    1    2    0    0 -0.41325734387E+03  0.35544042670E+03 -0.63862163115E+03  0.84351712265E+03  0.81018635120E+02 0.  0.
        254    2    1    2    0    0  0.41325734387E+03 -0.35544042670E+03 -0.72981800841E+03  0.13144377051E+04  0.94762472853E+03 0.  0.
         23    2    4    4    0    0  0.19505539224E+03 -0.65067401886E+03 -0.60610076538E+03  0.91497486802E+03  0.91638346057E+02 0.  0.
         23    2    4    4    0    0  0.21820195163E+03  0.29523359216E+03 -0.12371724303E+03  0.39946283712E+03  0.97414764711E+02 0.  0.
          2    1    3    3  502    0 -0.29347609516E+03  0.20570928885E+03 -0.39228283910E+03  0.53134767884E+03  0.00000000000E+00 0. -1.
         -1    1    3    3    0  502 -0.11978124871E+03  0.14973113784E+03 -0.24633879205E+03  0.31216944381E+03  0.00000000000E+00 0.  1.
         13    1    5    5    0    0  0.19494222256E+03 -0.64759258080E+03 -0.60947379388E+03  0.91040481451E+03  0.00000000000E+00 0. -1.
        -13    1    5    5    0    0  0.11316967907E+00 -0.30814380548E+01  0.33730285051E+01  0.45700535180E+01  0.00000000000E+00 0.  1.
          1    1    6    6  503    0  0.11884619946E+03  0.11780647008E+03 -0.99467130302E+02  0.19467021737E+03  0.00000000000E+00 0. -1.
         -1    1    6    6    0  503  0.99355752171E+02  0.17742712208E+03 -0.24250112727E+02  0.20479261976E+03  0.00000000000E+00 0.  1.
<mgrwt>
<rscale>  0 0.16685748E+04</rscale>
<asrwt>0</asrwt>
<pdfrwt beam="1">  1        2 0.27126111E+00 0.16685748E+04</pdfrwt>
<pdfrwt beam="2">  1       -1 0.60731937E-01 0.16685748E+04</pdfrwt>
<totfact> 0.27020949E+01</totfact>
</mgrwt>
</event>
<event>
12    7  0.2606437E-007  0.2294644E+04  0.7818608E-02  0.8480036E-01
          2   -1    0    0  501    0  0.00000000000E+00  0.00000000000E+00  0.17346648998E+04  0.17346648998E+04  0.00000000000E+00 0. -1.
         -1   -1    0    0    0  501 -0.00000000000E+00 -0.00000000000E+00 -0.75884877794E+03  0.75884877794E+03  0.00000000000E+00 0.  1.
         24    2    1    2    0    0 -0.16138892793E+03 -0.14495542269E+03  0.14450946271E+04  0.14634327503E+04  0.79236814208E+02 0.  0.
        254    2    1    2    0    0  0.16138892793E+03  0.14495542269E+03 -0.46927850527E+03  0.10300809274E+04  0.89094665436E+03 0.  0.
         23    2    4    4    0    0  0.24019862585E+03 -0.18197621848E+03 -0.58411617821E+03  0.66362225143E+03  0.91608181894E+02 0.  0.
         23    2    4    4    0    0 -0.78809697928E+02  0.32693164117E+03  0.11483767294E+03  0.36645867600E+03  0.89493036591E+02 0.  0.
          2    1    3    3  502    0 -0.16386237128E+03 -0.15158784488E+03  0.14161309159E+04  0.14336165883E+04  0.00000000000E+00 0. -1.
         -1    1    3    3    0  502  0.24734433552E+01  0.66324221898E+01  0.28963711202E+02  0.29816161939E+02  0.00000000000E+00 0.  1.
         13    1    5    5    0    0  0.22531911374E+02 -0.18183703029E+02 -0.14860770735E+02  0.32544993361E+02  0.00000000000E+00 0.  1.
        -13    1    5    5    0    0  0.21766671448E+03 -0.16379251545E+03 -0.56925540748E+03  0.63107725807E+03  0.00000000000E+00 0. -1.
          4    1    6    6  503    0 -0.96279225822E+02  0.29763693935E+03  0.94664774685E+02  0.32683154156E+03  0.00000000000E+00 0. -1.
         -4    1    6    6    0  503  0.17469527893E+02  0.29294701824E+02  0.20172898259E+02  0.39627134441E+02  0.00000000000E+00 0.  1.
<mgrwt>
<rscale>  0 0.22946445E+04</rscale>
<asrwt>0</asrwt>
<pdfrwt beam="1">  1        2 0.26687152E+00 0.22946445E+04</pdfrwt>
<pdfrwt beam="2">  1       -1 0.11674597E+00 0.22946445E+04</pdfrwt>
<totfact> 0.64126916E+00</totfact>
</mgrwt>
</event>
<event>
12    7  0.1711607E-007  0.2495324E+04  0.7818608E-02  0.8404653E-01
          2   -1    0    0  501    0  0.00000000000E+00  0.00000000000E+00  0.97164507816E+03  0.97164507816E+03  0.00000000000E+00 0. -1.
         -1   -1    0    0    0  501 -0.00000000000E+00 -0.00000000000E+00 -0.16020871811E+04  0.16020871811E+04  0.00000000000E+00 0.  1.
         24    2    1    2    0    0 -0.22908117358E+02 -0.98625657185E+03 -0.73597398648E+03  0.12335144515E+04  0.81690795080E+02 0.  0.
        254    2    1    2    0    0  0.22908117358E+02  0.98625657185E+03  0.10553188357E+03  0.13402178077E+04  0.90101053616E+03 0.  0.
         23    2    4    4    0    0 -0.31791797126E+03  0.15886037114E+03 -0.16382914297E+03  0.40134360492E+03  0.89040705036E+02 0.  0.
         23    2    4    4    0    0  0.34082608862E+03  0.82739620071E+03  0.26936102654E+03  0.93887420278E+03  0.90457229671E+02 0.  0.
          4    1    3    3  502    0 -0.42552089595E+00 -0.46185057966E+03 -0.39377440954E+03  0.60693032929E+03  0.00000000000E+00 0. -1.
         -3    1    3    3    0  502 -0.22482596462E+02 -0.52440599219E+03 -0.34219957693E+03  0.62658412224E+03  0.00000000000E+00 0.  1.
         13    1    5    5    0    0 -0.22138614568E+02 -0.11351692785E+02 -0.14928627744E+02  0.29014532745E+02  0.00000000000E+00 0.  1.
        -13    1    5    5    0    0 -0.29577935670E+03  0.17021206393E+03 -0.14890051523E+03  0.37232907218E+03  0.00000000000E+00 0. -1.
          1    1    6    6  503    0  0.28244087242E+03  0.63783207196E+03  0.17480758034E+03  0.71913857398E+03  0.00000000000E+00 0. -1.
         -1    1    6    6    0  503  0.58385216196E+02  0.18956412875E+03  0.94553446198E+02  0.21973562880E+03  0.00000000000E+00 0.  1.
<mgrwt>
<rscale>  0 0.24953237E+04</rscale>
<asrwt>0</asrwt>
<pdfrwt beam="1">  1        2 0.14948386E+00 0.24953237E+04</pdfrwt>
<pdfrwt beam="2">  1       -1 0.24647495E+00 0.24953237E+04</pdfrwt>
<totfact> 0.19652288E+00</totfact>
</mgrwt>
</event>
<event>
12    7  0.1711607E-007  0.1925453E+04  0.7818608E-02  0.8642289E-01
          2   -1    0    0  501    0  0.00000000000E+00  0.00000000000E+00  0.14283758136E+04  0.14283758136E+04  0.00000000000E+00 0. -1.
         -3   -1    0    0    0  501 -0.00000000000E+00 -0.00000000000E+00 -0.64887876455E+03  0.64887876455E+03  0.00000000000E+00 0.  1.
         24    2    1    2    0    0 -0.25411122461E+03 -0.70028614857E+03  0.38711369320E+03  0.84471077970E+03  0.93306406712E+02 0.  0.
        254    2    1    2    0    0  0.25411122461E+03  0.70028614857E+03  0.39238335581E+03  0.12325437984E+04  0.90012572051E+03 0.  0.
         23    2    4    4    0    0 -0.20771812351E+03  0.60970253952E+03  0.37970673626E+03  0.75336050084E+03  0.92145716813E+02 0.  0.
         23    2    4    4    0    0  0.46182934811E+03  0.90583609043E+02  0.12676619555E+02  0.47918329757E+03  0.89242360928E+02 0.  0.
          4    1    3    3  502    0 -0.13575789810E+03 -0.36755507275E+03  0.25580874295E+03  0.46793701645E+03  0.00000000000E+00 0. -1.
         -3    1    3    3    0  502 -0.11835332650E+03 -0.33273107582E+03  0.13130495026E+03  0.37677376325E+03  0.00000000000E+00 0.  1.
         13    1    5    5    0    0 -0.17351862510E+02  0.17820020776E+03  0.10390840091E+03  0.20701052379E+03  0.00000000000E+00 0. -1.
        -13    1    5    5    0    0 -0.19036626100E+03  0.43150233176E+03  0.27579833535E+03  0.54634997705E+03  0.00000000000E+00 0.  1.
          1    1    6    6  503    0  0.35636741395E+03  0.10502740651E+03 -0.33511384717E+01  0.37153696986E+03  0.00000000000E+00 0.  1.
         -1    1    6    6    0  503  0.10546193416E+03 -0.14443797468E+02  0.16027758027E+02  0.10764632771E+03  0.00000000000E+00 0. -1.
<mgrwt>
<rscale>  0 0.19254534E+04</rscale>
<asrwt>0</asrwt>
<pdfrwt beam="1">  1        2 0.21975012E+00 0.19254534E+04</pdfrwt>
<pdfrwt beam="2">  1       -3 0.99827502E-01 0.19254534E+04</pdfrwt>
<totfact> 0.72708817E+00</totfact>
</mgrwt>
</event>
<event>
12    7  0.1711607E-007  0.1602272E+04  0.7818608E-02  0.8819153E-01
          2   -1    0    0  501    0  0.00000000000E+00  0.00000000000E+00  0.85556080339E+03  0.85556080339E+03  0.00000000000E+00 0. -1.
         -1   -1    0    0    0  501 -0.00000000000E+00 -0.00000000000E+00 -0.75017330893E+03  0.75017330893E+03  0.00000000000E+00 0.  1.
         24    2    1    2    0    0 -0.49218782393E+03  0.22622608940E+02 -0.18552871323E+03  0.53235541072E+03  0.78871689658E+02 0.  0.
        254    2    1    2    0    0  0.49218782393E+03 -0.22622608940E+02  0.29091620769E+03  0.10733787016E+04  0.90815690313E+03 0.  0.
         23    2    4    4    0    0 -0.15648162574E+03 -0.27631110305E+03  0.83701557629E+02  0.34079050822E+03  0.91092781706E+02 0.  0.
         23    2    4    4    0    0  0.64866944968E+03  0.25368849411E+03  0.20721465007E+03  0.73258819339E+03  0.92831260370E+02 0.  0.
          2    1    3    3  502    0 -0.89652199676E+02  0.79565999049E+01 -0.28120343245E+01  0.90048497633E+02  0.00000000000E+00 0. -1.
         -1    1    3    3    0  502 -0.40253562425E+03  0.14666009035E+02 -0.18271667891E+03  0.44230691309E+03  0.00000000000E+00 0.  1.
         13    1    5    5    0    0  0.11602990663E+02 -0.11832779859E+02  0.80171829794E+01  0.18409760847E+02  0.00000000000E+00 0. -1.
        -13    1    5    5    0    0 -0.16808461641E+03 -0.26447832319E+03  0.75684374649E+02  0.32238074737E+03  0.00000000000E+00 0.  1.
          1    1    6    6  503    0  0.47513885900E+02  0.47136306331E+02  0.23255685137E+02  0.70853564618E+02  0.00000000000E+00 0. -1.
         -1    1    6    6    0  503  0.60115556378E+03  0.20655218778E+03  0.18395896493E+03  0.66173462877E+03  0.00000000000E+00 0.  1.
<mgrwt>
<rscale>  0 0.16022720E+04</rscale>
<asrwt>0</asrwt>
<pdfrwt beam="1">  1        2 0.13162474E+00 0.16022720E+04</pdfrwt>
<pdfrwt beam="2">  1       -1 0.11541128E+00 0.16022720E+04</pdfrwt>
<totfact> 0.23433689E+01</totfact>
</mgrwt>
</event>
<event>
12    7  0.1711607E-007  0.1607906E+04  0.7818608E-02  0.8815705E-01
         -1   -1    0    0    0  501 -0.00000000000E+00  0.00000000000E+00  0.33644390673E+03  0.33644390673E+03  0.00000000000E+00 0.  1.
          2   -1    0    0  501    0  0.00000000000E+00 -0.00000000000E+00 -0.19210952306E+04  0.19210952306E+04  0.00000000000E+00 0. -1.
         24    2    1    2    0    0  0.25620293146E+03 -0.21362594284E+03  0.71544071419E+02  0.34566827180E+03  0.55605884845E+02 0.  0.
        254    2    1    2    0    0 -0.25620293146E+03  0.21362594284E+03 -0.16561953953E+04  0.19118708655E+04  0.89498102412E+03 0.  0.
         23    2    4    4    0    0  0.85255371552E+02  0.45809787656E+03 -0.11717011899E+04  0.12641559336E+04  0.89913309334E+02 0.  0.
         23    2    4    4    0    0 -0.34145830301E+03 -0.24447193372E+03 -0.48449420537E+03  0.64771493190E+03  0.91867833856E+02 0.  0.
          4    1    3    3  502    0  0.50693832778E+02 -0.17970632540E+02  0.19327840387E+02  0.57152197942E+02  0.00000000000E+00 0. -1.
         -1    1    3    3    0  502  0.20550909868E+03 -0.19565531030E+03  0.52216231032E+02  0.28851607386E+03  0.00000000000E+00 0.  1.
         13    1    5    5    0    0  0.78550791781E+01  0.28294013491E+03 -0.69422224573E+03  0.74970750876E+03  0.00000000000E+00 0.  1.
        -13    1    5    5    0    0  0.77400292374E+02  0.17515774164E+03 -0.47747894414E+03  0.51444842484E+03  0.00000000000E+00 0. -1.
          2    1    6    6  503    0 -0.40769396642E+02 -0.70008355459E+02 -0.11165548690E+03  0.13795021309E+03  0.00000000000E+00 0.  1.
         -2    1    6    6    0  503 -0.30068890637E+03 -0.17446357826E+03 -0.37283871847E+03  0.50976471881E+03  0.00000000000E+00 0. -1.
<mgrwt>
<rscale>  0 0.16079064E+04</rscale>
<asrwt>0</asrwt>
<pdfrwt beam="1">  1        2 0.29555310E+00 0.16079064E+04</pdfrwt>
<pdfrwt beam="2">  1       -1 0.51760603E-01 0.16079064E+04</pdfrwt>
<totfact> 0.30314460E+01</totfact>
</mgrwt>
</event>
<event>
12    7  0.1711607E-007  0.1518698E+04  0.7818608E-02  0.8872113E-01
         -1   -1    0    0    0  501 -0.00000000000E+00  0.00000000000E+00  0.15110949408E+03  0.15110949408E+03  0.00000000000E+00 0.  1.
          2   -1    0    0  501    0  0.00000000000E+00 -0.00000000000E+00 -0.38158484989E+04  0.38158484989E+04  0.00000000000E+00 0. -1.
         24    2    1    2    0    0  0.26828158689E+02 -0.12425650015E+03  0.35225240779E+02  0.15485089899E+03  0.81108294278E+02 0.  0.
        254    2    1    2    0    0 -0.26828158689E+02  0.12425650015E+03 -0.36999642456E+04  0.38121070940E+04  0.90899155629E+03 0.  0.
         23    2    4    4    0    0  0.16863420255E+03 -0.34712350387E+03 -0.15682320493E+04  0.16183233969E+04  0.10337618367E+03 0.  0.
         23    2    4    4    0    0 -0.19546236124E+03  0.47138000402E+03 -0.21317321963E+04  0.21937836971E+04  0.89443333756E+02 0.  0.
          4    1    3    3  502    0  0.27155969853E+02 -0.18401185493E+01  0.13999689299E+02  0.30607581338E+02  0.00000000000E+00 0. -1.
         -3    1    3    3    0  502 -0.32781116408E+00 -0.12241638160E+03  0.21225551480E+02  0.12424331765E+03  0.00000000000E+00 0.  1.
         13    1    5    5    0    0  0.55520733253E+02 -0.32596207394E+02 -0.21579000347E+03  0.22518967595E+03  0.00000000000E+00 0.  1.
        -13    1    5    5    0    0  0.11311346930E+03 -0.31452729647E+03 -0.13524420458E+04  0.13931337210E+04  0.00000000000E+00 0. -1.
          4    1    6    6  503    0 -0.73259145690E+01  0.34697741528E+01 -0.10259459658E+03  0.10291433138E+03  0.00000000000E+00 0.  1.
         -4    1    6    6    0  503 -0.18813644667E+03  0.46791022987E+03 -0.20291375997E+04  0.20908693657E+04  0.00000000000E+00 0. -1.
<mgrwt>
<rscale>  0 0.15186980E+04</rscale>
<asrwt>0</asrwt>
<pdfrwt beam="1">  1        2 0.58705360E+00 0.15186980E+04</pdfrwt>
<pdfrwt beam="2">  1       -1 0.23247615E-01 0.15186980E+04</pdfrwt>
<totfact> 0.84855563E+00</totfact>
</mgrwt>
</event>
<event>
12    7  0.1711607E-007  0.3426001E+04  0.7818608E-02  0.8131554E-01
         -1   -1    0    0    0  501 -0.00000000000E+00  0.00000000000E+00  0.17191037868E+04  0.17191037868E+04  0.00000000000E+00 0.  1.
          2   -1    0    0  501    0  0.00000000000E+00 -0.00000000000E+00 -0.17069190812E+04  0.17069190812E+04  0.00000000000E+00 0. -1.
         24    2    1    2    0    0  0.45688230464E+03 -0.20401305383E+03 -0.15091307848E+04  0.15918809615E+04  0.79034825099E+02 0.  0.
        254    2    1    2    0    0 -0.45688230464E+03  0.20401305383E+03  0.15213154904E+04  0.18341419065E+04  0.89404303344E+03 0.  0.
         23    2    4    4    0    0  0.11568515811E+03 -0.24194057758E+03  0.31841591784E+03  0.42626387182E+03  0.91618190304E+02 0.  0.
         23    2    4    4    0    0 -0.57256746275E+03  0.44595363141E+03  0.12028995725E+04  0.14078780347E+04  0.91896889403E+02 0.  0.
          4    1    3    3  502    0  0.37371202703E+03 -0.13184131044E+03 -0.11641129010E+04  0.12297160878E+04  0.00000000000E+00 0. -1.
         -3    1    3    3    0  502  0.83170277612E+02 -0.72171743391E+02 -0.34501788379E+03  0.36216487372E+03  0.00000000000E+00 0.  1.
         13    1    5    5    0    0  0.62342404950E+02 -0.13583172250E+03  0.10712092768E+03  0.18387964933E+03  0.00000000000E+00 0.  1.
        -13    1    5    5    0    0  0.53342753156E+02 -0.10610885509E+03  0.21129499016E+03  0.24238422249E+03  0.00000000000E+00 0. -1.
          3    1    6    6  503    0 -0.31979774086E+03  0.25494784823E+03  0.58935893838E+03  0.71736528954E+03  0.00000000000E+00 0. -1.
         -3    1    6    6    0  503 -0.25276972189E+03  0.19100578318E+03  0.61354063415E+03  0.69051274518E+03  0.00000000000E+00 0.  1.
<mgrwt>
<rscale>  0 0.34260012E+04</rscale>
<asrwt>0</asrwt>
<pdfrwt beam="1">  1        2 0.26260294E+00 0.34260012E+04</pdfrwt>
<pdfrwt beam="2">  1       -1 0.26447751E+00 0.34260012E+04</pdfrwt>
<totfact> 0.51317920E-01</totfact>
</mgrwt>
</event>
<event>
12    7  0.1711607E-007  0.1459165E+04  0.7818608E-02  0.8912071E-01
         -1   -1    0    0    0  501 -0.00000000000E+00  0.00000000000E+00  0.15591078184E+03  0.15591078184E+03  0.00000000000E+00 0.  1.
          2   -1    0    0  501    0  0.00000000000E+00 -0.00000000000E+00 -0.34140700580E+04  0.34140700580E+04  0.00000000000E+00 0. -1.
         24    2    1    2    0    0 -0.54872061066E+01 -0.68620559418E+01 -0.20532283418E+04  0.20556191148E+04  0.98722462234E+02 0.  0.
        254    2    1    2    0    0  0.54872061066E+01  0.68620559418E+01 -0.12049309344E+04  0.15143617250E+04  0.91725442504E+03 0.  0.
         23    2    4    4    0    0  0.20226326745E+03 -0.36878517982E+03 -0.85698028992E+03  0.95893022124E+03  0.90658776124E+02 0.  0.
         23    2    4    4    0    0 -0.19677606134E+03  0.37564723576E+03 -0.34795064445E+03  0.55543150374E+03  0.87194267706E+02 0.  0.
          4    1    3    3  502    0 -0.12795845934E+02 -0.33409395509E+02 -0.18691895918E+04  0.18695319338E+04  0.00000000000E+00 0. -1.
         -1    1    3    3    0  502  0.73086398271E+01  0.26547339568E+02 -0.18403875000E+03  0.18608718106E+03  0.00000000000E+00 0.  1.
         13    1    5    5    0    0  0.86296301641E+02 -0.74762064798E+02 -0.23211665581E+03  0.25867848754E+03  0.00000000000E+00 0.  1.
        -13    1    5    5    0    0  0.11596696581E+03 -0.29402311502E+03 -0.62486363410E+03  0.70025173370E+03  0.00000000000E+00 0. -1.
          3    1    6    6  503    0 -0.60506077994E+02  0.10624860881E+03 -0.52662705815E+02  0.13312818234E+03  0.00000000000E+00 0. -1.
         -3    1    6    6    0  503 -0.13626998335E+03  0.26939862695E+03 -0.29528793863E+03  0.42230332140E+03  0.00000000000E+00 0.  1.
<mgrwt>
<rscale>  0 0.14591646E+04</rscale>
<asrwt>0</asrwt>
<pdfrwt beam="1">  1        2 0.52524154E+00 0.14591646E+04</pdfrwt>
<pdfrwt beam="2">  1       -1 0.23986274E-01 0.14591646E+04</pdfrwt>
<totfact> 0.15691645E+01</totfact>
</mgrwt>
</event>
<event>
12    7  0.1711607E-007  0.3077341E+04  0.7818608E-02  0.8221984E-01
         -1   -1    0    0    0  501 -0.00000000000E+00  0.00000000000E+00  0.26035786986E+04  0.26035786986E+04  0.00000000000E+00 0.  1.
          2   -1    0    0  501    0  0.00000000000E+00 -0.00000000000E+00 -0.90932768943E+03  0.90932768943E+03  0.00000000000E+00 0. -1.
         24    2    1    2    0    0 -0.13091920731E+04  0.42354664322E+03  0.80106116173E+03  0.15945658968E+04  0.86981441391E+02 0.  0.
        254    2    1    2    0    0  0.13091920731E+04 -0.42354664322E+03  0.89318984746E+03  0.19183404913E+04  0.99441766565E+03 0.  0.
         23    2    4    4    0    0  0.47710210101E+03  0.24203039024E+03  0.59807498469E+03  0.80853120947E+03  0.99115613264E+02 0.  0.
         23    2    4    4    0    0  0.83208997205E+03 -0.66557703346E+03  0.29511486277E+03  0.11098092818E+04  0.96007034744E+02 0.  0.
          2    1    3    3  502    0 -0.70791896318E+03  0.23695415340E+03  0.48379466067E+03  0.88958068939E+03  0.00000000000E+00 0. -1.
         -1    1    3    3    0  502 -0.60127310988E+03  0.18659248982E+03  0.31726650106E+03  0.70498520737E+03  0.00000000000E+00 0.  1.
         13    1    5    5    0    0  0.48350003068E+02  0.20164834324E+02  0.11105084186E+03  0.12278694075E+03  0.00000000000E+00 0. -1.
        -13    1    5    5    0    0  0.42875209794E+03  0.22186555592E+03  0.48702414282E+03  0.68574426872E+03  0.00000000000E+00 0.  1.
          2    1    6    6  503    0  0.17620987018E+03 -0.94149699087E+02  0.47268880639E+02  0.20530083113E+03  0.00000000000E+00 0. -1.
         -2    1    6    6    0  503  0.65588010187E+03 -0.57142733437E+03  0.24784598213E+03  0.90450845068E+03  0.00000000000E+00 0.  1.
<mgrwt>
<rscale>  0 0.30773405E+04</rscale>
<asrwt>0</asrwt>
<pdfrwt beam="1">  1        2 0.13989657E+00 0.30773405E+04</pdfrwt>
<pdfrwt beam="2">  1       -1 0.40055057E+00 0.30773405E+04</pdfrwt>
<totfact> 0.19854280E-01</totfact>
</mgrwt>
</event>
<event>
12    7  0.1711607E-007  0.2414251E+04  0.7818608E-02  0.8434187E-01
         -1   -1    0    0    0  501 -0.00000000000E+00  0.00000000000E+00  0.76633897088E+03  0.76633897088E+03  0.00000000000E+00 0.  1.
          2   -1    0    0  501    0  0.00000000000E+00 -0.00000000000E+00 -0.19014460059E+04  0.19014460059E+04  0.00000000000E+00 0. -1.
         24    2    1    2    0    0 -0.71334370870E+03  0.32281832793E+02 -0.13207089191E+04  0.15039336856E+04  0.87424929919E+02 0.  0.
        254    2    1    2    0    0  0.71334370870E+03 -0.32281832793E+02  0.18560188401E+03  0.11638512912E+04  0.90011132935E+03 0.  0.
         23    2    4    4    0    0  0.24320186837E+03  0.26866235800E+03 -0.25064238223E+03  0.45066614186E+03  0.94613721339E+02 0.  0.
         23    2    4    4    0    0  0.47014184033E+03 -0.30094419080E+03  0.43624426625E+03  0.71318514934E+03  0.81995374265E+02 0.  0.
          4    1    3    3  502    0 -0.71355261526E+03  0.36465156820E+02 -0.13062966377E+04  0.14889250982E+04  0.00000000000E+00 0. -1.
         -3    1    3    3    0  502  0.20890656398E+00 -0.41833240273E+01 -0.14412281370E+02  0.15008587414E+02  0.00000000000E+00 0.  1.
         13    1    5    5    0    0  0.88625996043E+02  0.64892813978E+02 -0.32615559950E+02  0.11458367786E+03  0.00000000000E+00 0. -1.
        -13    1    5    5    0    0  0.15457587232E+03  0.20376954403E+03 -0.21802682229E+03  0.33608246401E+03  0.00000000000E+00 0.  1.
          1    1    6    6  503    0  0.14326054983E+03 -0.74516812376E+02  0.84297362369E+02  0.18216032983E+03  0.00000000000E+00 0. -1.
         -1    1    6    6    0  503  0.32688129050E+03 -0.22642737842E+03  0.35194690388E+03  0.53102481950E+03  0.00000000000E+00 0.  1.
<mgrwt>
<rscale>  0 0.24142512E+04</rscale>
<asrwt>0</asrwt>
<pdfrwt beam="1">  1        2 0.29253015E+00 0.24142512E+04</pdfrwt>
<pdfrwt beam="2">  1       -1 0.11789831E+00 0.24142512E+04</pdfrwt>
<totfact> 0.50081874E+00</totfact>
</mgrwt>
</event>
<event>
12    7  0.1711607E-007  0.1798558E+04  0.7818608E-02  0.8707066E-01
         -1   -1    0    0    0  501 -0.00000000000E+00  0.00000000000E+00  0.72928691927E+03  0.72928691927E+03  0.00000000000E+00 0.  1.
          2   -1    0    0  501    0  0.00000000000E+00 -0.00000000000E+00 -0.11088957016E+04  0.11088957016E+04  0.00000000000E+00 0. -1.
         24    2    1    2    0    0 -0.24171190112E+03 -0.16117240112E+03 -0.76029715554E+03  0.81806378851E+03  0.82312886757E+02 0.  0.
        254    2    1    2    0    0  0.24171190112E+03  0.16117240112E+03  0.38068837320E+03  0.10201188324E+04  0.90073170736E+03 0.  0.
         23    2    4    4    0    0  0.45884103266E+03  0.39037191545E+03  0.31717126694E+03  0.68612933001E+03  0.85149981223E+02 0.  0.
         23    2    4    4    0    0 -0.21712913153E+03 -0.22919951432E+03  0.63517106256E+02  0.33398950237E+03  0.88527327855E+02 0.  0.
          2    1    3    3  502    0 -0.16736336536E+03 -0.15362259840E+03 -0.57810978946E+03  0.62114517423E+03  0.00000000000E+00 0. -1.
         -1    1    3    3    0  502 -0.74348535758E+02 -0.75498027258E+01 -0.18218736608E+03  0.19691861428E+03  0.00000000000E+00 0.  1.
         13    1    5    5    0    0  0.96821627705E+02  0.10695439598E+03  0.11210552836E+03  0.18270555520E+03  0.00000000000E+00 0. -1.
        -13    1    5    5    0    0  0.36201940495E+03  0.28341751947E+03  0.20506573858E+03  0.50342377481E+03  0.00000000000E+00 0.  1.
          2    1    6    6  503    0 -0.79173568373E+02 -0.10256455035E+03  0.68696105416E+02  0.14665297753E+03  0.00000000000E+00 0.  1.
         -2    1    6    6    0  503 -0.13795556316E+03 -0.12663496397E+03 -0.51789991602E+01  0.18733652484E+03  0.00000000000E+00 0. -1.
<mgrwt>
<rscale>  0 0.17985585E+04</rscale>
<asrwt>0</asrwt>
<pdfrwt beam="1">  1        2 0.17059934E+00 0.17985585E+04</pdfrwt>
<pdfrwt beam="2">  1       -1 0.11219799E+00 0.17985585E+04</pdfrwt>
<totfact> 0.16870292E+01</totfact>
</mgrwt>
</event>
<event>
12    7  0.1711607E-007  0.1809106E+04  0.7818608E-02  0.8701472E-01
          2   -1    0    0  501    0  0.00000000000E+00  0.00000000000E+00  0.11813021177E+04  0.11813021177E+04  0.00000000000E+00 0. -1.
         -1   -1    0    0    0  501 -0.00000000000E+00 -0.00000000000E+00 -0.69263928732E+03  0.69263928732E+03  0.00000000000E+00 0.  1.
         24    2    1    2    0    0 -0.26677755661E+03 -0.50635969637E+03  0.58143947667E+03  0.81964450216E+03  0.78580137938E+02 0.  0.
        254    2    1    2    0    0  0.26677755661E+03  0.50635969637E+03 -0.92776646269E+02  0.10542969029E+04  0.88054758332E+03 0.  0.
         23    2    4    4    0    0  0.79127106999E+02  0.72224495958E+03 -0.14306694577E+03  0.74611955596E+03  0.91254370381E+02 0.  0.
         23    2    4    4    0    0  0.18765044961E+03 -0.21588526321E+03  0.50290299500E+02  0.30817734691E+03  0.10307776102E+03 0.  0.
          2    1    3    3  502    0 -0.26963760679E+03 -0.47485894809E+03  0.55027807570E+03  0.77524281368E+03  0.00000000000E+00 0. -1.
         -3    1    3    3    0  502  0.28600501782E+01 -0.31500748286E+02  0.31161400969E+02  0.44401688481E+02  0.00000000000E+00 0.  1.
         13    1    5    5    0    0  0.51907785792E+02  0.14540479732E+03 -0.40294107282E+02  0.15956374397E+03  0.00000000000E+00 0. -1.
        -13    1    5    5    0    0  0.27219321207E+02  0.57684016226E+03 -0.10277283849E+03  0.58655581199E+03  0.00000000000E+00 0.  1.
          4    1    6    6  503    0  0.83474110054E+02 -0.15574159784E+03  0.62127613285E+02  0.18730513255E+03  0.00000000000E+00 0. -1.
         -4    1    6    6    0  503  0.10417633955E+03 -0.60143665370E+02 -0.11837313785E+02  0.12087221436E+03  0.00000000000E+00 0.  1.
<mgrwt>
<rscale>  0 0.18091061E+04</rscale>
<asrwt>0</asrwt>
<pdfrwt beam="1">  1        2 0.18173879E+00 0.18091061E+04</pdfrwt>
<pdfrwt beam="2">  1       -1 0.10655989E+00 0.18091061E+04</pdfrwt>
<totfact> 0.17199548E+01</totfact>
</mgrwt>
</event>
<event>
12    7  0.1711607E-007  0.1364163E+04  0.7818608E-02  0.8980175E-01
         -1   -1    0    0    0  501 -0.00000000000E+00  0.00000000000E+00  0.68731875016E+03  0.68731875016E+03  0.00000000000E+00 0.  1.
          2   -1    0    0  501    0  0.00000000000E+00 -0.00000000000E+00 -0.67688447836E+03  0.67688447836E+03  0.00000000000E+00 0. -1.
         24    2    1    2    0    0  0.51836023588E+02 -0.24043633474E+03  0.29104822697E+03  0.39108147690E+03  0.87971852011E+02 0.  0.
        254    2    1    2    0    0 -0.51836023588E+02  0.24043633474E+03 -0.28061395517E+03  0.97312175162E+03  0.89873530432E+03 0.  0.
         23    2    4    4    0    0  0.19275357701E+03  0.13756526324E+03  0.26046645961E+03  0.36389149160E+03  0.92174280452E+02 0.  0.
         23    2    4    4    0    0 -0.24458960060E+03  0.10287107149E+03 -0.54108041477E+03  0.60923026002E+03  0.89369818172E+02 0.  0.
          2    1    3    3  502    0  0.12467032959E+02  0.27544566440E+01  0.27499642136E+02  0.30319041209E+02  0.00000000000E+00 0. -1.
         -1    1    3    3    0  502  0.39368990628E+02 -0.24319079138E+03  0.26354858484E+03  0.36076243569E+03  0.00000000000E+00 0.  1.
         13    1    5    5    0    0  0.13454066805E+03  0.54961842285E+02  0.10839427849E+03  0.18130448167E+03  0.00000000000E+00 0. -1.
        -13    1    5    5    0    0  0.58212908965E+02  0.82603420958E+02  0.15207218112E+03  0.18258700993E+03  0.00000000000E+00 0.  1.
          1    1    6    6  503    0 -0.17363692802E+03  0.52571613102E+02 -0.27635512823E+03  0.33058389884E+03  0.00000000000E+00 0. -1.
         -1    1    6    6    0  503 -0.70952672581E+02  0.50299458391E+02 -0.26472528654E+03  0.27864636118E+03  0.00000000000E+00 0.  1.
<mgrwt>
<rscale>  0 0.13641633E+04</rscale>
<asrwt>0</asrwt>
<pdfrwt beam="1">  1        2 0.10413607E+00 0.13641633E+04</pdfrwt>
<pdfrwt beam="2">  1       -1 0.10574135E+00 0.13641633E+04</pdfrwt>
<totfact> 0.39923960E+01</totfact>
</mgrwt>
</event>
<event>
12    7  0.1711607E-007  0.2754462E+04  0.7818608E-02  0.8317547E-01
          2   -1    0    0  501    0  0.00000000000E+00  0.00000000000E+00  0.31779599691E+04  0.31779599691E+04  0.00000000000E+00 0. -1.
         -1   -1    0    0    0  501 -0.00000000000E+00 -0.00000000000E+00 -0.59685014066E+03  0.59685014066E+03  0.00000000000E+00 0.  1.
         24    2    1    2    0    0  0.10181881937E+04 -0.62875167656E+03  0.15507283804E+04  0.19603451916E+04  0.78478606192E+02 0.  0.
        254    2    1    2    0    0 -0.10181881937E+04  0.62875167656E+03  0.10303814480E+04  0.18144649182E+04  0.89362248308E+03 0.  0.
         23    2    4    4    0    0 -0.24059833779E+03  0.25730100353E+03  0.85649389751E+03  0.93074694172E+03  0.92826216579E+02 0.  0.
         23    2    4    4    0    0 -0.77758985593E+03  0.37145067303E+03  0.17388755048E+03  0.88371797644E+03  0.89994417206E+02 0.  0.
          4    1    3    3  502    0  0.96431087885E+03 -0.59311564504E+03  0.14931368680E+04  0.18738034438E+04  0.00000000000E+00 0. -1.
         -3    1    3    3    0  502  0.53877314878E+02 -0.35636031521E+02  0.57591512398E+02  0.86541747737E+02  0.00000000000E+00 0.  1.
         13    1    5    5    0    0  0.63990001117E+01  0.22029819028E+02  0.46318697443E+02  0.51688314556E+02  0.00000000000E+00 0. -1.
        -13    1    5    5    0    0 -0.24699733791E+03  0.23527118450E+03  0.81017520007E+03  0.87905862717E+03  0.00000000000E+00 0.  1.
          4    1    6    6  503    0 -0.14533244953E+03  0.45187263124E+02  0.57968807588E+02  0.16286126699E+03  0.00000000000E+00 0. -1.
         -4    1    6    6    0  503 -0.63225740640E+03  0.32626340991E+03  0.11591874289E+03  0.72085670944E+03  0.00000000000E+00 0.  1.
<mgrwt>
<rscale>  0 0.27544625E+04</rscale>
<asrwt>0</asrwt>
<pdfrwt beam="1">  1        2 0.48891691E+00 0.27544625E+04</pdfrwt>
<pdfrwt beam="2">  1       -1 0.91823100E-01 0.27544625E+04</pdfrwt>
<totfact> 0.15369438E+00</totfact>
</mgrwt>
</event>
<event>
12    7  0.1711607E-007  0.1485946E+04  0.7818608E-02  0.8893853E-01
         -1   -1    0    0    0  501 -0.00000000000E+00  0.00000000000E+00  0.32773858543E+03  0.32773858543E+03  0.00000000000E+00 0.  1.
          2   -1    0    0  501    0  0.00000000000E+00 -0.00000000000E+00 -0.16842969390E+04  0.16842969390E+04  0.00000000000E+00 0. -1.
         24    2    1    2    0    0  0.28040317323E+03  0.14226777413E+03 -0.90131236166E+03  0.95753595702E+03  0.75133724665E+02 0.  0.
        254    2    1    2    0    0 -0.28040317323E+03 -0.14226777413E+03 -0.45524599195E+03  0.10544995674E+04  0.89769391523E+03 0.  0.
         23    2    4    4    0    0  0.20848701401E+02 -0.37431648075E+03  0.80294252647E+02  0.39164469524E+03  0.79943130976E+02 0.  0.
         23    2    4    4    0    0 -0.30125187463E+03  0.23204870661E+03 -0.53554024460E+03  0.66285487221E+03  0.89296885844E+02 0.  0.
          4    1    3    3  502    0  0.21739996420E+03  0.14009766385E+03 -0.75995004615E+03  0.80275411708E+03  0.00000000000E+00 0. -1.
         -3    1    3    3    0  502  0.63003209030E+02  0.21701102869E+01 -0.14136231551E+03  0.15478183994E+03  0.00000000000E+00 0.  1.
         13    1    5    5    0    0  0.39394295333E+01 -0.30629213397E+03  0.93599299225E+02  0.32029864073E+03  0.00000000000E+00 0.  1.
        -13    1    5    5    0    0  0.16909271868E+02 -0.68024346778E+02 -0.13305046578E+02  0.71346054510E+02  0.00000000000E+00 0. -1.
          4    1    6    6  503    0 -0.66137891452E+02  0.26953791175E+02 -0.15574798601E+03  0.17134223849E+03  0.00000000000E+00 0. -1.
         -4    1    6    6    0  503 -0.23511398318E+03  0.20509491544E+03 -0.37979225859E+03  0.49151263372E+03  0.00000000000E+00 0.  1.
<mgrwt>
<rscale>  0 0.14859463E+04</rscale>
<asrwt>0</asrwt>
<pdfrwt beam="1">  1        2 0.25912261E+00 0.14859463E+04</pdfrwt>
<pdfrwt beam="2">  1       -1 0.50421320E-01 0.14859463E+04</pdfrwt>
<totfact> 0.43552088E+01</totfact>
</mgrwt>
</event>
<event>
12    7  0.1711607E-007  0.1196632E+04  0.7818608E-02  0.9115810E-01
          2   -1    0    0  501    0  0.00000000000E+00  0.00000000000E+00  0.68375293098E+03  0.68375293098E+03  0.00000000000E+00 0. -1.
         -1   -1    0    0    0  501 -0.00000000000E+00 -0.00000000000E+00 -0.52355447288E+03  0.52355447288E+03  0.00000000000E+00 0.  1.
         24    2    1    2    0    0  0.60373491549E+02 -0.13521314676E+03  0.25684786684E+03  0.30697755392E+03  0.79604260996E+02 0.  0.
        254    2    1    2    0    0 -0.60373491549E+02  0.13521314676E+03 -0.96649408750E+02  0.90032984994E+03  0.88279396065E+03 0.  0.
         23    2    4    4    0    0 -0.15440184692E+03  0.26692681063E+03  0.31435262400E+03  0.44955053266E+03  0.90488986285E+02 0.  0.
         23    2    4    4    0    0  0.94028355372E+02 -0.13171366387E+03 -0.41100203275E+03  0.45077931728E+03  0.89941653895E+02 0.  0.
          4    1    3    3  502    0  0.67184992582E+02 -0.14258059592E+03  0.24633606524E+03  0.29244573275E+03  0.00000000000E+00 0. -1.
         -3    1    3    3    0  502 -0.68115010338E+01  0.73674491693E+01  0.10511801601E+02  0.14531821170E+02  0.00000000000E+00 0.  1.
         13    1    5    5    0    0 -0.13306378293E+03  0.15089058180E+03  0.17219380328E+03  0.26481058115E+03  0.00000000000E+00 0. -1.
        -13    1    5    5    0    0 -0.21338063993E+02  0.11603622883E+03  0.14215882072E+03  0.18473995151E+03  0.00000000000E+00 0.  1.
          4    1    6    6  503    0  0.41784188454E+02 -0.38088164940E+02 -0.54596583185E+02  0.78596524152E+02  0.00000000000E+00 0. -1.
         -4    1    6    6    0  503  0.52244166918E+02 -0.93625498932E+02 -0.35640544956E+03  0.37218279313E+03  0.00000000000E+00 0.  1.
<mgrwt>
<rscale>  0 0.11966318E+04</rscale>
<asrwt>0</asrwt>
<pdfrwt beam="1">  1        2 0.10519276E+00 0.11966318E+04</pdfrwt>
<pdfrwt beam="2">  1       -1 0.80546842E-01 0.11966318E+04</pdfrwt>
<totfact> 0.73190808E+01</totfact>
</mgrwt>
</event>
<event>
12    7  0.1711607E-007  0.1954031E+04  0.7818608E-02  0.8628420E-01
         -1   -1    0    0    0  501 -0.00000000000E+00  0.00000000000E+00  0.13934509438E+04  0.13934509438E+04  0.00000000000E+00 0.  1.
          2   -1    0    0  501    0  0.00000000000E+00 -0.00000000000E+00 -0.68503241358E+03  0.68503241358E+03  0.00000000000E+00 0. -1.
         24    2    1    2    0    0 -0.94269233016E+02 -0.99499049733E+02  0.10778880729E+04  0.10895509432E+04  0.80571775600E+02 0.  0.
        254    2    1    2    0    0  0.94269233016E+02  0.99499049733E+02 -0.36946954269E+03  0.98893241414E+03  0.90702416040E+03 0.  0.
         23    2    4    4    0    0 -0.22888145189E+03 -0.15819112548E+03 -0.46965687267E+03  0.55312869216E+03  0.89233518598E+02 0.  0.
         23    2    4    4    0    0  0.32315068490E+03  0.25769017521E+03  0.10018732998E+03  0.43580372198E+03  0.95167176318E+02 0.  0.
          2    1    3    3  502    0 -0.11751849104E+02  0.19166617058E+01  0.33732124168E+03  0.33753133135E+03  0.00000000000E+00 0. -1.
         -1    1    3    3    0  502 -0.82517383912E+02 -0.10141571144E+03  0.74056683121E+03  0.75201961188E+03  0.00000000000E+00 0.  1.
         13    1    5    5    0    0 -0.16998694718E+03 -0.66143268848E+02 -0.27769320842E+03  0.33224089487E+03  0.00000000000E+00 0.  1.
        -13    1    5    5    0    0 -0.58894504710E+02 -0.92047856628E+02 -0.19196366425E+03  0.22088779728E+03  0.00000000000E+00 0. -1.
          1    1    6    6  503    0  0.58461669326E+02  0.99516111980E+02  0.19284080372E+02  0.11701751612E+03  0.00000000000E+00 0. -1.
         -1    1    6    6    0  503  0.26468901558E+03  0.15817406323E+03  0.80903249605E+02  0.31878620586E+03  0.00000000000E+00 0.  1.
<mgrwt>
<rscale>  0 0.19540308E+04</rscale>
<asrwt>0</asrwt>
<pdfrwt beam="1">  1        2 0.10538960E+00 0.19540308E+04</pdfrwt>
<pdfrwt beam="2">  1       -1 0.21437707E+00 0.19540308E+04</pdfrwt>
<totfact> 0.53820210E+00</totfact>
</mgrwt>
</event>
<event>
12    7  0.1711607E-007  0.1793486E+04  0.7818608E-02  0.8709771E-01
          2   -1    0    0  501    0  0.00000000000E+00  0.00000000000E+00  0.26643793784E+04  0.26643793784E+04  0.00000000000E+00 0. -1.
         -1   -1    0    0    0  501 -0.00000000000E+00 -0.00000000000E+00 -0.30181452053E+03  0.30181452053E+03  0.00000000000E+00 0.  1.
         24    2    1    2    0    0  0.49563730554E+03 -0.16338201840E+03  0.18991847390E+03  0.56076667641E+03  0.77718826953E+02 0.  0.
        254    2    1    2    0    0 -0.49563730554E+03  0.16338201840E+03  0.21726463840E+04  0.24054272225E+04  0.89069511645E+03 0.  0.
         23    2    4    4    0    0 -0.50740518395E+03  0.22166442837E+03  0.57298106767E+03  0.80198537283E+03  0.90984036121E+02 0.  0.
         23    2    4    4    0    0  0.11767878411E+02 -0.58282409974E+02  0.15996653163E+04  0.16034418497E+04  0.92527395186E+02 0.  0.
          2    1    3    3  502    0  0.40326994469E+03 -0.12870438629E+03  0.18503295363E+03  0.46198339934E+03  0.00000000000E+00 0. -1.
         -1    1    3    3    0  502  0.92367360855E+02 -0.34677632110E+02  0.48855202671E+01  0.98783277068E+02  0.00000000000E+00 0.  1.
         13    1    5    5    0    0 -0.11188085843E+03  0.66290472784E+02  0.18791529630E+03  0.22852551684E+03  0.00000000000E+00 0.  1.
        -13    1    5    5    0    0 -0.39552432552E+03  0.15537395559E+03  0.38506577137E+03  0.57345985599E+03  0.00000000000E+00 0. -1.
          3    1    6    6  503    0  0.53720856636E+01 -0.83650122752E+02  0.12166649407E+04  0.12195490069E+04  0.00000000000E+00 0. -1.
         -3    1    6    6    0  503  0.63957927477E+01  0.25367712778E+02  0.38300037559E+03  0.38389284276E+03  0.00000000000E+00 0.  1.
<mgrwt>
<rscale>  0 0.17934864E+04</rscale>
<asrwt>0</asrwt>
<pdfrwt beam="1">  1        2 0.40990450E+00 0.17934864E+04</pdfrwt>
<pdfrwt beam="2">  1       -1 0.46433005E-01 0.17934864E+04</pdfrwt>
<totfact> 0.13873451E+01</totfact>
</mgrwt>
</event>
<event>
12    7  0.1711607E-007  0.2162490E+04  0.7818608E-02  0.8534205E-01
          2   -1    0    0  501    0  0.00000000000E+00  0.00000000000E+00  0.35175827561E+03  0.35175827561E+03  0.00000000000E+00 0. -1.
         -1   -1    0    0    0  501 -0.00000000000E+00 -0.00000000000E+00 -0.33235615058E+04  0.33235615058E+04  0.00000000000E+00 0.  1.
         24    2    1    2    0    0  0.25604150979E+03 -0.88920423704E+03 -0.13052681581E+04  0.16022002790E+04  0.84138811344E+02 0.  0.
        254    2    1    2    0    0 -0.25604150979E+03  0.88920423704E+03 -0.16665350721E+04  0.20731195024E+04  0.81501159184E+03 0.  0.
         23    2    4    4    0    0  0.67932376303E+02  0.81862832713E+03 -0.84230552278E+03  0.11800529159E+04  0.90989806846E+02 0.  0.
         23    2    4    4    0    0 -0.32397388609E+03  0.70575909905E+02 -0.82422954929E+03  0.89306658646E+03  0.90959001762E+02 0.  0.
          2    1    3    3  502    0  0.21677974140E+03 -0.80254969255E+03 -0.12054844170E+04  0.14643333448E+04  0.00000000000E+00 0. -1.
         -1    1    3    3    0  502  0.39261768392E+02 -0.86654544487E+02 -0.99783741160E+02  0.13786693417E+03  0.00000000000E+00 0.  1.
         13    1    5    5    0    0  0.23164587110E+02  0.68289315206E+03 -0.68538022665E+03  0.96779424999E+03  0.00000000000E+00 0.  1.
        -13    1    5    5    0    0  0.44767789193E+02  0.13573517507E+03 -0.15692529613E+03  0.21225866594E+03  0.00000000000E+00 0. -1.
          2    1    6    6  503    0 -0.23202285264E+03  0.90300739233E+02 -0.62462563054E+03  0.67241802919E+03  0.00000000000E+00 0. -1.
         -2    1    6    6    0  503 -0.91951033456E+02 -0.19724829328E+02 -0.19960391875E+03  0.22064855727E+03  0.00000000000E+00 0.  1.
<mgrwt>
<rscale>  0 0.21624896E+04</rscale>
<asrwt>0</asrwt>
<pdfrwt beam="1">  1        2 0.54116659E-01 0.21624896E+04</pdfrwt>
<pdfrwt beam="2">  1       -1 0.51131715E+00 0.21624896E+04</pdfrwt>
<totfact> 0.12080522E-01</totfact>
</mgrwt>
</event>
<event>
12    7  0.1711607E-007  0.1553403E+04  0.7818608E-02  0.8849697E-01
          2   -1    0    0  501    0  0.00000000000E+00  0.00000000000E+00  0.49725140158E+03  0.49725140158E+03  0.00000000000E+00 0. -1.
         -1   -1    0    0    0  501 -0.00000000000E+00 -0.00000000000E+00 -0.12131994564E+04  0.12131994564E+04  0.00000000000E+00 0.  1.
         24    2    1    2    0    0 -0.12327863894E+03  0.36040588647E+03  0.95426504174E+02  0.40033567611E+03  0.77925670043E+02 0.  0.
        254    2    1    2    0    0  0.12327863894E+03 -0.36040588647E+03 -0.81137455901E+03  0.13101151819E+04  0.95550148559E+03 0.  0.
         23    2    4    4    0    0  0.40471391621E+03  0.14729742587E+03 -0.32593096364E+03  0.54789435297E+03  0.92018168384E+02 0.  0.
         23    2    4    4    0    0 -0.28143527727E+03 -0.50770331234E+03 -0.48544359537E+03  0.76222082892E+03  0.91414654706E+02 0.  0.
          4    1    3    3  502    0 -0.92487605244E+02  0.31386903405E+03  0.10515339145E+03  0.34369312386E+03  0.00000000000E+00 0. -1.
         -3    1    3    3    0  502 -0.30791033695E+02  0.46536852420E+02 -0.97268872794E+01  0.56642552250E+02  0.00000000000E+00 0.  1.
         13    1    5    5    0    0  0.22410624153E+03  0.74983907983E+02 -0.12162906331E+03  0.26578153245E+03  0.00000000000E+00 0.  1.
        -13    1    5    5    0    0  0.18060767468E+03  0.72313517887E+02 -0.20430190033E+03  0.28211282051E+03  0.00000000000E+00 0. -1.
          1    1    6    6  503    0 -0.27042958727E+03 -0.46625902853E+03 -0.41712188523E+03  0.68155726868E+03  0.00000000000E+00 0.  1.
         -1    1    6    6    0  503 -0.11005690000E+02 -0.41444283809E+02 -0.68321710144E+02  0.80663560235E+02  0.00000000000E+00 0. -1.
<mgrwt>
<rscale>  0 0.15534029E+04</rscale>
<asrwt>0</asrwt>
<pdfrwt beam="1">  1        2 0.76500216E-01 0.15534029E+04</pdfrwt>
<pdfrwt beam="2">  1       -1 0.18664607E+00 0.15534029E+04</pdfrwt>
<totfact> 0.12720104E+01</totfact>
</mgrwt>
</event>
<event>
12    7  0.1711607E-007  0.1626555E+04  0.7818608E-02  0.8804398E-01
         -1   -1    0    0    0  501 -0.00000000000E+00  0.00000000000E+00  0.28711588383E+03  0.28711588383E+03  0.00000000000E+00 0.  1.
          2   -1    0    0  501    0  0.00000000000E+00 -0.00000000000E+00 -0.23036693906E+04  0.23036693906E+04  0.00000000000E+00 0. -1.
         24    2    1    2    0    0  0.54842553027E+03  0.17960104238E+03 -0.62736245222E+03  0.85611092951E+03  0.79468109962E+02 0.  0.
        254    2    1    2    0    0 -0.54842553027E+03 -0.17960104238E+03 -0.13891910545E+04  0.17346743449E+04  0.86383806365E+03 0.  0.
         23    2    4    4    0    0 -0.59132076665E+03  0.97697236091E+02 -0.12895944484E+04  0.14250066944E+04  0.91570949673E+02 0.  0.
         23    2    4    4    0    0  0.42895236376E+02 -0.27729827847E+03 -0.99596606141E+02  0.30966765048E+03  0.85089560200E+02 0.  0.
          2    1    3    3  502    0  0.53184679566E+03  0.18505938363E+03 -0.61878933792E+03  0.83666494742E+03  0.00000000000E+00 0. -1.
         -1    1    3    3    0  502  0.16578734617E+02 -0.54583412553E+01 -0.85731142986E+01  0.19445982093E+02  0.00000000000E+00 0.  1.
         13    1    5    5    0    0 -0.23762795997E+03  0.70249827598E+02 -0.60953921901E+03  0.65798187296E+03  0.00000000000E+00 0.  1.
        -13    1    5    5    0    0 -0.35369280668E+03  0.27447408493E+02 -0.68005522939E+03  0.76702482147E+03  0.00000000000E+00 0. -1.
          2    1    6    6  503    0  0.33728885238E+02 -0.28122596274E+03 -0.96113325711E+02  0.29910441521E+03  0.00000000000E+00 0. -1.
         -2    1    6    6    0  503  0.91663511383E+01  0.39276842699E+01 -0.34832804297E+01  0.10563235275E+02  0.00000000000E+00 0.  1.
<mgrwt>
<rscale>  0 0.16265547E+04</rscale>
<asrwt>0</asrwt>
<pdfrwt beam="1">  1        2 0.35441068E+00 0.16265547E+04</pdfrwt>
<pdfrwt beam="2">  1       -1 0.44171674E-01 0.16265547E+04</pdfrwt>
<totfact> 0.24959294E+01</totfact>
</mgrwt>
</event>
<event>
12    7  0.1711607E-007  0.2162960E+04  0.7818608E-02  0.8534005E-01
          2   -1    0    0  501    0  0.00000000000E+00  0.00000000000E+00  0.27680506148E+04  0.27680506148E+04  0.00000000000E+00 0. -1.
         -1   -1    0    0    0  501 -0.00000000000E+00 -0.00000000000E+00 -0.42253519707E+03  0.42253519707E+03  0.00000000000E+00 0.  1.
         24    2    1    2    0    0 -0.35730412003E+03 -0.28130526994E+03  0.20999719387E+04  0.21501039857E+04  0.79158809289E+02 0.  0.
        254    2    1    2    0    0  0.35730412003E+03  0.28130526994E+03  0.24554347908E+03  0.10404818262E+04  0.90305699787E+03 0.  0.
         23    2    4    4    0    0 -0.37839338604E+02  0.21660636730E+03 -0.28349874618E+03  0.37041630452E+03  0.92122557875E+02 0.  0.
         23    2    4    4    0    0  0.39514345864E+03  0.64698902639E+02  0.52904222526E+03  0.67006552166E+03  0.93690054465E+02 0.  0.
          2    1    3    3  502    0 -0.25692091612E+03 -0.16152470474E+03  0.14741223841E+04  0.15050366742E+04  0.00000000000E+00 0. -1.
         -1    1    3    3    0  502 -0.10038320391E+03 -0.11978056520E+03  0.62584955457E+03  0.64506731151E+03  0.00000000000E+00 0.  1.
         13    1    5    5    0    0  0.14806565884E+02  0.10256670518E+03 -0.78531235118E+02  0.13002429886E+03  0.00000000000E+00 0.  1.
        -13    1    5    5    0    0 -0.52645904488E+02  0.11403966212E+03 -0.20496751106E+03  0.24039200566E+03  0.00000000000E+00 0. -1.
          4    1    6    6  503    0  0.28505291400E+03  0.86286253559E+02  0.40647242436E+03  0.50390506357E+03  0.00000000000E+00 0. -1.
         -4    1    6    6    0  503  0.11009054464E+03 -0.21587350920E+02  0.12256980090E+03  0.16616045808E+03  0.00000000000E+00 0.  1.
<mgrwt>
<rscale>  0 0.21629598E+04</rscale>
<asrwt>0</asrwt>
<pdfrwt beam="1">  1        2 0.42585393E+00 0.21629598E+04</pdfrwt>
<pdfrwt beam="2">  1       -1 0.65005417E-01 0.21629598E+04</pdfrwt>
<totfact> 0.60558011E+00</totfact>
</mgrwt>
</event>
<event>
12    7  0.1711607E-007  0.3563789E+04  0.7818608E-02  0.8098837E-01
         -1   -1    0    0    0  501 -0.00000000000E+00  0.00000000000E+00  0.11543222712E+04  0.11543222712E+04  0.00000000000E+00 0.  1.
          2   -1    0    0  501    0  0.00000000000E+00 -0.00000000000E+00 -0.27506594664E+04  0.27506594664E+04  0.00000000000E+00 0. -1.
         24    2    1    2    0    0  0.37874678876E+03  0.38511652380E+03  0.98203692914E+03  0.11235714963E+04  0.79072816242E+02 0.  0.
        254    2    1    2    0    0 -0.37874678876E+03 -0.38511652380E+03 -0.25783741243E+04  0.27814102413E+04  0.89244940391E+03 0.  0.
         23    2    4    4    0    0 -0.22524341392E+03  0.13681860613E+03 -0.18290685125E+04  0.18501980286E+04  0.91034033234E+02 0.  0.
         23    2    4    4    0    0 -0.15350337484E+03 -0.52193512993E+03 -0.74930561176E+03  0.93121221262E+03  0.98578492467E+02 0.  0.
          4    1    3    3  502    0  0.59651475297E+02  0.27649513008E+02  0.14192627008E+03  0.15641566486E+03  0.00000000000E+00 0. -1.
         -3    1    3    3    0  502  0.31909531347E+03  0.35746701079E+03  0.84011065906E+03  0.96715583147E+03  0.00000000000E+00 0.  1.
         13    1    5    5    0    0 -0.12617617604E+03  0.25287987308E+02 -0.92404727579E+03  0.93296477832E+03  0.00000000000E+00 0. -1.
        -13    1    5    5    0    0 -0.99067237880E+02  0.11153061882E+03 -0.90502123673E+03  0.91723325031E+03  0.00000000000E+00 0.  1.
          1    1    6    6  503    0 -0.28898000615E+02 -0.21152129972E+03 -0.23289548038E+03  0.31593774617E+03  0.00000000000E+00 0. -1.
         -1    1    6    6    0  503 -0.12460537423E+03 -0.31041383021E+03 -0.51641013138E+03  0.61527446645E+03  0.00000000000E+00 0.  1.
<mgrwt>
<rscale>  0 0.35637887E+04</rscale>
<asrwt>0</asrwt>
<pdfrwt beam="1">  1        2 0.42317838E+00 0.35637887E+04</pdfrwt>
<pdfrwt beam="2">  1       -1 0.17758804E+00 0.35637887E+04</pdfrwt>
<totfact> 0.49795828E-01</totfact>
</mgrwt>
</event>
<event>
12    7  0.1711607E-007  0.2721557E+04  0.7818608E-02  0.8328044E-01
         -1   -1    0    0    0  501 -0.00000000000E+00  0.00000000000E+00  0.53187334167E+03  0.53187334167E+03  0.00000000000E+00 0.  1.
          2   -1    0    0  501    0  0.00000000000E+00 -0.00000000000E+00 -0.34815021053E+04  0.34815021053E+04  0.00000000000E+00 0. -1.
         24    2    1    2    0    0 -0.29828426627E+03  0.39384053471E+03  0.31599487800E+03  0.59178255337E+03  0.79183061696E+02 0.  0.
        254    2    1    2    0    0  0.29828426627E+03 -0.39384053471E+03 -0.32656236416E+04  0.34215928936E+04  0.89382117364E+03 0.  0.
         23    2    4    4    0    0 -0.24097384901E+03 -0.39776725967E+03 -0.15433426951E+04  0.16145894478E+04  0.93301778033E+02 0.  0.
         23    2    4    4    0    0  0.53925811528E+03  0.39267249602E+01 -0.17222809465E+04  0.18070034458E+04  0.90526571424E+02 0.  0.
          4    1    3    3  502    0 -0.25457356905E+03  0.28090977983E+03  0.23308848389E+03  0.44502612034E+03  0.00000000000E+00 0. -1.
         -1    1    3    3    0  502 -0.43710697214E+02  0.11293075488E+03  0.82906394112E+02  0.14675643302E+03  0.00000000000E+00 0.  1.
         13    1    5    5    0    0 -0.20770157839E+03 -0.38321363452E+03 -0.13775360977E+04  0.14448523578E+04  0.00000000000E+00 0.  1.
        -13    1    5    5    0    0 -0.33272270620E+02 -0.14553625157E+02 -0.16580659739E+03  0.16973709004E+03  0.00000000000E+00 0. -1.
          1    1    6    6  503    0  0.99521377013E+02  0.25285543949E+02 -0.41781325613E+03  0.43024618559E+03  0.00000000000E+00 0. -1.
         -1    1    6    6    0  503  0.43973673826E+03 -0.21358818988E+02 -0.13044676904E+04  0.13767572602E+04  0.00000000000E+00 0.  1.
<mgrwt>
<rscale>  0 0.27215570E+04</rscale>
<asrwt>0</asrwt>
<pdfrwt beam="1">  1        2 0.53561569E+00 0.27215570E+04</pdfrwt>
<pdfrwt beam="2">  1       -1 0.81826670E-01 0.27215570E+04</pdfrwt>
<totfact> 0.12393405E+00</totfact>
</mgrwt>
</event>
<event>
12    7  0.1711607E-007  0.1540318E+04  0.7818608E-02  0.8858076E-01
          2   -1    0    0  501    0  0.00000000000E+00  0.00000000000E+00  0.10292931229E+04  0.10292931229E+04  0.00000000000E+00 0. -1.
         -1   -1    0    0    0  501 -0.00000000000E+00 -0.00000000000E+00 -0.57626466984E+03  0.57626466984E+03  0.00000000000E+00 0.  1.
         24    2    1    2    0    0 -0.15414753607E+03 -0.14482255190E+03  0.61495253674E+03  0.65521724789E+03  0.80049891155E+02 0.  0.
        254    2    1    2    0    0  0.15414753607E+03  0.14482255190E+03 -0.16192408369E+03  0.95034054483E+03  0.91224596895E+03 0.  0.
         23    2    4    4    0    0  0.36400128134E+03  0.12999650201E+03  0.25667072405E+03  0.47301272880E+03  0.92006291476E+02 0.  0.
         23    2    4    4    0    0 -0.20985374527E+03  0.14826049897E+02 -0.41859480775E+03  0.47732781603E+03  0.91443013537E+02 0.  0.
          4    1    3    3  502    0 -0.12535298147E+03 -0.12278035966E+03  0.39395468749E+03  0.43126405192E+03  0.00000000000E+00 0. -1.
         -3    1    3    3    0  502 -0.28794554605E+02 -0.22042192243E+02  0.22099784924E+03  0.22395319597E+03  0.00000000000E+00 0.  1.
         13    1    5    5    0    0  0.36334604623E+03  0.13813090922E+03  0.24792152704E+03  0.46104834992E+03  0.00000000000E+00 0.  1.
        -13    1    5    5    0    0  0.65523511249E+00 -0.81344072114E+01  0.87491970132E+01  0.11964378885E+02  0.00000000000E+00 0. -1.
          2    1    6    6  503    0  0.62164880788E+01 -0.78924223049E+01 -0.81852489161E+01  0.12958910205E+02  0.00000000000E+00 0. -1.
         -2    1    6    6    0  503 -0.21607023335E+03  0.22718472202E+02 -0.41040955883E+03  0.46436890583E+03  0.00000000000E+00 0.  1.
<mgrwt>
<rscale>  0 0.15403185E+04</rscale>
<asrwt>0</asrwt>
<pdfrwt beam="1">  1        2 0.15835279E+00 0.15403185E+04</pdfrwt>
<pdfrwt beam="2">  1       -1 0.88656104E-01 0.15403185E+04</pdfrwt>
<totfact> 0.33112298E+01</totfact>
</mgrwt>
</event>
<event>
12    7  0.1711607E-007  0.1661944E+04  0.7818608E-02  0.8783372E-01
         -1   -1    0    0    0  501 -0.00000000000E+00  0.00000000000E+00  0.39316747356E+03  0.39316747356E+03  0.00000000000E+00 0.  1.
          2   -1    0    0  501    0  0.00000000000E+00 -0.00000000000E+00 -0.17562866816E+04  0.17562866816E+04  0.00000000000E+00 0. -1.
         24    2    1    2    0    0 -0.16757144523E+02  0.15886877403E+03 -0.12140822189E+04  0.12272022188E+04  0.80681858657E+02 0.  0.
        254    2    1    2    0    0  0.16757144523E+02 -0.15886877403E+03 -0.14903698913E+03  0.92225193636E+03  0.89600029059E+03 0.  0.
         23    2    4    4    0    0 -0.12965350654E+03 -0.50166740407E+03 -0.79340219756E+02  0.53225890108E+03  0.92327954843E+02 0.  0.
         23    2    4    4    0    0  0.14641065106E+03  0.34279863004E+03 -0.69696769371E+02  0.38999303527E+03  0.91049153775E+02 0.  0.
          2    1    3    3  502    0 -0.46463832105E+02  0.84305665119E+02 -0.76121151974E+03  0.76727394759E+03  0.00000000000E+00 0. -1.
         -1    1    3    3    0  502  0.29706687583E+02  0.74563108916E+02 -0.45287069913E+03  0.45992827118E+03  0.00000000000E+00 0.  1.
         13    1    5    5    0    0 -0.12693468838E+03 -0.33101631997E+03 -0.37239199119E+02  0.35647016306E+03  0.00000000000E+00 0. -1.
        -13    1    5    5    0    0 -0.27188181584E+01 -0.17065108410E+03 -0.42101020637E+02  0.17578873802E+03  0.00000000000E+00 0.  1.
          2    1    6    6  503    0  0.10404063375E+03  0.13815993429E+03 -0.12898403140E+02  0.17343295453E+03  0.00000000000E+00 0. -1.
         -2    1    6    6    0  503  0.42370017306E+02  0.20463869575E+03 -0.56798366231E+02  0.21656008074E+03  0.00000000000E+00 0.  1.
<mgrwt>
<rscale>  0 0.16619444E+04</rscale>
<asrwt>0</asrwt>
<pdfrwt beam="1">  1        2 0.27019796E+00 0.16619444E+04</pdfrwt>
<pdfrwt beam="2">  1       -1 0.60487302E-01 0.16619444E+04</pdfrwt>
<totfact> 0.27494798E+01</totfact>
</mgrwt>
</event>
<event>
12    7  0.1711607E-007  0.1655539E+04  0.7818608E-02  0.8787136E-01
         -1   -1    0    0    0  501 -0.00000000000E+00  0.00000000000E+00  0.59098238904E+03  0.59098238904E+03  0.00000000000E+00 0.  1.
          2   -1    0    0  501    0  0.00000000000E+00 -0.00000000000E+00 -0.11594293795E+04  0.11594293795E+04  0.00000000000E+00 0. -1.
         24    2    1    2    0    0  0.36008880366E+03  0.35824917992E+03  0.14370221508E+03  0.53390706998E+03  0.80000070767E+02 0.  0.
        254    2    1    2    0    0 -0.36008880366E+03 -0.35824917992E+03 -0.71214920550E+03  0.12165046985E+04  0.84541159748E+03 0.  0.
         23    2    4    4    0    0 -0.52417517075E+03  0.41193332673E+02 -0.47914844002E+03  0.71717654590E+03  0.91117891361E+02 0.  0.
         23    2    4    4    0    0  0.16408636709E+03 -0.39944251259E+03 -0.23300076548E+03  0.49932815261E+03  0.92523459419E+02 0.  0.
          2    1    3    3  502    0  0.26921535761E+03  0.27045741490E+03  0.14308746377E+03  0.40755140085E+03  0.00000000000E+00 0. -1.
         -3    1    3    3    0  502  0.90873446054E+02  0.87791765023E+02  0.61475131173E+00  0.12635566914E+03  0.00000000000E+00 0.  1.
         13    1    5    5    0    0 -0.59840146137E+02 -0.19437954918E+02 -0.80662497083E+02  0.10229914768E+03  0.00000000000E+00 0. -1.
        -13    1    5    5    0    0 -0.46433502461E+03  0.60631287592E+02 -0.39848594294E+03  0.61487739821E+03  0.00000000000E+00 0.  1.
          4    1    6    6  503    0  0.98523149009E+02 -0.20512493472E+03 -0.72246233372E+02  0.23875210569E+03  0.00000000000E+00 0. -1.
         -4    1    6    6    0  503  0.65563218076E+02 -0.19431757788E+03 -0.16075453211E+03  0.26057604692E+03  0.00000000000E+00 0.  1.
<mgrwt>
<rscale>  0 0.16555390E+04</rscale>
<asrwt>0</asrwt>
<pdfrwt beam="1">  1        2 0.17837375E+00 0.16555390E+04</pdfrwt>
<pdfrwt beam="2">  1       -1 0.90920368E-01 0.16555390E+04</pdfrwt>
<totfact> 0.25771708E+01</totfact>
</mgrwt>
</event>
<event>
12    7  0.1711607E-007  0.2804097E+04  0.7818608E-02  0.8301998E-01
         -1   -1    0    0    0  501 -0.00000000000E+00  0.00000000000E+00  0.11629594407E+04  0.11629594407E+04  0.00000000000E+00 0.  1.
          2   -1    0    0  501    0  0.00000000000E+00 -0.00000000000E+00 -0.16902911960E+04  0.16902911960E+04  0.00000000000E+00 0. -1.
         24    2    1    2    0    0 -0.88834804724E+03  0.62455041549E+03 -0.88806339395E+03  0.14050640640E+04  0.79517027928E+02 0.  0.
        254    2    1    2    0    0  0.88834804724E+03 -0.62455041549E+03  0.36073163867E+03  0.14481865726E+04  0.88763255885E+03 0.  0.
         23    2    4    4    0    0  0.26431231278E+03 -0.57609808195E+03 -0.12287929601E+03  0.65192302806E+03  0.90301242580E+02 0.  0.
         23    2    4    4    0    0  0.62403573446E+03 -0.48452333536E+02  0.48361093468E+03  0.79626354458E+03  0.91585314245E+02 0.  0.
          4    1    3    3  502    0 -0.87073255023E+03  0.62218598460E+03 -0.88008065205E+03  0.13855802133E+04  0.00000000000E+00 0. -1.
         -3    1    3    3    0  502 -0.17615497011E+02  0.23644308851E+01 -0.79827419007E+01  0.19483850662E+02  0.00000000000E+00 0.  1.
         13    1    5    5    0    0  0.13128450503E+03 -0.20132154934E+03 -0.72602539734E+02  0.25107193445E+03  0.00000000000E+00 0. -1.
        -13    1    5    5    0    0  0.13302780775E+03 -0.37477653261E+03 -0.50276756274E+02  0.40085109362E+03  0.00000000000E+00 0.  1.
          4    1    6    6  503    0  0.33183179758E+03 -0.38781937315E+02  0.31274838185E+03  0.45763296527E+03  0.00000000000E+00 0. -1.
         -4    1    6    6    0  503  0.29220393688E+03 -0.96703962204E+01  0.17086255282E+03  0.33863057932E+03  0.00000000000E+00 0.  1.
<mgrwt>
<rscale>  0 0.28040971E+04</rscale>
<asrwt>0</asrwt>
<pdfrwt beam="1">  1        2 0.26004480E+00 0.28040971E+04</pdfrwt>
<pdfrwt beam="2">  1       -1 0.17891684E+00 0.28040971E+04</pdfrwt>
<totfact> 0.20833851E+00</totfact>
</mgrwt>
</event>
<event>
12    7  0.1711607E-007  0.2537885E+04  0.7818608E-02  0.8389612E-01
          4   -1    0    0  501    0  0.00000000000E+00  0.00000000000E+00  0.75643814657E+03  0.75643814657E+03  0.00000000000E+00 0. -1.
         -3   -1    0    0    0  501 -0.00000000000E+00 -0.00000000000E+00 -0.21286800900E+04  0.21286800900E+04  0.00000000000E+00 0.  1.
         24    2    1    2    0    0 -0.93856682231E+03 -0.51156812888E+03 -0.24666157402E+03  0.11000554592E+04  0.81672827089E+02 0.  0.
        254    2    1    2    0    0  0.93856682231E+03  0.51156812888E+03 -0.11255803695E+04  0.17850627775E+04  0.88142403018E+03 0.  0.
         23    2    4    4    0    0  0.10788401508E+04  0.32013722963E+03 -0.90934057135E+03  0.14494160849E+04  0.86734050770E+02 0.  0.
         23    2    4    4    0    0 -0.14027332851E+03  0.19143089925E+03 -0.21623979811E+03  0.33564669260E+03  0.97860390830E+02 0.  0.
          2    1    3    3  502    0 -0.73367911469E+02 -0.55656863363E+02 -0.40449331990E+02  0.10058173458E+03  0.00000000000E+00 0. -1.
         -1    1    3    3    0  502 -0.86519891084E+03 -0.45591126552E+03 -0.20621224203E+03  0.99947372457E+03  0.00000000000E+00 0.  1.
         13    1    5    5    0    0  0.32057977002E+01  0.72447370477E+01 -0.30284380289E+01  0.84814380078E+01  0.00000000000E+00 0. -1.
        -13    1    5    5    0    0  0.10756343531E+04  0.31289249258E+03 -0.90631213332E+03  0.14409346469E+04  0.00000000000E+00 0.  1.
          3    1    6    6  503    0 -0.59227386474E+01  0.70040926281E+02 -0.31690274428E+02  0.77104368752E+02  0.00000000000E+00 0. -1.
         -3    1    6    6    0  503 -0.13435058986E+03  0.12138997297E+03 -0.18454952368E+03  0.25854232385E+03  0.00000000000E+00 0.  1.
<mgrwt>
<rscale>  0 0.25378848E+04</rscale>
<asrwt>0</asrwt>
<pdfrwt beam="1">  1        4 0.11637510E+00 0.25378848E+04</pdfrwt>
<pdfrwt beam="2">  1       -3 0.32748924E+00 0.25378848E+04</pdfrwt>
<totfact> 0.30963794E-02</totfact>
</mgrwt>
</event>
<event>
12    7  0.1711607E-007  0.1802302E+04  0.7818608E-02  0.8705076E-01
         -1   -1    0    0    0  501 -0.00000000000E+00  0.00000000000E+00  0.92539137656E+03  0.92539137656E+03  0.00000000000E+00 0.  1.
          2   -1    0    0  501    0  0.00000000000E+00 -0.00000000000E+00 -0.87754573510E+03  0.87754573510E+03  0.00000000000E+00 0. -1.
         24    2    1    2    0    0  0.33371972663E+03 -0.31106591336E+03  0.56097241293E+03  0.72754771482E+03  0.80652159758E+02 0.  0.
        254    2    1    2    0    0 -0.33371972663E+03  0.31106591336E+03 -0.51312677146E+03  0.10753893968E+04  0.82766684895E+03 0.  0.
         23    2    4    4    0    0  0.64092041635E+02  0.27047928503E+03 -0.58946500939E+03  0.65817229895E+03  0.91950771445E+02 0.  0.
         23    2    4    4    0    0 -0.39781176827E+03  0.40586628331E+02  0.76338237933E+02  0.41721709789E+03  0.91329638297E+02 0.  0.
          4    1    3    3  502    0  0.43285394879E+02 -0.10898658682E+02  0.41117285443E+02  0.60688032866E+02  0.00000000000E+00 0. -1.
         -3    1    3    3    0  502  0.29043433175E+03 -0.30016725468E+03  0.51985512748E+03  0.66685968195E+03  0.00000000000E+00 0.  1.
         13    1    5    5    0    0  0.68288163089E+01  0.70519325250E+02 -0.25187507392E+03  0.26164988215E+03  0.00000000000E+00 0. -1.
        -13    1    5    5    0    0  0.57263225326E+02  0.19995995978E+03 -0.33758993547E+03  0.39652241680E+03  0.00000000000E+00 0.  1.
          1    1    6    6  503    0 -0.31253126904E+02  0.14408267515E+01 -0.18793721682E+02  0.36497094373E+02  0.00000000000E+00 0. -1.
         -1    1    6    6    0  503 -0.36655864136E+03  0.39145801579E+02  0.95131959615E+02  0.38072000352E+03  0.00000000000E+00 0.  1.
<mgrwt>
<rscale>  0 0.18023021E+04</rscale>
<asrwt>0</asrwt>
<pdfrwt beam="1">  1        2 0.13500704E+00 0.18023021E+04</pdfrwt>
<pdfrwt beam="2">  1       -1 0.14236790E+00 0.18023021E+04</pdfrwt>
<totfact> 0.13124361E+01</totfact>
</mgrwt>
</event>
<event>
12    7  0.1711607E-007  0.3504357E+04  0.7818608E-02  0.8112758E-01
         -1   -1    0    0    0  501 -0.00000000000E+00  0.00000000000E+00  0.12987552763E+04  0.12987552763E+04  0.00000000000E+00 0.  1.
          2   -1    0    0  501    0  0.00000000000E+00 -0.00000000000E+00 -0.23639009848E+04  0.23639009848E+04  0.00000000000E+00 0. -1.
         24    2    1    2    0    0  0.48092479849E+03  0.38848012879E+03  0.10958121372E+04  0.12607553160E+04  0.80586938307E+02 0.  0.
        254    2    1    2    0    0 -0.48092479849E+03 -0.38848012879E+03 -0.21609578457E+04  0.24019009451E+04  0.84686708910E+03 0.  0.
         23    2    4    4    0    0 -0.25332947651E+03 -0.37237000601E+03 -0.35777253152E+03  0.58223985730E+03  0.90370471250E+02 0.  0.
         23    2    4    4    0    0 -0.22759532199E+03 -0.16110122777E+02 -0.18031853142E+04  0.18196610877E+04  0.87350044539E+02 0.  0.
          2    1    3    3  502    0  0.42168443847E+02  0.64220770391E+02  0.11248035622E+03  0.13621422665E+03  0.00000000000E+00 0. -1.
         -1    1    3    3    0  502  0.43875635465E+03  0.32425935840E+03  0.98333178098E+03  0.11245410894E+04  0.00000000000E+00 0.  1.
         13    1    5    5    0    0 -0.17460594183E+03 -0.21485065436E+03 -0.17033068345E+03  0.32505473435E+03  0.00000000000E+00 0. -1.
        -13    1    5    5    0    0 -0.78723534677E+02 -0.15751935166E+03 -0.18744184807E+03  0.25718512295E+03  0.00000000000E+00 0.  1.
          1    1    6    6  503    0 -0.15020468344E+03 -0.38015779327E+02 -0.13987687628E+04  0.14073239493E+04  0.00000000000E+00 0. -1.
         -1    1    6    6    0  503 -0.77390638544E+02  0.21905656550E+02 -0.40441655137E+03  0.41233713845E+03  0.00000000000E+00 0.  1.
<mgrwt>
<rscale>  0 0.35043566E+04</rscale>
<asrwt>0</asrwt>
<pdfrwt beam="1">  1        2 0.36367707E+00 0.35043566E+04</pdfrwt>
<pdfrwt beam="2">  1       -1 0.19980851E+00 0.35043566E+04</pdfrwt>
<totfact> 0.58763437E-01</totfact>
</mgrwt>
</event>
<event>
12    7  0.1711607E-007  0.3996080E+04  0.7818608E-02  0.8005338E-01
          2   -1    0    0  501    0  0.00000000000E+00  0.00000000000E+00  0.46033597559E+04  0.46033597559E+04  0.00000000000E+00 0. -1.
         -1   -1    0    0    0  501 -0.00000000000E+00 -0.00000000000E+00 -0.86722810333E+03  0.86722810333E+03  0.00000000000E+00 0.  1.
         24    2    1    2    0    0  0.60050533035E+03 -0.60173228313E+03 -0.54564831960E+03  0.10132591037E+04  0.79205619903E+02 0.  0.
        254    2    1    2    0    0 -0.60050533035E+03  0.60173228313E+03  0.42817799722E+04  0.44573287556E+04  0.90080603491E+03 0.  0.
         23    2    4    4    0    0  0.20152054740E+03  0.20728027892E+03  0.16187284177E+04  0.16468370009E+04  0.90635380003E+02 0.  0.
         23    2    4    4    0    0 -0.80202587775E+03  0.39445200421E+03  0.26630515545E+04  0.28104917547E+04  0.90456780276E+02 0.  0.
          2    1    3    3  502    0  0.19600847977E+03 -0.21172265416E+03 -0.22844802508E+03  0.36801400325E+03  0.00000000000E+00 0. -1.
         -1    1    3    3    0  502  0.40449685059E+03 -0.39000962896E+03 -0.31720029452E+03  0.64524510046E+03  0.00000000000E+00 0.  1.
         13    1    5    5    0    0  0.18538071920E+03  0.16356257073E+03  0.14795899322E+04  0.15001016943E+04  0.00000000000E+00 0. -1.
        -13    1    5    5    0    0  0.16139828199E+02  0.43717708189E+02  0.13913848545E+03  0.14673530658E+03  0.00000000000E+00 0.  1.
          1    1    6    6  503    0 -0.77558845124E+03  0.38170933777E+03  0.25108426941E+04  0.26554793351E+04  0.00000000000E+00 0. -1.
         -1    1    6    6    0  503 -0.26437426509E+02  0.12742666442E+02  0.15220886039E+03  0.15501241966E+03  0.00000000000E+00 0.  1.
<mgrwt>
<rscale>  0 0.39960796E+04</rscale>
<asrwt>0</asrwt>
<pdfrwt beam="1">  1        2 0.70820918E+00 0.39960796E+04</pdfrwt>
<pdfrwt beam="2">  1       -1 0.13341971E+00 0.39960796E+04</pdfrwt>
<totfact> 0.40859841E-02</totfact>
</mgrwt>
</event>
<event>
12    7  0.1711607E-007  0.1421343E+04  0.7818608E-02  0.8938513E-01
          2   -1    0    0  501    0  0.00000000000E+00  0.00000000000E+00  0.36023495768E+04  0.36023495768E+04  0.00000000000E+00 0. -1.
         -1   -1    0    0    0  501 -0.00000000000E+00 -0.00000000000E+00 -0.14020126337E+03  0.14020126337E+03  0.00000000000E+00 0.  1.
         24    2    1    2    0    0  0.20766621230E+02 -0.40437914514E+03  0.13131506294E+04  0.13764780232E+04  0.79833748638E+02 0.  0.
        254    2    1    2    0    0 -0.20766621230E+02  0.40437914514E+03  0.21489976841E+04  0.23660728170E+04  0.90341340673E+03 0.  0.
         23    2    4    4    0    0 -0.36574179618E+02  0.12081769445E+03  0.20440886489E+04  0.20499750011E+04  0.90357704953E+02 0.  0.
         23    2    4    4    0    0  0.15807558388E+02  0.28356145069E+03  0.10490903519E+03  0.31609781585E+03  0.90856746013E+02 0.  0.
          4    1    3    3  502    0 -0.92445617942E+01 -0.24732626611E+03  0.90172597085E+03  0.93507511481E+03  0.00000000000E+00 0. -1.
         -3    1    3    3    0  502  0.30011183024E+02 -0.15705287903E+03  0.41142465851E+03  0.44140290841E+03  0.00000000000E+00 0.  1.
         13    1    5    5    0    0 -0.28960920331E+02  0.13132972047E+03  0.19812933473E+04  0.19858523506E+04  0.00000000000E+00 0. -1.
        -13    1    5    5    0    0 -0.76132592871E+01 -0.10512026014E+02  0.62795301602E+02  0.64122650531E+02  0.00000000000E+00 0.  1.
          3    1    6    6  503    0  0.20059084838E+02  0.27663378224E+03  0.11740957744E+03  0.30118702700E+03  0.00000000000E+00 0. -1.
         -3    1    6    6    0  503 -0.42515264493E+01  0.69276684522E+01 -0.12500542249E+02  0.14910788840E+02  0.00000000000E+00 0.  1.
<mgrwt>
<rscale>  0 0.14213430E+04</rscale>
<asrwt>0</asrwt>
<pdfrwt beam="1">  1        2 0.55420756E+00 0.14213430E+04</pdfrwt>
<pdfrwt beam="2">  1       -1 0.21569428E-01 0.14213430E+04</pdfrwt>
<totfact> 0.13964463E+01</totfact>
</mgrwt>
</event>
<event>
12    7  0.1711607E-007  0.1141757E+04  0.7818608E-02  0.9165422E-01
          2   -1    0    0  501    0  0.00000000000E+00  0.00000000000E+00  0.29019859025E+04  0.29019859025E+04  0.00000000000E+00 0. -1.
         -1   -1    0    0    0  501 -0.00000000000E+00 -0.00000000000E+00 -0.11230324765E+03  0.11230324765E+03  0.00000000000E+00 0.  1.
         24    2    1    2    0    0  0.19863677033E+03 -0.43039931777E+01  0.73628921707E+03  0.76723351820E+03  0.83966477778E+02 0.  0.
        254    2    1    2    0    0 -0.19863677033E+03  0.43039931777E+01  0.20533934378E+04  0.22470556320E+04  0.89070719764E+03 0.  0.
         23    2    4    4    0    0  0.38462634632E+02 -0.40805025141E+03  0.10992522877E+04  0.11771043931E+04  0.96097753404E+02 0.  0.
         23    2    4    4    0    0 -0.23709940496E+03  0.41235424459E+03  0.95414115012E+03  0.10699512389E+04  0.90322580202E+02 0.  0.
          2    1    3    3  502    0  0.70020631904E+01 -0.18838146896E+02  0.12007542015E+03  0.12174568243E+03  0.00000000000E+00 0. -1.
         -3    1    3    3    0  502  0.19163470714E+03  0.14534153719E+02  0.61621379692E+03  0.64548783577E+03  0.00000000000E+00 0.  1.
         13    1    5    5    0    0  0.54214872613E+02 -0.11892389281E+03  0.31070822230E+03  0.33707824626E+03  0.00000000000E+00 0. -1.
        -13    1    5    5    0    0 -0.15752237981E+02 -0.28912635859E+03  0.78854406540E+03  0.84002614680E+03  0.00000000000E+00 0.  1.
          3    1    6    6  503    0 -0.73706179011E+02  0.66540723982E+02  0.24247646522E+03  0.26202119181E+03  0.00000000000E+00 0. -1.
         -3    1    6    6    0  503 -0.16339322595E+03  0.34581352060E+03  0.71166468490E+03  0.80793004713E+03  0.00000000000E+00 0.  1.
<mgrwt>
<rscale>  0 0.11417573E+04</rscale>
<asrwt>0</asrwt>
<pdfrwt beam="1">  1        2 0.44645931E+00 0.11417573E+04</pdfrwt>
<pdfrwt beam="2">  1       -1 0.17277425E-01 0.11417573E+04</pdfrwt>
<totfact> 0.59849526E+01</totfact>
</mgrwt>
</event>
<event>
12    7  0.1711607E-007  0.2088903E+04  0.7818608E-02  0.8566148E-01
         -1   -1    0    0    0  501 -0.00000000000E+00  0.00000000000E+00  0.76041890435E+03  0.76041890435E+03  0.00000000000E+00 0.  1.
          2   -1    0    0  501    0  0.00000000000E+00 -0.00000000000E+00 -0.14345759230E+04  0.14345759230E+04  0.00000000000E+00 0. -1.
         24    2    1    2    0    0  0.57140632019E+03 -0.61476651539E+03 -0.40208763093E+03  0.93393681736E+03  0.78233398701E+02 0.  0.
        254    2    1    2    0    0 -0.57140632019E+03  0.61476651539E+03 -0.27206938773E+03  0.12610580100E+04  0.90100083333E+03 0.  0.
         23    2    4    4    0    0 -0.51084351691E+03  0.45807760752E+03 -0.57695116016E+03  0.90136269320E+03  0.93732972907E+02 0.  0.
         23    2    4    4    0    0 -0.60562803278E+02  0.15668890788E+03  0.30488177243E+03  0.35969531681E+03  0.90601097011E+02 0.  0.
          2    1    3    3  502    0  0.53567517746E+03 -0.58542710474E+03 -0.39739554263E+03  0.88746606021E+03  0.00000000000E+00 0. -1.
         -1    1    3    3    0  502  0.35731142727E+02 -0.29339410654E+02 -0.46920883037E+01  0.46470757157E+02  0.00000000000E+00 0.  1.
         13    1    5    5    0    0 -0.71269873707E+02  0.10589217969E+03 -0.83501506185E+02  0.15252885023E+03  0.00000000000E+00 0.  1.
        -13    1    5    5    0    0 -0.43957364321E+03  0.35218542783E+03 -0.49344965397E+03  0.74883384298E+03  0.00000000000E+00 0. -1.
          2    1    6    6  503    0 -0.47788112042E+02  0.17253878444E+02  0.84213082666E+02  0.98352647479E+02  0.00000000000E+00 0. -1.
         -2    1    6    6    0  503 -0.12774691236E+02  0.13943502943E+03  0.22066868976E+03  0.26134266933E+03  0.00000000000E+00 0.  1.
<mgrwt>
<rscale>  0 0.20889027E+04</rscale>
<asrwt>0</asrwt>
<pdfrwt beam="1">  1        2 0.22070399E+00 0.20889027E+04</pdfrwt>
<pdfrwt beam="2">  1       -1 0.11698752E+00 0.20889027E+04</pdfrwt>
<totfact> 0.95720815E+00</totfact>
</mgrwt>
</event>
<event>
12    7  0.1711607E-007  0.3433027E+04  0.7818608E-02  0.8129848E-01
         -1   -1    0    0    0  501 -0.00000000000E+00  0.00000000000E+00  0.32701284273E+04  0.32701284273E+04  0.00000000000E+00 0.  1.
          2   -1    0    0  501    0  0.00000000000E+00 -0.00000000000E+00 -0.90101027346E+03  0.90101027346E+03  0.00000000000E+00 0. -1.
         24    2    1    2    0    0  0.44021572024E+03 -0.34638141695E+03 -0.71461693445E+03  0.91143532641E+03  0.79164543033E+02 0.  0.
        254    2    1    2    0    0 -0.44021572024E+03  0.34638141695E+03  0.30837350883E+04  0.32597033744E+04  0.89580914685E+03 0.  0.
         23    2    4    4    0    0  0.24071275847E+03  0.34837236740E+02  0.12627529686E+04  0.12886711322E+04  0.83498275693E+02 0.  0.
         23    2    4    4    0    0 -0.68092847870E+03  0.31154418021E+03  0.18209821197E+04  0.19710322422E+04  0.90933217771E+02 0.  0.
          4    1    3    3  502    0  0.42279436260E+03 -0.34062048471E+03 -0.66472055965E+03  0.85827199074E+03  0.00000000000E+00 0. -1.
         -3    1    3    3    0  502  0.17421357636E+02 -0.57609322312E+01 -0.49896374799E+02  0.53163335675E+02  0.00000000000E+00 0.  1.
         13    1    5    5    0    0  0.16590616577E+03  0.27171522141E+02  0.10416747717E+04  0.10551537696E+04  0.00000000000E+00 0. -1.
        -13    1    5    5    0    0  0.74806592691E+02  0.76657145991E+01  0.22107819690E+03  0.23351736260E+03  0.00000000000E+00 0.  1.
          4    1    6    6  503    0 -0.50343773039E+03  0.22742828693E+03  0.12325802440E+04  0.13507136010E+04  0.00000000000E+00 0. -1.
         -4    1    6    6    0  503 -0.17749074831E+03  0.84115893279E+02  0.58840187571E+03  0.62031864116E+03  0.00000000000E+00 0.  1.
<mgrwt>
<rscale>  0 0.34330274E+04</rscale>
<asrwt>0</asrwt>
<pdfrwt beam="1">  1        2 0.13861697E+00 0.34330274E+04</pdfrwt>
<pdfrwt beam="2">  1       -1 0.50309668E+00 0.34330274E+04</pdfrwt>
<totfact> 0.39182587E-02</totfact>
</mgrwt>
</event>
<event>
12    7  0.1711607E-007  0.1311354E+04  0.7818608E-02  0.9020610E-01
          2   -1    0    0  501    0  0.00000000000E+00  0.00000000000E+00  0.30823800780E+04  0.30823800780E+04  0.00000000000E+00 0. -1.
         -1   -1    0    0    0  501 -0.00000000000E+00 -0.00000000000E+00 -0.13947407539E+03  0.13947407539E+03  0.00000000000E+00 0.  1.
         24    2    1    2    0    0 -0.17181957658E+01 -0.13657089308E+03  0.15372302342E+04  0.15453609686E+04  0.80057287605E+02 0.  0.
        254    2    1    2    0    0  0.17181957658E+01  0.13657089308E+03  0.14056757685E+04  0.16764931848E+04  0.90335511941E+03 0.  0.
         23    2    4    4    0    0 -0.23688184218E+03  0.37790020760E+02  0.13773396069E+04  0.14010829663E+04  0.91804100414E+02 0.  0.
         23    2    4    4    0    0  0.23860003795E+03  0.98780872318E+02  0.28336161577E+02  0.27541021858E+03  0.91434192732E+02 0.  0.
          2    1    3    3  502    0 -0.26577387958E+02 -0.11360294082E+03  0.13550582152E+04  0.13600715983E+04  0.00000000000E+00 0. -1.
         -1    1    3    3    0  502  0.24859192192E+02 -0.22967952262E+02  0.18217201895E+03  0.18528937033E+03  0.00000000000E+00 0.  1.
         13    1    5    5    0    0 -0.60180444230E+02  0.46401429842E+02  0.53465294832E+03  0.54002643797E+03  0.00000000000E+00 0.  1.
        -13    1    5    5    0    0 -0.17670139795E+03 -0.86114090825E+01  0.84268665856E+03  0.86105652830E+03  0.00000000000E+00 0. -1.
          2    1    6    6  503    0  0.19256849708E+03  0.77935927305E+02  0.59434055291E+02  0.21607647202E+03  0.00000000000E+00 0. -1.
         -2    1    6    6    0  503  0.46031540869E+02  0.20844945013E+02 -0.31097893714E+02  0.59333746560E+02  0.00000000000E+00 0.  1.
<mgrwt>
<rscale>  0 0.13113537E+04</rscale>
<asrwt>0</asrwt>
<pdfrwt beam="1">  1        2 0.47421227E+00 0.13113537E+04</pdfrwt>
<pdfrwt beam="2">  1       -1 0.21457552E-01 0.13113537E+04</pdfrwt>
<totfact> 0.31695190E+01</totfact>
</mgrwt>
</event>
<event>
12    7  0.1711607E-007  0.1224659E+04  0.7818608E-02  0.9091542E-01
         -1   -1    0    0    0  501 -0.00000000000E+00  0.00000000000E+00  0.20920274391E+03  0.20920274391E+03  0.00000000000E+00 0.  1.
          2   -1    0    0  501    0  0.00000000000E+00 -0.00000000000E+00 -0.17922685993E+04  0.17922685993E+04  0.00000000000E+00 0. -1.
         24    2    1    2    0    0  0.20332014167E+03  0.17901907194E+03 -0.30568657329E+03  0.41581635069E+03  0.77923348794E+02 0.  0.
        254    2    1    2    0    0 -0.20332014167E+03 -0.17901907194E+03 -0.12773792821E+04  0.15856549925E+04  0.89956490418E+03 0.  0.
         23    2    4    4    0    0  0.15605525969E+03 -0.91411947958E+02 -0.11725188569E+04  0.11899159547E+04  0.91597604319E+02 0.  0.
         23    2    4    4    0    0 -0.35937540136E+03 -0.87607123979E+02 -0.10486042513E+03  0.39573903777E+03  0.93744279733E+02 0.  0.
          2    1    3    3  502    0  0.80205710960E+02  0.87527085152E+02 -0.18857030024E+03  0.22282886895E+03  0.00000000000E+00 0. -1.
         -1    1    3    3    0  502  0.12311443071E+03  0.91491986786E+02 -0.11711627305E+03  0.19298748174E+03  0.00000000000E+00 0.  1.
         13    1    5    5    0    0  0.23625253656E+02 -0.32493730051E+02 -0.51724226625E+03  0.51880011285E+03  0.00000000000E+00 0.  1.
        -13    1    5    5    0    0  0.13243000603E+03 -0.58918217908E+02 -0.65527659070E+03  0.67111584188E+03  0.00000000000E+00 0. -1.
          3    1    6    6  503    0 -0.10492571909E+03 -0.12831220227E+02 -0.73351720203E+02  0.12866437579E+03  0.00000000000E+00 0. -1.
         -3    1    6    6    0  503 -0.25444968226E+03 -0.74775903752E+02 -0.31508704923E+02  0.26707466198E+03  0.00000000000E+00 0.  1.
<mgrwt>
<rscale>  0 0.12246592E+04</rscale>
<asrwt>0</asrwt>
<pdfrwt beam="1">  1        2 0.27573362E+00 0.12246592E+04</pdfrwt>
<pdfrwt beam="2">  1       -1 0.32185039E-01 0.12246592E+04</pdfrwt>
<totfact> 0.88160937E+01</totfact>
</mgrwt>
</event>
<event>
12    7  0.1711607E-007  0.1503722E+04  0.7818608E-02  0.8881981E-01
         -3   -1    0    0    0  501 -0.00000000000E+00  0.00000000000E+00  0.16703196303E+04  0.16703196303E+04  0.00000000000E+00 0.  1.
          4   -1    0    0  501    0  0.00000000000E+00 -0.00000000000E+00 -0.33843541845E+03  0.33843541845E+03  0.00000000000E+00 0. -1.
         24    2    1    2    0    0  0.63454310897E+00  0.38108612313E+03  0.30832299308E+02  0.39070490237E+03  0.80452807077E+02 0.  0.
        254    2    1    2    0    0 -0.63454310897E+00 -0.38108612313E+03  0.13010519125E+04  0.16180501464E+04  0.88324581018E+03 0.  0.
         23    2    4    4    0    0  0.21671518008E+03 -0.58276778145E+03  0.69385794562E+03  0.93613514410E+03  0.91249125696E+02 0.  0.
         23    2    4    4    0    0 -0.21734972319E+03  0.20168165832E+03  0.60719396688E+03  0.68191500225E+03  0.91690585179E+02 0.  0.
          2    1    3    3  502    0 -0.10635630104E+01  0.26229302616E+03 -0.16510324697E+02  0.26281429482E+03  0.00000000000E+00 0. -1.
         -1    1    3    3    0  502  0.16981061193E+01  0.11879309697E+03  0.47342624005E+02  0.12789060755E+03  0.00000000000E+00 0.  1.
         13    1    5    5    0    0  0.10252875536E+03 -0.16824050492E+03  0.18929226510E+03  0.27321891370E+03  0.00000000000E+00 0. -1.
        -13    1    5    5    0    0  0.11418642472E+03 -0.41452727653E+03  0.50456568052E+03  0.66291623040E+03  0.00000000000E+00 0.  1.
          4    1    6    6  503    0 -0.64466195216E+02  0.24414421725E+02  0.20826554986E+03  0.21937751383E+03  0.00000000000E+00 0. -1.
         -4    1    6    6    0  503 -0.15288352797E+03  0.17726723660E+03  0.39892841702E+03  0.46253748843E+03  0.00000000000E+00 0.  1.
<mgrwt>
<rscale>  0 0.15037225E+04</rscale>
<asrwt>0</asrwt>
<pdfrwt beam="1">  1        4 0.52066988E-01 0.15037225E+04</pdfrwt>
<pdfrwt beam="2">  1       -3 0.25697225E+00 0.15037225E+04</pdfrwt>
<totfact> 0.52402758E-01</totfact>
</mgrwt>
</event>
<event>
12    7  0.1711607E-007  0.1267230E+04  0.7818608E-02  0.9055963E-01
         -1   -1    0    0    0  501 -0.00000000000E+00  0.00000000000E+00  0.30246666583E+03  0.30246666583E+03  0.00000000000E+00 0.  1.
          2   -1    0    0  501    0  0.00000000000E+00 -0.00000000000E+00 -0.13273130594E+04  0.13273130594E+04  0.00000000000E+00 0. -1.
         24    2    1    2    0    0  0.23915734697E+03  0.68486268087E+02 -0.47664340856E+03  0.54349934486E+03  0.79473224526E+02 0.  0.
        254    2    1    2    0    0 -0.23915734697E+03 -0.68486268087E+02 -0.54820298504E+03  0.10862803804E+04  0.90420791110E+03 0.  0.
         23    2    4    4    0    0 -0.50875713077E+03  0.11643981324E+03 -0.12620129199E+03  0.54437666642E+03  0.89594311340E+02 0.  0.
         23    2    4    4    0    0  0.26959978379E+03 -0.18492608133E+03 -0.42200169305E+03  0.54190371398E+03  0.93233616860E+02 0.  0.
          2    1    3    3  502    0  0.15715884950E+03  0.73960115864E+02 -0.37107761192E+03  0.40971648341E+03  0.00000000000E+00 0. -1.
         -1    1    3    3    0  502  0.81998497469E+02 -0.54738477766E+01 -0.10556579664E+03  0.13378286145E+03  0.00000000000E+00 0.  1.
         13    1    5    5    0    0 -0.28611583235E+03  0.62184680257E+02 -0.11617334788E+03  0.31500071545E+03  0.00000000000E+00 0.  1.
        -13    1    5    5    0    0 -0.22264129842E+03  0.54255132985E+02 -0.10027944111E+02  0.22937595096E+03  0.00000000000E+00 0. -1.
          2    1    6    6  503    0  0.12690356134E+03 -0.94208612942E+02 -0.27807575861E+03  0.31985294146E+03  0.00000000000E+00 0. -1.
         -2    1    6    6    0  503  0.14269622245E+03 -0.90717468388E+02 -0.14392593443E+03  0.22205077252E+03  0.00000000000E+00 0.  1.
<mgrwt>
<rscale>  0 0.12672300E+04</rscale>
<asrwt>0</asrwt>
<pdfrwt beam="1">  1        2 0.20420201E+00 0.12672300E+04</pdfrwt>
<pdfrwt beam="2">  1       -1 0.46533333E-01 0.12672300E+04</pdfrwt>
<totfact> 0.82037638E+01</totfact>
</mgrwt>
</event>
<event>
12    7  0.1711607E-007  0.1519297E+04  0.7818608E-02  0.8871721E-01
         -1   -1    0    0    0  501 -0.00000000000E+00  0.00000000000E+00  0.30557742671E+03  0.30557742671E+03  0.00000000000E+00 0.  1.
          2   -1    0    0  501    0  0.00000000000E+00 -0.00000000000E+00 -0.18884448413E+04  0.18884448413E+04  0.00000000000E+00 0. -1.
         24    2    1    2    0    0  0.42258740965E+03 -0.11249563542E+03 -0.86027177988E+03  0.96824138244E+03  0.78666718614E+02 0.  0.
        254    2    1    2    0    0 -0.42258740965E+03  0.11249563542E+03 -0.72259563466E+03  0.12257808855E+04  0.88834618326E+03 0.  0.
         23    2    4    4    0    0 -0.58018326180E+03  0.13170178966E+03 -0.82136562219E+03  0.10178953586E+04  0.86668893163E+02 0.  0.
         23    2    4    4    0    0  0.15759585215E+03 -0.19206154244E+02  0.98769987534E+02  0.20788552694E+03  0.90860073183E+02 0.  0.
          4    1    3    3  502    0  0.18996063203E+03 -0.17386427680E+02 -0.42001717078E+03  0.46130440421E+03  0.00000000000E+00 0. -1.
         -3    1    3    3    0  502  0.23262677762E+03 -0.95109207739E+02 -0.44025460910E+03  0.50693697823E+03  0.00000000000E+00 0.  1.
         13    1    5    5    0    0 -0.29562105521E+03  0.90074600635E+02 -0.36247030621E+03  0.47632968084E+03  0.00000000000E+00 0.  1.
        -13    1    5    5    0    0 -0.28456220658E+03  0.41627189028E+02 -0.45889531598E+03  0.54156567775E+03  0.00000000000E+00 0. -1.
          3    1    6    6  503    0  0.80999259259E+01 -0.10679085420E+02  0.47902603221E+02  0.49742447273E+02  0.00000000000E+00 0. -1.
         -3    1    6    6    0  503  0.14949592622E+03 -0.85270688238E+01  0.50867384313E+02  0.15814307967E+03  0.00000000000E+00 0.  1.
<mgrwt>
<rscale>  0 0.15192974E+04</rscale>
<asrwt>0</asrwt>
<pdfrwt beam="1">  1        2 0.29052998E+00 0.15192974E+04</pdfrwt>
<pdfrwt beam="2">  1       -1 0.47011911E-01 0.15192974E+04</pdfrwt>
<totfact> 0.38213463E+01</totfact>
</mgrwt>
</event>
<event>
12    7  0.1711607E-007  0.1725395E+04  0.7818608E-02  0.8747011E-01
         -1   -1    0    0    0  501 -0.00000000000E+00  0.00000000000E+00  0.11248112447E+04  0.11248112447E+04  0.00000000000E+00 0.  1.
          2   -1    0    0  501    0  0.00000000000E+00 -0.00000000000E+00 -0.66166423994E+03  0.66166423994E+03  0.00000000000E+00 0. -1.
         24    2    1    2    0    0 -0.66300022969E+02  0.61901229254E+03  0.14821799295E+03  0.64478563096E+03  0.78791021689E+02 0.  0.
        254    2    1    2    0    0  0.66300022969E+02 -0.61901229254E+03  0.31492901180E+03  0.11416898537E+04  0.90371650871E+03 0.  0.
         23    2    4    4    0    0  0.11605748807E+03 -0.83848112951E+03  0.20476578368E+03  0.87584353594E+03  0.93021117006E+02 0.  0.
         23    2    4    4    0    0 -0.49757465097E+02  0.21946883697E+03  0.11016322811E+03  0.26584631772E+03  0.88859169944E+02 0.  0.
          4    1    3    3  502    0 -0.63994874293E+02  0.45367368304E+03  0.76328067143E+02  0.46447941661E+03  0.00000000000E+00 0. -1.
         -3    1    3    3    0  502 -0.23051486757E+01  0.16533860950E+03  0.71889925808E+02  0.18030621435E+03  0.00000000000E+00 0.  1.
         13    1    5    5    0    0  0.87886451984E+02 -0.57424365332E+03  0.18366478124E+03  0.60927215076E+03  0.00000000000E+00 0.  1.
        -13    1    5    5    0    0  0.28171036082E+02 -0.26423747618E+03  0.21101002445E+02  0.26657138518E+03  0.00000000000E+00 0. -1.
          2    1    6    6  503    0 -0.92922774745E+01  0.17940911680E+02  0.46440392721E+02  0.50645165698E+02  0.00000000000E+00 0. -1.
         -2    1    6    6    0  503 -0.40465187623E+02  0.20152792529E+03  0.63722835392E+02  0.21520115202E+03  0.00000000000E+00 0.  1.
<mgrwt>
<rscale>  0 0.17253955E+04</rscale>
<asrwt>0</asrwt>
<pdfrwt beam="1">  1        2 0.10179450E+00 0.17253955E+04</pdfrwt>
<pdfrwt beam="2">  1       -1 0.17304788E+00 0.17253955E+04</pdfrwt>
<totfact> 0.11148060E+01</totfact>
</mgrwt>
</event>
<event>
12    7  0.1711607E-007  0.3052408E+04  0.7818608E-02  0.8228922E-01
         -1   -1    0    0    0  501 -0.00000000000E+00  0.00000000000E+00  0.15217149664E+04  0.15217149664E+04  0.00000000000E+00 0.  1.
          2   -1    0    0  501    0  0.00000000000E+00 -0.00000000000E+00 -0.15307067389E+04  0.15307067389E+04  0.00000000000E+00 0. -1.
         24    2    1    2    0    0  0.11318754760E+04 -0.22751647100E+03 -0.78368668686E+03  0.13979932841E+04  0.85525208816E+02 0.  0.
        254    2    1    2    0    0 -0.11318754760E+04  0.22751647100E+03  0.77469491426E+03  0.16544284212E+04  0.89670248858E+03 0.  0.
         23    2    4    4    0    0 -0.53961213453E+03  0.55299090097E+03  0.37394186973E+03  0.86329004459E+03  0.91961877182E+02 0.  0.
         23    2    4    4    0    0 -0.59226334149E+03 -0.32547442997E+03  0.40075304454E+03  0.79113837665E+03  0.92668538749E+02 0.  0.
          2    1    3    3  502    0  0.89248479150E+03 -0.21464970289E+03 -0.62353212031E+03  0.11096827939E+04  0.00000000000E+00 0. -1.
         -3    1    3    3    0  502  0.23939068452E+03 -0.12866768117E+02 -0.16015456655E+03  0.28831049017E+03  0.00000000000E+00 0.  1.
         13    1    5    5    0    0 -0.37453786637E+03  0.43513924671E+03  0.25551247885E+03  0.62841976753E+03  0.00000000000E+00 0. -1.
        -13    1    5    5    0    0 -0.16507426816E+03  0.11785165426E+03  0.11842939088E+03  0.23487027705E+03  0.00000000000E+00 0.  1.
          2    1    6    6  503    0 -0.56627437343E+03 -0.30333855105E+03  0.35472746062E+03  0.73383411877E+03  0.00000000000E+00 0. -1.
         -2    1    6    6    0  503 -0.25988968054E+02 -0.22135878919E+02  0.46025583917E+02  0.57304257878E+02  0.00000000000E+00 0.  1.
<mgrwt>
<rscale>  0 0.30524085E+04</rscale>
<asrwt>0</asrwt>
<pdfrwt beam="1">  1        2 0.23549334E+00 0.30524085E+04</pdfrwt>
<pdfrwt beam="2">  1       -1 0.23411000E+00 0.30524085E+04</pdfrwt>
<totfact> 0.10494132E+00</totfact>
</mgrwt>
</event>
<event>
12    7  0.1711607E-007  0.1801737E+04  0.7818608E-02  0.8705376E-01
          2   -1    0    0  501    0  0.00000000000E+00  0.00000000000E+00  0.17095153261E+04  0.17095153261E+04  0.00000000000E+00 0. -1.
         -1   -1    0    0    0  501 -0.00000000000E+00 -0.00000000000E+00 -0.47473340663E+03  0.47473340663E+03  0.00000000000E+00 0.  1.
         24    2    1    2    0    0  0.17219511670E+03 -0.22494967487E+03  0.12007172944E+04  0.12362258537E+04  0.79239042457E+02 0.  0.
        254    2    1    2    0    0 -0.17219511670E+03  0.22494967487E+03  0.34064625043E+02  0.94802287899E+03  0.90406496779E+03 0.  0.
         23    2    4    4    0    0 -0.46819768869E+03  0.33400649708E+03  0.14970361898E+03  0.59983955434E+03  0.81405783762E+02 0.  0.
         23    2    4    4    0    0  0.29600257199E+03 -0.10905682221E+03 -0.11563899394E+03  0.34818332465E+03  0.91369237445E+02 0.  0.
          2    1    3    3  502    0  0.90097958568E+02 -0.17809055944E+03  0.82543409004E+03  0.84922042280E+03  0.00000000000E+00 0. -1.
         -1    1    3    3    0  502  0.82097158136E+02 -0.46859115422E+02  0.37528320438E+03  0.38700543092E+03  0.00000000000E+00 0.  1.
         13    1    5    5    0    0 -0.43406069115E+03  0.29787479007E+03  0.11400690659E+03  0.53864241284E+03  0.00000000000E+00 0. -1.
        -13    1    5    5    0    0 -0.34136997543E+02  0.36131707004E+02  0.35696712388E+02  0.61197141498E+02  0.00000000000E+00 0.  1.
          2    1    6    6  503    0  0.23483415333E+03 -0.94212227940E+02 -0.51300845184E+02  0.25817590937E+03  0.00000000000E+00 0. -1.
         -2    1    6    6    0  503  0.61168418663E+02 -0.14844594272E+02 -0.64338148753E+02  0.90007415283E+02  0.00000000000E+00 0.  1.
<mgrwt>
<rscale>  0 0.18017370E+04</rscale>
<asrwt>0</asrwt>
<pdfrwt beam="1">  1        2 0.26300235E+00 0.18017370E+04</pdfrwt>
<pdfrwt beam="2">  1       -1 0.73035910E-01 0.18017370E+04</pdfrwt>
<totfact> 0.19684241E+01</totfact>
</mgrwt>
</event>
<event>
12    7  0.1953998E-007  0.1772800E+04  0.7818608E-02  0.8720899E-01
         -1   -1    0    0    0  501 -0.00000000000E+00  0.00000000000E+00  0.91760222395E+03  0.91760222395E+03  0.00000000000E+00 0.  1.
          2   -1    0    0  501    0  0.00000000000E+00 -0.00000000000E+00 -0.85625872175E+03  0.85625872175E+03  0.00000000000E+00 0. -1.
         24    2    1    2    0    0  0.20358104684E+03  0.65499841441E+02 -0.59815012535E+03  0.64029546825E+03  0.80369411678E+02 0.  0.
        254    2    1    2    0    0 -0.20358104684E+03 -0.65499841441E+02  0.65949362755E+03  0.11335654775E+04  0.89682962431E+03 0.  0.
         23    2    4    4    0    0  0.26498733384E+03 -0.20430047852E+03  0.50702222905E+03  0.61371286264E+03  0.87263763341E+02 0.  0.
         23    2    4    4    0    0 -0.46856838068E+03  0.13880063708E+03  0.15247139850E+03  0.51985261482E+03  0.90428256358E+02 0.  0.
          2    1    3    3  502    0  0.16936360840E+03  0.43857291616E+02 -0.55120413689E+03  0.57830225177E+03  0.00000000000E+00 0. -1.
         -1    1    3    3    0  502  0.34217438435E+02  0.21642549826E+02 -0.46945988469E+02  0.61993216479E+02  0.00000000000E+00 0.  1.
         13    1    5    5    0    0  0.23794867919E+03 -0.16042395852E+03  0.37662230694E+03  0.47349739437E+03  0.00000000000E+00 0. -1.
        -13    1    5    5    0    0  0.27038654651E+02 -0.43876520006E+02  0.13039992212E+03  0.14021546827E+03  0.00000000000E+00 0.  1.
          3    1    6    6  503    0 -0.43767925288E+03  0.11264755260E+03  0.15850298958E+03  0.47893193380E+03  0.00000000000E+00 0. -1.
         -3    1    6    6    0  503 -0.30889127803E+02  0.26153084485E+02 -0.60315910783E+01  0.40920681024E+02  0.00000000000E+00 0.  1.
<mgrwt>
<rscale>  0 0.17727999E+04</rscale>
<asrwt>0</asrwt>
<pdfrwt beam="1">  1        2 0.13173211E+00 0.17727999E+04</pdfrwt>
<pdfrwt beam="2">  1       -1 0.14116957E+00 0.17727999E+04</pdfrwt>
<totfact> 0.13916290E+01</totfact>
</mgrwt>
</event>
<event>
12    7  0.1711607E-007  0.2599973E+04  0.7818608E-02  0.8368210E-01
         -1   -1    0    0    0  501 -0.00000000000E+00  0.00000000000E+00  0.77389268619E+03  0.77389268619E+03  0.00000000000E+00 0.  1.
          2   -1    0    0  501    0  0.00000000000E+00 -0.00000000000E+00 -0.21837202782E+04  0.21837202782E+04  0.00000000000E+00 0. -1.
         24    2    1    2    0    0 -0.93495468841E+03 -0.65688183517E+03 -0.58810297417E+03  0.12874244728E+04  0.77218199344E+02 0.  0.
        254    2    1    2    0    0  0.93495468841E+03  0.65688183517E+03 -0.82172461786E+03  0.16701884916E+04  0.89925760213E+03 0.  0.
         23    2    4    4    0    0  0.57852623510E+03  0.43499510065E+03  0.14998732571E+02  0.72965846527E+03  0.90901989344E+02 0.  0.
         23    2    4    4    0    0  0.35642845330E+03  0.22188673452E+03 -0.83672335043E+03  0.94053002629E+03  0.90641049842E+02 0.  0.
          4    1    3    3  502    0 -0.38262862648E+03 -0.29381785581E+03 -0.28447076215E+03  0.56005108045E+03  0.00000000000E+00 0. -1.
         -3    1    3    3    0  502 -0.55232606193E+03 -0.36306397936E+03 -0.30363221202E+03  0.72737339240E+03  0.00000000000E+00 0.  1.
         13    1    5    5    0    0  0.41417055131E+02  0.42964181792E+02 -0.22162132574E+02  0.63658883850E+02  0.00000000000E+00 0.  1.
        -13    1    5    5    0    0  0.53710917997E+03  0.39203091886E+03  0.37160865145E+02  0.66599958142E+03  0.00000000000E+00 0. -1.
          4    1    6    6  503    0  0.32675989396E+03  0.16673362488E+03 -0.70924382383E+03  0.79849792211E+03  0.00000000000E+00 0. -1.
         -4    1    6    6    0  503  0.29668559344E+02  0.55153109642E+02 -0.12747952660E+03  0.14203210418E+03  0.00000000000E+00 0.  1.
<mgrwt>
<rscale>  0 0.25999732E+04</rscale>
<asrwt>0</asrwt>
<pdfrwt beam="1">  1        2 0.33595696E+00 0.25999732E+04</pdfrwt>
<pdfrwt beam="2">  1       -1 0.11906041E+00 0.25999732E+04</pdfrwt>
<totfact> 0.33486490E+00</totfact>
</mgrwt>
</event>
<event>
12    7  0.1711607E-007  0.1810060E+04  0.7818608E-02  0.8700968E-01
          2   -1    0    0  501    0  0.00000000000E+00  0.00000000000E+00  0.27066180449E+04  0.27066180449E+04  0.00000000000E+00 0. -1.
         -1   -1    0    0    0  501 -0.00000000000E+00 -0.00000000000E+00 -0.30262095468E+03  0.30262095468E+03  0.00000000000E+00 0.  1.
         24    2    1    2    0    0  0.45311146926E+03 -0.32636400247E+03  0.26749646937E+03  0.62441943522E+03  0.80757688625E+02 0.  0.
        254    2    1    2    0    0 -0.45311146926E+03  0.32636400247E+03  0.21365006208E+04  0.23848195643E+04  0.90050318485E+03 0.  0.
         23    2    4    4    0    0 -0.52506201844E+03  0.55838190676E+03  0.13319802650E+04  0.15393849585E+04  0.89744899866E+02 0.  0.
         23    2    4    4    0    0  0.71950549180E+02 -0.23201790429E+03  0.80452035580E+03  0.84543460582E+03  0.92181779040E+02 0.  0.
          4    1    3    3  502    0  0.25767914037E+02 -0.47195785964E+02  0.25204169247E+02  0.59385837992E+02  0.00000000000E+00 0. -1.
         -3    1    3    3    0  502  0.42734355522E+03 -0.27916821651E+03  0.24229230013E+03  0.56503359723E+03  0.00000000000E+00 0.  1.
         13    1    5    5    0    0 -0.52107104337E+03  0.56089826340E+03  0.13136751956E+04  0.15204816387E+04  0.00000000000E+00 0. -1.
        -13    1    5    5    0    0 -0.39909750742E+01 -0.25163566391E+01  0.18305069394E+02  0.18903319769E+02  0.00000000000E+00 0.  1.
          1    1    6    6  503    0  0.79661885967E+01 -0.11535247335E+03  0.49857016739E+03  0.51180256455E+03  0.00000000000E+00 0. -1.
         -1    1    6    6    0  503  0.63984360584E+02 -0.11666543093E+03  0.30595018841E+03  0.33363204127E+03  0.00000000000E+00 0.  1.
<mgrwt>
<rscale>  0 0.18100600E+04</rscale>
<asrwt>0</asrwt>
<pdfrwt beam="1">  1        2 0.41640276E+00 0.18100600E+04</pdfrwt>
<pdfrwt beam="2">  1       -1 0.46557072E-01 0.18100600E+04</pdfrwt>
<totfact> 0.13011847E+01</totfact>
</mgrwt>
</event>
<event>
12    7  0.1711607E-007  0.1169385E+04  0.7818608E-02  0.9140084E-01
         -1   -1    0    0    0  501 -0.00000000000E+00  0.00000000000E+00  0.50512669053E+03  0.50512669053E+03  0.00000000000E+00 0.  1.
          2   -1    0    0  501    0  0.00000000000E+00 -0.00000000000E+00 -0.67679107810E+03  0.67679107810E+03  0.00000000000E+00 0. -1.
         24    2    1    2    0    0 -0.36602714234E+02  0.19013926882E+03 -0.17126189185E+03  0.27118928648E+03  0.81977394816E+02 0.  0.
        254    2    1    2    0    0  0.36602714234E+02 -0.19013926882E+03 -0.40249572114E+00  0.91072848215E+03  0.88990645910E+03 0.  0.
         23    2    4    4    0    0  0.35114711933E+03  0.54128940500E+02 -0.23888918781E+03  0.43755941830E+03  0.90310347582E+02 0.  0.
         23    2    4    4    0    0 -0.31454440509E+03 -0.24426820932E+03  0.23848669209E+03  0.47316906385E+03  0.91694709874E+02 0.  0.
          2    1    3    3  502    0  0.11063190011E+02  0.14196860715E+03 -0.11205718153E+03  0.18120234966E+03  0.00000000000E+00 0. -1.
         -1    1    3    3    0  502 -0.47665904245E+02  0.48170661673E+02 -0.59204710318E+02  0.89986936815E+02  0.00000000000E+00 0.  1.
         13    1    5    5    0    0  0.26858582182E+03  0.27565985677E+01 -0.18755644186E+03  0.32760244413E+03  0.00000000000E+00 0. -1.
        -13    1    5    5    0    0  0.82561297510E+02  0.51372341932E+02 -0.51332745948E+02  0.10995697417E+03  0.00000000000E+00 0.  1.
          1    1    6    6  503    0 -0.17288310833E+03 -0.77499988065E+02  0.12111201997E+03  0.22486204366E+03  0.00000000000E+00 0. -1.
         -1    1    6    6    0  503 -0.14166129676E+03 -0.16676822126E+03  0.11737467211E+03  0.24830702019E+03  0.00000000000E+00 0.  1.
<mgrwt>
<rscale>  0 0.11693849E+04</rscale>
<asrwt>0</asrwt>
<pdfrwt beam="1">  1        2 0.10412170E+00 0.11693849E+04</pdfrwt>
<pdfrwt beam="2">  1       -1 0.77711799E-01 0.11693849E+04</pdfrwt>
<totfact> 0.80147502E+01</totfact>
</mgrwt>
</event>
<event>
12    7  0.1711607E-007  0.1407173E+04  0.7818608E-02  0.8948642E-01
          2   -1    0    0  501    0  0.00000000000E+00  0.00000000000E+00  0.11904082629E+04  0.11904082629E+04  0.00000000000E+00 0. -1.
         -1   -1    0    0    0  501 -0.00000000000E+00 -0.00000000000E+00 -0.41585255001E+03  0.41585255001E+03  0.00000000000E+00 0.  1.
         24    2    1    2    0    0 -0.29362821577E+03 -0.25187138736E+03  0.89978761965E+02  0.40462252575E+03  0.77243031258E+02 0.  0.
        254    2    1    2    0    0  0.29362821577E+03  0.25187138736E+03  0.68457695097E+03  0.12016382872E+04  0.90864307986E+03 0.  0.
         23    2    4    4    0    0  0.45314750012E+03 -0.19644134336E+03  0.32822059108E+03  0.59999816350E+03  0.91308168043E+02 0.  0.
         23    2    4    4    0    0 -0.15951928435E+03  0.44831273072E+03  0.35635635989E+03  0.60164012369E+03  0.92467705701E+02 0.  0.
          4    1    3    3  502    0 -0.18201176335E+03 -0.13008858231E+03  0.85086374380E+02  0.23935541011E+03  0.00000000000E+00 0. -1.
         -3    1    3    3    0  502 -0.11161645242E+03 -0.12178280505E+03  0.48923875848E+01  0.16526711565E+03  0.00000000000E+00 0.  1.
         13    1    5    5    0    0  0.20610918084E+03 -0.55435800920E+02  0.18025462677E+03  0.27936687871E+03  0.00000000000E+00 0.  1.
        -13    1    5    5    0    0  0.24703831927E+03 -0.14100554244E+03  0.14796596431E+03  0.32063128479E+03  0.00000000000E+00 0. -1.
          4    1    6    6  503    0 -0.18945442512E+02  0.15490122118E+03  0.14943762005E+03  0.21606693501E+03  0.00000000000E+00 0. -1.
         -4    1    6    6    0  503 -0.14057384184E+03  0.29341150954E+03  0.20691873984E+03  0.38557318869E+03  0.00000000000E+00 0.  1.
<mgrwt>
<rscale>  0 0.14071735E+04</rscale>
<asrwt>0</asrwt>
<pdfrwt beam="1">  1        2 0.18313973E+00 0.14071735E+04</pdfrwt>
<pdfrwt beam="2">  1       -1 0.63977316E-01 0.14071735E+04</pdfrwt>
<totfact> 0.52749841E+01</totfact>
</mgrwt>
</event>
<event>
12    7  0.1711607E-007  0.1830639E+04  0.7818608E-02  0.8690174E-01
          2   -1    0    0  501    0  0.00000000000E+00  0.00000000000E+00  0.19399315514E+04  0.19399315514E+04  0.00000000000E+00 0. -1.
         -1   -1    0    0    0  501 -0.00000000000E+00 -0.00000000000E+00 -0.43187580390E+03  0.43187580390E+03  0.00000000000E+00 0.  1.
         24    2    1    2    0    0  0.55499185158E+03  0.26001822763E+03  0.15755464084E+03  0.63795880540E+03  0.80885959933E+02 0.  0.
        254    2    1    2    0    0 -0.55499185158E+03 -0.26001822763E+03  0.13505011067E+04  0.17338485499E+04  0.89819381030E+03 0.  0.
         23    2    4    4    0    0 -0.71545965055E+03 -0.41908417438E+03  0.94275134589E+03  0.12587109830E+04  0.89772945030E+02 0.  0.
         23    2    4    4    0    0  0.16046779897E+03  0.15906594675E+03  0.40774976081E+03  0.47513756697E+03  0.91890969011E+02 0.  0.
          4    1    3    3  502    0  0.86842196400E+01 -0.57027464764E+01  0.53196540430E+01  0.11672005280E+02  0.00000000000E+00 0. -1.
         -3    1    3    3    0  502  0.54630763194E+03  0.26572097411E+03  0.15223498679E+03  0.62628680012E+03  0.00000000000E+00 0.  1.
         13    1    5    5    0    0 -0.32290488169E+03 -0.16442980559E+03  0.35299215496E+03  0.50587368488E+03  0.00000000000E+00 0. -1.
        -13    1    5    5    0    0 -0.39255476886E+03 -0.25465436879E+03  0.58975919092E+03  0.75283729808E+03  0.00000000000E+00 0.  1.
          3    1    6    6  503    0 -0.59468879125E+01  0.68712880563E+01  0.59875690627E+02  0.60561360647E+02  0.00000000000E+00 0. -1.
         -3    1    6    6    0  503  0.16641468688E+03  0.15219465869E+03  0.34787407018E+03  0.41457620632E+03  0.00000000000E+00 0.  1.
<mgrwt>
<rscale>  0 0.18306387E+04</rscale>
<asrwt>0</asrwt>
<pdfrwt beam="1">  1        2 0.29845100E+00 0.18306387E+04</pdfrwt>
<pdfrwt beam="2">  1       -1 0.66442432E-01 0.18306387E+04</pdfrwt>
<totfact> 0.17762036E+01</totfact>
</mgrwt>
</event>
<event>
12    7  0.1711607E-007  0.1194273E+04  0.7818608E-02  0.9117884E-01
          4   -1    0    0  501    0  0.00000000000E+00  0.00000000000E+00  0.17696050967E+03  0.17696050967E+03  0.00000000000E+00 0. -1.
         -3   -1    0    0    0  501 -0.00000000000E+00 -0.00000000000E+00 -0.20149804202E+04  0.20149804202E+04  0.00000000000E+00 0.  1.
         24    2    1    2    0    0 -0.22469199839E+03 -0.11066576383E+03 -0.39727614045E+03  0.47583594266E+03  0.76538272315E+02 0.  0.
        254    2    1    2    0    0  0.22469199839E+03  0.11066576383E+03 -0.14407437700E+04  0.17161049872E+04  0.89807589360E+03 0.  0.
         23    2    4    4    0    0 -0.12845686091E+03 -0.31844267016E+03 -0.41824264346E+03  0.54876192790E+03  0.91136411013E+02 0.  0.
         23    2    4    4    0    0  0.35314885929E+03  0.42910843399E+03 -0.10225011266E+04  0.11673430593E+04  0.91285810644E+02 0.  0.
          4    1    3    3  502    0 -0.18789529042E+03 -0.11087517225E+03 -0.29332884775E+03  0.36556771863E+03  0.00000000000E+00 0. -1.
         -3    1    3    3    0  502 -0.36796707967E+02  0.20940842824E+00 -0.10394729270E+03  0.11026822403E+03  0.00000000000E+00 0.  1.
         13    1    5    5    0    0 -0.35385122994E+02 -0.18606134289E+03 -0.18401088143E+03  0.26406615598E+03  0.00000000000E+00 0.  1.
        -13    1    5    5    0    0 -0.93071737912E+02 -0.13238132727E+03 -0.23423176203E+03  0.28469577192E+03  0.00000000000E+00 0. -1.
          4    1    6    6  503    0  0.27819146027E+03  0.32126387752E+03 -0.69693133735E+03  0.81628074615E+03  0.00000000000E+00 0. -1.
         -4    1    6    6    0  503  0.74957399025E+02  0.10784455647E+03 -0.32556978923E+03  0.35106231311E+03  0.00000000000E+00 0.  1.
<mgrwt>
<rscale>  0 0.11942729E+04</rscale>
<asrwt>0</asrwt>
<pdfrwt beam="1">  1        4 0.27224692E-01 0.11942729E+04</pdfrwt>
<pdfrwt beam="2">  1       -3 0.30999701E+00 0.11942729E+04</pdfrwt>
<totfact> 0.99046027E-01</totfact>
</mgrwt>
</event>
<event>
12    7  0.1711607E-007  0.1876722E+04  0.7818608E-02  0.8666531E-01
          2   -1    0    0  501    0  0.00000000000E+00  0.00000000000E+00  0.14503686802E+04  0.14503686802E+04  0.00000000000E+00 0. -1.
         -1   -1    0    0    0  501 -0.00000000000E+00 -0.00000000000E+00 -0.60710191939E+03  0.60710191939E+03  0.00000000000E+00 0.  1.
         24    2    1    2    0    0  0.60775537731E+03 -0.35881811151E+03  0.16523583067E+03  0.72917130306E+03  0.79188848163E+02 0.  0.
        254    2    1    2    0    0 -0.60775537731E+03  0.35881811151E+03  0.67803093010E+03  0.13282992965E+04  0.89807351764E+03 0.  0.
         23    2    4    4    0    0 -0.57801188120E+03  0.16653095378E+03  0.85555789744E+03  0.10497898124E+04  0.90824230851E+02 0.  0.
         23    2    4    4    0    0 -0.29743496108E+02  0.19228715773E+03 -0.17752696734E+03  0.27850948411E+03  0.90513435573E+02 0.  0.
          4    1    3    3  502    0  0.11587565439E+03 -0.89706216892E+02  0.75519603898E+01  0.14673583317E+03  0.00000000000E+00 0. -1.
         -3    1    3    3    0  502  0.49187972292E+03 -0.26911189462E+03  0.15768387028E+03  0.58243546989E+03  0.00000000000E+00 0.  1.
         13    1    5    5    0    0 -0.52653858700E+03  0.17113260951E+03  0.80848320066E+03  0.97988486027E+03  0.00000000000E+00 0. -1.
        -13    1    5    5    0    0 -0.51473294207E+02 -0.46016557255E+01  0.47074696786E+02  0.69904952109E+02  0.00000000000E+00 0.  1.
          2    1    6    6  503    0  0.22769368866E+02  0.13485963564E+03 -0.11178443619E+03  0.17663896982E+03  0.00000000000E+00 0. -1.
         -2    1    6    6    0  503 -0.52512864973E+02  0.57427522092E+02 -0.65742531147E+02  0.10187051430E+03  0.00000000000E+00 0.  1.
<mgrwt>
<rscale>  0 0.18767223E+04</rscale>
<asrwt>0</asrwt>
<pdfrwt beam="1">  1        2 0.22313364E+00 0.18767223E+04</pdfrwt>
<pdfrwt beam="2">  1       -1 0.93400296E-01 0.18767223E+04</pdfrwt>
<totfact> 0.16108580E+01</totfact>
</mgrwt>
</event>
<event>
12    7  0.1711607E-007  0.2480645E+04  0.7818608E-02  0.8409913E-01
          2   -1    0    0  501    0  0.00000000000E+00  0.00000000000E+00  0.29374562514E+04  0.29374562514E+04  0.00000000000E+00 0. -1.
         -1   -1    0    0    0  501 -0.00000000000E+00 -0.00000000000E+00 -0.52371858180E+03  0.52371858180E+03  0.00000000000E+00 0.  1.
         24    2    1    2    0    0  0.53006257683E+03 -0.57187972339E+03  0.13242640646E+02  0.78386639032E+03  0.79110030771E+02 0.  0.
        254    2    1    2    0    0 -0.53006257683E+03  0.57187972339E+03  0.24004950290E+04  0.26773084429E+04  0.89307970580E+03 0.  0.
         23    2    4    4    0    0 -0.43499380505E+03 -0.63675483894E+02  0.51188504995E+03  0.68032947522E+03  0.86877573654E+02 0.  0.
         23    2    4    4    0    0 -0.95068771777E+02  0.63555520728E+03  0.18886099790E+04  0.19969789677E+04  0.90049162266E+02 0.  0.
          4    1    3    3  502    0  0.76462184206E+02 -0.61305402320E+02  0.23674039924E+02  0.10082300399E+03  0.00000000000E+00 0. -1.
         -3    1    3    3    0  502  0.45360039262E+03 -0.51057432107E+03 -0.10431399279E+02  0.68304338633E+03  0.00000000000E+00 0.  1.
         13    1    5    5    0    0 -0.42854492214E+03 -0.48164055382E+02  0.49519036974E+03  0.65664604530E+03  0.00000000000E+00 0. -1.
        -13    1    5    5    0    0 -0.64488829069E+01 -0.15511428513E+02  0.16694680211E+02  0.23683429917E+02  0.00000000000E+00 0.  1.
          4    1    6    6  503    0 -0.37710132674E+02  0.48655859711E+03  0.14742644732E+04  0.15529382021E+04  0.00000000000E+00 0. -1.
         -4    1    6    6    0  503 -0.57358639103E+02  0.14899661017E+03  0.41434550577E+03  0.44404076555E+03  0.00000000000E+00 0.  1.
<mgrwt>
<rscale>  0 0.24806454E+04</rscale>
<asrwt>0</asrwt>
<pdfrwt beam="1">  1        2 0.45191634E+00 0.24806454E+04</pdfrwt>
<pdfrwt beam="2">  1       -1 0.80572091E-01 0.24806454E+04</pdfrwt>
<totfact> 0.29734263E+00</totfact>
</mgrwt>
</event>
<event>
12    7  0.1711607E-007  0.2707960E+04  0.7818608E-02  0.8332427E-01
         -1   -1    0    0    0  501 -0.00000000000E+00  0.00000000000E+00  0.21358079297E+04  0.21358079297E+04  0.00000000000E+00 0.  1.
          2   -1    0    0  501    0  0.00000000000E+00 -0.00000000000E+00 -0.85834582282E+03  0.85834582282E+03  0.00000000000E+00 0. -1.
         24    2    1    2    0    0 -0.43858555212E+02 -0.94764411200E+03 -0.22968038386E+03  0.97933387268E+03  0.79930091796E+02 0.  0.
        254    2    1    2    0    0  0.43858555212E+02  0.94764411200E+03  0.15071424907E+04  0.20148198798E+04  0.94237345296E+03 0.  0.
         23    2    4    4    0    0 -0.29015341995E+03 -0.36646104669E+01  0.50900242869E+03  0.59309831911E+03  0.92085325882E+02 0.  0.
         23    2    4    4    0    0  0.33401197516E+03  0.95130872247E+03  0.99814006203E+03  0.14217215607E+04  0.91958293388E+02 0.  0.
          4    1    3    3  502    0  0.12820633816E+02 -0.41890465712E+03 -0.77370477921E+02  0.42618267358E+03  0.00000000000E+00 0. -1.
         -3    1    3    3    0  502 -0.56679189028E+02 -0.52873945489E+03 -0.15230990594E+03  0.55315119910E+03  0.00000000000E+00 0.  1.
         13    1    5    5    0    0 -0.11236901552E+03  0.35700670044E+02  0.25097095682E+03  0.27728641268E+03  0.00000000000E+00 0. -1.
        -13    1    5    5    0    0 -0.17778440442E+03 -0.39365280511E+02  0.25803147186E+03  0.31581190642E+03  0.00000000000E+00 0.  1.
          3    1    6    6  503    0  0.28847999394E+03  0.76311234177E+03  0.76186617993E+03  0.11162442516E+04  0.00000000000E+00 0. -1.
         -3    1    6    6    0  503  0.45531981217E+02  0.18819638070E+03  0.23627388210E+03  0.30547730911E+03  0.00000000000E+00 0.  1.
<mgrwt>
<rscale>  0 0.27079600E+04</rscale>
<asrwt>0</asrwt>
<pdfrwt beam="1">  1        2 0.13205320E+00 0.27079600E+04</pdfrwt>
<pdfrwt beam="2">  1       -1 0.32858583E+00 0.27079600E+04</pdfrwt>
<totfact> 0.67321806E-01</totfact>
</mgrwt>
</event>
<event>
12    7  0.1711607E-007  0.1248401E+04  0.7818608E-02  0.9071515E-01
          2   -1    0    0  501    0  0.00000000000E+00  0.00000000000E+00  0.33625076898E+03  0.33625076898E+03  0.00000000000E+00 0. -1.
         -1   -1    0    0    0  501 -0.00000000000E+00 -0.00000000000E+00 -0.11587372335E+04  0.11587372335E+04  0.00000000000E+00 0.  1.
         24    2    1    2    0    0  0.13045826524E+03 -0.12297911614E+02  0.11305062922E+03  0.18956765597E+03  0.77361837011E+02 0.  0.
        254    2    1    2    0    0 -0.13045826524E+03  0.12297911614E+02 -0.93553709369E+03  0.13054203465E+04  0.90095617523E+03 0.  0.
         23    2    4    4    0    0 -0.30383900253E+03 -0.26494383794E+03 -0.13337193527E+03  0.43427199798E+03  0.91053382090E+02 0.  0.
         23    2    4    4    0    0  0.17338073729E+03  0.27724174956E+03 -0.80216515842E+03  0.87114834848E+03  0.92231425886E+02 0.  0.
          4    1    3    3  502    0  0.15121334719E+02 -0.44219239806E+01  0.60610023249E+02  0.62624141460E+02  0.00000000000E+00 0. -1.
         -3    1    3    3    0  502  0.11533693052E+03 -0.78759876337E+01  0.52440605972E+02  0.12694351451E+03  0.00000000000E+00 0.  1.
         13    1    5    5    0    0 -0.27279176240E+03 -0.22388904577E+03 -0.14495056048E+03  0.38151319168E+03  0.00000000000E+00 0.  1.
        -13    1    5    5    0    0 -0.31047240134E+02 -0.41054792176E+02  0.11578625202E+02  0.52758806299E+02  0.00000000000E+00 0. -1.
          3    1    6    6  503    0  0.91674486528E+02  0.18654364983E+03 -0.60003599759E+03  0.63501649048E+03  0.00000000000E+00 0. -1.
         -3    1    6    6    0  503  0.81706250765E+02  0.90698099729E+02 -0.20212916082E+03  0.23613185800E+03  0.00000000000E+00 0.  1.
<mgrwt>
<rscale>  0 0.12484010E+04</rscale>
<asrwt>0</asrwt>
<pdfrwt beam="1">  1        2 0.51730888E-01 0.12484010E+04</pdfrwt>
<pdfrwt beam="2">  1       -1 0.17826727E+00 0.12484010E+04</pdfrwt>
<totfact> 0.23317494E+01</totfact>
</mgrwt>
</event>
<event>
12    7  0.1711607E-007  0.2580969E+04  0.7818608E-02  0.8374694E-01
         -1   -1    0    0    0  501 -0.00000000000E+00  0.00000000000E+00  0.51548947235E+03  0.51548947235E+03  0.00000000000E+00 0.  1.
          2   -1    0    0  501    0  0.00000000000E+00 -0.00000000000E+00 -0.32306191321E+04  0.32306191321E+04  0.00000000000E+00 0. -1.
         24    2    1    2    0    0 -0.50508384016E+03  0.96692586230E+03 -0.16424161574E+04  0.19733185660E+04  0.80000126525E+02 0.  0.
        254    2    1    2    0    0  0.50508384016E+03 -0.96692586230E+03 -0.10727135024E+04  0.17727900385E+04  0.89555287584E+03 0.  0.
         23    2    4    4    0    0  0.57375985008E+03 -0.72630559785E+03 -0.11653225653E+04  0.14910487029E+04  0.92354567894E+02 0.  0.
         23    2    4    4    0    0 -0.68676009920E+02 -0.24062026445E+03  0.92609062875E+02  0.28174133556E+03  0.90483344503E+02 0.  0.
          4    1    3    3  502    0 -0.43719690055E+03  0.81974474764E+03 -0.13462069991E+04  0.16356637385E+04  0.00000000000E+00 0. -1.
         -3    1    3    3    0  502 -0.67886939613E+02  0.14718111467E+03 -0.29620915828E+03  0.33765482750E+03  0.00000000000E+00 0.  1.
         13    1    5    5    0    0  0.49414978547E+03 -0.63607364935E+03 -0.10587402547E+04  0.13303024562E+04  0.00000000000E+00 0. -1.
        -13    1    5    5    0    0  0.79610064613E+02 -0.90231948507E+02 -0.10658231059E+03  0.16074624676E+03  0.00000000000E+00 0.  1.
          4    1    6    6  503    0 -0.44509125378E+02 -0.15200510533E+03  0.10356104508E+03  0.18923927802E+03  0.00000000000E+00 0. -1.
         -4    1    6    6    0  503 -0.24166884542E+02 -0.88615159121E+02 -0.10951982202E+02  0.92502057538E+02  0.00000000000E+00 0.  1.
<mgrwt>
<rscale>  0 0.25809689E+04</rscale>
<asrwt>0</asrwt>
<pdfrwt beam="1">  1        2 0.49701834E+00 0.25809689E+04</pdfrwt>
<pdfrwt beam="2">  1       -1 0.79306071E-01 0.25809689E+04</pdfrwt>
<totfact> 0.19826568E+00</totfact>
</mgrwt>
</event>
<event>
12    7  0.1711607E-007  0.2560570E+04  0.7818608E-02  0.8381719E-01
         -1   -1    0    0    0  501 -0.00000000000E+00  0.00000000000E+00  0.12058339317E+04  0.12058339317E+04  0.00000000000E+00 0.  1.
          2   -1    0    0  501    0  0.00000000000E+00 -0.00000000000E+00 -0.13593326953E+04  0.13593326953E+04  0.00000000000E+00 0. -1.
         24    2    1    2    0    0  0.13689225774E+03  0.55165533830E+03  0.89949480799E+03  0.10669951582E+04  0.79527703255E+02 0.  0.
        254    2    1    2    0    0 -0.13689225774E+03 -0.55165533830E+03 -0.10529935716E+04  0.14981714688E+04  0.90147611485E+03 0.  0.
         23    2    4    4    0    0 -0.16588598554E+03 -0.59924431326E+03 -0.11774368880E+04  0.13346317324E+04  0.90952343415E+02 0.  0.
         23    2    4    4    0    0  0.28993727804E+02  0.47588974962E+02  0.12444331642E+03  0.16353973639E+03  0.90298170446E+02 0.  0.
          2    1    3    3  502    0  0.40899494525E+02  0.18595590354E+03  0.23484544087E+03  0.30233218123E+03  0.00000000000E+00 0. -1.
         -1    1    3    3    0  502  0.95992763211E+02  0.36569943476E+03  0.66464936712E+03  0.76466297699E+03  0.00000000000E+00 0.  1.
         13    1    5    5    0    0 -0.13723519768E+03 -0.55711674950E+03 -0.11156706181E+04  0.12545650641E+04  0.00000000000E+00 0.  1.
        -13    1    5    5    0    0 -0.28650787857E+02 -0.42127563755E+02 -0.61766269957E+02  0.80066668328E+02  0.00000000000E+00 0. -1.
          1    1    6    6  503    0  0.49826037560E+02  0.56255571480E+02  0.62926702997E+02  0.98015780829E+02  0.00000000000E+00 0. -1.
         -1    1    6    6    0  503 -0.20832309756E+02 -0.86665965175E+01  0.61516613423E+02  0.65523955558E+02  0.00000000000E+00 0.  1.
<mgrwt>
<rscale>  0 0.25605698E+04</rscale>
<asrwt>0</asrwt>
<pdfrwt beam="1">  1        2 0.20912810E+00 0.25605698E+04</pdfrwt>
<pdfrwt beam="2">  1       -1 0.18551291E+00 0.25605698E+04</pdfrwt>
<totfact> 0.29347662E+00</totfact>
</mgrwt>
</event>
<event>
12    7  0.1711607E-007  0.2227455E+04  0.7818608E-02  0.8507087E-01
         -1   -1    0    0    0  501 -0.00000000000E+00  0.00000000000E+00  0.15367755969E+04  0.15367755969E+04  0.00000000000E+00 0.  1.
          2   -1    0    0  501    0  0.00000000000E+00 -0.00000000000E+00 -0.80713712577E+03  0.80713712577E+03  0.00000000000E+00 0. -1.
         24    2    1    2    0    0  0.31237686304E+03  0.48763710414E+03  0.10728675562E+04  0.12216333055E+04  0.77290944067E+02 0.  0.
        254    2    1    2    0    0 -0.31237686304E+03 -0.48763710414E+03 -0.34322908508E+03  0.11222794172E+04  0.89796193432E+03 0.  0.
         23    2    4    4    0    0 -0.39241229739E+03 -0.53905508167E+03  0.81496107798E+02  0.67773139290E+03  0.90057943120E+02 0.  0.
         23    2    4    4    0    0  0.80035434353E+02  0.51417977529E+02 -0.42472519287E+03  0.44454802428E+03  0.90454282729E+02 0.  0.
          2    1    3    3  502    0  0.31233698411E+02  0.15825641670E+02  0.62880993733E+02  0.71972315674E+02  0.00000000000E+00 0. -1.
         -3    1    3    3    0  502  0.28114316463E+03  0.47181146247E+03  0.10099865625E+04  0.11496609898E+04  0.00000000000E+00 0.  1.
         13    1    5    5    0    0 -0.26595831280E+03 -0.35481982825E+03  0.96360830346E+02  0.45378006158E+03  0.00000000000E+00 0. -1.
        -13    1    5    5    0    0 -0.12645398459E+03 -0.18423525343E+03 -0.14864722548E+02  0.22395133132E+03  0.00000000000E+00 0.  1.
          4    1    6    6  503    0  0.63807331455E+02  0.29123048186E+02 -0.40402356694E+03  0.41006654353E+03  0.00000000000E+00 0. -1.
         -4    1    6    6    0  503  0.16228102898E+02  0.22294929343E+02 -0.20701625933E+02  0.34481480745E+02  0.00000000000E+00 0.  1.
<mgrwt>
<rscale>  0 0.22274547E+04</rscale>
<asrwt>0</asrwt>
<pdfrwt beam="1">  1        2 0.12417494E+00 0.22274547E+04</pdfrwt>
<pdfrwt beam="2">  1       -1 0.23642701E+00 0.22274547E+04</pdfrwt>
<totfact> 0.30311319E+00</totfact>
</mgrwt>
</event>
<event>
12    7  0.1711607E-007  0.4038112E+04  0.7818608E-02  0.7996902E-01
          2   -1    0    0  501    0  0.00000000000E+00  0.00000000000E+00  0.97161688444E+03  0.97161688444E+03  0.00000000000E+00 0. -1.
         -1   -1    0    0    0  501 -0.00000000000E+00 -0.00000000000E+00 -0.41956732259E+04  0.41956732259E+04  0.00000000000E+00 0.  1.
         24    2    1    2    0    0 -0.73379368914E+02 -0.19089121654E+04 -0.12678951126E+04  0.22941809768E+04  0.79863327907E+02 0.  0.
        254    2    1    2    0    0  0.73379368914E+02  0.19089121654E+04 -0.19561612288E+04  0.28731091335E+04  0.88252997275E+03 0.  0.
         23    2    4    4    0    0  0.15204203917E+03  0.19534151392E+04 -0.17339834224E+04  0.26180293952E+04  0.91825471314E+02 0.  0.
         23    2    4    4    0    0 -0.78662670256E+02 -0.44502973881E+02 -0.22217780641E+03  0.25507973823E+03  0.86800719016E+02 0.  0.
          4    1    3    3  502    0 -0.43285742252E+02 -0.10816722475E+04 -0.76578262376E+03  0.13260133986E+04  0.00000000000E+00 0. -1.
         -3    1    3    3    0  502 -0.30093626662E+02 -0.82723991787E+03 -0.50211248884E+03  0.96816757823E+03  0.00000000000E+00 0.  1.
         13    1    5    5    0    0  0.87941396585E+02  0.12623058633E+04 -0.10622499082E+04  0.16521273102E+04  0.00000000000E+00 0.  1.
        -13    1    5    5    0    0  0.64100642585E+02  0.69110927596E+03 -0.67173351427E+03  0.96590208504E+03  0.00000000000E+00 0. -1.
          3    1    6    6  503    0  0.44419961456E+00  0.18350785252E+02 -0.70354763314E+02  0.72709981115E+02  0.00000000000E+00 0. -1.
         -3    1    6    6    0  503 -0.79106869870E+02 -0.62853759133E+02 -0.15182304309E+03  0.18236975712E+03  0.00000000000E+00 0.  1.
<mgrwt>
<rscale>  0 0.40381119E+04</rscale>
<asrwt>0</asrwt>
<pdfrwt beam="1">  1        2 0.14947953E+00 0.40381119E+04</pdfrwt>
<pdfrwt beam="2">  1       -1 0.64548817E+00 0.40381119E+04</pdfrwt>
<totfact> 0.71379981E-03</totfact>
</mgrwt>
</event>
<event>
12    7  0.1711607E-007  0.1865230E+04  0.7818608E-02  0.8672360E-01
         -1   -1    0    0    0  501 -0.00000000000E+00  0.00000000000E+00  0.70110509699E+03  0.70110509699E+03  0.00000000000E+00 0.  1.
          2   -1    0    0  501    0  0.00000000000E+00 -0.00000000000E+00 -0.12405713567E+04  0.12405713567E+04  0.00000000000E+00 0. -1.
         24    2    1    2    0    0 -0.41260646734E+03  0.33439707859E+03  0.28496210922E+03  0.60795240508E+03  0.79606658571E+02 0.  0.
        254    2    1    2    0    0  0.41260646734E+03 -0.33439707859E+03 -0.82442836894E+03  0.13337240486E+04  0.90392046074E+03 0.  0.
         23    2    4    4    0    0  0.52632160196E+03 -0.28693914485E+03 -0.12662311204E+03  0.61937647525E+03  0.90803656653E+02 0.  0.
         23    2    4    4    0    0 -0.11371513462E+03 -0.47457933743E+02 -0.69780525690E+03  0.71434757338E+03  0.90426167283E+02 0.  0.
          2    1    3    3  502    0 -0.50615464991E+02  0.64749113816E+02  0.20133019732E+02  0.84615078560E+02  0.00000000000E+00 0. -1.
         -1    1    3    3    0  502 -0.36199100234E+03  0.26964796478E+03  0.26482908948E+03  0.52333732652E+03  0.00000000000E+00 0.  1.
         13    1    5    5    0    0  0.91852415081E+02 -0.80087566467E+02 -0.26200654775E+00  0.12186448665E+03  0.00000000000E+00 0. -1.
        -13    1    5    5    0    0  0.43446918687E+03 -0.20685157838E+03 -0.12636110549E+03  0.49751198860E+03  0.00000000000E+00 0.  1.
          1    1    6    6  503    0 -0.61578379074E+02 -0.70799826828E+02 -0.48595232725E+03  0.49492845605E+03  0.00000000000E+00 0. -1.
         -1    1    6    6    0  503 -0.52136755546E+02  0.23341893085E+02 -0.21185292965E+03  0.21941911734E+03  0.00000000000E+00 0.  1.
<mgrwt>
<rscale>  0 0.18652302E+04</rscale>
<asrwt>0</asrwt>
<pdfrwt beam="1">  1        2 0.19085713E+00 0.18652302E+04</pdfrwt>
<pdfrwt beam="2">  1       -1 0.10786232E+00 0.18652302E+04</pdfrwt>
<totfact> 0.15336439E+01</totfact>
</mgrwt>
</event>
<event>
12    7  0.1711607E-007  0.1876181E+04  0.7818608E-02  0.8666804E-01
         -1   -1    0    0    0  501 -0.00000000000E+00  0.00000000000E+00  0.14488866363E+04  0.14488866363E+04  0.00000000000E+00 0.  1.
          2   -1    0    0  501    0  0.00000000000E+00 -0.00000000000E+00 -0.60737218648E+03  0.60737218648E+03  0.00000000000E+00 0. -1.
         24    2    1    2    0    0 -0.39144499181E+03  0.27286532940E+03 -0.24522569085E+03  0.54203541477E+03  0.77343919010E+02 0.  0.
        254    2    1    2    0    0  0.39144499181E+03 -0.27286532940E+03  0.10867401407E+04  0.15142234080E+04  0.94031044153E+03 0.  0.
         23    2    4    4    0    0  0.21470096353E+03 -0.61372321026E+03  0.62509472786E+03  0.90702642682E+03  0.95920996702E+02 0.  0.
         23    2    4    4    0    0  0.17674402828E+03  0.34085788086E+03  0.46164541284E+03  0.60719698122E+03  0.90272589008E+02 0.  0.
          2    1    3    3  502    0 -0.38849794915E+03  0.27270606859E+03 -0.23169633327E+03  0.52818789004E+03  0.00000000000E+00 0. -1.
         -1    1    3    3    0  502 -0.29470426649E+01  0.15926080868E+00 -0.13529357581E+02  0.13847524726E+02  0.00000000000E+00 0.  1.
         13    1    5    5    0    0  0.87731639662E+02 -0.38906400657E+03  0.36515472594E+03  0.54074542594E+03  0.00000000000E+00 0.  1.
        -13    1    5    5    0    0  0.12696932387E+03 -0.22465920369E+03  0.25994000192E+03  0.36628100088E+03  0.00000000000E+00 0. -1.
          2    1    6    6  503    0  0.49299928343E+02  0.19310005727E+03  0.23481593768E+03  0.30798805113E+03  0.00000000000E+00 0. -1.
         -2    1    6    6    0  503  0.12744409994E+03  0.14775782359E+03  0.22682947516E+03  0.29920893008E+03  0.00000000000E+00 0.  1.
<mgrwt>
<rscale>  0 0.18761806E+04</rscale>
<asrwt>0</asrwt>
<pdfrwt beam="1">  1        2 0.93441875E-01 0.18761806E+04</pdfrwt>
<pdfrwt beam="2">  1       -1 0.22290564E+00 0.18761806E+04</pdfrwt>
<totfact> 0.55102048E+00</totfact>
</mgrwt>
</event>
<event>
12    7  0.1711607E-007  0.1929109E+04  0.7818608E-02  0.8640501E-01
         -1   -1    0    0    0  501 -0.00000000000E+00  0.00000000000E+00  0.17839268302E+04  0.17839268302E+04  0.00000000000E+00 0.  1.
          2   -1    0    0  501    0  0.00000000000E+00 -0.00000000000E+00 -0.52152677905E+03  0.52152677905E+03  0.00000000000E+00 0. -1.
         24    2    1    2    0    0  0.22551426812E+03 -0.81792438254E+02 -0.36346931866E+03  0.44280941666E+03  0.80147026092E+02 0.  0.
        254    2    1    2    0    0 -0.22551426812E+03  0.81792438254E+02  0.16258693698E+04  0.18626441925E+04  0.87661022832E+03 0.  0.
         23    2    4    4    0    0 -0.36915643405E+02  0.28646758141E+03  0.11553936582E+03  0.32407516956E+03  0.90823623283E+02 0.  0.
         23    2    4    4    0    0 -0.18859862472E+03 -0.20467514316E+03  0.15103300040E+04  0.15385690230E+04  0.92933105903E+02 0.  0.
          4    1    3    3  502    0  0.19924459817E+03 -0.46362767134E+02 -0.32633522421E+03  0.38515269002E+03  0.00000000000E+00 0. -1.
         -3    1    3    3    0  502  0.26269669958E+02 -0.35429671120E+02 -0.37134094454E+02  0.57656726636E+02  0.00000000000E+00 0.  1.
         13    1    5    5    0    0 -0.55677862545E+02  0.11715645826E+03  0.28619063391E+02  0.13283339519E+03  0.00000000000E+00 0. -1.
        -13    1    5    5    0    0  0.18762219140E+02  0.16931112316E+03  0.86920302424E+02  0.19124177437E+03  0.00000000000E+00 0.  1.
          2    1    6    6  503    0 -0.52166757103E+02 -0.46001246588E+02  0.62430075428E+03  0.62816312932E+03  0.00000000000E+00 0. -1.
         -2    1    6    6    0  503 -0.13643186762E+03 -0.15867389657E+03  0.88602924967E+03  0.91040589367E+03  0.00000000000E+00 0.  1.
<mgrwt>
<rscale>  0 0.19291092E+04</rscale>
<asrwt>0</asrwt>
<pdfrwt beam="1">  1        2 0.80234890E-01 0.19291092E+04</pdfrwt>
<pdfrwt beam="2">  1       -1 0.27445028E+00 0.19291092E+04</pdfrwt>
<totfact> 0.30262382E+00</totfact>
</mgrwt>
</event>
<event>
12    7  0.1711607E-007  0.1281148E+04  0.7818608E-02  0.9044650E-01
         -1   -1    0    0    0  501 -0.00000000000E+00  0.00000000000E+00  0.71081705198E+03  0.71081705198E+03  0.00000000000E+00 0.  1.
          2   -1    0    0  501    0  0.00000000000E+00 -0.00000000000E+00 -0.57727231544E+03  0.57727231544E+03  0.00000000000E+00 0. -1.
         24    2    1    2    0    0  0.16781809478E+03  0.18160080178E+03 -0.16229887351E+03  0.30626651615E+03  0.79476351382E+02 0.  0.
        254    2    1    2    0    0 -0.16781809478E+03 -0.18160080178E+03  0.29584361006E+03  0.98182285127E+03  0.90294568248E+03 0.  0.
         23    2    4    4    0    0  0.14992484730E+03 -0.46750523502E+03  0.17921245231E+03  0.52959774682E+03  0.85545694027E+02 0.  0.
         23    2    4    4    0    0 -0.31774294208E+03  0.28590443324E+03  0.11663115775E+03  0.45222510444E+03  0.90569288095E+02 0.  0.
          2    1    3    3  502    0  0.70406602502E+02  0.11139986177E+03 -0.47321032753E+02  0.14002249469E+03  0.00000000000E+00 0. -1.
         -1    1    3    3    0  502  0.97411492275E+02  0.70200940012E+02 -0.11497784076E+03  0.16624402146E+03  0.00000000000E+00 0.  1.
         13    1    5    5    0    0  0.12001698540E+03 -0.44316297689E+03  0.17246174732E+03  0.49044934006E+03  0.00000000000E+00 0. -1.
        -13    1    5    5    0    0  0.29907861906E+02 -0.24342258129E+02  0.67507049859E+01  0.39148406767E+02  0.00000000000E+00 0.  1.
          3    1    6    6  503    0 -0.22734452117E+03  0.24680041253E+03  0.67976319945E+02  0.34236932544E+03  0.00000000000E+00 0. -1.
         -3    1    6    6    0  503 -0.90398420909E+02  0.39104020708E+02  0.48654837805E+02  0.10985577900E+03  0.00000000000E+00 0.  1.
<mgrwt>
<rscale>  0 0.12811479E+04</rscale>
<asrwt>0</asrwt>
<pdfrwt beam="1">  1        2 0.88811126E-01 0.12811479E+04</pdfrwt>
<pdfrwt beam="2">  1       -1 0.10935647E+00 0.12811479E+04</pdfrwt>
<totfact> 0.45128183E+01</totfact>
</mgrwt>
</event>
<event>
12    7  0.1711607E-007  0.1912174E+04  0.7818608E-02  0.8648820E-01
         -1   -1    0    0    0  501 -0.00000000000E+00  0.00000000000E+00  0.32208022382E+03  0.32208022382E+03  0.00000000000E+00 0.  1.
          2   -1    0    0  501    0  0.00000000000E+00 -0.00000000000E+00 -0.28381204386E+04  0.28381204386E+04  0.00000000000E+00 0. -1.
         24    2    1    2    0    0 -0.27274704313E+03  0.34112528238E+03 -0.19763608366E+04  0.20255497356E+04  0.78052336213E+02 0.  0.
        254    2    1    2    0    0  0.27274704313E+03 -0.34112528238E+03 -0.53967937817E+03  0.11346509268E+04  0.89745277683E+03 0.  0.
         23    2    4    4    0    0  0.25677590099E+03 -0.63549157097E+03 -0.37201924259E+03  0.78495948859E+03  0.89329064419E+02 0.  0.
         23    2    4    4    0    0  0.15971142137E+02  0.29436628860E+03 -0.16766013557E+03  0.34969143820E+03  0.85250170962E+02 0.  0.
          4    1    3    3  502    0 -0.17064608497E+03  0.15116627962E+03 -0.10010869360E+04  0.10267163113E+04  0.00000000000E+00 0. -1.
         -3    1    3    3    0  502 -0.10210095817E+03  0.18995900275E+03 -0.97527390061E+03  0.99883342435E+03  0.00000000000E+00 0.  1.
         13    1    5    5    0    0  0.22139547904E+03 -0.50923772049E+03 -0.26289187049E+03  0.61437053126E+03  0.00000000000E+00 0. -1.
        -13    1    5    5    0    0  0.35380421956E+02 -0.12625385048E+03 -0.10912737210E+03  0.17058895733E+03  0.00000000000E+00 0.  1.
          4    1    6    6  503    0 -0.13027135607E+02  0.19001348541E+03 -0.14415570573E+03  0.23886334670E+03  0.00000000000E+00 0. -1.
         -4    1    6    6    0  503  0.28998277744E+02  0.10435280319E+03 -0.23504429842E+02  0.11082809151E+03  0.00000000000E+00 0.  1.
<mgrwt>
<rscale>  0 0.19121741E+04</rscale>
<asrwt>0</asrwt>
<pdfrwt beam="1">  1        2 0.43663389E+00 0.19121741E+04</pdfrwt>
<pdfrwt beam="2">  1       -1 0.49550806E-01 0.19121741E+04</pdfrwt>
<totfact> 0.95555577E+00</totfact>
</mgrwt>
</event>
<event>
12    7  0.1711607E-007  0.2341635E+04  0.7818608E-02  0.8461684E-01
          2   -1    0    0  501    0  0.00000000000E+00  0.00000000000E+00  0.72147585970E+03  0.72147585970E+03  0.00000000000E+00 0. -1.
         -1   -1    0    0    0  501 -0.00000000000E+00 -0.00000000000E+00 -0.19000127560E+04  0.19000127560E+04  0.00000000000E+00 0.  1.
         24    2    1    2    0    0  0.69543515164E+03 -0.31871505653E+03  0.20802937823E+03  0.79652137570E+03  0.77205844016E+02 0.  0.
        254    2    1    2    0    0 -0.69543515164E+03  0.31871505653E+03 -0.13865662745E+04  0.18249672400E+04  0.90704468246E+03 0.  0.
         23    2    4    4    0    0 -0.81516659822E+03  0.15613261583E+03 -0.65810912592E+03  0.10636290330E+04  0.96566669675E+02 0.  0.
         23    2    4    4    0    0  0.11973144658E+03  0.16258244070E+03 -0.72845714857E+03  0.76133820694E+03  0.90649758510E+02 0.  0.
          2    1    3    3  502    0  0.56498434948E+03 -0.23637030034E+03  0.14179125096E+03  0.62863581897E+03  0.00000000000E+00 0. -1.
         -1    1    3    3    0  502  0.13045080216E+03 -0.82344756193E+02  0.66238127269E+02  0.16788555674E+03  0.00000000000E+00 0.  1.
         13    1    5    5    0    0 -0.77657587097E+03  0.16157456603E+03 -0.60422398502E+03  0.99712739799E+03  0.00000000000E+00 0. -1.
        -13    1    5    5    0    0 -0.38590727255E+02 -0.54419501988E+01 -0.53885140902E+02  0.66501635033E+02  0.00000000000E+00 0.  1.
          2    1    6    6  503    0 -0.92112147214E+01 -0.40997259214E+01 -0.23878879519E+02  0.25920168139E+02  0.00000000000E+00 0.  1.
         -2    1    6    6    0  503  0.12894266130E+03  0.16668216662E+03 -0.70457826905E+03  0.73541803880E+03  0.00000000000E+00 0. -1.
<mgrwt>
<rscale>  0 0.23416348E+04</rscale>
<asrwt>0</asrwt>
<pdfrwt beam="1">  1        2 0.11099629E+00 0.23416348E+04</pdfrwt>
<pdfrwt beam="2">  1       -1 0.29230965E+00 0.23416348E+04</pdfrwt>
<totfact> 0.15057317E+00</totfact>
</mgrwt>
</event>
<event>
12    7  0.1711607E-007  0.1113871E+04  0.7818608E-02  0.9191777E-01
          2   -1    0    0  501    0  0.00000000000E+00  0.00000000000E+00  0.54733141906E+03  0.54733141906E+03  0.00000000000E+00 0. -1.
         -1   -1    0    0    0  501 -0.00000000000E+00 -0.00000000000E+00 -0.56670775484E+03  0.56670775484E+03  0.00000000000E+00 0.  1.
         24    2    1    2    0    0 -0.17121845679E+03 -0.15462896130E+02  0.59293989336E+02  0.19839645623E+03  0.79312770547E+02 0.  0.
        254    2    1    2    0    0  0.17121845679E+03  0.15462896130E+02 -0.78670325120E+02  0.91564271766E+03  0.89591166152E+03 0.  0.
         23    2    4    4    0    0  0.31325687063E+03 -0.24076130808E+03  0.24159603166E+03  0.47220258410E+03  0.92253799087E+02 0.  0.
         23    2    4    4    0    0 -0.14203841384E+03  0.25622420422E+03 -0.32026635678E+03  0.44344013357E+03  0.90790191886E+02 0.  0.
          4    1    3    3  502    0 -0.71830913384E+02 -0.12462500363E+02  0.66534010101E+02  0.98700397836E+02  0.00000000000E+00 0. -1.
         -1    1    3    3    0  502 -0.99387543407E+02 -0.30003957671E+01 -0.72400207649E+01  0.99696058397E+02  0.00000000000E+00 0.  1.
         13    1    5    5    0    0  0.19537689632E+03 -0.20039400441E+03  0.18394550280E+03  0.33491168481E+03  0.00000000000E+00 0. -1.
        -13    1    5    5    0    0  0.11787997432E+03 -0.40367303671E+02  0.57650528854E+02  0.13729089929E+03  0.00000000000E+00 0.  1.
          3    1    6    6  503    0 -0.12657734788E+03  0.25345899001E+03 -0.32045574775E+03  0.42773259272E+03  0.00000000000E+00 0. -1.
         -3    1    6    6    0  503 -0.15461065969E+02  0.27652142086E+01  0.18939097290E+00  0.15707540847E+02  0.00000000000E+00 0.  1.
<mgrwt>
<rscale>  0 0.11138707E+04</rscale>
<asrwt>0</asrwt>
<pdfrwt beam="1">  1        2 0.84204834E-01 0.11138707E+04</pdfrwt>
<pdfrwt beam="2">  1       -1 0.87185808E-01 0.11138707E+04</pdfrwt>
<totfact> 0.81392900E+01</totfact>
</mgrwt>
</event>
<event>
12    7  0.1711607E-007  0.2708045E+04  0.7818608E-02  0.8332399E-01
         -1   -1    0    0    0  501 -0.00000000000E+00  0.00000000000E+00  0.74888883222E+03  0.74888883222E+03  0.00000000000E+00 0.  1.
          2   -1    0    0  501    0  0.00000000000E+00 -0.00000000000E+00 -0.24481298887E+04  0.24481298887E+04  0.00000000000E+00 0. -1.
         24    2    1    2    0    0  0.11535874818E+04 -0.25220891264E+03 -0.10211121725E+04  0.15631155797E+04  0.79289549704E+02 0.  0.
        254    2    1    2    0    0 -0.11535874818E+04  0.25220891264E+03 -0.67812888399E+03  0.16339031413E+04  0.90299904647E+03 0.  0.
         23    2    4    4    0    0 -0.78160799942E+02  0.14923952043E+03 -0.49918902864E+03  0.53480837243E+03  0.91917157264E+02 0.  0.
         23    2    4    4    0    0 -0.10754266819E+04  0.10296939221E+03 -0.17893985536E+03  0.10990947688E+04  0.94045708258E+02 0.  0.
          4    1    3    3  502    0  0.10612532742E+04 -0.24859180331E+03 -0.95871138335E+03  0.14516142440E+04  0.00000000000E+00 0. -1.
         -3    1    3    3    0  502  0.92334207621E+02 -0.36171093284E+01 -0.62400789162E+02  0.11150133571E+03  0.00000000000E+00 0.  1.
         13    1    5    5    0    0 -0.46015316511E+02  0.12672064990E+02 -0.17852467151E+03  0.18479461281E+03  0.00000000000E+00 0.  1.
        -13    1    5    5    0    0 -0.32145483431E+02  0.13656745544E+03 -0.32066435712E+03  0.35001375961E+03  0.00000000000E+00 0. -1.
          3    1    6    6  503    0 -0.10703913953E+04  0.10794262016E+03 -0.17257019015E+03  0.10895732279E+04  0.00000000000E+00 0. -1.
         -3    1    6    6    0  503 -0.50352865299E+01 -0.49732279486E+01 -0.63696652065E+01  0.95215409209E+01  0.00000000000E+00 0.  1.
<mgrwt>
<rscale>  0 0.27080451E+04</rscale>
<asrwt>0</asrwt>
<pdfrwt beam="1">  1        2 0.37663537E+00 0.27080451E+04</pdfrwt>
<pdfrwt beam="2">  1       -1 0.11521367E+00 0.27080451E+04</pdfrwt>
<totfact> 0.25403584E+00</totfact>
</mgrwt>
</event>
<event>
12    7  0.1711607E-007  0.3235872E+04  0.7818608E-02  0.8179407E-01
          2   -1    0    0  501    0  0.00000000000E+00  0.00000000000E+00  0.18426872435E+04  0.18426872435E+04  0.00000000000E+00 0. -1.
         -1   -1    0    0    0  501 -0.00000000000E+00 -0.00000000000E+00 -0.14205976931E+04  0.14205976931E+04  0.00000000000E+00 0.  1.
         24    2    1    2    0    0 -0.45132575227E+03 -0.54654605432E+03 -0.11310000264E+04  0.13371575814E+04  0.80136219180E+02 0.  0.
        254    2    1    2    0    0  0.45132575227E+03  0.54654605432E+03  0.15530895769E+04  0.19261273551E+04  0.89189227507E+03 0.  0.
         23    2    4    4    0    0 -0.94323010735E+02  0.20656418681E+03  0.11173109743E+04  0.11437929935E+04  0.91175682464E+02 0.  0.
         23    2    4    4    0    0  0.54564876300E+03  0.33998186752E+03  0.43577860259E+03  0.78233436167E+03  0.93935191340E+02 0.  0.
          4    1    3    3  502    0 -0.64362451485E+02 -0.11067589358E+03 -0.16363917648E+03  0.20777261288E+03  0.00000000000E+00 0. -1.
         -3    1    3    3    0  502 -0.38696330078E+03 -0.43587016074E+03 -0.96736084996E+03  0.11293849686E+04  0.00000000000E+00 0.  1.
         13    1    5    5    0    0 -0.51987336716E+02  0.11507907898E+03  0.82453729459E+03  0.83415084233E+03  0.00000000000E+00 0.  1.
        -13    1    5    5    0    0 -0.42335674019E+02  0.91485107833E+02  0.29277367967E+03  0.30964215114E+03  0.00000000000E+00 0. -1.
          3    1    6    6  503    0  0.21396464479E+03  0.91767093729E+02  0.19108336530E+03  0.30118917844E+03  0.00000000000E+00 0. -1.
         -3    1    6    6    0  503  0.33168411821E+03  0.24821477379E+03  0.24469523729E+03  0.48114518324E+03  0.00000000000E+00 0.  1.
<mgrwt>
<rscale>  0 0.32358722E+04</rscale>
<asrwt>0</asrwt>
<pdfrwt beam="1">  1        2 0.28349034E+00 0.32358722E+04</pdfrwt>
<pdfrwt beam="2">  1       -1 0.21855349E+00 0.32358722E+04</pdfrwt>
<totfact> 0.87840318E-01</totfact>
</mgrwt>
</event>
<event>
12    7  0.1711607E-007  0.1810945E+04  0.7818608E-02  0.8700501E-01
          2   -1    0    0  501    0  0.00000000000E+00  0.00000000000E+00  0.27985128521E+04  0.27985128521E+04  0.00000000000E+00 0. -1.
         -1   -1    0    0    0  501 -0.00000000000E+00 -0.00000000000E+00 -0.29296989284E+03  0.29296989284E+03  0.00000000000E+00 0.  1.
         24    2    1    2    0    0 -0.55548927741E+03 -0.36383919893E+03  0.11452379656E+04  0.13262361206E+04  0.79905880290E+02 0.  0.
        254    2    1    2    0    0  0.55548927741E+03  0.36383919893E+03  0.13603049936E+04  0.17652466243E+04  0.90814022541E+03 0.  0.
         23    2    4    4    0    0  0.65851502876E+03  0.34616604550E+03  0.14277345316E+04  0.16124132014E+04  0.89316656921E+02 0.  0.
         23    2    4    4    0    0 -0.10302575136E+03  0.17673153424E+02 -0.67429537978E+02  0.15283342291E+03  0.88795646130E+02 0.  0.
          2    1    3    3  502    0 -0.32623012795E+03 -0.16874229990E+03  0.65495427961E+03  0.75090956083E+03  0.00000000000E+00 0. -1.
         -1    1    3    3    0  502 -0.22925914945E+03 -0.19509689903E+03  0.49028368604E+03  0.57532655980E+03  0.00000000000E+00 0.  1.
         13    1    5    5    0    0  0.65405147975E+03  0.33389111402E+03  0.14148165161E+04  0.15940427812E+04  0.00000000000E+00 0. -1.
        -13    1    5    5    0    0  0.44635490113E+01  0.12274931485E+02  0.12918015461E+02  0.18370420142E+02  0.00000000000E+00 0.  1.
          3    1    6    6  503    0 -0.10584741062E+03  0.26472682342E+02 -0.81369777824E+02  0.13610847875E+03  0.00000000000E+00 0. -1.
         -3    1    6    6    0  503  0.28216592585E+01 -0.87995289185E+01  0.13940239847E+02  0.16724944160E+02  0.00000000000E+00 0.  1.
<mgrwt>
<rscale>  0 0.18109445E+04</rscale>
<asrwt>0</asrwt>
<pdfrwt beam="1">  1        2 0.43054042E+00 0.18109445E+04</pdfrwt>
<pdfrwt beam="2">  1       -1 0.45072293E-01 0.18109445E+04</pdfrwt>
<totfact> 0.12181001E+01</totfact>
</mgrwt>
</event>
<event>
12    7  0.1782849E-007  0.2475779E+04  0.7818608E-02  0.8411665E-01
         -1   -1    0    0    0  501 -0.00000000000E+00  0.00000000000E+00  0.10504992525E+04  0.10504992525E+04  0.00000000000E+00 0.  1.
          2   -1    0    0  501    0  0.00000000000E+00 -0.00000000000E+00 -0.14587072337E+04  0.14587072337E+04  0.00000000000E+00 0. -1.
         24    2    1    2    0    0 -0.56735415025E+02 -0.83065088044E+03 -0.85529936498E+03  0.11963631419E+04  0.80919533889E+02 0.  0.
        254    2    1    2    0    0  0.56735415025E+02  0.83065088044E+03  0.44709138385E+03  0.13128433443E+04  0.91129970303E+03 0.  0.
         23    2    4    4    0    0 -0.32328841053E+03  0.12132786735E+03  0.34621855540E+03  0.49702887671E+03  0.89076194370E+02 0.  0.
         23    2    4    4    0    0  0.38002382555E+03  0.70932301309E+03  0.10087282845E+03  0.81581446762E+03  0.88434569962E+02 0.  0.
          2    1    3    3  502    0 -0.48232831810E+02 -0.64745911008E+03 -0.71243065883E+03  0.96389166866E+03  0.00000000000E+00 0. -1.
         -1    1    3    3    0  502 -0.85025832146E+01 -0.18319177037E+03 -0.14286870616E+03  0.23247147320E+03  0.00000000000E+00 0.  1.
         13    1    5    5    0    0 -0.73128999698E+02  0.51680530697E+02  0.48006489955E+02  0.10160389229E+03  0.00000000000E+00 0. -1.
        -13    1    5    5    0    0 -0.25015941083E+03  0.69647336654E+02  0.29821206545E+03  0.39542498443E+03  0.00000000000E+00 0.  1.
          4    1    6    6  503    0  0.11643319775E+03  0.15495391315E+03  0.48121401775E+02  0.19970747119E+03  0.00000000000E+00 0. -1.
         -4    1    6    6    0  503  0.26359062781E+03  0.55436909994E+03  0.52751426673E+02  0.61610699643E+03  0.00000000000E+00 0.  1.
<mgrwt>
<rscale>  0 0.24757794E+04</rscale>
<asrwt>0</asrwt>
<pdfrwt beam="1">  1        2 0.22441650E+00 0.24757794E+04</pdfrwt>
<pdfrwt beam="2">  1       -1 0.16161527E+00 0.24757794E+04</pdfrwt>
<totfact> 0.38749875E+00</totfact>
</mgrwt>
</event>
<event>
12    7  0.1711607E-007  0.9812882E+03  0.7818608E-02  0.9329309E-01
         -1   -1    0    0    0  501 -0.00000000000E+00  0.00000000000E+00  0.70776467289E+03  0.70776467289E+03  0.00000000000E+00 0.  1.
          2   -1    0    0  501    0  0.00000000000E+00 -0.00000000000E+00 -0.34012945114E+03  0.34012945114E+03  0.00000000000E+00 0. -1.
         24    2    1    2    0    0  0.62860087396E+01 -0.11100016682E+03 -0.28255965065E+02  0.14134461108E+03  0.82579347171E+02 0.  0.
        254    2    1    2    0    0 -0.62860087396E+01  0.11100016682E+03  0.39589118681E+03  0.90654951294E+03  0.80792427657E+03 0.  0.
         23    2    4    4    0    0 -0.39411092869E+03  0.20858268237E+02  0.16713020362E+03  0.43816355585E+03  0.91084055913E+02 0.  0.
         23    2    4    4    0    0  0.38782491996E+03  0.90141898588E+02  0.22876098320E+03  0.46838595709E+03  0.92304317059E+02 0.  0.
          2    1    3    3  502    0  0.10656486306E+02 -0.12273959152E+03 -0.16748214347E+02  0.12433451135E+03  0.00000000000E+00 0. -1.
         -1    1    3    3    0  502 -0.43704775668E+01  0.11739424699E+02 -0.11507750719E+02  0.17010099736E+02  0.00000000000E+00 0.  1.
         13    1    5    5    0    0 -0.16550567126E+03 -0.19814685467E+02  0.32711431492E+02  0.16986696775E+03  0.00000000000E+00 0.  1.
        -13    1    5    5    0    0 -0.22860525743E+03  0.40672953703E+02  0.13441877212E+03  0.26829658810E+03  0.00000000000E+00 0. -1.
          4    1    6    6  503    0  0.16531607495E+03  0.52747315594E+02  0.15010090847E+03  0.22943837225E+03  0.00000000000E+00 0. -1.
         -4    1    6    6    0  503  0.22250884501E+03  0.37394582993E+02  0.78660074727E+02  0.23894758484E+03  0.00000000000E+00 0.  1.
<mgrwt>
<rscale>  0 0.98128815E+03</rscale>
<asrwt>0</asrwt>
<pdfrwt beam="1">  1        2 0.52327608E-01 0.98128815E+03</pdfrwt>
<pdfrwt beam="2">  1       -1 0.10888687E+00 0.98128815E+03</pdfrwt>
<totfact> 0.85432309E+01</totfact>
</mgrwt>
</event>
<event>
12    7  0.1711607E-007  0.2061936E+04  0.7818608E-02  0.8578199E-01
          2   -1    0    0  501    0  0.00000000000E+00  0.00000000000E+00  0.65058586529E+03  0.65058586529E+03  0.00000000000E+00 0. -1.
         -1   -1    0    0    0  501 -0.00000000000E+00 -0.00000000000E+00 -0.16337503722E+04  0.16337503722E+04  0.00000000000E+00 0.  1.
         24    2    1    2    0    0 -0.73694562290E+03 -0.15768014950E+03 -0.30043976965E+02  0.75832305398E+03  0.78735843091E+02 0.  0.
        254    2    1    2    0    0  0.73694562290E+03  0.15768014950E+03 -0.95312052991E+03  0.15260131835E+04  0.92321482383E+03 0.  0.
         23    2    4    4    0    0  0.30035736536E+03  0.52589584062E+03 -0.51176877170E+03  0.79839962834E+03  0.93561256580E+02 0.  0.
         23    2    4    4    0    0  0.43658825755E+03 -0.36821569112E+03 -0.44135175820E+03  0.72761355514E+03  0.91858637777E+02 0.  0.
          2    1    3    3  502    0 -0.63703530203E+03 -0.13653258935E+03 -0.52988050520E+02  0.65365346896E+03  0.00000000000E+00 0. -1.
         -1    1    3    3    0  502 -0.99910320873E+02 -0.21147560152E+02  0.22944073555E+02  0.10466958502E+03  0.00000000000E+00 0.  1.
         13    1    5    5    0    0  0.21794457925E+03  0.40963963887E+03 -0.43734250089E+03  0.63763072106E+03  0.00000000000E+00 0.  1.
        -13    1    5    5    0    0  0.82412786109E+02  0.11625620175E+03 -0.74426270817E+02  0.16076890728E+03  0.00000000000E+00 0. -1.
          3    1    6    6  503    0  0.61977289016E+02 -0.81821014794E+02 -0.46954595456E+02  0.11287425238E+03  0.00000000000E+00 0. -1.
         -3    1    6    6    0  503  0.37461096853E+03 -0.28639467633E+03 -0.39439716275E+03  0.61473930276E+03  0.00000000000E+00 0.  1.
<mgrwt>
<rscale>  0 0.20619359E+04</rscale>
<asrwt>0</asrwt>
<pdfrwt beam="1">  1        2 0.10009013E+00 0.20619359E+04</pdfrwt>
<pdfrwt beam="2">  1       -1 0.25134621E+00 0.20619359E+04</pdfrwt>
<totfact> 0.32382823E+00</totfact>
</mgrwt>
</event>
<event>
12    7  0.1711607E-007  0.1988376E+04  0.7818608E-02  0.8612075E-01
         -1   -1    0    0    0  501 -0.00000000000E+00  0.00000000000E+00  0.14120296222E+04  0.14120296222E+04  0.00000000000E+00 0.  1.
          2   -1    0    0  501    0  0.00000000000E+00 -0.00000000000E+00 -0.69999195185E+03  0.69999195185E+03  0.00000000000E+00 0. -1.
         24    2    1    2    0    0 -0.37611096787E+03 -0.17916225376E+03  0.98447619348E+03  0.10720254268E+04  0.80539225982E+02 0.  0.
        254    2    1    2    0    0  0.37611096787E+03  0.17916225376E+03 -0.27243852317E+03  0.10399961472E+04  0.91313233649E+03 0.  0.
         23    2    4    4    0    0  0.36453698004E+03  0.46692050504E+03 -0.39027176763E+03  0.71557577239E+03  0.93992901789E+02 0.  0.
         23    2    4    4    0    0  0.11573987834E+02 -0.28775825128E+03  0.11783324446E+03  0.32442037480E+03  0.91788548888E+02 0.  0.
          2    1    3    3  502    0 -0.90510507623E+02 -0.81131323529E+02  0.31332900834E+03  0.33607962021E+03  0.00000000000E+00 0. -1.
         -1    1    3    3    0  502 -0.28560046025E+03 -0.98030930227E+02  0.67114718514E+03  0.73594580663E+03  0.00000000000E+00 0.  1.
         13    1    5    5    0    0  0.20543300626E+02  0.25198649661E+01 -0.22407797226E+02  0.30503873469E+02  0.00000000000E+00 0. -1.
        -13    1    5    5    0    0  0.34399367941E+03  0.46440064007E+03 -0.36786397040E+03  0.68507189892E+03  0.00000000000E+00 0.  1.
          2    1    6    6  503    0 -0.31777757490E+02 -0.44043529937E+02  0.27826622681E+02  0.61024415854E+02  0.00000000000E+00 0. -1.
         -2    1    6    6    0  503  0.43351745324E+02 -0.24371472135E+03  0.90006621780E+02  0.26339595894E+03  0.00000000000E+00 0.  1.
<mgrwt>
<rscale>  0 0.19883756E+04</rscale>
<asrwt>0</asrwt>
<pdfrwt beam="1">  1        2 0.10769107E+00 0.19883756E+04</pdfrwt>
<pdfrwt beam="2">  1       -1 0.21723533E+00 0.19883756E+04</pdfrwt>
<totfact> 0.49954343E+00</totfact>
</mgrwt>
</event>
<event>
12    7  0.1711607E-007  0.1357010E+04  0.7818608E-02  0.8985539E-01
         -1   -1    0    0    0  501 -0.00000000000E+00  0.00000000000E+00  0.32843583517E+03  0.32843583517E+03  0.00000000000E+00 0.  1.
          2   -1    0    0  501    0  0.00000000000E+00 -0.00000000000E+00 -0.14017010487E+04  0.14017010487E+04  0.00000000000E+00 0. -1.
         24    2    1    2    0    0  0.21052464233E+03 -0.12618910326E+02 -0.70182348941E+03  0.73489862410E+03  0.55135428606E+02 0.  0.
        254    2    1    2    0    0 -0.21052464233E+03  0.12618910326E+02 -0.37144172413E+03  0.99523825979E+03  0.89891622379E+03 0.  0.
         23    2    4    4    0    0 -0.38143266147E+03 -0.33092261202E+03 -0.30031312599E+03  0.59477736653E+03  0.92582350996E+02 0.  0.
         23    2    4    4    0    0  0.17090801914E+03  0.34354152235E+03 -0.71128598133E+02  0.40046089325E+03  0.89885043091E+02 0.  0.
          4    1    3    3  502    0  0.18580752690E+03  0.75602757235E+01 -0.59010841224E+03  0.61871603585E+03  0.00000000000E+00 0. -1.
         -3    1    3    3    0  502  0.24717115427E+02 -0.20179186050E+02 -0.11171507718E+03  0.11618258826E+03  0.00000000000E+00 0.  1.
         13    1    5    5    0    0 -0.77189138724E+02 -0.49777503246E+02 -0.18333419122E+02  0.93659368048E+02  0.00000000000E+00 0.  1.
        -13    1    5    5    0    0 -0.30424352274E+03 -0.28114510877E+03 -0.28197970687E+03  0.50111799849E+03  0.00000000000E+00 0. -1.
          1    1    6    6  503    0  0.16066560757E+03  0.29529564820E+03 -0.32362224385E+02  0.33772810199E+03  0.00000000000E+00 0. -1.
         -1    1    6    6    0  503  0.10242411564E+02  0.48245874142E+02 -0.38766373748E+02  0.62732791265E+02  0.00000000000E+00 0.  1.
<mgrwt>
<rscale>  0 0.13570097E+04</rscale>
<asrwt>0</asrwt>
<pdfrwt beam="1">  1        2 0.21564631E+00 0.13570097E+04</pdfrwt>
<pdfrwt beam="2">  1       -1 0.50528590E-01 0.13570097E+04</pdfrwt>
<totfact> 0.63188407E+01</totfact>
</mgrwt>
</event>
<event>
12    7  0.1711607E-007  0.1230076E+04  0.7818608E-02  0.9086931E-01
          4   -1    0    0  501    0  0.00000000000E+00  0.00000000000E+00  0.54056874635E+03  0.54056874635E+03  0.00000000000E+00 0. -1.
         -3   -1    0    0    0  501 -0.00000000000E+00 -0.00000000000E+00 -0.69976650075E+03  0.69976650075E+03  0.00000000000E+00 0.  1.
         24    2    1    2    0    0 -0.20705988013E+03 -0.11816270907E+03  0.10818977975E+03  0.27365014953E+03  0.79643933384E+02 0.  0.
        254    2    1    2    0    0  0.20705988013E+03  0.11816270907E+03 -0.26738753415E+03  0.96668509757E+03  0.89785731866E+03 0.  0.
         23    2    4    4    0    0  0.51771219770E+03  0.15595023811E+03 -0.31978208733E+03  0.63500028429E+03  0.92835237160E+02 0.  0.
         23    2    4    4    0    0 -0.31065231757E+03 -0.37787529034E+02  0.52394553175E+02  0.33168481328E+03  0.96627461915E+02 0.  0.
          4    1    3    3  502    0 -0.16227440236E+03 -0.12337270589E+03  0.10261773819E+03  0.22821964510E+03  0.00000000000E+00 0. -1.
         -3    1    3    3    0  502 -0.44785477771E+02  0.52099968190E+01  0.55720415613E+01  0.45430504435E+02  0.00000000000E+00 0.  1.
         13    1    5    5    0    0  0.43532423888E+03  0.12555696328E+03 -0.22524950055E+03  0.50597339997E+03  0.00000000000E+00 0. -1.
        -13    1    5    5    0    0  0.82387958820E+02  0.30393274825E+02 -0.94532586772E+02  0.12902688431E+03  0.00000000000E+00 0.  1.
          4    1    6    6  503    0 -0.29758155747E+02 -0.17018820980E+02  0.35753365865E+02  0.49532729298E+02  0.00000000000E+00 0. -1.
         -4    1    6    6    0  503 -0.28089416182E+03 -0.20768708054E+02  0.16641187309E+02  0.28215208398E+03  0.00000000000E+00 0.  1.
<mgrwt>
<rscale>  0 0.12300763E+04</rscale>
<asrwt>0</asrwt>
<pdfrwt beam="1">  1        4 0.83164423E-01 0.12300763E+04</pdfrwt>
<pdfrwt beam="2">  1       -3 0.10765638E+00 0.12300763E+04</pdfrwt>
<totfact> 0.20989585E+00</totfact>
</mgrwt>
</event>
<event>
12    7  0.1711607E-007  0.2121274E+04  0.7818608E-02  0.8551929E-01
         -1   -1    0    0    0  501 -0.00000000000E+00  0.00000000000E+00  0.14145632461E+04  0.14145632461E+04  0.00000000000E+00 0.  1.
          2   -1    0    0  501    0  0.00000000000E+00 -0.00000000000E+00 -0.79526376868E+03  0.79526376868E+03  0.00000000000E+00 0. -1.
         24    2    1    2    0    0 -0.16101963277E+03  0.43703799899E+03  0.10155475517E+04  0.11201523707E+04  0.80467193291E+02 0.  0.
        254    2    1    2    0    0  0.16101963277E+03 -0.43703799899E+03 -0.39624807431E+03  0.10896746440E+04  0.90191394197E+03 0.  0.
         23    2    4    4    0    0  0.52564053905E+03 -0.22567473239E+03 -0.28567888324E+03  0.64566224854E+03  0.89667461953E+02 0.  0.
         23    2    4    4    0    0 -0.36462090628E+03 -0.21136326660E+03 -0.11056919108E+03  0.44401239548E+03  0.85431993745E+02 0.  0.
          4    1    3    3  502    0 -0.60056396781E+02  0.26631428115E+03  0.62892468204E+03  0.68562112191E+03  0.00000000000E+00 0. -1.
         -3    1    3    3    0  502 -0.10096323599E+03  0.17072371784E+03  0.38662286968E+03  0.43453124883E+03  0.00000000000E+00 0.  1.
         13    1    5    5    0    0  0.17674629040E+03 -0.35355546890E+02 -0.10979242617E+03  0.21105364889E+03  0.00000000000E+00 0.  1.
        -13    1    5    5    0    0  0.34889424865E+03 -0.19031918550E+03 -0.17588645706E+03  0.43460859965E+03  0.00000000000E+00 0. -1.
          2    1    6    6  503    0 -0.85138086627E+02 -0.60922085919E+02 -0.65335529158E+02  0.12340472324E+03  0.00000000000E+00 0. -1.
         -2    1    6    6    0  503 -0.27948281966E+03 -0.15044118068E+03 -0.45233661920E+02  0.32060767224E+03  0.00000000000E+00 0.  1.
<mgrwt>
<rscale>  0 0.21212740E+04</rscale>
<asrwt>0</asrwt>
<pdfrwt beam="1">  1        2 0.12234827E+00 0.21212740E+04</pdfrwt>
<pdfrwt beam="2">  1       -1 0.21762511E+00 0.21212740E+04</pdfrwt>
<totfact> 0.41606340E+00</totfact>
</mgrwt>
</event>
<event>
12    7  0.1711607E-007  0.1302401E+04  0.7818608E-02  0.9027664E-01
         -1   -1    0    0    0  501 -0.00000000000E+00  0.00000000000E+00  0.21109428523E+03  0.21109428523E+03  0.00000000000E+00 0.  1.
          2   -1    0    0  501    0  0.00000000000E+00 -0.00000000000E+00 -0.20088740945E+04  0.20088740945E+04  0.00000000000E+00 0. -1.
         24    2    1    2    0    0 -0.15365055197E+03  0.24701739155E+03 -0.20222819388E+03  0.36261840605E+03  0.77264365370E+02 0.  0.
        254    2    1    2    0    0  0.15365055197E+03 -0.24701739155E+03 -0.15955516154E+04  0.18573499737E+04  0.90517284730E+03 0.  0.
         23    2    4    4    0    0 -0.26080732112E+03 -0.32433020816E+03 -0.11945111722E+04  0.12681653838E+04  0.90421000637E+02 0.  0.
         23    2    4    4    0    0  0.41445787309E+03  0.77312816601E+02 -0.40104044320E+03  0.58918458993E+03  0.92479423418E+02 0.  0.
          2    1    3    3  502    0  0.88321833674E+00  0.42244680679E+02 -0.14294211936E+02  0.44606250853E+02  0.00000000000E+00 0. -1.
         -1    1    3    3    0  502 -0.15453377030E+03  0.20477271088E+03 -0.18793398194E+03  0.31801215520E+03  0.00000000000E+00 0.  1.
         13    1    5    5    0    0 -0.11947899228E+03 -0.97308838729E+02 -0.35248193947E+03  0.38469176927E+03  0.00000000000E+00 0.  1.
        -13    1    5    5    0    0 -0.14132832884E+03 -0.22702136943E+03 -0.84202923276E+03  0.88347361451E+03  0.00000000000E+00 0. -1.
          2    1    6    6  503    0  0.27124971827E+03  0.46876858685E+02 -0.19897406575E+03  0.33965354169E+03  0.00000000000E+00 0. -1.
         -2    1    6    6    0  503  0.14320815482E+03  0.30435957916E+02 -0.20206637745E+03  0.24953104824E+03  0.00000000000E+00 0.  1.
<mgrwt>
<rscale>  0 0.13024006E+04</rscale>
<asrwt>0</asrwt>
<pdfrwt beam="1">  1        2 0.30905755E+00 0.13024006E+04</pdfrwt>
<pdfrwt beam="2">  1       -1 0.32476044E-01 0.13024006E+04</pdfrwt>
<totfact> 0.65467089E+01</totfact>
</mgrwt>
</event>
<event>
12    7  0.1711607E-007  0.1398655E+04  0.7818608E-02  0.8954793E-01
          2   -1    0    0  501    0  0.00000000000E+00  0.00000000000E+00  0.11353599443E+04  0.11353599443E+04  0.00000000000E+00 0. -1.
         -1   -1    0    0    0  501 -0.00000000000E+00 -0.00000000000E+00 -0.43075231371E+03  0.43075231371E+03  0.00000000000E+00 0.  1.
         24    2    1    2    0    0 -0.36639150825E+03 -0.48691653596E+02  0.38280557493E+03  0.54119368371E+03  0.98675633462E+02 0.  0.
        254    2    1    2    0    0  0.36639150825E+03  0.48691653596E+02  0.32180205568E+03  0.10249185743E+04  0.90015993385E+03 0.  0.
         23    2    4    4    0    0 -0.16444018220E+03 -0.28158213153E+03  0.81634147898E+02  0.34874781032E+03  0.92907646515E+02 0.  0.
         23    2    4    4    0    0  0.53083169045E+03  0.33027378513E+03  0.24016790778E+03  0.67617076400E+03  0.93076427899E+02 0.  0.
          2    1    3    3  502    0 -0.36325109855E+03 -0.60944613163E+02  0.37767060299E+03  0.52754212233E+03  0.00000000000E+00 0. -1.
         -1    1    3    3    0  502 -0.31404097039E+01  0.12252959567E+02  0.51349719428E+01  0.13651561380E+02  0.00000000000E+00 0.  1.
         13    1    5    5    0    0 -0.23089295304E+02 -0.83694093626E+02  0.58007943069E+02  0.10441617846E+03  0.00000000000E+00 0.  1.
        -13    1    5    5    0    0 -0.14135088689E+03 -0.19788803791E+03  0.23626204829E+02  0.24433163186E+03  0.00000000000E+00 0. -1.
          2    1    6    6  503    0  0.30189291629E+03  0.19108005580E+03  0.18607058148E+03  0.40283145597E+03  0.00000000000E+00 0. -1.
         -2    1    6    6    0  503  0.22893877416E+03  0.13919372933E+03  0.54097326302E+02  0.27333930803E+03  0.00000000000E+00 0.  1.
<mgrwt>
<rscale>  0 0.13986550E+04</rscale>
<asrwt>0</asrwt>
<pdfrwt beam="1">  1        2 0.17467076E+00 0.13986550E+04</pdfrwt>
<pdfrwt beam="2">  1       -1 0.66269587E-01 0.13986550E+04</pdfrwt>
<totfact> 0.53087431E+01</totfact>
</mgrwt>
</event>
<event>
12    7  0.1711607E-007  0.1301804E+04  0.7818608E-02  0.9028136E-01
         -1   -1    0    0    0  501 -0.00000000000E+00  0.00000000000E+00  0.40134461378E+03  0.40134461378E+03  0.00000000000E+00 0.  1.
          2   -1    0    0  501    0  0.00000000000E+00 -0.00000000000E+00 -0.10556342709E+04  0.10556342709E+04  0.00000000000E+00 0. -1.
         24    2    1    2    0    0  0.57956432279E+01 -0.16292315103E+03 -0.44318591400E+03  0.47888394133E+03  0.79614899845E+02 0.  0.
        254    2    1    2    0    0 -0.57956432279E+01  0.16292315103E+03 -0.21110374313E+03  0.97809494336E+03  0.94102464645E+03 0.  0.
         23    2    4    4    0    0  0.36616228317E+02  0.33742332229E+03  0.27811916020E+03  0.44809570072E+03  0.90797814555E+02 0.  0.
         23    2    4    4    0    0 -0.42411871545E+02 -0.17450017125E+03 -0.48922290333E+03  0.52999924264E+03  0.96493893281E+02 0.  0.
          4    1    3    3  502    0 -0.29900364236E+02 -0.12796068998E+03 -0.31579295853E+03  0.34204263275E+03  0.00000000000E+00 0. -1.
         -3    1    3    3    0  502  0.35696007464E+02 -0.34962461054E+02 -0.12739295547E+03  0.13684130858E+03  0.00000000000E+00 0.  1.
         13    1    5    5    0    0  0.13150780053E+02  0.94742414840E+02  0.30026694353E+02  0.10025303267E+03  0.00000000000E+00 0. -1.
        -13    1    5    5    0    0  0.23465448264E+02  0.24268090745E+03  0.24809246585E+03  0.34784266805E+03  0.00000000000E+00 0.  1.
          4    1    6    6  503    0  0.17745530044E+02 -0.74854262807E+02 -0.11719862939E+03  0.14019123805E+03  0.00000000000E+00 0. -1.
         -4    1    6    6    0  503 -0.60157401588E+02 -0.99645908446E+02 -0.37202427395E+03  0.38980800459E+03  0.00000000000E+00 0.  1.
<mgrwt>
<rscale>  0 0.13018036E+04</rscale>
<asrwt>0</asrwt>
<pdfrwt beam="1">  1        2 0.16240527E+00 0.13018036E+04</pdfrwt>
<pdfrwt beam="2">  1       -1 0.61745326E-01 0.13018036E+04</pdfrwt>
<totfact> 0.69050809E+01</totfact>
</mgrwt>
</event>
<event>
12    7  0.1711607E-007  0.2573099E+04  0.7818608E-02  0.8377397E-01
         -1   -1    0    0    0  501 -0.00000000000E+00  0.00000000000E+00  0.81310995240E+03  0.81310995240E+03  0.00000000000E+00 0.  1.
          2   -1    0    0  501    0  0.00000000000E+00 -0.00000000000E+00 -0.20356528125E+04  0.20356528125E+04  0.00000000000E+00 0. -1.
         24    2    1    2    0    0 -0.18159432472E+03 -0.11079476860E+04 -0.39206375383E+03  0.11919505099E+04  0.80668812601E+02 0.  0.
        254    2    1    2    0    0  0.18159432472E+03  0.11079476860E+04 -0.83047910630E+03  0.16568122550E+04  0.89151933716E+03 0.  0.
         23    2    4    4    0    0  0.36830336631E+03  0.11513838405E+03 -0.37245196302E+03  0.54379139454E+03  0.89913285459E+02 0.  0.
         23    2    4    4    0    0 -0.18670904159E+03  0.99280930198E+03 -0.45802714328E+03  0.11130208605E+04  0.92173724580E+02 0.  0.
          4    1    3    3  502    0 -0.35917534876E+02 -0.21916258509E+03 -0.11224014358E+03  0.24883761340E+03  0.00000000000E+00 0. -1.
         -3    1    3    3    0  502 -0.14567678984E+03 -0.88878510094E+03 -0.27982361025E+03  0.94311289653E+03  0.00000000000E+00 0.  1.
         13    1    5    5    0    0  0.12125854449E+03  0.15116198747E+02 -0.70652900047E+02  0.14115228075E+03  0.00000000000E+00 0.  1.
        -13    1    5    5    0    0  0.24704482182E+03  0.10002218530E+03 -0.30179906297E+03  0.40263911378E+03  0.00000000000E+00 0. -1.
          2    1    6    6  503    0 -0.15954778262E+03  0.88945497598E+03 -0.43835769908E+03  0.10043620471E+04  0.00000000000E+00 0. -1.
         -2    1    6    6    0  503 -0.27161258971E+02  0.10335432600E+03 -0.19669444204E+02  0.10865881339E+03  0.00000000000E+00 0.  1.
<mgrwt>
<rscale>  0 0.25730990E+04</rscale>
<asrwt>0</asrwt>
<pdfrwt beam="1">  1        2 0.31317735E+00 0.25730990E+04</pdfrwt>
<pdfrwt beam="2">  1       -1 0.12509384E+00 0.25730990E+04</pdfrwt>
<totfact> 0.35958000E+00</totfact>
</mgrwt>
</event>
<event>
12    7  0.1711607E-007  0.1373469E+04  0.7818608E-02  0.8973250E-01
         -1   -1    0    0    0  501 -0.00000000000E+00  0.00000000000E+00  0.70954098956E+03  0.70954098956E+03  0.00000000000E+00 0.  1.
          2   -1    0    0  501    0  0.00000000000E+00 -0.00000000000E+00 -0.66466076533E+03  0.66466076533E+03  0.00000000000E+00 0. -1.
         24    2    1    2    0    0 -0.15451999832E+03  0.20473617103E+03 -0.27751483225E+03  0.38578804587E+03  0.77618326472E+02 0.  0.
        254    2    1    2    0    0  0.15451999832E+03 -0.20473617103E+03  0.32239505648E+03  0.98841370902E+03  0.89845965859E+03 0.  0.
         23    2    4    4    0    0  0.46729663841E+03 -0.29291734263E+03  0.59689460715E+02  0.56225658003E+03  0.91667399787E+02 0.  0.
         23    2    4    4    0    0 -0.31277664009E+03  0.88181171600E+02  0.26270559576E+03  0.42615712899E+03  0.83609347146E+02 0.  0.
          4    1    3    3  502    0 -0.12023992782E+02  0.67057824628E+02 -0.90944314245E+02  0.11363184650E+03  0.00000000000E+00 0. -1.
         -3    1    3    3    0  502 -0.14249600554E+03  0.13767834641E+03 -0.18657051801E+03  0.27215619936E+03  0.00000000000E+00 0.  1.
         13    1    5    5    0    0  0.37874988167E+03 -0.27387109671E+03  0.36818862532E+02  0.46884163543E+03  0.00000000000E+00 0.  1.
        -13    1    5    5    0    0  0.88546756741E+02 -0.19046245924E+02  0.22870598183E+02  0.93414944599E+02  0.00000000000E+00 0. -1.
          2    1    6    6  503    0 -0.14758659994E+02  0.27122733046E+02  0.31017819638E+02  0.43767177517E+02  0.00000000000E+00 0. -1.
         -2    1    6    6    0  503 -0.29801798010E+03  0.61058438554E+02  0.23168777612E+03  0.38238995147E+03  0.00000000000E+00 0.  1.
<mgrwt>
<rscale>  0 0.13734687E+04</rscale>
<asrwt>0</asrwt>
<pdfrwt beam="1">  1        2 0.10225550E+00 0.13734687E+04</pdfrwt>
<pdfrwt beam="2">  1       -1 0.10916015E+00 0.13734687E+04</pdfrwt>
<totfact> 0.37878326E+01</totfact>
</mgrwt>
</event>
<event>
12    7  0.1711607E-007  0.2742942E+04  0.7818608E-02  0.8321205E-01
          2   -1    0    0  501    0  0.00000000000E+00  0.00000000000E+00  0.22250229831E+04  0.22250229831E+04  0.00000000000E+00 0. -1.
         -1   -1    0    0    0  501 -0.00000000000E+00 -0.00000000000E+00 -0.84535405917E+03  0.84535405917E+03  0.00000000000E+00 0.  1.
         24    2    1    2    0    0  0.35796288380E+03 -0.11674786804E+04  0.62819648204E+03  0.13755510443E+04  0.79786967702E+02 0.  0.
        254    2    1    2    0    0 -0.35796288380E+03  0.11674786804E+04  0.75147244191E+03  0.16948259980E+04  0.90364840353E+03 0.  0.
         23    2    4    4    0    0  0.26817966918E+03  0.15388180135E+03  0.11563700797E+03  0.34125430937E+03  0.86502267648E+02 0.  0.
         23    2    4    4    0    0 -0.62614255298E+03  0.10135968790E+04  0.63583543395E+03  0.13535716886E+04  0.91850352925E+02 0.  0.
          4    1    3    3  502    0  0.32096477439E+03 -0.99851245367E+03  0.51160353282E+03  0.11669548754E+04  0.00000000000E+00 0. -1.
         -3    1    3    3    0  502  0.36998109411E+02 -0.16896622669E+03  0.11659294923E+03  0.20859616887E+03  0.00000000000E+00 0.  1.
         13    1    5    5    0    0  0.27259638219E+03  0.15793090175E+03  0.11411746423E+03  0.33507275770E+03  0.00000000000E+00 0. -1.
        -13    1    5    5    0    0 -0.44167130105E+01 -0.40491004059E+01  0.15195437334E+01  0.61815516719E+01  0.00000000000E+00 0.  1.
          3    1    6    6  503    0 -0.59543439946E+03  0.96217057553E+03  0.62517683270E+03  0.12927336975E+04  0.00000000000E+00 0. -1.
         -3    1    6    6    0  503 -0.30708153524E+02  0.51426303472E+02  0.10658601243E+02  0.60837991109E+02  0.00000000000E+00 0.  1.
<mgrwt>
<rscale>  0 0.27429416E+04</rscale>
<asrwt>0</asrwt>
<pdfrwt beam="1">  1        2 0.34231123E+00 0.27429416E+04</pdfrwt>
<pdfrwt beam="2">  1       -1 0.13005447E+00 0.27429416E+04</pdfrwt>
<totfact> 0.25175219E+00</totfact>
</mgrwt>
</event>
<event>
12    7  0.1711607E-007  0.1838191E+04  0.7818608E-02  0.8686250E-01
         -1   -1    0    0    0  501 -0.00000000000E+00  0.00000000000E+00  0.83895840129E+03  0.83895840129E+03  0.00000000000E+00 0.  1.
          2   -1    0    0  501    0  0.00000000000E+00 -0.00000000000E+00 -0.10068871115E+04  0.10068871115E+04  0.00000000000E+00 0. -1.
         24    2    1    2    0    0 -0.59828270080E+02  0.39121770665E+03 -0.62947636466E+03  0.74809104741E+03  0.82273967089E+02 0.  0.
        254    2    1    2    0    0  0.59828270080E+02 -0.39121770665E+03  0.46154765441E+03  0.10977544654E+04  0.91400651702E+03 0.  0.
         23    2    4    4    0    0  0.24475711362E+03  0.92993816940E+02 -0.13026513301E+03  0.30608439183E+03  0.90359035994E+02 0.  0.
         23    2    4    4    0    0 -0.18492884354E+03 -0.48421152359E+03  0.59181278743E+03  0.79167007359E+03  0.88541816768E+02 0.  0.
          4    1    3    3  502    0  0.69801664392E+01  0.16579576206E+03 -0.21523265296E+03  0.27177573906E+03  0.00000000000E+00 0. -1.
         -3    1    3    3    0  502 -0.66808436519E+02  0.22542194459E+03 -0.41424371169E+03  0.47631530835E+03  0.00000000000E+00 0.  1.
         13    1    5    5    0    0  0.24990605664E+03  0.97558661229E+02 -0.13199775074E+03  0.29898852106E+03  0.00000000000E+00 0. -1.
        -13    1    5    5    0    0 -0.51489430251E+01 -0.45648442891E+01  0.17326177313E+01  0.70958707614E+01  0.00000000000E+00 0.  1.
          4    1    6    6  503    0 -0.19784786274E+02 -0.95312421423E+02  0.68232126952E+02  0.11887606401E+03  0.00000000000E+00 0. -1.
         -4    1    6    6    0  503 -0.16514405726E+03 -0.38889910216E+03  0.52358066047E+03  0.67279400959E+03  0.00000000000E+00 0.  1.
<mgrwt>
<rscale>  0 0.18381909E+04</rscale>
<asrwt>0</asrwt>
<pdfrwt beam="1">  1        2 0.15490571E+00 0.18381909E+04</pdfrwt>
<pdfrwt beam="2">  1       -1 0.12907052E+00 0.18381909E+04</pdfrwt>
<totfact> 0.13826818E+01</totfact>
</mgrwt>
</event>
<event>
12    7  0.1711607E-007  0.1187830E+04  0.7818608E-02  0.9123576E-01
          2   -1    0    0  501    0  0.00000000000E+00  0.00000000000E+00  0.32298112340E+04  0.32298112340E+04  0.00000000000E+00 0. -1.
         -1   -1    0    0    0  501 -0.00000000000E+00 -0.00000000000E+00 -0.10921224179E+03  0.10921224179E+03  0.00000000000E+00 0.  1.
         24    2    1    2    0    0  0.83034989821E+02  0.48947919406E+02  0.13096338914E+04  0.13163393188E+04  0.91200681323E+02 0.  0.
        254    2    1    2    0    0 -0.83034989821E+02 -0.48947919406E+02  0.18109651008E+04  0.20226841570E+04  0.89574878977E+03 0.  0.
         23    2    4    4    0    0  0.23949443847E+03 -0.30559726741E+03  0.13000693618E+04  0.13599584988E+04  0.92517549031E+02 0.  0.
         23    2    4    4    0    0 -0.32252942829E+03  0.25664934801E+03  0.51089573892E+03  0.66272565820E+03  0.91086343917E+02 0.  0.
          4    1    3    3  502    0  0.46224472361E+02  0.39389468578E+02  0.11712835220E+04  0.11728569056E+04  0.00000000000E+00 0. -1.
         -3    1    3    3    0  502  0.36810517460E+02  0.95584508283E+01  0.13835036944E+03  0.14348241322E+03  0.00000000000E+00 0.  1.
         13    1    5    5    0    0  0.24807591051E+02 -0.14813743079E+02  0.19883164720E+03  0.20092010224E+03  0.00000000000E+00 0. -1.
        -13    1    5    5    0    0  0.21468684742E+03 -0.29078352433E+03  0.11012377146E+04  0.11590383965E+04  0.00000000000E+00 0.  1.
          4    1    6    6  503    0 -0.13921991766E+03  0.60232734169E+02  0.15584180461E+03  0.21747835709E+03  0.00000000000E+00 0. -1.
         -4    1    6    6    0  503 -0.18330951063E+03  0.19641661384E+03  0.35505393430E+03  0.44524730111E+03  0.00000000000E+00 0.  1.
<mgrwt>
<rscale>  0 0.11878298E+04</rscale>
<asrwt>0</asrwt>
<pdfrwt beam="1">  1        2 0.49689396E+00 0.11878298E+04</pdfrwt>
<pdfrwt beam="2">  1       -1 0.16801886E-01 0.11878298E+04</pdfrwt>
<totfact> 0.38862226E+01</totfact>
</mgrwt>
</event>
<event>
12    7  0.1711607E-007  0.1707668E+04  0.7818608E-02  0.8757003E-01
         -3   -1    0    0    0  501 -0.00000000000E+00  0.00000000000E+00  0.19098522551E+04  0.19098522551E+04  0.00000000000E+00 0.  1.
          4   -1    0    0  501    0  0.00000000000E+00 -0.00000000000E+00 -0.38172181317E+03  0.38172181317E+03  0.00000000000E+00 0. -1.
         24    2    1    2    0    0 -0.89639216222E+01  0.48113479375E+03  0.10698008001E+04  0.11757167573E+04  0.79152383493E+02 0.  0.
        254    2    1    2    0    0  0.89639216222E+01 -0.48113479375E+03  0.45832964183E+03  0.11158573110E+04  0.89638185850E+03 0.  0.
         23    2    4    4    0    0 -0.41212497723E+03 -0.38236194080E+03  0.19755638287E+03  0.60255953558E+03  0.89452886394E+02 0.  0.
         23    2    4    4    0    0  0.42108889885E+03 -0.98772852958E+02  0.26077325897E+03  0.51329777541E+03  0.91651385312E+02 0.  0.
          2    1    3    3  502    0 -0.20918583043E+02  0.33408261257E+02  0.74536135855E+02  0.84316870108E+02  0.00000000000E+00 0. -1.
         -1    1    3    3    0  502  0.11954661421E+02  0.44772653250E+03  0.99526466427E+03  0.10913998872E+04  0.00000000000E+00 0.  1.
         13    1    5    5    0    0 -0.34716284326E+03 -0.36083501649E+03  0.17021522618E+03  0.52886403932E+03  0.00000000000E+00 0. -1.
        -13    1    5    5    0    0 -0.64962133970E+02 -0.21526924308E+02  0.27341156692E+02  0.73695496262E+02  0.00000000000E+00 0.  1.
          2    1    6    6  503    0  0.40916273358E+03 -0.11146010096E+03  0.24473842768E+03  0.48962679118E+03  0.00000000000E+00 0. -1.
         -2    1    6    6    0  503  0.11926165265E+02  0.12687248000E+02  0.16034831290E+02  0.23670984227E+02  0.00000000000E+00 0.  1.
<mgrwt>
<rscale>  0 0.17076677E+04</rscale>
<asrwt>0</asrwt>
<pdfrwt beam="1">  1        4 0.58726434E-01 0.17076677E+04</pdfrwt>
<pdfrwt beam="2">  1       -3 0.29382342E+00 0.17076677E+04</pdfrwt>
<totfact> 0.24687668E-01</totfact>
</mgrwt>
</event>
<event>
12    7  0.1711607E-007  0.2976737E+04  0.7818608E-02  0.8250405E-01
         -1   -1    0    0    0  501 -0.00000000000E+00  0.00000000000E+00  0.15418834216E+04  0.15418834216E+04  0.00000000000E+00 0.  1.
          2   -1    0    0  501    0  0.00000000000E+00 -0.00000000000E+00 -0.14367113353E+04  0.14367113353E+04  0.00000000000E+00 0. -1.
         24    2    1    2    0    0  0.77558797774E+03  0.15356117839E+03  0.11485452629E+04  0.13966117704E+04  0.79059911619E+02 0.  0.
        254    2    1    2    0    0 -0.77558797774E+03 -0.15356117839E+03 -0.10433731766E+04  0.15819829865E+04  0.88821440953E+03 0.  0.
         23    2    4    4    0    0  0.62429297863E+02 -0.34276452345E+02 -0.62069787196E+03  0.63150577130E+03  0.91985860443E+02 0.  0.
         23    2    4    4    0    0 -0.83801727560E+03 -0.11928472604E+03 -0.42267530460E+03  0.95047721520E+03  0.90833492822E+02 0.  0.
          4    1    3    3  502    0  0.70879454843E+02  0.28096994843E+02  0.14672133437E+03  0.16534959388E+03  0.00000000000E+00 0. -1.
         -3    1    3    3    0  502  0.70470852289E+03  0.12546418354E+03  0.10018239285E+04  0.12312621765E+04  0.00000000000E+00 0.  1.
         13    1    5    5    0    0  0.68868947721E+02  0.25904658982E+01 -0.26390196979E+03  0.27275243745E+03  0.00000000000E+00 0. -1.
        -13    1    5    5    0    0 -0.64396498583E+01 -0.36866918243E+02 -0.35679590216E+03  0.35875333385E+03  0.00000000000E+00 0.  1.
          1    1    6    6  503    0 -0.63447920380E+03 -0.12910972704E+03 -0.32655562032E+03  0.72517015578E+03  0.00000000000E+00 0. -1.
         -1    1    6    6    0  503 -0.20353807180E+03  0.98250010024E+01 -0.96119684286E+02  0.22530705942E+03  0.00000000000E+00 0.  1.
<mgrwt>
<rscale>  0 0.29767374E+04</rscale>
<asrwt>0</asrwt>
<pdfrwt beam="1">  1        2 0.22103251E+00 0.29767374E+04</pdfrwt>
<pdfrwt beam="2">  1       -1 0.23721283E+00 0.29767374E+04</pdfrwt>
<totfact> 0.11389232E+00</totfact>
</mgrwt>
</event>
<event>
12    7  0.1711607E-007  0.1264940E+04  0.7818608E-02  0.9057840E-01
          2   -1    0    0  501    0  0.00000000000E+00  0.00000000000E+00  0.10440224959E+04  0.10440224959E+04  0.00000000000E+00 0. -1.
         -1   -1    0    0    0  501 -0.00000000000E+00 -0.00000000000E+00 -0.38315107615E+03  0.38315107615E+03  0.00000000000E+00 0.  1.
         24    2    1    2    0    0  0.93687534399E+02  0.24109651321E+03  0.30204863551E+03  0.40402542643E+03  0.71402270292E+02 0.  0.
        254    2    1    2    0    0 -0.93687534399E+02 -0.24109651321E+03  0.35882278425E+03  0.10231481456E+04  0.92259062136E+03 0.  0.
         23    2    4    4    0    0  0.18605711841E+03  0.15178945751E+03 -0.16430917677E+03  0.30577599745E+03  0.94043417208E+02 0.  0.
         23    2    4    4    0    0 -0.27974465281E+03 -0.39288597072E+03  0.52313196102E+03  0.71737214818E+03  0.91319732699E+02 0.  0.
          4    1    3    3  502    0  0.85554641490E+02  0.19986089630E+03  0.28550846189E+03  0.35885798913E+03  0.00000000000E+00 0. -1.
         -3    1    3    3    0  502  0.81328929083E+01  0.41235616906E+02  0.16540173621E+02  0.45167437298E+02  0.00000000000E+00 0.  1.
         13    1    5    5    0    0  0.90987966434E+02  0.11995633693E+03 -0.62890297209E+02  0.16316716057E+03  0.00000000000E+00 0.  1.
        -13    1    5    5    0    0  0.95069151977E+02  0.31833120581E+02 -0.10141887956E+03  0.14260883687E+03  0.00000000000E+00 0. -1.
          2    1    6    6  503    0 -0.94464192962E+02 -0.71152433830E+02  0.10442503703E+03  0.15776799723E+03  0.00000000000E+00 0. -1.
         -2    1    6    6    0  503 -0.18528045985E+03 -0.32173353689E+03  0.41870692399E+03  0.55960415095E+03  0.00000000000E+00 0.  1.
<mgrwt>
<rscale>  0 0.12649401E+04</rscale>
<asrwt>0</asrwt>
<pdfrwt beam="1">  1        2 0.16061884E+00 0.12649401E+04</pdfrwt>
<pdfrwt beam="2">  1       -1 0.58946320E-01 0.12649401E+04</pdfrwt>
<totfact> 0.77186465E+01</totfact>
</mgrwt>
</event>
<event>
12    7  0.1711607E-007  0.1464519E+04  0.7818608E-02  0.8908397E-01
         -1   -1    0    0    0  501 -0.00000000000E+00  0.00000000000E+00  0.21464556005E+03  0.21464556005E+03  0.00000000000E+00 0.  1.
          2   -1    0    0  501    0  0.00000000000E+00 -0.00000000000E+00 -0.24980891993E+04  0.24980891993E+04  0.00000000000E+00 0. -1.
         24    2    1    2    0    0  0.23907545155E+03  0.32664999552E+02 -0.14228662746E+04  0.14455400531E+04  0.82544144713E+02 0.  0.
        254    2    1    2    0    0 -0.23907545155E+03 -0.32664999552E+02 -0.86057736460E+03  0.12671947063E+04  0.89831227832E+03 0.  0.
         23    2    4    4    0    0  0.31667124910E+03 -0.28711058159E+02 -0.49643317455E+03  0.59659367969E+03  0.91504737492E+02 0.  0.
         23    2    4    4    0    0 -0.55574670065E+03 -0.39539413931E+01 -0.36414419005E+03  0.67060102657E+03  0.90745340129E+02 0.  0.
          4    1    3    3  502    0  0.66260171550E+02 -0.18001045659E+01 -0.62165633359E+03  0.62518017227E+03  0.00000000000E+00 0. -1.
         -3    1    3    3    0  502  0.17281528000E+03  0.34465104118E+02 -0.80120994103E+03  0.82035988079E+03  0.00000000000E+00 0.  1.
         13    1    5    5    0    0  0.25348636254E+03 -0.13860355662E+02 -0.31916158771E+03  0.40781314903E+03  0.00000000000E+00 0.  1.
        -13    1    5    5    0    0  0.63184886558E+02 -0.14850702497E+02 -0.17727158684E+03  0.18878053066E+03  0.00000000000E+00 0. -1.
          2    1    6    6  503    0 -0.80693444214E+01  0.76382191751E+01  0.25466397427E+01  0.11399214251E+02  0.00000000000E+00 0.  1.
         -2    1    6    6    0  503 -0.54767735623E+03 -0.11592160568E+02 -0.36669082979E+03  0.65920181232E+03  0.00000000000E+00 0. -1.
<mgrwt>
<rscale>  0 0.14645187E+04</rscale>
<asrwt>0</asrwt>
<pdfrwt beam="1">  1        2 0.38432143E+00 0.14645187E+04</pdfrwt>
<pdfrwt beam="2">  1       -1 0.33022392E-01 0.14645187E+04</pdfrwt>
<totfact> 0.33255263E+01</totfact>
</mgrwt>
</event>
<event>
12    7  0.1711607E-007  0.3359406E+04  0.7818608E-02  0.8147942E-01
          2   -1    0    0  501    0  0.00000000000E+00  0.00000000000E+00  0.26444429501E+04  0.26444429501E+04  0.00000000000E+00 0. -1.
         -1   -1    0    0    0  501 -0.00000000000E+00 -0.00000000000E+00 -0.10669175514E+04  0.10669175514E+04  0.00000000000E+00 0.  1.
         24    2    1    2    0    0  0.23965370975E+03 -0.71904938685E+02  0.24414848586E+04  0.24555826776E+04  0.80210665272E+02 0.  0.
        254    2    1    2    0    0 -0.23965370975E+03  0.71904938685E+02 -0.86395945993E+03  0.12557778240E+04  0.87632629425E+03 0.  0.
         23    2    4    4    0    0  0.15362130768E+03  0.34600278531E+03 -0.55331750434E+03  0.67699632884E+03  0.94054957507E+02 0.  0.
         23    2    4    4    0    0 -0.39327501743E+03 -0.27409784662E+03 -0.31064195558E+03  0.57878149514E+03  0.93245513016E+02 0.  0.
          2    1    3    3  502    0  0.22512607292E+03 -0.83825911643E+02  0.21239094744E+04  0.21374517509E+04  0.00000000000E+00 0. -1.
         -3    1    3    3    0  502  0.14527636832E+02  0.11920972958E+02  0.31757538418E+03  0.31813092661E+03  0.00000000000E+00 0.  1.
         13    1    5    5    0    0  0.73926860381E+02  0.14319551312E+03 -0.31660690793E+03  0.35526056608E+03  0.00000000000E+00 0. -1.
        -13    1    5    5    0    0  0.79694447295E+02  0.20280727218E+03 -0.23671059642E+03  0.32173576275E+03  0.00000000000E+00 0.  1.
          4    1    6    6  503    0 -0.22311603754E+03 -0.10212120452E+03 -0.13746762953E+03  0.28125941013E+03  0.00000000000E+00 0. -1.
         -4    1    6    6    0  503 -0.17015897989E+03 -0.17197664210E+03 -0.17317432605E+03  0.29752208501E+03  0.00000000000E+00 0.  1.
<mgrwt>
<rscale>  0 0.33594063E+04</rscale>
<asrwt>0</asrwt>
<pdfrwt beam="1">  1        2 0.40683737E+00 0.33594063E+04</pdfrwt>
<pdfrwt beam="2">  1       -1 0.16414116E+00 0.33594063E+04</pdfrwt>
<totfact> 0.73567002E-01</totfact>
</mgrwt>
</event>
<event>
12    7  0.1711607E-007  0.2172423E+04  0.7818608E-02  0.8529995E-01
          2   -1    0    0  501    0  0.00000000000E+00  0.00000000000E+00  0.76430664879E+03  0.76430664879E+03  0.00000000000E+00 0. -1.
         -1   -1    0    0    0  501 -0.00000000000E+00 -0.00000000000E+00 -0.15436935506E+04  0.15436935506E+04  0.00000000000E+00 0.  1.
         24    2    1    2    0    0  0.61000998646E+03  0.27370398377E+03 -0.95975785176E+03  0.11722093775E+04  0.76900170988E+02 0.  0.
        254    2    1    2    0    0 -0.61000998646E+03 -0.27370398377E+03  0.18037094991E+03  0.11357908220E+04  0.90025610654E+03 0.  0.
         23    2    4    4    0    0 -0.58401837393E+03 -0.31529364527E+02 -0.24193920426E+03  0.63945797893E+03  0.91106346349E+02 0.  0.
         23    2    4    4    0    0 -0.25991612535E+02 -0.24217461924E+03  0.42231015417E+03  0.49633284303E+03  0.93146737103E+02 0.  0.
          2    1    3    3  502    0  0.23185312547E+02  0.29186926433E+02 -0.54023336955E+02  0.65635023640E+02  0.00000000000E+00 0. -1.
         -1    1    3    3    0  502  0.58682467392E+03  0.24451705734E+03 -0.90573451481E+03  0.11065743538E+04  0.00000000000E+00 0.  1.
         13    1    5    5    0    0 -0.45111914510E+03 -0.12070568074E+02 -0.14568427553E+03  0.47421312701E+03  0.00000000000E+00 0.  1.
        -13    1    5    5    0    0 -0.13289922883E+03 -0.19458796453E+02 -0.96254928724E+02  0.16524485192E+03  0.00000000000E+00 0. -1.
          4    1    6    6  503    0 -0.25931449982E+02 -0.11764280707E+03  0.29304490072E+03  0.31683999746E+03  0.00000000000E+00 0. -1.
         -4    1    6    6    0  503 -0.60162553221E-01 -0.12453181217E+03  0.12926525345E+03  0.17949284557E+03  0.00000000000E+00 0.  1.
<mgrwt>
<rscale>  0 0.21724228E+04</rscale>
<asrwt>0</asrwt>
<pdfrwt beam="1">  1        2 0.11758564E+00 0.21724228E+04</pdfrwt>
<pdfrwt beam="2">  1       -1 0.23749132E+00 0.21724228E+04</pdfrwt>
<totfact> 0.32208018E+00</totfact>
</mgrwt>
</event>
<event>
12    7  0.1711607E-007  0.2477695E+04  0.7818608E-02  0.8410975E-01
         -1   -1    0    0    0  501 -0.00000000000E+00  0.00000000000E+00  0.67316117575E+03  0.67316117575E+03  0.00000000000E+00 0.  1.
          2   -1    0    0  501    0  0.00000000000E+00 -0.00000000000E+00 -0.22799036449E+04  0.22799036449E+04  0.00000000000E+00 0. -1.
         24    2    1    2    0    0 -0.74291918135E+03 -0.49589848545E+03  0.83853882995E+01  0.89686033504E+03  0.80274080129E+02 0.  0.
        254    2    1    2    0    0  0.74291918135E+03  0.49589848545E+03 -0.16151278575E+04  0.20562044856E+04  0.90636343310E+03 0.  0.
         23    2    4    4    0    0  0.57938439182E+03 -0.13670209524E+03 -0.89182473724E+03  0.10762079430E+04  0.92186974788E+02 0.  0.
         23    2    4    4    0    0  0.16353478952E+03  0.63260058069E+03 -0.72330312023E+03  0.97999654262E+03  0.10148249965E+03 0.  0.
          2    1    3    3  502    0 -0.46390302658E+03 -0.33116118479E+03 -0.28862698796E+02  0.57070728378E+03  0.00000000000E+00 0. -1.
         -1    1    3    3    0  502 -0.27901615477E+03 -0.16473730066E+03  0.37248087095E+02  0.32615305126E+03  0.00000000000E+00 0.  1.
         13    1    5    5    0    0  0.36520811079E+03 -0.10719748884E+03 -0.63675461975E+03  0.74183873690E+03  0.00000000000E+00 0. -1.
        -13    1    5    5    0    0  0.21417628104E+03 -0.29504606395E+02 -0.25507011748E+03  0.33436920610E+03  0.00000000000E+00 0.  1.
          3    1    6    6  503    0  0.13533070277E+03  0.36161073652E+03 -0.38020604908E+03  0.54187947335E+03  0.00000000000E+00 0. -1.
         -3    1    6    6    0  503  0.28204086750E+02  0.27098984417E+03 -0.34309707116E+03  0.43811706927E+03  0.00000000000E+00 0.  1.
<mgrwt>
<rscale>  0 0.24776946E+04</rscale>
<asrwt>0</asrwt>
<pdfrwt beam="1">  1        2 0.35075441E+00 0.24776946E+04</pdfrwt>
<pdfrwt beam="2">  1       -1 0.10356326E+00 0.24776946E+04</pdfrwt>
<totfact> 0.41580690E+00</totfact>
</mgrwt>
</event>
<event>
12    7  0.1711607E-007  0.1616687E+04  0.7818608E-02  0.8810362E-01
          2   -1    0    0  501    0  0.00000000000E+00  0.00000000000E+00  0.32768794338E+04  0.32768794338E+04  0.00000000000E+00 0. -1.
         -1   -1    0    0    0  501 -0.00000000000E+00 -0.00000000000E+00 -0.19940281866E+03  0.19940281866E+03  0.00000000000E+00 0.  1.
         24    2    1    2    0    0  0.18375679704E+02  0.52781017824E+03  0.13619222105E+04  0.14629001864E+04  0.79521055391E+02 0.  0.
        254    2    1    2    0    0 -0.18375679704E+02 -0.52781017824E+03  0.17155544047E+04  0.20133820660E+04  0.91195349583E+03 0.  0.
         23    2    4    4    0    0 -0.17519736051E+03 -0.24318522139E+03  0.54216620442E+02  0.31827392776E+03  0.92334631221E+02 0.  0.
         23    2    4    4    0    0  0.15682168081E+03 -0.28462495685E+03  0.16613377842E+04  0.16951081383E+04  0.87999781208E+02 0.  0.
          4    1    3    3  502    0 -0.13092743125E+02  0.84832834491E+02  0.29524571524E+03  0.30747042475E+03  0.00000000000E+00 0. -1.
         -3    1    3    3    0  502  0.31468422830E+02  0.44297734375E+03  0.10666764952E+04  0.11554297617E+04  0.00000000000E+00 0.  1.
         13    1    5    5    0    0 -0.16537339113E+03 -0.24894286206E+03  0.42391235173E+02  0.30185745623E+03  0.00000000000E+00 0.  1.
        -13    1    5    5    0    0 -0.98239693811E+01  0.57576406677E+01  0.11825385268E+02  0.16416471521E+02  0.00000000000E+00 0. -1.
          4    1    6    6  503    0  0.93235637015E+02 -0.10021406495E+03  0.54970266952E+03  0.56648810023E+03  0.00000000000E+00 0. -1.
         -4    1    6    6    0  503  0.63586043795E+02 -0.18441089190E+03  0.11116351147E+04  0.11286200380E+04  0.00000000000E+00 0.  1.
<mgrwt>
<rscale>  0 0.16166867E+04</rscale>
<asrwt>0</asrwt>
<pdfrwt beam="1">  1        2 0.50413525E+00 0.16166867E+04</pdfrwt>
<pdfrwt beam="2">  1       -1 0.30677359E-01 0.16166867E+04</pdfrwt>
<totfact> 0.12454143E+01</totfact>
</mgrwt>
</event>
<event>
12    7  0.1711607E-007  0.1514541E+04  0.7818608E-02  0.8874840E-01
          2   -1    0    0  501    0  0.00000000000E+00  0.00000000000E+00  0.20681217348E+04  0.20681217348E+04  0.00000000000E+00 0. -1.
         -1   -1    0    0    0  501 -0.00000000000E+00 -0.00000000000E+00 -0.27728487277E+03  0.27728487277E+03  0.00000000000E+00 0.  1.
         24    2    1    2    0    0 -0.27615789202E+03 -0.21331233902E+03  0.10739945897E+04  0.11319767941E+04  0.78369306455E+02 0.  0.
        254    2    1    2    0    0  0.27615789202E+03  0.21331233902E+03  0.71684227226E+03  0.12134298135E+04  0.91475883906E+03 0.  0.
         23    2    4    4    0    0 -0.19498374793E+03  0.32131973773E+03  0.57919396601E+02  0.39143130227E+03  0.92729564225E+02 0.  0.
         23    2    4    4    0    0  0.47114163995E+03 -0.10800739871E+03  0.65892287566E+03  0.82199851121E+03  0.88668784216E+02 0.  0.
          4    1    3    3  502    0 -0.17739222489E+03 -0.17896660155E+03  0.71748731843E+03  0.76045058881E+03  0.00000000000E+00 0. -1.
         -3    1    3    3    0  502 -0.98765667132E+02 -0.34345737472E+02  0.35650727131E+03  0.37152620524E+03  0.00000000000E+00 0.  1.
         13    1    5    5    0    0 -0.18528060808E+03  0.31504013844E+03  0.36770045595E+02  0.36732986376E+03  0.00000000000E+00 0.  1.
        -13    1    5    5    0    0 -0.97031398541E+01  0.62795992931E+01  0.21149351006E+02  0.24101438511E+02  0.00000000000E+00 0. -1.
          2    1    6    6  503    0  0.43506223998E+02 -0.35510707819E+02  0.97878847611E+02  0.11284533976E+03  0.00000000000E+00 0. -1.
         -2    1    6    6    0  503  0.42763541596E+03 -0.72496690888E+02  0.56104402805E+03  0.70915317145E+03  0.00000000000E+00 0.  1.
<mgrwt>
<rscale>  0 0.15145413E+04</rscale>
<asrwt>0</asrwt>
<pdfrwt beam="1">  1        2 0.31817256E+00 0.15145413E+04</pdfrwt>
<pdfrwt beam="2">  1       -1 0.42659213E-01 0.15145413E+04</pdfrwt>
<totfact> 0.36425647E+01</totfact>
</mgrwt>
</event>
<event>
12    7  0.1711607E-007  0.1298422E+04  0.7818608E-02  0.9030817E-01
          2   -1    0    0  501    0  0.00000000000E+00  0.00000000000E+00  0.97407733034E+03  0.97407733034E+03  0.00000000000E+00 0. -1.
         -1   -1    0    0    0  501 -0.00000000000E+00 -0.00000000000E+00 -0.43269162626E+03  0.43269162626E+03  0.00000000000E+00 0.  1.
         24    2    1    2    0    0 -0.11111205523E+03 -0.17772326359E+03  0.41083365493E+03  0.46812172522E+03  0.80138694505E+02 0.  0.
        254    2    1    2    0    0  0.11111205523E+03  0.17772326359E+03  0.13055204915E+03  0.93864723138E+03  0.90558452957E+03 0.  0.
         23    2    4    4    0    0  0.23854981907E+03  0.50383951477E+03  0.12763671454E+03  0.57924099558E+03  0.92025687942E+02 0.  0.
         23    2    4    4    0    0 -0.12743776384E+03 -0.32611625118E+03  0.29153346147E+01  0.35940623580E+03  0.81068799308E+02 0.  0.
          4    1    3    3  502    0 -0.51173669758E+02 -0.10696261089E+03  0.30593426140E+03  0.32810900155E+03  0.00000000000E+00 0. -1.
         -3    1    3    3    0  502 -0.59938385470E+02 -0.70760652699E+02  0.10489939354E+03  0.14001272366E+03  0.00000000000E+00 0.  1.
         13    1    5    5    0    0 -0.65654920396E+01  0.34538895979E+02  0.13231301357E+02  0.37564722237E+02  0.00000000000E+00 0.  1.
        -13    1    5    5    0    0  0.24511531111E+03  0.46930061879E+03  0.11440541318E+03  0.54167627334E+03  0.00000000000E+00 0. -1.
          3    1    6    6  503    0 -0.12956781057E+03 -0.26514744658E+03  0.20768082550E+02  0.29584167931E+03  0.00000000000E+00 0. -1.
         -3    1    6    6    0  503  0.21300467265E+01 -0.60968804600E+02 -0.17852747935E+02  0.63564556494E+02  0.00000000000E+00 0.  1.
<mgrwt>
<rscale>  0 0.12984223E+04</rscale>
<asrwt>0</asrwt>
<pdfrwt beam="1">  1        2 0.14985805E+00 0.12984223E+04</pdfrwt>
<pdfrwt beam="2">  1       -1 0.66567942E-01 0.12984223E+04</pdfrwt>
<totfact> 0.66963721E+01</totfact>
</mgrwt>
</event>
<event>
12    7  0.1711607E-007  0.1240561E+04  0.7818608E-02  0.9078076E-01
         -1   -1    0    0    0  501 -0.00000000000E+00  0.00000000000E+00  0.29810452176E+03  0.29810452176E+03  0.00000000000E+00 0.  1.
          2   -1    0    0  501    0  0.00000000000E+00 -0.00000000000E+00 -0.12906466269E+04  0.12906466269E+04  0.00000000000E+00 0. -1.
         24    2    1    2    0    0  0.50112756553E+02 -0.64893088523E+02 -0.58801350985E+03  0.59899463500E+03  0.79449881634E+02 0.  0.
        254    2    1    2    0    0 -0.50112756553E+02  0.64893088523E+02 -0.40452859532E+03  0.98975651369E+03  0.89958444331E+03 0.  0.
         23    2    4    4    0    0 -0.45479495700E+02  0.41785239921E+03 -0.44994212675E+03  0.62276753856E+03  0.93394205418E+02 0.  0.
         23    2    4    4    0    0 -0.46332608530E+01 -0.35295931068E+03  0.45413531431E+02  0.36698897513E+03  0.89536455840E+02 0.  0.
          4    1    3    3  502    0  0.54069878345E+02 -0.77561011293E+02 -0.56083614892E+03  0.56874989948E+03  0.00000000000E+00 0. -1.
         -3    1    3    3    0  502 -0.39571217920E+01  0.12667922770E+02 -0.27177360927E+02  0.30244735527E+02  0.00000000000E+00 0.  1.
         13    1    5    5    0    0  0.20059742732E+02  0.24002591541E+03 -0.26094293460E+03  0.35511413442E+03  0.00000000000E+00 0.  1.
        -13    1    5    5    0    0 -0.65539238432E+02  0.17782648379E+03 -0.18899919215E+03  0.26765340414E+03  0.00000000000E+00 0. -1.
          2    1    6    6  503    0  0.28078597103E+02 -0.37711622167E+02  0.16918340774E+01  0.47047171693E+02  0.00000000000E+00 0. -1.
         -2    1    6    6    0  503 -0.32711857956E+02 -0.31524768852E+03  0.43721697353E+02  0.31994180344E+03  0.00000000000E+00 0.  1.
<mgrwt>
<rscale>  0 0.12405605E+04</rscale>
<asrwt>0</asrwt>
<pdfrwt beam="1">  1        2 0.19856102E+00 0.12405605E+04</pdfrwt>
<pdfrwt beam="2">  1       -1 0.45862234E-01 0.12405605E+04</pdfrwt>
<totfact> 0.88719407E+01</totfact>
</mgrwt>
</event>
<event>
12    7  0.1711607E-007  0.1391706E+04  0.7818608E-02  0.8959844E-01
          2   -1    0    0  501    0  0.00000000000E+00  0.00000000000E+00  0.18050317841E+04  0.18050317841E+04  0.00000000000E+00 0. -1.
         -1   -1    0    0    0  501 -0.00000000000E+00 -0.00000000000E+00 -0.26825645906E+03  0.26825645906E+03  0.00000000000E+00 0.  1.
         24    2    1    2    0    0 -0.35372776319E+03 -0.73610247868E+02  0.17501152807E+03  0.40928466062E+03  0.79643577367E+02 0.  0.
        254    2    1    2    0    0  0.35372776319E+03  0.73610247868E+02  0.13617637970E+04  0.16640035826E+04  0.88541825426E+03 0.  0.
         23    2    4    4    0    0  0.23330038256E+03 -0.32713874901E+02  0.14413851170E+04  0.14632438050E+04  0.89398607924E+02 0.  0.
         23    2    4    4    0    0  0.12042738063E+03  0.10632412277E+03 -0.79621320024E+02  0.20075977761E+03  0.90318107898E+02 0.  0.
          2    1    3    3  502    0 -0.21273984968E+03 -0.27785541549E+02  0.63397654586E+02  0.22371755087E+03  0.00000000000E+00 0. -1.
         -1    1    3    3    0  502 -0.14098791351E+03 -0.45824706319E+02  0.11161387348E+03  0.18556710975E+03  0.00000000000E+00 0.  1.
         13    1    5    5    0    0  0.94457987451E+02  0.30506872468E+02  0.54332487735E+03  0.55231775547E+03  0.00000000000E+00 0. -1.
        -13    1    5    5    0    0  0.13884239511E+03 -0.63220747368E+02  0.89806023969E+03  0.91092604952E+03  0.00000000000E+00 0.  1.
          4    1    6    6  503    0  0.43451711435E+02  0.16615386480E+02 -0.67437557251E+02  0.81926469608E+02  0.00000000000E+00 0. -1.
         -4    1    6    6    0  503  0.76975669195E+02  0.89708736289E+02 -0.12183762773E+02  0.11883330800E+03  0.00000000000E+00 0.  1.
<mgrwt>
<rscale>  0 0.13917061E+04</rscale>
<asrwt>0</asrwt>
<pdfrwt beam="1">  1        2 0.27769719E+00 0.13917061E+04</pdfrwt>
<pdfrwt beam="2">  1       -1 0.41270226E-01 0.13917061E+04</pdfrwt>
<totfact> 0.54706141E+01</totfact>
</mgrwt>
</event>
<event>
12    7  0.1711607E-007  0.2212458E+04  0.7818608E-02  0.8513261E-01
          2   -1    0    0  501    0  0.00000000000E+00  0.00000000000E+00  0.33670394408E+04  0.33670394408E+04  0.00000000000E+00 0. -1.
         -1   -1    0    0    0  501 -0.00000000000E+00 -0.00000000000E+00 -0.36344770022E+03  0.36344770022E+03  0.00000000000E+00 0.  1.
         24    2    1    2    0    0  0.24965860011E+02 -0.80002299622E+03  0.50194563660E+03  0.94802326700E+03  0.78349243958E+02 0.  0.
        254    2    1    2    0    0 -0.24965860011E+02  0.80002299622E+03  0.25016461040E+04  0.27824638740E+04  0.91826569797E+03 0.  0.
         23    2    4    4    0    0 -0.63087654089E+02  0.50413002772E+03  0.38964806350E+03  0.64736829560E+03  0.95566520332E+02 0.  0.
         23    2    4    4    0    0  0.38121794078E+02  0.29589296850E+03  0.21119980405E+04  0.21350955784E+04  0.95349284527E+02 0.  0.
          2    1    3    3  502    0 -0.14630642637E+02 -0.79979227021E+02  0.70956712083E+02  0.10791472304E+03  0.00000000000E+00 0. -1.
         -1    1    3    3    0  502  0.39596502648E+02 -0.72004376920E+03  0.43098892452E+03  0.84010854396E+03  0.00000000000E+00 0.  1.
         13    1    5    5    0    0 -0.71542745769E+02  0.23530622290E+03  0.15725299770E+03  0.29191760532E+03  0.00000000000E+00 0.  1.
        -13    1    5    5    0    0  0.84550916800E+01  0.26882380481E+03  0.23239506581E+03  0.35545069028E+03  0.00000000000E+00 0. -1.
          4    1    6    6  503    0 -0.14866163253E+02  0.15391108942E+03  0.12910593076E+04  0.13002860309E+04  0.00000000000E+00 0. -1.
         -4    1    6    6    0  503  0.52987957331E+02  0.14198187908E+03  0.82093873287E+03  0.83480954758E+03  0.00000000000E+00 0.  1.
<mgrwt>
<rscale>  0 0.22124581E+04</rscale>
<asrwt>0</asrwt>
<pdfrwt beam="1">  1        2 0.51800605E+00 0.22124581E+04</pdfrwt>
<pdfrwt beam="2">  1       -1 0.55915033E-01 0.22124581E+04</pdfrwt>
<totfact> 0.33838774E+00</totfact>
</mgrwt>
</event>
<event>
12    7  0.1711607E-007  0.1782972E+04  0.7818608E-02  0.8715407E-01
          2   -1    0    0  501    0  0.00000000000E+00  0.00000000000E+00  0.14722413803E+04  0.14722413803E+04  0.00000000000E+00 0. -1.
         -1   -1    0    0    0  501 -0.00000000000E+00 -0.00000000000E+00 -0.53982146726E+03  0.53982146726E+03  0.00000000000E+00 0.  1.
         24    2    1    2    0    0  0.24512706137E+03  0.24923269161E+03  0.98329171257E+03  0.10466811716E+04  0.80465347899E+02 0.  0.
        254    2    1    2    0    0 -0.24512706137E+03 -0.24923269161E+03 -0.50871799563E+02  0.96538167591E+03  0.89842619587E+03 0.  0.
         23    2    4    4    0    0  0.78871443596E+02 -0.44231339963E+03 -0.25723314553E+03  0.52597277323E+03  0.92825744924E+02 0.  0.
         23    2    4    4    0    0 -0.32399850496E+03  0.19308070802E+03  0.20636134597E+03  0.43940890268E+03  0.90774377534E+02 0.  0.
          4    1    3    3  502    0  0.18119320371E+03  0.20623156174E+03  0.84367878254E+03  0.88721830585E+03  0.00000000000E+00 0. -1.
         -3    1    3    3    0  502  0.63933857653E+02  0.43001129866E+02  0.13961293003E+03  0.15946286576E+03  0.00000000000E+00 0.  1.
         13    1    5    5    0    0  0.95035274610E+02 -0.42272171323E+03 -0.24554273579E+03  0.49801263574E+03  0.00000000000E+00 0. -1.
        -13    1    5    5    0    0 -0.16163831014E+02 -0.19591686399E+02 -0.11690409737E+02  0.27960137496E+02  0.00000000000E+00 0.  1.
          2    1    6    6  503    0 -0.15022945681E+03  0.46132900313E+02  0.11234736264E+03  0.19318142788E+03  0.00000000000E+00 0.  1.
         -2    1    6    6    0  503 -0.17376904816E+03  0.14694780771E+03  0.94013983325E+02  0.24622747480E+03  0.00000000000E+00 0. -1.
<mgrwt>
<rscale>  0 0.17829722E+04</rscale>
<asrwt>0</asrwt>
<pdfrwt beam="1">  1        2 0.22649867E+00 0.17829722E+04</pdfrwt>
<pdfrwt beam="2">  1       -1 0.83049457E-01 0.17829722E+04</pdfrwt>
<totfact> 0.20412003E+01</totfact>
</mgrwt>
</event>
<event>
12    7  0.1711607E-007  0.2403755E+04  0.7818608E-02  0.8438099E-01
          2   -1    0    0  501    0  0.00000000000E+00  0.00000000000E+00  0.11054115973E+04  0.11054115973E+04  0.00000000000E+00 0. -1.
         -3   -1    0    0    0  501 -0.00000000000E+00 -0.00000000000E+00 -0.13067611935E+04  0.13067611935E+04  0.00000000000E+00 0.  1.
         24    2    1    2    0    0 -0.48136323842E+03 -0.10183401229E+03 -0.10006989548E+04  0.11204092269E+04  0.10880121443E+03 0.  0.
        254    2    1    2    0    0  0.48136323842E+03  0.10183401229E+03  0.79934935860E+03  0.12917635640E+04  0.88747561925E+03 0.  0.
         23    2    4    4    0    0  0.30130406114E+03 -0.32365128831E+03  0.12412163976E+03  0.46844559153E+03  0.92199767272E+02 0.  0.
         23    2    4    4    0    0  0.18005917727E+03  0.42548530059E+03  0.67522771884E+03  0.82331797244E+03  0.91983493745E+02 0.  0.
          4    1    3    3  502    0 -0.48465402798E+02  0.90195181493E+01 -0.51552245031E+02  0.71329383453E+02  0.00000000000E+00 0. -1.
         -3    1    3    3    0  502 -0.43289783562E+03 -0.11085353043E+03 -0.94914670974E+03  0.10490798434E+04  0.00000000000E+00 0.  1.
         13    1    5    5    0    0  0.26632630691E+02 -0.52466374532E+02 -0.10277129491E+02  0.59729698347E+02  0.00000000000E+00 0. -1.
        -13    1    5    5    0    0  0.27467143045E+03 -0.27118491378E+03  0.13439876925E+03  0.40871589319E+03  0.00000000000E+00 0.  1.
          1    1    6    6  503    0  0.18010488357E+03  0.33513208607E+03  0.55636199046E+03  0.67401034757E+03  0.00000000000E+00 0. -1.
         -1    1    6    6    0  503 -0.45706294076E-01  0.90353214523E+02  0.11886572838E+03  0.14930762488E+03  0.00000000000E+00 0.  1.
<mgrwt>
<rscale>  0 0.24037545E+04</rscale>
<asrwt>0</asrwt>
<pdfrwt beam="1">  1        2 0.17006332E+00 0.24037545E+04</pdfrwt>
<pdfrwt beam="2">  1       -3 0.20104018E+00 0.24037545E+04</pdfrwt>
<totfact> 0.17654842E+00</totfact>
</mgrwt>
</event>
<event>
12    7  0.1711607E-007  0.2134298E+04  0.7818608E-02  0.8546284E-01
         -1   -1    0    0    0  501 -0.00000000000E+00  0.00000000000E+00  0.49998583186E+03  0.49998583186E+03  0.00000000000E+00 0.  1.
          2   -1    0    0  501    0  0.00000000000E+00 -0.00000000000E+00 -0.22776786456E+04  0.22776786456E+04  0.00000000000E+00 0. -1.
         24    2    1    2    0    0 -0.51289796034E+03 -0.27338258603E+03 -0.15706491222E+04  0.16765456704E+04  0.77874026552E+02 0.  0.
        254    2    1    2    0    0  0.51289796034E+03  0.27338258603E+03 -0.20704369153E+03  0.11011188070E+04  0.91202696277E+03 0.  0.
         23    2    4    4    0    0 -0.14696211446E+03  0.25016576240E+03  0.15370182695E+03  0.34280230822E+03  0.98531208997E+02 0.  0.
         23    2    4    4    0    0  0.65986007480E+03  0.23216823628E+02 -0.36074551849E+03  0.75831649877E+03  0.94616298679E+02 0.  0.
          2    1    3    3  502    0 -0.18737515495E+03 -0.13643938497E+03 -0.68101628410E+03  0.71938052078E+03  0.00000000000E+00 0. -1.
         -1    1    3    3    0  502 -0.32552280539E+03 -0.13694320106E+03 -0.88963283808E+03  0.95716514967E+03  0.00000000000E+00 0.  1.
         13    1    5    5    0    0 -0.14450514550E+03  0.23172341372E+03  0.16684492362E+03  0.32002297743E+03  0.00000000000E+00 0.  1.
        -13    1    5    5    0    0 -0.24569689606E+01  0.18442348683E+02 -0.13143096668E+02  0.22779330794E+02  0.00000000000E+00 0. -1.
          2    1    6    6  503    0  0.38634733676E+03  0.29525010295E+02 -0.16109059205E+03  0.41962622619E+03  0.00000000000E+00 0.  1.
         -2    1    6    6    0  503  0.27351273804E+03 -0.63081866666E+01 -0.19965492644E+03  0.33869027258E+03  0.00000000000E+00 0. -1.
<mgrwt>
<rscale>  0 0.21342981E+04</rscale>
<asrwt>0</asrwt>
<pdfrwt beam="1">  1        2 0.35041210E+00 0.21342981E+04</pdfrwt>
<pdfrwt beam="2">  1       -1 0.76920897E-01 0.21342981E+04</pdfrwt>
<totfact> 0.82767633E+00</totfact>
</mgrwt>
</event>
<event>
12    7  0.1711607E-007  0.1714597E+04  0.7818608E-02  0.8753083E-01
          2   -1    0    0  501    0  0.00000000000E+00  0.00000000000E+00  0.37345109402E+04  0.37345109402E+04  0.00000000000E+00 0. -1.
         -1   -1    0    0    0  501 -0.00000000000E+00 -0.00000000000E+00 -0.19680240566E+03  0.19680240566E+03  0.00000000000E+00 0.  1.
         24    2    1    2    0    0 -0.33715827139E+03 -0.18827125516E+03  0.23528110199E+04  0.23857367028E+04  0.83055129667E+02 0.  0.
        254    2    1    2    0    0  0.33715827139E+03  0.18827125516E+03  0.11848975147E+04  0.15455766431E+04  0.91416807739E+03 0.  0.
         23    2    4    4    0    0  0.12453559772E+03  0.10508721783E+03 -0.11716346092E+03  0.22073859273E+03  0.91901095173E+02 0.  0.
         23    2    4    4    0    0  0.21262267367E+03  0.83184037335E+02  0.13020609757E+04  0.13248380504E+04  0.87778641515E+02 0.  0.
          2    1    3    3  502    0 -0.28348668573E+03 -0.16048692670E+03  0.21344649107E+04  0.21591806802E+04  0.00000000000E+00 0. -1.
         -1    1    3    3    0  502 -0.53671585664E+02 -0.27784328462E+02  0.21834610913E+03  0.22655602262E+03  0.00000000000E+00 0.  1.
         13    1    5    5    0    0  0.20426847271E+02  0.15668105257E+02 -0.71674550688E+02  0.76157644581E+02  0.00000000000E+00 0.  1.
        -13    1    5    5    0    0  0.10410875045E+03  0.89419112569E+02 -0.45488910235E+02  0.14458094814E+03  0.00000000000E+00 0. -1.
          2    1    6    6  503    0  0.10085799443E+03 -0.48336778315E+01  0.61082118380E+03  0.61911082858E+03  0.00000000000E+00 0. -1.
         -2    1    6    6    0  503  0.11176467924E+03  0.88017715167E+02  0.69123979185E+03  0.70572722177E+03  0.00000000000E+00 0.  1.
<mgrwt>
<rscale>  0 0.17145970E+04</rscale>
<asrwt>0</asrwt>
<pdfrwt beam="1">  1        2 0.57454009E+00 0.17145970E+04</pdfrwt>
<pdfrwt beam="2">  1       -1 0.30277296E-01 0.17145970E+04</pdfrwt>
<totfact> 0.60549244E+00</totfact>
</mgrwt>
</event>
<event>
12    7  0.1711607E-007  0.2282289E+04  0.7818608E-02  0.8484937E-01
          2   -1    0    0  501    0  0.00000000000E+00  0.00000000000E+00  0.19445949784E+04  0.19445949784E+04  0.00000000000E+00 0. -1.
         -1   -1    0    0    0  501 -0.00000000000E+00 -0.00000000000E+00 -0.66965648852E+03  0.66965648852E+03  0.00000000000E+00 0.  1.
         24    2    1    2    0    0  0.24797389493E+03  0.11083403580E+03  0.15988912006E+04  0.16237243284E+04  0.79072037789E+02 0.  0.
        254    2    1    2    0    0 -0.24797389493E+03 -0.11083403580E+03 -0.32395271069E+03  0.99052713856E+03  0.89578089810E+03 0.  0.
         23    2    4    4    0    0 -0.98965608597E+02  0.19603232883E+03 -0.53112759348E+03  0.58192179646E+03  0.91178895640E+02 0.  0.
         23    2    4    4    0    0 -0.14900828633E+03 -0.30686636463E+03  0.20717488278E+03  0.40860534210E+03  0.87558314281E+02 0.  0.
          2    1    3    3  502    0  0.14667996159E+03  0.34677597836E+02  0.70808549260E+03  0.72394931574E+03  0.00000000000E+00 0. -1.
         -1    1    3    3    0  502  0.10129393334E+03  0.76156437959E+02  0.89080570800E+03  0.89977501265E+03  0.00000000000E+00 0.  1.
         13    1    5    5    0    0 -0.10119883914E+03  0.18130292556E+03 -0.52705201082E+03  0.56647663497E+03  0.00000000000E+00 0.  1.
        -13    1    5    5    0    0  0.22332305395E+01  0.14729403271E+02 -0.40755826554E+01  0.15445161487E+02  0.00000000000E+00 0. -1.
          4    1    6    6  503    0 -0.26440296795E+02 -0.17263824668E+02  0.44454942625E+02  0.54528624232E+02  0.00000000000E+00 0. -1.
         -4    1    6    6    0  503 -0.12256798954E+03 -0.28960253996E+03  0.16271994016E+03  0.35407671787E+03  0.00000000000E+00 0.  1.
<mgrwt>
<rscale>  0 0.22822889E+04</rscale>
<asrwt>0</asrwt>
<pdfrwt beam="1">  1        2 0.29916845E+00 0.22822889E+04</pdfrwt>
<pdfrwt beam="2">  1       -1 0.10302408E+00 0.22822889E+04</pdfrwt>
<totfact> 0.65950471E+00</totfact>
</mgrwt>
</event>
<event>
12    7  0.1711607E-007  0.1121630E+04  0.7818608E-02  0.9184363E-01
         -1   -1    0    0    0  501 -0.00000000000E+00  0.00000000000E+00  0.47483741202E+03  0.47483741202E+03  0.00000000000E+00 0.  1.
          2   -1    0    0  501    0  0.00000000000E+00 -0.00000000000E+00 -0.66236026197E+03  0.66236026197E+03  0.00000000000E+00 0. -1.
         24    2    1    2    0    0  0.95807372841E+02 -0.99070156427E+02 -0.15921916730E+03  0.22509271145E+03  0.79511237736E+02 0.  0.
        254    2    1    2    0    0 -0.95807372841E+02  0.99070156427E+02 -0.28303682653E+02  0.91210496254E+03  0.90118833528E+03 0.  0.
         23    2    4    4    0    0  0.11434703220E+03  0.96507101131E+02 -0.42209732677E+03  0.45662952362E+03  0.89193633372E+02 0.  0.
         23    2    4    4    0    0 -0.21015440504E+03  0.25630552968E+01  0.39379364412E+03  0.45547543892E+03  0.90625592940E+02 0.  0.
          4    1    3    3  502    0  0.92149388582E+02 -0.77756350884E+02 -0.16339758870E+03  0.20306730882E+03  0.00000000000E+00 0. -1.
         -3    1    3    3    0  502  0.36579842591E+01 -0.21313805543E+02  0.41784213981E+01  0.22025402629E+02  0.00000000000E+00 0.  1.
         13    1    5    5    0    0  0.31170215330E+02 -0.69662817048E+01 -0.34920124053E+02  0.47323635410E+02  0.00000000000E+00 0.  1.
        -13    1    5    5    0    0  0.83176816866E+02  0.10347338284E+03 -0.38717720272E+03  0.40930588821E+03  0.00000000000E+00 0. -1.
          1    1    6    6  503    0 -0.11834670641E+03 -0.33011668813E+02  0.27488977081E+03  0.30109815558E+03  0.00000000000E+00 0. -1.
         -1    1    6    6    0  503 -0.91807698624E+02  0.35574724110E+02  0.11890387331E+03  0.15437728334E+03  0.00000000000E+00 0.  1.
<mgrwt>
<rscale>  0 0.11216299E+04</rscale>
<asrwt>0</asrwt>
<pdfrwt beam="1">  1        2 0.10190158E+00 0.11216299E+04</pdfrwt>
<pdfrwt beam="2">  1       -1 0.73051909E-01 0.11216299E+04</pdfrwt>
<totfact> 0.94018886E+01</totfact>
</mgrwt>
</event>
<event>
12    7  0.1711607E-007  0.1659862E+04  0.7818608E-02  0.8784593E-01
         -1   -1    0    0    0  501 -0.00000000000E+00  0.00000000000E+00  0.11057790933E+04  0.11057790933E+04  0.00000000000E+00 0.  1.
          2   -1    0    0  501    0  0.00000000000E+00 -0.00000000000E+00 -0.62289641356E+03  0.62289641356E+03  0.00000000000E+00 0. -1.
         24    2    1    2    0    0  0.33286186179E+03  0.30958108483E+03  0.47361796309E+03  0.66094319977E+03  0.76775459949E+02 0.  0.
        254    2    1    2    0    0 -0.33286186179E+03 -0.30958108483E+03  0.92647166295E+01  0.10677323071E+04  0.96608952870E+03 0.  0.
         23    2    4    4    0    0  0.28442880309E+03  0.10456624792E+03 -0.29018557388E+02  0.31810505384E+03  0.92276239505E+02 0.  0.
         23    2    4    4    0    0 -0.61729066487E+03 -0.41414733275E+03  0.38283274018E+02  0.74962725322E+03  0.88936109312E+02 0.  0.
          4    1    3    3  502    0  0.11263510347E+03  0.75520722577E+02  0.18209017032E+03  0.22703937147E+03  0.00000000000E+00 0. -1.
         -3    1    3    3    0  502  0.22022675832E+03  0.23406036225E+03  0.29152779277E+03  0.43390382830E+03  0.00000000000E+00 0.  1.
         13    1    5    5    0    0  0.84802850071E+02 -0.58491462980E+01 -0.29498531468E+02  0.89977215179E+02  0.00000000000E+00 0. -1.
        -13    1    5    5    0    0  0.19962595302E+03  0.11041539422E+03  0.47997407986E+00  0.22812783866E+03  0.00000000000E+00 0.  1.
          1    1    6    6  503    0 -0.33813239455E+03 -0.18543440535E+03 -0.84065135308E+01  0.38573320365E+03  0.00000000000E+00 0. -1.
         -1    1    6    6    0  503 -0.27915827033E+03 -0.22871292740E+03  0.46689787549E+02  0.36389404957E+03  0.00000000000E+00 0.  1.
<mgrwt>
<rscale>  0 0.16598624E+04</rscale>
<asrwt>0</asrwt>
<pdfrwt beam="1">  1        2 0.95830218E-01 0.16598624E+04</pdfrwt>
<pdfrwt beam="2">  1       -1 0.17011986E+00 0.16598624E+04</pdfrwt>
<totfact> 0.12687117E+01</totfact>
</mgrwt>
</event>
<event>
12    7  0.1711607E-007  0.1323348E+04  0.7818608E-02  0.9011252E-01
         -1   -1    0    0    0  501 -0.00000000000E+00  0.00000000000E+00  0.71998358192E+03  0.71998358192E+03  0.00000000000E+00 0.  1.
          2   -1    0    0  501    0  0.00000000000E+00 -0.00000000000E+00 -0.60808647305E+03  0.60808647305E+03  0.00000000000E+00 0. -1.
         24    2    1    2    0    0 -0.28290139546E+03 -0.19688430583E+03  0.96961973420E+02  0.36631443115E+03  0.77382224972E+02 0.  0.
        254    2    1    2    0    0  0.28290139546E+03  0.19688430583E+03  0.14935135447E+02  0.96175562382E+03  0.89774951532E+03 0.  0.
         23    2    4    4    0    0 -0.28830035260E+03 -0.84170164226E+02 -0.40397496559E+02  0.31690953043E+03  0.92725308829E+02 0.  0.
         23    2    4    4    0    0  0.57120174806E+03  0.28105447006E+03  0.55332632006E+02  0.64484609339E+03  0.86612538758E+02 0.  0.
          2    1    3    3  502    0 -0.40023867115E+02 -0.16552758720E+02 -0.11736041248E+02  0.44873582699E+02  0.00000000000E+00 0. -1.
         -1    1    3    3    0  502 -0.24287752834E+03 -0.18033154711E+03  0.10869801467E+03  0.32144084845E+03  0.00000000000E+00 0.  1.
         13    1    5    5    0    0 -0.75379457668E+02 -0.34236379448E+02 -0.52235820045E+02  0.97891640152E+02  0.00000000000E+00 0. -1.
        -13    1    5    5    0    0 -0.21292089493E+03 -0.49933784778E+02  0.11838323486E+02  0.21901789028E+03  0.00000000000E+00 0.  1.
          1    1    6    6  503    0  0.37143023466E+03  0.22749627116E+03  0.32803495763E+02  0.43679633921E+03  0.00000000000E+00 0. -1.
         -1    1    6    6    0  503  0.19977151340E+03  0.53558198895E+02  0.22529136243E+02  0.20804975418E+03  0.00000000000E+00 0.  1.
<mgrwt>
<rscale>  0 0.13233477E+04</rscale>
<asrwt>0</asrwt>
<pdfrwt beam="1">  1        2 0.93551765E-01 0.13233477E+04</pdfrwt>
<pdfrwt beam="2">  1       -1 0.11076671E+00 0.13233477E+04</pdfrwt>
<totfact> 0.40985046E+01</totfact>
</mgrwt>
</event>
<event>
12    7  0.1711607E-007  0.2562836E+04  0.7818608E-02  0.8380936E-01
          2   -1    0    0  501    0  0.00000000000E+00  0.00000000000E+00  0.91238523900E+03  0.91238523900E+03  0.00000000000E+00 0. -1.
         -1   -1    0    0    0  501 -0.00000000000E+00 -0.00000000000E+00 -0.17997136171E+04  0.17997136171E+04  0.00000000000E+00 0.  1.
         24    2    1    2    0    0 -0.55468854457E+03  0.86890890908E+03 -0.85754345131E+03  0.13433205216E+04  0.80294328364E+02 0.  0.
        254    2    1    2    0    0  0.55468854457E+03 -0.86890890908E+03 -0.29784926825E+02  0.13687783345E+04  0.89999161853E+03 0.  0.
         23    2    4    4    0    0 -0.90546816471E+01  0.11512654588E+03 -0.16683432000E+03  0.22284355775E+03  0.92138222645E+02 0.  0.
         23    2    4    4    0    0  0.56374322622E+03 -0.98403545496E+03  0.13704939318E+03  0.11459347768E+04  0.90839279594E+02 0.  0.
          2    1    3    3  502    0 -0.23200520378E+02  0.75289575839E+02 -0.69027165547E+02  0.10474509038E+03  0.00000000000E+00 0. -1.
         -1    1    3    3    0  502 -0.53148802419E+03  0.79361933324E+03 -0.78851628576E+03  0.12385754312E+04  0.00000000000E+00 0.  1.
         13    1    5    5    0    0 -0.13095330008E+02  0.12353082061E+03 -0.11211509251E+03  0.16733542744E+03  0.00000000000E+00 0.  1.
        -13    1    5    5    0    0  0.40406483610E+01 -0.84042747253E+01 -0.54719227493E+02  0.55508130308E+02  0.00000000000E+00 0. -1.
          2    1    6    6  503    0  0.65543960771E+02 -0.11202235455E+03  0.45259331336E+02  0.13745335858E+03  0.00000000000E+00 0. -1.
         -2    1    6    6    0  503  0.49819926545E+03 -0.87201310041E+03  0.91790061842E+02  0.10084814182E+04  0.00000000000E+00 0.  1.
<mgrwt>
<rscale>  0 0.25628360E+04</rscale>
<asrwt>0</asrwt>
<pdfrwt beam="1">  1        2 0.14036696E+00 0.25628360E+04</pdfrwt>
<pdfrwt beam="2">  1       -1 0.27687902E+00 0.25628360E+04</pdfrwt>
<totfact> 0.13567656E+00</totfact>
</mgrwt>
</event>
<event>
12    7  0.1711607E-007  0.1635807E+04  0.7818608E-02  0.8798848E-01
         -1   -1    0    0    0  501 -0.00000000000E+00  0.00000000000E+00  0.15668785583E+03  0.15668785583E+03  0.00000000000E+00 0.  1.
          2   -1    0    0  501    0  0.00000000000E+00 -0.00000000000E+00 -0.42694166764E+04  0.42694166764E+04  0.00000000000E+00 0. -1.
         24    2    1    2    0    0  0.14798507748E+03  0.38589648408E+03 -0.25123150435E+04  0.25473648587E+04  0.80778500840E+02 0.  0.
        254    2    1    2    0    0 -0.14798507748E+03 -0.38589648408E+03 -0.16004137771E+04  0.18787396735E+04  0.89304133350E+03 0.  0.
         23    2    4    4    0    0 -0.43241872133E+02  0.29797821652E+02  0.85332309824E+02  0.13683361073E+03  0.93188326757E+02 0.  0.
         23    2    4    4    0    0 -0.10474320534E+03 -0.41569430573E+03 -0.16857460869E+04  0.17419060628E+04  0.93402179411E+02 0.  0.
          2    1    3    3  502    0  0.12088318835E+03  0.22486094858E+03 -0.16648017183E+04  0.16842624358E+04  0.00000000000E+00 0. -1.
         -1    1    3    3    0  502  0.27101889124E+02  0.16103553550E+03 -0.84751332515E+03  0.86310242289E+03  0.00000000000E+00 0.  1.
         13    1    5    5    0    0 -0.16201012215E+02  0.47996819719E+02  0.59320823543E+01  0.51003500870E+02  0.00000000000E+00 0.  1.
        -13    1    5    5    0    0 -0.27040859918E+02 -0.18198998067E+02  0.79400227469E+02  0.85830109856E+02  0.00000000000E+00 0. -1.
          1    1    6    6  503    0 -0.75495417943E+02 -0.34740794963E+03 -0.15064110336E+04  0.15477939281E+04  0.00000000000E+00 0. -1.
         -1    1    6    6    0  503 -0.29247787400E+02 -0.68286356099E+02 -0.17933505333E+03  0.19411213473E+03  0.00000000000E+00 0.  1.
<mgrwt>
<rscale>  0 0.16358065E+04</rscale>
<asrwt>0</asrwt>
<pdfrwt beam="1">  1        2 0.65683334E+00 0.16358065E+04</pdfrwt>
<pdfrwt beam="2">  1       -1 0.24105824E-01 0.16358065E+04</pdfrwt>
<totfact> 0.33602945E+00</totfact>
</mgrwt>
</event>
<event>
12    7  0.1711607E-007  0.2817818E+04  0.7818608E-02  0.8297758E-01
         -1   -1    0    0    0  501 -0.00000000000E+00  0.00000000000E+00  0.12236159368E+04  0.12236159368E+04  0.00000000000E+00 0.  1.
          2   -1    0    0  501    0  0.00000000000E+00 -0.00000000000E+00 -0.16222610911E+04  0.16222610911E+04  0.00000000000E+00 0. -1.
         24    2    1    2    0    0  0.21875262612E+03  0.69956586663E+03 -0.12268311724E+04  0.14315515547E+04  0.83546484056E+02 0.  0.
        254    2    1    2    0    0 -0.21875262612E+03 -0.69956586663E+03  0.82818601812E+03  0.14143254732E+04  0.88157776190E+03 0.  0.
         23    2    4    4    0    0 -0.29958920162E+03 -0.51846157094E+03  0.97755609105E+03  0.11499687305E+04  0.90862972043E+02 0.  0.
         23    2    4    4    0    0  0.80836575502E+02 -0.18110429569E+03 -0.14937007293E+03  0.26435674268E+03  0.90773073430E+02 0.  0.
          4    1    3    3  502    0  0.98433893241E+02  0.38038885334E+03 -0.72766574859E+03  0.82697179683E+03  0.00000000000E+00 0. -1.
         -3    1    3    3    0  502  0.12031873288E+03  0.31917701330E+03 -0.49916542381E+03  0.60457975787E+03  0.00000000000E+00 0.  1.
         13    1    5    5    0    0 -0.29643878271E+03 -0.46972131912E+03  0.87552902911E+03  0.10368534855E+04  0.00000000000E+00 0. -1.
        -13    1    5    5    0    0 -0.31504189140E+01 -0.48740251823E+02  0.10202706194E+03  0.11311524501E+03  0.00000000000E+00 0.  1.
          3    1    6    6  503    0  0.71744794955E+02 -0.17140340359E+03 -0.16162845584E+03  0.24627261338E+03  0.00000000000E+00 0. -1.
         -3    1    6    6    0  503  0.90917805474E+01 -0.97008921017E+01  0.12258382910E+02  0.18084129304E+02  0.00000000000E+00 0.  1.
<mgrwt>
<rscale>  0 0.28178180E+04</rscale>
<asrwt>0</asrwt>
<pdfrwt beam="1">  1        2 0.24957863E+00 0.28178180E+04</pdfrwt>
<pdfrwt beam="2">  1       -1 0.18824861E+00 0.28178180E+04</pdfrwt>
<totfact> 0.19487925E+00</totfact>
</mgrwt>
</event>
<event>
12    7  0.1711607E-007  0.3705860E+04  0.7818608E-02  0.8066665E-01
         -1   -1    0    0    0  501 -0.00000000000E+00  0.00000000000E+00  0.88922126648E+03  0.88922126648E+03  0.00000000000E+00 0.  1.
          2   -1    0    0  501    0  0.00000000000E+00 -0.00000000000E+00 -0.38610736735E+04  0.38610736735E+04  0.00000000000E+00 0. -1.
         24    2    1    2    0    0 -0.14885397416E+04  0.69350710058E+03 -0.21377969053E+04  0.26971202910E+04  0.87060866376E+02 0.  0.
        254    2    1    2    0    0  0.14885397416E+04 -0.69350710058E+03 -0.83405550163E+03  0.20531746490E+04  0.90728986459E+03 0.  0.
         23    2    4    4    0    0  0.79292926094E+03 -0.21007510734E+03 -0.87157342027E+03  0.12003777536E+04  0.91641479971E+02 0.  0.
         23    2    4    4    0    0  0.69561048070E+03 -0.48343199324E+03  0.37517918640E+02  0.85279689537E+03  0.90964375320E+02 0.  0.
          2    1    3    3  502    0 -0.81114001805E+03  0.40227152464E+03 -0.11169326464E+04  0.14378139814E+04  0.00000000000E+00 0. -1.
         -1    1    3    3    0  502 -0.67739972360E+03  0.29123557594E+03 -0.10208642589E+04  0.12593063096E+04  0.00000000000E+00 0.  1.
         13    1    5    5    0    0  0.14139472130E+03 -0.19616912054E+01 -0.15207377680E+03  0.20766017681E+03  0.00000000000E+00 0. -1.
        -13    1    5    5    0    0  0.65153453964E+03 -0.20811341613E+03 -0.71949964347E+03  0.99271757679E+03  0.00000000000E+00 0.  1.
          4    1    6    6  503    0  0.55488709884E+03 -0.35814175942E+03 -0.12711037775E+01  0.66042927555E+03  0.00000000000E+00 0.  1.
         -4    1    6    6    0  503  0.14072338186E+03 -0.12529023382E+03  0.38789022418E+02  0.19236761982E+03  0.00000000000E+00 0. -1.
<mgrwt>
<rscale>  0 0.37058596E+04</rscale>
<asrwt>0</asrwt>
<pdfrwt beam="1">  1        2 0.59401133E+00 0.37058596E+04</pdfrwt>
<pdfrwt beam="2">  1       -1 0.13680327E+00 0.37058596E+04</pdfrwt>
<totfact> 0.17944195E-01</totfact>
</mgrwt>
</event>
