<event>
12    1  0.2214165E-007  0.2442382E+04  0.7818608E-02  0.8423805E-01
         -2   -1    0    0    0  501 -0.00000000000E+00  0.00000000000E+00  0.10009532898E+04  0.10009532898E+04  0.00000000000E+00 0.  1.
          2   -1    0    0  501    0  0.00000000000E+00 -0.00000000000E+00 -0.14898866287E+04  0.14898866287E+04  0.00000000000E+00 0. -1.
         23    2    1    2    0    0  0.10395411954E+04  0.13365145930E+03 -0.31793653488E+03  0.10990261731E+04  0.90919082498E+02 0.  0.
        254    2    1    2    0    0 -0.10395411954E+04 -0.13365145930E+03 -0.17099680402E+03  0.13918137454E+04  0.89966492949E+03 0.  0.
        -24    2    4    4    0    0 -0.37826019703E+02 -0.34350986208E+03 -0.36322603096E+02  0.35625631785E+03  0.78545524378E+02 0.  0.
         24    2    4    4    0    0 -0.10017151757E+04  0.20985840278E+03 -0.13467420093E+03  0.10355574275E+04  0.82269088260E+02 0.  0.
         13    1    3    3    0    0  0.66494140502E+03  0.12916040350E+03 -0.20027233611E+03  0.70635578185E+03  0.00000000000E+00 0.  1.
        -13    1    3    3    0    0  0.37459979037E+03  0.44910557944E+01 -0.11766419877E+03  0.39267039129E+03  0.00000000000E+00 0. -1.
          2    1    6    6  502    0 -0.18547095722E+03  0.19500185820E+02  0.10251497582E+01  0.18649607006E+03  0.00000000000E+00 0. -1.
          1    1    5    5  503    0 -0.44999582530E+01 -0.27336749191E+03 -0.48431810371E+02  0.27766108030E+03  0.00000000000E+00 0. -1.
         -2    1    5    5    0  503 -0.33326061450E+02 -0.70142370175E+02  0.12109207275E+02  0.78595237555E+02  0.00000000000E+00 0.  1.
         -1    1    6    6    0  502 -0.81624421847E+03  0.19035821696E+03 -0.13569935069E+03  0.84906135746E+03  0.00000000000E+00 0.  1.
<mgrwt>
<rscale>  0 0.24423816E+04</rscale>
<asrwt>0</asrwt>
<pdfrwt beam="1">  1        2 0.22921333E+00 0.24423816E+04</pdfrwt>
<pdfrwt beam="2">  1       -2 0.15399281E+00 0.24423816E+04</pdfrwt>
<totfact> 0.32204112E+00</totfact>
</mgrwt>
</event>
<event>
12    1  0.2214165E-007  0.2626261E+04  0.7818608E-02  0.8359335E-01
          1   -1    0    0  501    0  0.00000000000E+00  0.00000000000E+00  0.28959101605E+04  0.28959101605E+04  0.00000000000E+00 0. -1.
         -1   -1    0    0    0  501 -0.00000000000E+00 -0.00000000000E+00 -0.59543007126E+03  0.59543007126E+03  0.00000000000E+00 0.  1.
         23    2    1    2    0    0  0.11340762682E+04  0.20870535445E+03  0.90123759576E+03  0.14663319309E+04  0.90626820657E+02 0.  0.
        254    2    1    2    0    0 -0.11340762682E+04 -0.20870535445E+03  0.13992424935E+04  0.20250083008E+04  0.90171622794E+03 0.  0.
        -24    2    4    4    0    0 -0.59699073528E+03 -0.47130502582E+03  0.41345762367E+03  0.86939529558E+03  0.79841142500E+02 0.  0.
         24    2    4    4    0    0 -0.53708553291E+03  0.26259967137E+03  0.98578486979E+03  0.11556130052E+04  0.79057898046E+02 0.  0.
         11    1    3    3    0    0  0.55870767287E+03  0.14153549838E+03  0.41834008700E+03  0.71217623480E+03  0.00000000000E+00 0. -1.
        -11    1    3    3    0    0  0.57536859532E+03  0.67169856077E+02  0.48289750876E+03  0.75415569613E+03  0.00000000000E+00 0.  1.
          4    1    6    6  502    0 -0.46501281890E+03  0.25177079348E+03  0.83917757547E+03  0.99188933726E+03  0.00000000000E+00 0. -1.
          3    1    5    5  503    0 -0.36120550310E+03 -0.32918265072E+03  0.28319010077E+03  0.56482498722E+03  0.00000000000E+00 0. -1.
         -4    1    5    5    0  503 -0.23578523218E+03 -0.14212237510E+03  0.13026752290E+03  0.30457030837E+03  0.00000000000E+00 0.  1.
         -3    1    6    6    0  502 -0.72072714010E+02  0.10828877891E+02  0.14660729432E+03  0.16372366796E+03  0.00000000000E+00 0.  1.
<mgrwt>
<rscale>  0 0.26262612E+04</rscale>
<asrwt>0</asrwt>
<pdfrwt beam="1">  1        1 0.44552463E+00 0.26262612E+04</pdfrwt>
<pdfrwt beam="2">  1       -1 0.91604628E-01 0.26262612E+04</pdfrwt>
<totfact> 0.72574345E-01</totfact>
</mgrwt>
</event>
<event>
12    1  0.2214165E-007  0.3043542E+04  0.7818608E-02  0.8231405E-01
         -1   -1    0    0    0  501 -0.00000000000E+00  0.00000000000E+00  0.15404718616E+04  0.15404718616E+04  0.00000000000E+00 0.  1.
          1   -1    0    0  501    0  0.00000000000E+00 -0.00000000000E+00 -0.15032971216E+04  0.15032971216E+04  0.00000000000E+00 0. -1.
         23    2    1    2    0    0  0.69709093474E+03 -0.11606359499E+04 -0.29272137364E+03  0.13880561213E+04  0.89456211618E+02 0.  0.
        254    2    1    2    0    0 -0.69709093474E+03  0.11606359499E+04  0.32989611361E+03  0.16557128618E+04  0.89417115551E+03 0.  0.
        -24    2    4    4    0    0 -0.53317508847E+02  0.54610402231E+03 -0.23101309258E+03  0.60068460821E+03  0.79891111307E+02 0.  0.
         24    2    4    4    0    0 -0.64377342590E+03  0.61453192763E+03  0.56090920620E+03  0.10550282536E+04  0.79823331743E+02 0.  0.
         11    1    3    3    0    0  0.24231568703E+03 -0.47956066824E+03 -0.96093985401E+02  0.54582907648E+03  0.00000000000E+00 0.  1.
        -11    1    3    3    0    0  0.45477524772E+03 -0.68107528170E+03 -0.19662738824E+03  0.84222704485E+03  0.00000000000E+00 0. -1.
          2    1    6    6  502    0 -0.17236932453E+03  0.11796348542E+03  0.12922425159E+03  0.24561244906E+03  0.00000000000E+00 0. -1.
          3    1    5    5  503    0  0.10157956851E+02  0.28096646410E+03 -0.10212660498E+03  0.29912402358E+03  0.00000000000E+00 0. -1.
         -4    1    5    5    0  503 -0.63475465698E+02  0.26513755821E+03 -0.12888648760E+03  0.30156058464E+03  0.00000000000E+00 0.  1.
         -1    1    6    6    0  502 -0.47140410137E+03  0.49656844221E+03  0.43168495460E+03  0.80941580453E+03  0.00000000000E+00 0.  1.
<mgrwt>
<rscale>  0 0.30435420E+04</rscale>
<asrwt>0</asrwt>
<pdfrwt beam="1">  1        1 0.23127648E+00 0.30435420E+04</pdfrwt>
<pdfrwt beam="2">  1       -1 0.23699567E+00 0.30435420E+04</pdfrwt>
<totfact> 0.46818275E-01</totfact>
</mgrwt>
</event>
<event>
12    1  0.2214165E-007  0.1402742E+04  0.7818608E-02  0.8951836E-01
          2   -1    0    0  501    0  0.00000000000E+00  0.00000000000E+00  0.12949511282E+04  0.12949511282E+04  0.00000000000E+00 0. -1.
         -2   -1    0    0    0  501 -0.00000000000E+00 -0.00000000000E+00 -0.37987649244E+03  0.37987649244E+03  0.00000000000E+00 0.  1.
         23    2    1    2    0    0 -0.26338894605E+03 -0.23823025957E+03  0.50540874912E+03  0.62444648910E+03  0.91476885546E+02 0.  0.
        254    2    1    2    0    0  0.26338894605E+03  0.23823025957E+03  0.40966588663E+03  0.10503811315E+04  0.89963714315E+03 0.  0.
        -24    2    4    4    0    0  0.57416720204E+03  0.24170228861E+03  0.36665029768E+03  0.72728811615E+03  0.80172257557E+02 0.  0.
         24    2    4    4    0    0 -0.31077825599E+03 -0.34720290392E+01  0.43015588959E+02  0.32309301539E+03  0.77094593282E+02 0.  0.
         11    1    3    3    0    0 -0.76225503493E+02 -0.12108581465E+03  0.16156974927E+03  0.21581678751E+03  0.00000000000E+00 0.  1.
        -11    1    3    3    0    0 -0.18716344256E+03 -0.11714444492E+03  0.34383899984E+03  0.40862970159E+03  0.00000000000E+00 0. -1.
          2    1    6    6  502    0  0.46221907968E+01 -0.12797718914E+01  0.29787594947E+00  0.48053297428E+01  0.00000000000E+00 0. -1.
          3    1    5    5  503    0  0.79740063986E+02  0.69878973696E+01  0.35248033175E+02  0.87462748395E+02  0.00000000000E+00 0. -1.
         -4    1    5    5    0  503  0.49442713806E+03  0.23471439124E+03  0.33140226450E+03  0.63982536775E+03  0.00000000000E+00 0.  1.
         -1    1    6    6    0  502 -0.31540044679E+03 -0.21922571478E+01  0.42717713009E+02  0.31828768564E+03  0.00000000000E+00 0.  1.
<mgrwt>
<rscale>  0 0.14027423E+04</rscale>
<asrwt>0</asrwt>
<pdfrwt beam="1">  1        2 0.19922325E+00 0.14027423E+04</pdfrwt>
<pdfrwt beam="2">  1       -2 0.58442538E-01 0.14027423E+04</pdfrwt>
<totfact> 0.44340040E+01</totfact>
</mgrwt>
</event>
<event>
12    1  0.2214165E-007  0.2014937E+04  0.7818608E-02  0.8599669E-01
         -1   -1    0    0    0  501 -0.00000000000E+00  0.00000000000E+00  0.62124169597E+03  0.62124169597E+03  0.00000000000E+00 0.  1.
          1   -1    0    0  501    0  0.00000000000E+00 -0.00000000000E+00 -0.16338125634E+04  0.16338125634E+04  0.00000000000E+00 0. -1.
         23    2    1    2    0    0  0.51497888393E+03 -0.52902759255E+03 -0.65640187361E+02  0.74689886307E+03  0.92064286698E+02 0.  0.
        254    2    1    2    0    0 -0.51497888393E+03  0.52902759255E+03 -0.94693068007E+03  0.15081553963E+04  0.91256865056E+03 0.  0.
        -24    2    4    4    0    0 -0.52874284660E+03 -0.24709647297E+02 -0.73616950750E+03  0.91012492741E+03  0.78754525051E+02 0.  0.
         24    2    4    4    0    0  0.13763962669E+02  0.55373723984E+03 -0.21076117256E+03  0.59803046890E+03  0.80036194387E+02 0.  0.
         13    1    3    3    0    0  0.21363852511E+03 -0.16200982269E+03 -0.50116236354E+01  0.26816733289E+03  0.00000000000E+00 0. -1.
        -13    1    3    3    0    0  0.30134035882E+03 -0.36701776986E+03 -0.60628563725E+02  0.47873153017E+03  0.00000000000E+00 0.  1.
          2    1    6    6  502    0 -0.27721830044E+02  0.14608387233E+03 -0.38940036751E+02  0.15370531571E+03  0.00000000000E+00 0. -1.
          1    1    5    5  503    0 -0.34719629904E+02 -0.17435540211E+02 -0.78029080358E+02  0.87166439325E+02  0.00000000000E+00 0. -1.
         -2    1    5    5    0  503 -0.49402321670E+03 -0.72741070861E+01 -0.65814042714E+03  0.82295848808E+03  0.00000000000E+00 0.  1.
         -1    1    6    6    0  502  0.41485792712E+02  0.40765336752E+03 -0.17182113581E+03  0.44432515319E+03  0.00000000000E+00 0.  1.
<mgrwt>
<rscale>  0 0.20149367E+04</rscale>
<asrwt>0</asrwt>
<pdfrwt beam="1">  1        1 0.25135578E+00 0.20149367E+04</pdfrwt>
<pdfrwt beam="2">  1       -1 0.95575645E-01 0.20149367E+04</pdfrwt>
<totfact> 0.51761670E+00</totfact>
</mgrwt>
</event>
<event>
12    1  0.2214165E-007  0.4245982E+04  0.7818608E-02  0.7956683E-01
         -2   -1    0    0    0  501 -0.00000000000E+00  0.00000000000E+00  0.21614896209E+04  0.21614896209E+04  0.00000000000E+00 0.  1.
          2   -1    0    0  501    0  0.00000000000E+00 -0.00000000000E+00 -0.20851777603E+04  0.20851777603E+04  0.00000000000E+00 0. -1.
         23    2    1    2    0    0  0.14190442702E+04  0.14084460380E+04  0.37626514566E+03  0.20365544201E+04  0.92582738496E+02 0.  0.
        254    2    1    2    0    0 -0.14190442702E+04 -0.14084460380E+04 -0.29995328501E+03  0.22101129611E+04  0.89287202035E+03 0.  0.
        -24    2    4    4    0    0  0.68073110750E+02 -0.54210891471E+02  0.10415358037E+03  0.15713860307E+03  0.79194716419E+02 0.  0.
         24    2    4    4    0    0 -0.14871173810E+04 -0.13542351465E+04 -0.40410686538E+03  0.20529743580E+04  0.77009214405E+02 0.  0.
         11    1    3    3    0    0  0.92380482371E+02  0.82097144889E+02  0.45245820718E+02  0.13161033020E+03  0.00000000000E+00 0.  1.
        -11    1    3    3    0    0  0.13266637879E+04  0.13263488931E+04  0.33101932494E+03  0.19049440899E+04  0.00000000000E+00 0. -1.
          2    1    6    6  502    0 -0.58941366413E+03 -0.58107055907E+03 -0.14681183986E+03  0.84059810755E+03  0.00000000000E+00 0. -1.
          1    1    5    5  503    0 -0.17674642876E+02 -0.83745934630E+01  0.25138924983E+02  0.31851096775E+02  0.00000000000E+00 0. -1.
         -2    1    5    5    0  503  0.85747753626E+02 -0.45836298008E+02  0.79014655392E+02  0.12528750630E+03  0.00000000000E+00 0.  1.
         -1    1    6    6    0  502 -0.89770371685E+03 -0.77316458746E+03 -0.25729502552E+03  0.12123762505E+04  0.00000000000E+00 0.  1.
<mgrwt>
<rscale>  0 0.42459817E+04</rscale>
<asrwt>0</asrwt>
<pdfrwt beam="1">  1        2 0.32079658E+00 0.42459817E+04</pdfrwt>
<pdfrwt beam="2">  1       -2 0.33253687E+00 0.42459817E+04</pdfrwt>
<totfact> 0.92713596E-02</totfact>
</mgrwt>
</event>
<event>
12    1  0.2214165E-007  0.1480074E+04  0.7818608E-02  0.8897813E-01
          1   -1    0    0  501    0  0.00000000000E+00  0.00000000000E+00  0.27264428729E+04  0.27264428729E+04  0.00000000000E+00 0. -1.
         -1   -1    0    0    0  501 -0.00000000000E+00 -0.00000000000E+00 -0.20086779159E+03  0.20086779159E+03  0.00000000000E+00 0.  1.
         23    2    1    2    0    0  0.13306793344E+03 -0.37077662843E+03  0.12685787808E+04  0.13314514818E+04  0.91041431845E+02 0.  0.
        254    2    1    2    0    0 -0.13306793344E+03  0.37077662843E+03  0.12569963005E+04  0.15958591827E+04  0.90085761817E+03 0.  0.
        -24    2    4    4    0    0 -0.47393307442E+02 -0.16066700983E+03 -0.39947402411E+02  0.18943310961E+03  0.78924612263E+02 0.  0.
         24    2    4    4    0    0 -0.85674626003E+02  0.53144363826E+03  0.12969437029E+04  0.14064260730E+04  0.78732764202E+02 0.  0.
         13    1    3    3    0    0  0.68222957108E+02 -0.92349058505E+02  0.44887118852E+03  0.46332285112E+03  0.00000000000E+00 0.  1.
        -13    1    3    3    0    0  0.64844976337E+02 -0.27842756992E+03  0.81970759227E+03  0.86812863072E+03  0.00000000000E+00 0. -1.
          4    1    6    6  502    0 -0.68326903400E+02  0.46187463580E+03  0.10467160242E+04  0.11461287800E+04  0.00000000000E+00 0. -1.
          1    1    5    5  503    0 -0.31763207436E+02 -0.15204974205E+03 -0.11379745871E+02  0.15574827133E+03  0.00000000000E+00 0. -1.
         -2    1    5    5    0  503 -0.15630100005E+02 -0.86172677721E+01 -0.28567656540E+02  0.33684838284E+02  0.00000000000E+00 0.  1.
         -3    1    6    6    0  502 -0.17347722602E+02  0.69569002460E+02  0.25022767874E+03  0.26029729309E+03  0.00000000000E+00 0.  1.
<mgrwt>
<rscale>  0 0.14800737E+04</rscale>
<asrwt>0</asrwt>
<pdfrwt beam="1">  1        1 0.41945272E+00 0.14800737E+04</pdfrwt>
<pdfrwt beam="2">  1       -1 0.30902739E-01 0.14800737E+04</pdfrwt>
<totfact> 0.88585282E+00</totfact>
</mgrwt>
</event>
<event>
12    1  0.2214165E-007  0.1941217E+04  0.7818608E-02  0.8634608E-01
          1   -1    0    0  501    0  0.00000000000E+00  0.00000000000E+00  0.45467434595E+03  0.45467434595E+03  0.00000000000E+00 0. -1.
         -1   -1    0    0    0  501 -0.00000000000E+00 -0.00000000000E+00 -0.20719893916E+04  0.20719893916E+04  0.00000000000E+00 0.  1.
         23    2    1    2    0    0  0.45015548715E+03  0.18957392181E+03 -0.13934396118E+04  0.14792772176E+04  0.89492459377E+02 0.  0.
        254    2    1    2    0    0 -0.45015548715E+03 -0.18957392181E+03 -0.22387543383E+03  0.10473865199E+04  0.89906622551E+03 0.  0.
        -24    2    4    4    0    0 -0.36672495674E+03 -0.36816969070E+03 -0.48190394574E+03  0.71303607147E+03  0.78440495058E+02 0.  0.
         24    2    4    4    0    0 -0.83430530409E+02  0.17859576889E+03  0.25802851190E+03  0.33435044847E+03  0.79714536747E+02 0.  0.
         13    1    3    3    0    0  0.33761734560E+03  0.15861017222E+03 -0.94660521375E+03  0.10174497970E+04  0.00000000000E+00 0. -1.
        -13    1    3    3    0    0  0.11253814155E+03  0.30963749587E+02 -0.44683439803E+03  0.46182742053E+03  0.00000000000E+00 0.  1.
          2    1    6    6  502    0 -0.67771828462E+02  0.11592864050E+03  0.22444142106E+03  0.26154621372E+03  0.00000000000E+00 0. -1.
          1    1    5    5  503    0 -0.33205162849E+03 -0.35728553756E+03 -0.43388168222E+03  0.65281280127E+03  0.00000000000E+00 0. -1.
         -2    1    5    5    0  503 -0.34673328245E+02 -0.10884153138E+02 -0.48022263513E+02  0.60223270204E+02  0.00000000000E+00 0.  1.
         -1    1    6    6    0  502 -0.15658701946E+02  0.62667128385E+02  0.33587090840E+02  0.72804234752E+02  0.00000000000E+00 0.  1.
<mgrwt>
<rscale>  0 0.19412165E+04</rscale>
<asrwt>0</asrwt>
<pdfrwt beam="1">  1        1 0.69949899E-01 0.19412165E+04</pdfrwt>
<pdfrwt beam="2">  1       -1 0.31876760E+00 0.19412165E+04</pdfrwt>
<totfact> 0.11750699E+00</totfact>
</mgrwt>
</event>
<event>
12    1  0.2214165E-007  0.1874133E+04  0.7818608E-02  0.8667840E-01
          2   -1    0    0  501    0  0.00000000000E+00  0.00000000000E+00  0.21231819777E+04  0.21231819777E+04  0.00000000000E+00 0. -1.
         -2   -1    0    0    0  501 -0.00000000000E+00 -0.00000000000E+00 -0.41357431087E+03  0.41357431087E+03  0.00000000000E+00 0.  1.
         23    2    1    2    0    0  0.94031342362E+02 -0.60883706664E+03  0.15946491426E+03  0.64295421395E+03  0.91850940658E+02 0.  0.
        254    2    1    2    0    0 -0.94031342362E+02  0.60883706664E+03  0.15501427525E+04  0.18938020746E+04  0.89667122036E+03 0.  0.
        -24    2    4    4    0    0 -0.51213836690E+00  0.65941343706E+03  0.49083749022E+03  0.82601340130E+03  0.80934257622E+02 0.  0.
         24    2    4    4    0    0 -0.93519203995E+02 -0.50576370420E+02  0.10593052623E+04  0.10677886733E+04  0.82104818874E+02 0.  0.
         13    1    3    3    0    0  0.17219575231E+02 -0.21192003817E+03  0.97666150662E+02  0.23397712139E+03  0.00000000000E+00 0. -1.
        -13    1    3    3    0    0  0.76811767132E+02 -0.39691702847E+03  0.61798763600E+02  0.40897709256E+03  0.00000000000E+00 0.  1.
          2    1    6    6  502    0 -0.79719629896E+02 -0.66147784943E+02  0.67321041755E+03  0.68113362503E+03  0.00000000000E+00 0. -1.
          3    1    5    5  503    0  0.24723216330E+02  0.55750116846E+03  0.43149931665E+03  0.70541509094E+03  0.00000000000E+00 0. -1.
         -4    1    5    5    0  503 -0.25235354696E+02  0.10191226860E+03  0.59338173568E+02  0.12059831035E+03  0.00000000000E+00 0.  1.
         -1    1    6    6    0  502 -0.13799574099E+02  0.15571414522E+02  0.38609484476E+03  0.38665504826E+03  0.00000000000E+00 0.  1.
<mgrwt>
<rscale>  0 0.18741329E+04</rscale>
<asrwt>0</asrwt>
<pdfrwt beam="1">  1        2 0.32664338E+00 0.18741329E+04</pdfrwt>
<pdfrwt beam="2">  1       -2 0.63626818E-01 0.18741329E+04</pdfrwt>
<totfact> 0.12233739E+01</totfact>
</mgrwt>
</event>
<event>
12    1  0.2214165E-007  0.3226934E+04  0.7818608E-02  0.8181740E-01
          2   -1    0    0  501    0  0.00000000000E+00  0.00000000000E+00  0.18844564170E+04  0.18844564170E+04  0.00000000000E+00 0. -1.
         -2   -1    0    0    0  501 -0.00000000000E+00 -0.00000000000E+00 -0.13814466396E+04  0.13814466396E+04  0.00000000000E+00 0.  1.
         23    2    1    2    0    0  0.13369402242E+04  0.41107952166E+03  0.74024779100E+03  0.15851204238E+04  0.90798842118E+02 0.  0.
        254    2    1    2    0    0 -0.13369402242E+04 -0.41107952166E+03 -0.23723801365E+03  0.16807826328E+04  0.90130618957E+03 0.  0.
        -24    2    4    4    0    0  0.12164966275E+03 -0.60113343492E+02 -0.51708613571E+02  0.16691332639E+03  0.82304454894E+02 0.  0.
         24    2    4    4    0    0 -0.14585898870E+04 -0.35096617817E+03 -0.18552940008E+03  0.15138693064E+04  0.81959758634E+02 0.  0.
         13    1    3    3    0    0  0.76300902514E+03  0.27104553008E+03  0.39595262176E+03  0.90134728629E+03  0.00000000000E+00 0.  1.
        -13    1    3    3    0    0  0.57393119908E+03  0.14003399158E+03  0.34429516924E+03  0.68377313755E+03  0.00000000000E+00 0. -1.
          2    1    6    6  502    0 -0.84663793904E+03 -0.24395603855E+03 -0.11880707763E+03  0.88905875523E+03  0.00000000000E+00 0. -1.
          1    1    5    5  503    0  0.23504959317E+02  0.11203314517E+02 -0.36221276576E+02  0.44609172212E+02  0.00000000000E+00 0. -1.
         -2    1    5    5    0  503  0.98144703433E+02 -0.71316658008E+02 -0.15487336995E+02  0.12230415418E+03  0.00000000000E+00 0.  1.
         -1    1    6    6    0  502 -0.61195194793E+03 -0.10701013962E+03 -0.66722322451E+02  0.62481055118E+03  0.00000000000E+00 0.  1.
<mgrwt>
<rscale>  0 0.32269341E+04</rscale>
<asrwt>0</asrwt>
<pdfrwt beam="1">  1        2 0.28991637E+00 0.32269341E+04</pdfrwt>
<pdfrwt beam="2">  1       -2 0.21253025E+00 0.32269341E+04</pdfrwt>
<totfact> 0.71787718E-01</totfact>
</mgrwt>
</event>
<event>
12    1  0.2214165E-007  0.7161939E+04  0.7818608E-02  0.7560961E-01
          1   -1    0    0  501    0  0.00000000000E+00  0.00000000000E+00  0.41023254508E+04  0.41023254508E+04  0.00000000000E+00 0. -1.
         -1   -1    0    0    0  501 -0.00000000000E+00 -0.00000000000E+00 -0.31258714898E+04  0.31258714898E+04  0.00000000000E+00 0.  1.
         23    2    1    2    0    0  0.32565295940E+04 -0.13363508862E+04  0.31662342553E+03  0.35354369309E+04  0.90803142376E+02 0.  0.
        254    2    1    2    0    0 -0.32565295940E+04  0.13363508862E+04  0.65983053549E+03  0.36927600098E+04  0.90015635647E+03 0.  0.
        -24    2    4    4    0    0 -0.77218756706E+03  0.23124098372E+03  0.53252165509E+03  0.96958985654E+03  0.82335566421E+02 0.  0.
         24    2    4    4    0    0 -0.24843420270E+04  0.11051099025E+04  0.12730888040E+03  0.27231701532E+04  0.78898217187E+02 0.  0.
         11    1    3    3    0    0  0.15739303401E+04 -0.60695730687E+03  0.17940475926E+03  0.16964197462E+04  0.00000000000E+00 0. -1.
        -11    1    3    3    0    0  0.16825992540E+04 -0.72939357937E+03  0.13721866627E+03  0.18390171847E+04  0.00000000000E+00 0.  1.
          2    1    6    6  502    0 -0.91931060464E+03  0.37915746302E+03  0.73110704839E+02  0.99711460962E+03  0.00000000000E+00 0. -1.
          3    1    5    5  503    0 -0.66953686997E+03  0.22881820014E+03  0.46759734249E+03  0.84810651670E+03  0.00000000000E+00 0. -1.
         -4    1    5    5    0  503 -0.10265069708E+03  0.24227835854E+01  0.64924312595E+02  0.12148333984E+03  0.00000000000E+00 0.  1.
         -1    1    6    6    0  502 -0.15650314224E+04  0.72595243949E+03  0.54198175561E+02  0.17260555436E+04  0.00000000000E+00 0.  1.
<mgrwt>
<rscale>  0 0.71619389E+04</rscale>
<asrwt>0</asrwt>
<pdfrwt beam="1">  1        1 0.63112700E+00 0.71619389E+04</pdfrwt>
<pdfrwt beam="2">  1       -1 0.48090330E+00 0.71619389E+04</pdfrwt>
<totfact> 0.95341397E-05</totfact>
</mgrwt>
</event>
<event>
12    1  0.2214165E-007  0.1639120E+04  0.7818608E-02  0.8796869E-01
          2   -1    0    0  501    0  0.00000000000E+00  0.00000000000E+00  0.10631336988E+04  0.10631336988E+04  0.00000000000E+00 0. -1.
         -2   -1    0    0    0  501 -0.00000000000E+00 -0.00000000000E+00 -0.63179119715E+03  0.63179119715E+03  0.00000000000E+00 0.  1.
         23    2    1    2    0    0 -0.43235980134E+03 -0.36785106331E+03  0.16072903047E+03  0.59665989757E+03  0.88993311779E+02 0.  0.
        254    2    1    2    0    0  0.43235980134E+03  0.36785106331E+03  0.27061347115E+03  0.10982649983E+04  0.90039155551E+03 0.  0.
        -24    2    4    4    0    0  0.10403485904E+03  0.28515760151E+03  0.56284016233E+03  0.64395783519E+03  0.75858655254E+02 0.  0.
         24    2    4    4    0    0  0.32832494230E+03  0.82693461800E+02 -0.29222669118E+03  0.45430716316E+03  0.79768935678E+02 0.  0.
         11    1    3    3    0    0 -0.19981012974E+03 -0.19584702168E+03  0.12048291999E+03  0.30462481491E+03  0.00000000000E+00 0. -1.
        -11    1    3    3    0    0 -0.23254967159E+03 -0.17200404163E+03  0.40246110475E+02  0.29203508266E+03  0.00000000000E+00 0.  1.
          2    1    6    6  502    0  0.21979538363E+03  0.24598947037E+02 -0.15569204212E+03  0.27047205186E+03  0.00000000000E+00 0. -1.
          1    1    5    5  503    0  0.87033123871E+02  0.25602597051E+03  0.43895833434E+03  0.51556617569E+03  0.00000000000E+00 0. -1.
         -2    1    5    5    0  503  0.17001735166E+02  0.29131630994E+02  0.12388182799E+03  0.12839165950E+03  0.00000000000E+00 0.  1.
         -1    1    6    6    0  502  0.10852955867E+03  0.58094514763E+02 -0.13653464906E+03  0.18383511129E+03  0.00000000000E+00 0.  1.
<mgrwt>
<rscale>  0 0.16391199E+04</rscale>
<asrwt>0</asrwt>
<pdfrwt beam="1">  1        2 0.16355903E+00 0.16391199E+04</pdfrwt>
<pdfrwt beam="2">  1       -2 0.97198646E-01 0.16391199E+04</pdfrwt>
<totfact> 0.19399963E+01</totfact>
</mgrwt>
</event>
<event>
12    1  0.2214165E-007  0.1237826E+04  0.7818608E-02  0.9080377E-01
          4   -1    0    0  501    0  0.00000000000E+00  0.00000000000E+00  0.11950287151E+04  0.11950287151E+04  0.00000000000E+00 0.  1.
         -4   -1    0    0    0  501 -0.00000000000E+00 -0.00000000000E+00 -0.32053888725E+03  0.32053888725E+03  0.00000000000E+00 0. -1.
         23    2    1    2    0    0  0.94519491031E+01  0.27622224343E+03  0.25476182841E+03  0.38800578662E+03  0.96212442682E+02 0.  0.
        254    2    1    2    0    0 -0.94519491031E+01 -0.27622224343E+03  0.61972799948E+03  0.11275618158E+04  0.90052472923E+03 0.  0.
        -24    2    4    4    0    0 -0.19802047783E+03 -0.27921204054E+03 -0.11063250313E+03  0.36894775367E+03  0.81923262702E+02 0.  0.
         24    2    4    4    0    0  0.18856852872E+03  0.29897971105E+01  0.73036050261E+03  0.75861406210E+03  0.80633755581E+02 0.  0.
         11    1    3    3    0    0  0.41573437847E+02  0.14052922255E+03  0.89267093816E+02  0.17159669917E+03  0.00000000000E+00 0. -1.
        -11    1    3    3    0    0 -0.32121488744E+02  0.13569302087E+03  0.16549473459E+03  0.21640908745E+03  0.00000000000E+00 0.  1.
          2    1    6    6  502    0  0.13019311742E+03 -0.30399405371E+02  0.55300658401E+03  0.56893818085E+03  0.00000000000E+00 0. -1.
          3    1    5    5  503    0 -0.94128650988E+02 -0.12175345527E+03 -0.77950329405E+01  0.15409370313E+03  0.00000000000E+00 0. -1.
         -4    1    5    5    0  503 -0.10389182684E+03 -0.15745858527E+03 -0.10283747019E+03  0.21485405054E+03  0.00000000000E+00 0.  1.
         -3    1    6    6    0  502  0.58375411301E+02  0.33389202482E+02  0.17735391860E+03  0.18967588126E+03  0.00000000000E+00 0.  1.
<mgrwt>
<rscale>  0 0.12378258E+04</rscale>
<asrwt>0</asrwt>
<pdfrwt beam="1">  1        4 0.18385057E+00 0.12378258E+04</pdfrwt>
<pdfrwt beam="2">  1       -4 0.49313675E-01 0.12378258E+04</pdfrwt>
<totfact> 0.13199125E+00</totfact>
</mgrwt>
</event>
<event>
12    1  0.2214165E-007  0.2318654E+04  0.7818608E-02  0.8470602E-01
          1   -1    0    0  501    0  0.00000000000E+00  0.00000000000E+00  0.20557520441E+04  0.20557520441E+04  0.00000000000E+00 0. -1.
         -1   -1    0    0    0  501 -0.00000000000E+00 -0.00000000000E+00 -0.65379431573E+03  0.65379431573E+03  0.00000000000E+00 0.  1.
         23    2    1    2    0    0 -0.75865023163E+03  0.47084038402E+03  0.10731179925E+04  0.13988024802E+04  0.88460791292E+02 0.  0.
        254    2    1    2    0    0  0.75865023163E+03 -0.47084038402E+03  0.32883973590E+03  0.13107438797E+04  0.90148383513E+03 0.  0.
        -24    2    4    4    0    0  0.16734873129E+03  0.63213217997E+02  0.45907253324E+03  0.49948049622E+03  0.82046733870E+02 0.  0.
         24    2    4    4    0    0  0.59130150034E+03 -0.53405360201E+03 -0.13023279734E+03  0.81126338344E+03  0.79605161203E+02 0.  0.
         13    1    3    3    0    0 -0.56705512368E+03  0.37721283115E+03  0.86372912590E+03  0.10999404694E+04  0.00000000000E+00 0. -1.
        -13    1    3    3    0    0 -0.19159510794E+03  0.93627552868E+02  0.20938886662E+03  0.29886201081E+03  0.00000000000E+00 0.  1.
          4    1    6    6  502    0  0.51998433553E+03 -0.49983578856E+03 -0.12476029663E+03  0.73197312542E+03  0.00000000000E+00 0. -1.
          1    1    5    5  503    0  0.17336088179E+03  0.47412023109E+02  0.41337088657E+03  0.45075202178E+03  0.00000000000E+00 0. -1.
         -2    1    5    5    0  503 -0.60121505055E+01  0.15801194888E+02  0.45701646670E+02  0.48728474447E+02  0.00000000000E+00 0.  1.
         -3    1    6    6    0  502  0.71317164805E+02 -0.34217813457E+02 -0.54725007031E+01  0.79290258024E+02  0.00000000000E+00 0.  1.
<mgrwt>
<rscale>  0 0.23186539E+04</rscale>
<asrwt>0</asrwt>
<pdfrwt beam="1">  1        1 0.31626954E+00 0.23186539E+04</pdfrwt>
<pdfrwt beam="2">  1       -1 0.10058374E+00 0.23186539E+04</pdfrwt>
<totfact> 0.23175319E+00</totfact>
</mgrwt>
</event>
<event>
12    1  0.2214165E-007  0.2009384E+04  0.7818608E-02  0.8602246E-01
         -2   -1    0    0    0  501 -0.00000000000E+00  0.00000000000E+00  0.51672226509E+03  0.51672226509E+03  0.00000000000E+00 0. -1.
          2   -1    0    0  501    0  0.00000000000E+00 -0.00000000000E+00 -0.19534779059E+04  0.19534779059E+04  0.00000000000E+00 0.  1.
         23    2    1    2    0    0 -0.38248393392E+03  0.24728564312E+03 -0.13844623883E+04  0.14602338166E+04  0.90014140817E+02 0.  0.
        254    2    1    2    0    0  0.38248393392E+03 -0.24728564312E+03 -0.52293252560E+02  0.10099663544E+04  0.89991849843E+03 0.  0.
        -24    2    4    4    0    0 -0.71734952447E+02  0.24767303413E+03  0.14333788262E+03  0.30579103032E+03  0.80464715197E+02 0.  0.
         24    2    4    4    0    0  0.45421888637E+03 -0.49495867725E+03 -0.19563113518E+03  0.70417532410E+03  0.79325009335E+02 0.  0.
         11    1    3    3    0    0 -0.17617890764E+03  0.13329273962E+03 -0.80244503150E+03  0.83230042083E+03  0.00000000000E+00 0.  1.
        -11    1    3    3    0    0 -0.20630502628E+03  0.11399290350E+03 -0.58201735676E+03  0.62793339574E+03  0.00000000000E+00 0. -1.
          4    1    6    6  502    0  0.22310941251E+02 -0.42631975740E+01 -0.52308218837E+01  0.23309106603E+02  0.00000000000E+00 0. -1.
          1    1    5    5  503    0 -0.70506828472E+02  0.10623556767E+03  0.82176782786E+02  0.15169124012E+03  0.00000000000E+00 0. -1.
         -2    1    5    5    0  503 -0.12281239743E+01  0.14143746646E+03  0.61161099838E+02  0.15409979020E+03  0.00000000000E+00 0.  1.
         -3    1    6    6    0  502  0.43190794511E+03 -0.49069547968E+03 -0.19040031330E+03  0.68086621750E+03  0.00000000000E+00 0.  1.
<mgrwt>
<rscale>  0 0.20093835E+04</rscale>
<asrwt>0</asrwt>
<pdfrwt beam="1">  1        2 0.30053506E+00 0.20093835E+04</pdfrwt>
<pdfrwt beam="2">  1       -2 0.79495733E-01 0.20093835E+04</pdfrwt>
<totfact> 0.92296925E+00</totfact>
</mgrwt>
</event>
<event>
12    1  0.2214165E-007  0.2016155E+04  0.7818608E-02  0.8599105E-01
         -1   -1    0    0    0  501 -0.00000000000E+00  0.00000000000E+00  0.13283057056E+04  0.13283057056E+04  0.00000000000E+00 0.  1.
          1   -1    0    0  501    0  0.00000000000E+00 -0.00000000000E+00 -0.76504984078E+03  0.76504984078E+03  0.00000000000E+00 0. -1.
         23    2    1    2    0    0  0.56498648636E+03  0.56505847791E+03  0.12987019866E+03  0.81449879916E+03  0.89672805844E+02 0.  0.
        254    2    1    2    0    0 -0.56498648636E+03 -0.56505847791E+03  0.43338566617E+03  0.12788567472E+04  0.89952800462E+03 0.  0.
        -24    2    4    4    0    0  0.39983334169E+02 -0.36271357398E+03  0.50911684870E+03  0.63151531786E+03  0.80323267471E+02 0.  0.
         24    2    4    4    0    0 -0.60496982052E+03 -0.20234490393E+03 -0.75731182532E+02  0.64734142938E+03  0.79898499937E+02 0.  0.
         11    1    3    3    0    0  0.25843070093E+03  0.19638801872E+03  0.49503825903E+02  0.32833718927E+03  0.00000000000E+00 0. -1.
        -11    1    3    3    0    0  0.30655578543E+03  0.36867045919E+03  0.80366372754E+02  0.48616160989E+03  0.00000000000E+00 0.  1.
          4    1    6    6  502    0 -0.54775647302E+03 -0.20458224595E+03 -0.58965257634E+02  0.58768014319E+03  0.00000000000E+00 0. -1.
          3    1    5    5  503    0  0.49803138188E+02 -0.24895481617E+03  0.29790670496E+03  0.39141698728E+03  0.00000000000E+00 0. -1.
         -4    1    5    5    0  503 -0.98198040193E+01 -0.11375875781E+03  0.21121014374E+03  0.24009833058E+03  0.00000000000E+00 0.  1.
         -3    1    6    6    0  502 -0.57213347505E+02  0.22373420206E+01 -0.16765924898E+02  0.59661286189E+02  0.00000000000E+00 0.  1.
<mgrwt>
<rscale>  0 0.20161548E+04</rscale>
<asrwt>0</asrwt>
<pdfrwt beam="1">  1        1 0.11769998E+00 0.20161548E+04</pdfrwt>
<pdfrwt beam="2">  1       -1 0.20435472E+00 0.20161548E+04</pdfrwt>
<totfact> 0.30889579E+00</totfact>
</mgrwt>
</event>
<event>
12    1  0.2214165E-007  0.1977973E+04  0.7818608E-02  0.8616989E-01
          2   -1    0    0  501    0  0.00000000000E+00  0.00000000000E+00  0.11166015956E+04  0.11166015956E+04  0.00000000000E+00 0. -1.
         -2   -1    0    0    0  501 -0.00000000000E+00 -0.00000000000E+00 -0.87595652480E+03  0.87595652480E+03  0.00000000000E+00 0.  1.
         23    2    1    2    0    0 -0.28021123337E+03  0.48053351123E+03  0.64502442280E+03  0.85659561920E+03  0.90932711907E+02 0.  0.
        254    2    1    2    0    0  0.28021123337E+03 -0.48053351123E+03 -0.40437935196E+03  0.11359625012E+04  0.90413348196E+03 0.  0.
        -24    2    4    4    0    0  0.25549452994E+03  0.20568127227E+02  0.20870266543E+03  0.33981797353E+03  0.78860318860E+02 0.  0.
         24    2    4    4    0    0  0.24716703428E+02 -0.50110163846E+03 -0.61308201739E+03  0.79614452770E+03  0.79137737191E+02 0.  0.
         13    1    3    3    0    0 -0.20019974816E+02  0.81638242411E+02  0.66002355738E+02  0.10687335018E+03  0.00000000000E+00 0.  1.
        -13    1    3    3    0    0 -0.26019125856E+03  0.39889526882E+03  0.57902206706E+03  0.74972226902E+03  0.00000000000E+00 0. -1.
          2    1    6    6  502    0 -0.40289028639E+01 -0.36048114118E+03 -0.48090416735E+03  0.60102554303E+03  0.00000000000E+00 0. -1.
          3    1    5    5  503    0  0.18400592353E+03  0.19269496014E+02  0.10169059935E+03  0.21111719818E+03  0.00000000000E+00 0. -1.
         -4    1    5    5    0  503  0.71488606414E+02  0.12986312121E+01  0.10701206608E+03  0.12870077536E+03  0.00000000000E+00 0.  1.
         -1    1    6    6    0  502  0.28745606292E+02 -0.14062049728E+03 -0.13217785003E+03  0.19511898467E+03  0.00000000000E+00 0.  1.
<mgrwt>
<rscale>  0 0.19779732E+04</rscale>
<asrwt>0</asrwt>
<pdfrwt beam="1">  1        2 0.17178486E+00 0.19779732E+04</pdfrwt>
<pdfrwt beam="2">  1       -2 0.13476254E+00 0.19779732E+04</pdfrwt>
<totfact> 0.78490574E+00</totfact>
</mgrwt>
</event>
<event>
12    1  0.4156636E-007  0.3277558E+04  0.7818608E-02  0.8168629E-01
         -2   -1    0    0    0  501 -0.00000000000E+00  0.00000000000E+00  0.18259342327E+04  0.18259342327E+04  0.00000000000E+00 0.  1.
          2   -1    0    0  501    0  0.00000000000E+00 -0.00000000000E+00 -0.14708071383E+04  0.14708071383E+04  0.00000000000E+00 0. -1.
         23    2    1    2    0    0 -0.54806487696E+03  0.13929035027E+04  0.38928606339E+03  0.15492343538E+04  0.89600037578E+02 0.  0.
        254    2    1    2    0    0  0.54806487696E+03 -0.13929035027E+04 -0.34158968982E+02  0.17475070172E+04  0.90114297587E+03 0.  0.
        -24    2    4    4    0    0  0.36488648097E+03 -0.77945778869E+03  0.41763677142E+03  0.95990823307E+03  0.79415078680E+02 0.  0.
         24    2    4    4    0    0  0.18317839599E+03 -0.61344571401E+03 -0.45179574041E+03  0.78759878417E+03  0.79514055274E+02 0.  0.
         11    1    3    3    0    0 -0.16062477164E+03  0.39991756084E+03  0.70561138899E+02  0.43670727846E+03  0.00000000000E+00 0. -1.
        -11    1    3    3    0    0 -0.38744010532E+03  0.99298594185E+03  0.31872492449E+03  0.11125270754E+04  0.00000000000E+00 0.  1.
          2    1    6    6  502    0  0.52214200219E+02 -0.20558918942E+03 -0.10627237619E+03  0.23724893140E+03  0.00000000000E+00 0. -1.
          3    1    5    5  503    0  0.15686625518E+02 -0.34845051897E+02  0.38675671832E+02  0.54369618847E+02  0.00000000000E+00 0. -1.
         -4    1    5    5    0  503  0.34919985545E+03 -0.74461273679E+03  0.37896109959E+03  0.90553861422E+03  0.00000000000E+00 0.  1.
         -1    1    6    6    0  502  0.13096419577E+03 -0.40785652459E+03 -0.34552336422E+03  0.55034985277E+03  0.00000000000E+00 0.  1.
<mgrwt>
<rscale>  0 0.32775583E+04</rscale>
<asrwt>0</asrwt>
<pdfrwt beam="1">  1        2 0.22627802E+00 0.32775583E+04</pdfrwt>
<pdfrwt beam="2">  1       -2 0.28091296E+00 0.32775583E+04</pdfrwt>
<totfact> 0.45870425E-01</totfact>
</mgrwt>
</event>
<event>
12    1  0.2214165E-007  0.1925799E+04  0.7818608E-02  0.8642120E-01
          1   -1    0    0  501    0  0.00000000000E+00  0.00000000000E+00  0.76588870565E+03  0.76588870565E+03  0.00000000000E+00 0. -1.
         -1   -1    0    0    0  501 -0.00000000000E+00 -0.00000000000E+00 -0.12105881258E+04  0.12105881258E+04  0.00000000000E+00 0.  1.
         23    2    1    2    0    0  0.21088486872E+03  0.71777793281E+03 -0.12530975076E+03  0.76397191053E+03  0.90955801131E+02 0.  0.
        254    2    1    2    0    0 -0.21088486872E+03 -0.71777793281E+03 -0.31938966944E+03  0.12125049210E+04  0.89915562265E+03 0.  0.
        -24    2    4    4    0    0 -0.33849076954E+02  0.16054060536E+03  0.11149385848E+03  0.21523312098E+03  0.83518680003E+02 0.  0.
         24    2    4    4    0    0 -0.17703579177E+03 -0.87831853817E+03 -0.43088352792E+03  0.99727179999E+03  0.78136434295E+02 0.  0.
         13    1    3    3    0    0  0.88500432483E+02  0.45754451670E+03 -0.80508722155E+02  0.47292807662E+03  0.00000000000E+00 0. -1.
        -13    1    3    3    0    0  0.12238443624E+03  0.26023341611E+03 -0.44801028605E+02  0.29104383391E+03  0.00000000000E+00 0.  1.
          2    1    6    6  502    0 -0.26106988117E+01 -0.53531250464E+02 -0.45617542221E+02  0.70380186720E+02  0.00000000000E+00 0. -1.
          3    1    5    5  503    0  0.15086744200E+02  0.51642516443E+02  0.29553619741E+01  0.53882218955E+02  0.00000000000E+00 0. -1.
         -4    1    5    5    0  503 -0.48935821154E+02  0.10889808891E+03  0.10853849650E+03  0.16135090202E+03  0.00000000000E+00 0.  1.
         -1    1    6    6    0  502 -0.17442509295E+03 -0.82478728770E+03 -0.38526598570E+03  0.92689161327E+03  0.00000000000E+00 0.  1.
<mgrwt>
<rscale>  0 0.19257993E+04</rscale>
<asrwt>0</asrwt>
<pdfrwt beam="1">  1        1 0.11782903E+00 0.19257993E+04</pdfrwt>
<pdfrwt beam="2">  1       -1 0.18624433E+00 0.19257993E+04</pdfrwt>
<totfact> 0.41549912E+00</totfact>
</mgrwt>
</event>
<event>
12    1  0.2214165E-007  0.2221144E+04  0.7818608E-02  0.8509679E-01
          1   -1    0    0  501    0  0.00000000000E+00  0.00000000000E+00  0.12977755691E+04  0.12977755691E+04  0.00000000000E+00 0. -1.
         -1   -1    0    0    0  501 -0.00000000000E+00 -0.00000000000E+00 -0.95037214892E+03  0.95037214892E+03  0.00000000000E+00 0.  1.
         23    2    1    2    0    0  0.85955617237E+03  0.34447974553E+03  0.10584877952E+03  0.93658346272E+03  0.92095113722E+02 0.  0.
        254    2    1    2    0    0 -0.85955617237E+03 -0.34447974553E+03  0.24155464070E+03  0.13115642553E+04  0.89685508465E+03 0.  0.
        -24    2    4    4    0    0 -0.99289329947E+03 -0.39422042583E+03  0.68675653851E+02  0.10735389742E+04  0.80763453521E+02 0.  0.
         24    2    4    4    0    0  0.13333712709E+03  0.49740680305E+02  0.17287898684E+03  0.23802528113E+03  0.80721531363E+02 0.  0.
         11    1    3    3    0    0  0.69097545250E+03  0.30798586271E+03  0.64773912126E+02  0.75927467183E+03  0.00000000000E+00 0. -1.
        -11    1    3    3    0    0  0.16858071987E+03  0.36493882815E+02  0.41074867396E+02  0.17730879089E+03  0.00000000000E+00 0.  1.
          2    1    6    6  502    0  0.50945843468E+02 -0.20894345844E+02  0.56307369989E+02  0.78756412882E+02  0.00000000000E+00 0. -1.
          3    1    5    5  503    0 -0.22323077223E+03 -0.53839096566E+02  0.21816673397E+02  0.23066554409E+03  0.00000000000E+00 0. -1.
         -4    1    5    5    0  503 -0.76966252723E+03 -0.34038132927E+03  0.46858980454E+02  0.84287343011E+03  0.00000000000E+00 0.  1.
         -1    1    6    6    0  502  0.82391283624E+02  0.70635026150E+02  0.11657161686E+03  0.15926886825E+03  0.00000000000E+00 0.  1.
<mgrwt>
<rscale>  0 0.22211436E+04</rscale>
<asrwt>0</asrwt>
<pdfrwt beam="1">  1        1 0.19965778E+00 0.22211436E+04</pdfrwt>
<pdfrwt beam="2">  1       -1 0.14621110E+00 0.22211436E+04</pdfrwt>
<totfact> 0.30878471E+00</totfact>
</mgrwt>
</event>
<event>
12    1  0.2214165E-007  0.1514256E+04  0.7818608E-02  0.8875028E-01
         -2   -1    0    0    0  501 -0.00000000000E+00  0.00000000000E+00  0.31813731290E+03  0.31813731290E+03  0.00000000000E+00 0. -1.
          2   -1    0    0  501    0  0.00000000000E+00 -0.00000000000E+00 -0.18018723789E+04  0.18018723789E+04  0.00000000000E+00 0.  1.
         23    2    1    2    0    0 -0.38776286818E+03 -0.28296963020E+03 -0.40181339073E+03  0.63272173322E+03  0.91928978946E+02 0.  0.
        254    2    1    2    0    0  0.38776286818E+03  0.28296963020E+03 -0.10819216753E+04  0.14872879586E+04  0.90057709652E+03 0.  0.
        -24    2    4    4    0    0 -0.13306869429E+03  0.41006263062E+03 -0.69246182194E+03  0.81968625651E+03  0.80768470565E+02 0.  0.
         24    2    4    4    0    0  0.52083156247E+03 -0.12709300041E+03 -0.38945985337E+03  0.66760170210E+03  0.81209039176E+02 0.  0.
         13    1    3    3    0    0 -0.22067667996E+03 -0.12027405509E+03 -0.24974319497E+03  0.35431018732E+03  0.00000000000E+00 0.  1.
        -13    1    3    3    0    0 -0.16708618822E+03 -0.16269557511E+03 -0.15207019576E+03  0.27841154590E+03  0.00000000000E+00 0. -1.
          2    1    6    6  502    0  0.26146893853E+03 -0.55765724235E+02 -0.14508707203E+03  0.30418099922E+03  0.00000000000E+00 0. -1.
          3    1    5    5  503    0 -0.56990066294E+02  0.14400259856E+03 -0.32174332687E+03  0.35707616055E+03  0.00000000000E+00 0. -1.
         -4    1    5    5    0  503 -0.76078627997E+02  0.26606003206E+03 -0.37071849507E+03  0.46261009596E+03  0.00000000000E+00 0.  1.
         -1    1    6    6    0  502  0.25936262394E+03 -0.71327276179E+02 -0.24437278134E+03  0.36342070288E+03  0.00000000000E+00 0.  1.
<mgrwt>
<rscale>  0 0.15142560E+04</rscale>
<asrwt>0</asrwt>
<pdfrwt beam="1">  1        2 0.27721114E+00 0.15142560E+04</pdfrwt>
<pdfrwt beam="2">  1       -2 0.48944202E-01 0.15142560E+04</pdfrwt>
<totfact> 0.32837902E+01</totfact>
</mgrwt>
</event>
<event>
12    1  0.2214165E-007  0.1451876E+04  0.7818608E-02  0.8917101E-01
          2   -1    0    0  501    0  0.00000000000E+00  0.00000000000E+00  0.10879608529E+04  0.10879608529E+04  0.00000000000E+00 0. -1.
         -2   -1    0    0    0  501 -0.00000000000E+00 -0.00000000000E+00 -0.48437923821E+03  0.48437923821E+03  0.00000000000E+00 0.  1.
         23    2    1    2    0    0 -0.20736682140E+03  0.36806461141E+03  0.41092955375E+02  0.43425868674E+03  0.91757393364E+02 0.  0.
        254    2    1    2    0    0  0.20736682140E+03 -0.36806461141E+03  0.56248865934E+03  0.11380814044E+04  0.89463022213E+03 0.  0.
        -24    2    4    4    0    0 -0.25208236780E+03  0.13046542981E+03  0.92104059473E+02  0.30984895090E+03  0.83405431923E+02 0.  0.
         24    2    4    4    0    0  0.45944918919E+03 -0.49853004123E+03  0.47038459987E+03  0.82823245349E+03  0.71285101980E+02 0.  0.
         13    1    3    3    0    0 -0.19526165297E+03  0.28249249796E+03  0.14022899563E+02  0.34369429183E+03  0.00000000000E+00 0.  1.
        -13    1    3    3    0    0 -0.12105168423E+02  0.85572113456E+02  0.27070055811E+02  0.90564394910E+02  0.00000000000E+00 0. -1.
          4    1    6    6  502    0  0.18318760939E+03 -0.25099488975E+03  0.21779767128E+03  0.37946272614E+03  0.00000000000E+00 0. -1.
          1    1    5    5  503    0 -0.89417624848E+01  0.21465805692E+02 -0.88914842592E+01  0.24895670761E+02  0.00000000000E+00 0. -1.
         -2    1    5    5    0  503 -0.24314060531E+03  0.10899962412E+03  0.10099554373E+03  0.28495328014E+03  0.00000000000E+00 0.  1.
         -3    1    6    6    0  502  0.27626157980E+03 -0.24753515148E+03  0.25258692859E+03  0.44876972735E+03  0.00000000000E+00 0.  1.
<mgrwt>
<rscale>  0 0.14518755E+04</rscale>
<asrwt>0</asrwt>
<pdfrwt beam="1">  1        2 0.16737859E+00 0.14518755E+04</pdfrwt>
<pdfrwt beam="2">  1       -2 0.74519883E-01 0.14518755E+04</pdfrwt>
<totfact> 0.34815233E+01</totfact>
</mgrwt>
</event>
<event>
12    1  0.2214165E-007  0.2279857E+04  0.7818608E-02  0.8485906E-01
          2   -1    0    0  501    0  0.00000000000E+00  0.00000000000E+00  0.10396336235E+04  0.10396336235E+04  0.00000000000E+00 0. -1.
         -2   -1    0    0    0  501 -0.00000000000E+00 -0.00000000000E+00 -0.12498992226E+04  0.12498992226E+04  0.00000000000E+00 0.  1.
         23    2    1    2    0    0  0.44020407860E+03 -0.47986458893E+03 -0.79706600820E+03  0.10331223535E+04  0.89319210133E+02 0.  0.
        254    2    1    2    0    0 -0.44020407860E+03  0.47986458893E+03  0.58680040905E+03  0.12564104927E+04  0.90010163399E+03 0.  0.
        -24    2    4    4    0    0  0.71829811585E+02  0.37424252118E+03 -0.87552979300E+02  0.39940387927E+03  0.81492012490E+02 0.  0.
         24    2    4    4    0    0 -0.51203389018E+03  0.10562206775E+03  0.67435338836E+03  0.85700661341E+03  0.79831805332E+02 0.  0.
         11    1    3    3    0    0  0.22232574215E+03 -0.24344810292E+03 -0.47363234167E+03  0.57708171822E+03  0.00000000000E+00 0.  1.
        -11    1    3    3    0    0  0.21787833645E+03 -0.23641648602E+03 -0.32343366653E+03  0.45604063525E+03  0.00000000000E+00 0. -1.
          4    1    6    6  502    0 -0.25404378119E+02 -0.11642166107E+02  0.43274179633E+02  0.51512882681E+02  0.00000000000E+00 0. -1.
          3    1    5    5  503    0  0.38269476324E+01 -0.32326409387E+01  0.22308427077E+01  0.54838084217E+01  0.00000000000E+00 0. -1.
         -4    1    5    5    0  503  0.68002863953E+02  0.37747516212E+03 -0.89783822008E+02  0.39392007085E+03  0.00000000000E+00 0.  1.
         -3    1    6    6    0  502 -0.48662951206E+03  0.11726423386E+03  0.63107920872E+03  0.80549373072E+03  0.00000000000E+00 0.  1.
<mgrwt>
<rscale>  0 0.22798572E+04</rscale>
<asrwt>0</asrwt>
<pdfrwt beam="1">  1        2 0.15994363E+00 0.22798572E+04</pdfrwt>
<pdfrwt beam="2">  1       -2 0.19229219E+00 0.22798572E+04</pdfrwt>
<totfact> 0.32281189E+00</totfact>
</mgrwt>
</event>
<event>
12    1  0.2214165E-007  0.2259851E+04  0.7818608E-02  0.8493922E-01
          1   -1    0    0  501    0  0.00000000000E+00  0.00000000000E+00  0.90970505430E+03  0.90970505430E+03  0.00000000000E+00 0. -1.
         -1   -1    0    0    0  501 -0.00000000000E+00 -0.00000000000E+00 -0.14034568957E+04  0.14034568957E+04  0.00000000000E+00 0.  1.
         23    2    1    2    0    0 -0.44010865840E+03  0.83536836899E+03 -0.23495123890E+03  0.97728155197E+03  0.91330192454E+02 0.  0.
        254    2    1    2    0    0  0.44010865840E+03 -0.83536836899E+03 -0.25880060251E+03  0.13358803980E+04  0.90887993864E+03 0.  0.
        -24    2    4    4    0    0  0.52896026729E+03 -0.93644477191E+03 -0.53854036853E+02  0.10797981242E+04  0.79598721331E+02 0.  0.
         24    2    4    4    0    0 -0.88851608886E+02  0.10107640291E+03 -0.20494656566E+03  0.25608227388E+03  0.73918797287E+02 0.  0.
         11    1    3    3    0    0 -0.24483928799E+03  0.54394376493E+03 -0.17269742604E+03  0.62100362101E+03  0.00000000000E+00 0. -1.
        -11    1    3    3    0    0 -0.19526937041E+03  0.29142460406E+03 -0.62253812858E+02  0.35627793096E+03  0.00000000000E+00 0.  1.
          4    1    6    6  502    0 -0.77029163251E+02  0.11107393057E+03 -0.16536448546E+03  0.21357978157E+03  0.00000000000E+00 0. -1.
          3    1    5    5  503    0  0.52058142930E+03 -0.89412401066E+03 -0.44123328392E+02  0.10355721313E+04  0.00000000000E+00 0. -1.
         -4    1    5    5    0  503  0.83788379837E+01 -0.42320761245E+02 -0.97307084606E+01  0.44225992871E+02  0.00000000000E+00 0.  1.
         -3    1    6    6    0  502 -0.11822445635E+02 -0.99975276536E+01 -0.39582080194E+02  0.42502492309E+02  0.00000000000E+00 0.  1.
<mgrwt>
<rscale>  0 0.22598512E+04</rscale>
<asrwt>0</asrwt>
<pdfrwt beam="1">  1        1 0.13995462E+00 0.22598512E+04</pdfrwt>
<pdfrwt beam="2">  1       -1 0.21591644E+00 0.22598512E+04</pdfrwt>
<totfact> 0.18996440E+00</totfact>
</mgrwt>
</event>
<event>
12    1  0.2214165E-007  0.2228700E+04  0.7818608E-02  0.8506577E-01
         -2   -1    0    0    0  501 -0.00000000000E+00  0.00000000000E+00  0.63454475125E+03  0.63454475125E+03  0.00000000000E+00 0.  1.
          2   -1    0    0  501    0  0.00000000000E+00 -0.00000000000E+00 -0.19569553485E+04  0.19569553485E+04  0.00000000000E+00 0. -1.
         23    2    1    2    0    0  0.66352025260E+03 -0.65156857837E+03 -0.56493730273E+03  0.10918032244E+04  0.89885409178E+02 0.  0.
        254    2    1    2    0    0 -0.66352025260E+03  0.65156857837E+03 -0.75747329457E+03  0.14996968754E+04  0.90029116860E+03 0.  0.
        -24    2    4    4    0    0 -0.15533579296E+03  0.62383449381E+03 -0.74136097110E+03  0.98462613466E+03  0.81079290419E+02 0.  0.
         24    2    4    4    0    0 -0.50818445964E+03  0.27734084555E+02 -0.16112323464E+02  0.51507074077E+03  0.77573426871E+02 0.  0.
         11    1    3    3    0    0  0.47463646847E+03 -0.41194699577E+03 -0.36047396639E+03  0.72451472378E+03  0.00000000000E+00 0. -1.
        -11    1    3    3    0    0  0.18888378413E+03 -0.23962158260E+03 -0.20446333634E+03  0.36728850058E+03  0.00000000000E+00 0.  1.
          2    1    6    6  502    0 -0.11924361874E+03  0.16412126453E+02 -0.35466366762E+02  0.12548410926E+03  0.00000000000E+00 0. -1.
          1    1    5    5  503    0  0.22267173884E+01  0.74627782528E+01 -0.97375524878E-01  0.77885050922E+01  0.00000000000E+00 0. -1.
         -2    1    5    5    0  503 -0.15756251035E+03  0.61637171556E+03 -0.74126359558E+03  0.97683762957E+03  0.00000000000E+00 0.  1.
         -1    1    6    6    0  502 -0.38894084090E+03  0.11321958101E+02  0.19354043298E+02  0.38958663151E+03  0.00000000000E+00 0.  1.
<mgrwt>
<rscale>  0 0.22286998E+04</rscale>
<asrwt>0</asrwt>
<pdfrwt beam="1">  1        2 0.30107005E+00 0.22286998E+04</pdfrwt>
<pdfrwt beam="2">  1       -2 0.97622272E-01 0.22286998E+04</pdfrwt>
<totfact> 0.56283835E+00</totfact>
</mgrwt>
</event>
<event>
12    1  0.2214165E-007  0.1132078E+04  0.7818608E-02  0.9174478E-01
         -2   -1    0    0    0  501 -0.00000000000E+00  0.00000000000E+00  0.17265601668E+03  0.17265601668E+03  0.00000000000E+00 0.  1.
          2   -1    0    0  501    0  0.00000000000E+00 -0.00000000000E+00 -0.18557145996E+04  0.18557145996E+04  0.00000000000E+00 0. -1.
         23    2    1    2    0    0 -0.59160878109E+02  0.17262842971E+03 -0.41680188808E+03  0.46376578596E+03  0.89745785827E+02 0.  0.
        254    2    1    2    0    0  0.59160878109E+02 -0.17262842971E+03 -0.12662566949E+04  0.15646048303E+04  0.90071175944E+03 0.  0.
        -24    2    4    4    0    0  0.20024055832E+03 -0.16418347369E+03 -0.13533400255E+04  0.13801173826E+04  0.78372641089E+02 0.  0.
         24    2    4    4    0    0 -0.14107968021E+03 -0.84449560216E+01  0.87083330646E+02  0.18448744774E+03  0.80481789538E+02 0.  0.
         13    1    3    3    0    0 -0.66548195133E+02  0.18049717752E+03 -0.39884011301E+03  0.44281071477E+03  0.00000000000E+00 0. -1.
        -13    1    3    3    0    0  0.73873170243E+01 -0.78687478062E+01 -0.17961775064E+02  0.20955071184E+02  0.00000000000E+00 0.  1.
          4    1    6    6  502    0 -0.11864627046E+03 -0.33503795145E+02  0.46464182311E+02  0.13175113669E+03  0.00000000000E+00 0. -1.
          3    1    5    5  503    0  0.17232559442E+03 -0.14012599512E+03 -0.97457112147E+03  0.99956004112E+03  0.00000000000E+00 0. -1.
         -4    1    5    5    0  503  0.27914963899E+02 -0.24057478571E+02 -0.37876890405E+03  0.38055734149E+03  0.00000000000E+00 0.  1.
         -3    1    6    6    0  502 -0.22433409752E+02  0.25058839123E+02  0.40619148335E+02  0.52736311046E+02  0.00000000000E+00 0.  1.
<mgrwt>
<rscale>  0 0.11320782E+04</rscale>
<asrwt>0</asrwt>
<pdfrwt beam="1">  1        2 0.28549456E+00 0.11320782E+04</pdfrwt>
<pdfrwt beam="2">  1       -2 0.26562463E-01 0.11320782E+04</pdfrwt>
<totfact> 0.10235861E+02</totfact>
</mgrwt>
</event>
<event>
12    1  0.2214165E-007  0.1776638E+04  0.7818608E-02  0.8718823E-01
          2   -1    0    0  501    0  0.00000000000E+00  0.00000000000E+00  0.13736679530E+04  0.13736679530E+04  0.00000000000E+00 0.  1.
         -2   -1    0    0    0  501 -0.00000000000E+00 -0.00000000000E+00 -0.57445517407E+03  0.57445517407E+03  0.00000000000E+00 0. -1.
         23    2    1    2    0    0 -0.38827888421E+03 -0.35233041308E+03 -0.13765773195E+03  0.54974114297E+03  0.91479293861E+02 0.  0.
        254    2    1    2    0    0  0.38827888421E+03  0.35233041308E+03  0.93687051085E+03  0.13983819841E+04  0.89601819588E+03 0.  0.
        -24    2    4    4    0    0  0.50617771046E+03 -0.13417622257E+03  0.51571568889E+03  0.73927383611E+03  0.79649229289E+02 0.  0.
         24    2    4    4    0    0 -0.11789882625E+03  0.48650663565E+03  0.42115482196E+03  0.65910814795E+03  0.80394818683E+02 0.  0.
         13    1    3    3    0    0 -0.33611160468E+03 -0.26675517540E+03 -0.88592647201E+02  0.43815293168E+03  0.00000000000E+00 0.  1.
        -13    1    3    3    0    0 -0.52167279530E+02 -0.85575237679E+02 -0.49065084744E+02  0.11158821129E+03  0.00000000000E+00 0. -1.
          2    1    6    6  502    0 -0.84082064058E+01  0.34233323209E+02  0.61877206982E+02  0.71213812542E+02  0.00000000000E+00 0. -1.
          1    1    5    5  503    0  0.26297251780E+03 -0.29793029812E+02  0.24408199995E+03  0.36002526639E+03  0.00000000000E+00 0. -1.
         -2    1    5    5    0  503  0.24320519267E+03 -0.10438319276E+03  0.27163368894E+03  0.37924856972E+03  0.00000000000E+00 0.  1.
         -1    1    6    6    0  502 -0.10949061984E+03  0.45227331244E+03  0.35927761498E+03  0.58789433541E+03  0.00000000000E+00 0.  1.
<mgrwt>
<rscale>  0 0.17766380E+04</rscale>
<asrwt>0</asrwt>
<pdfrwt beam="1">  1        2 0.21133353E+00 0.17766380E+04</pdfrwt>
<pdfrwt beam="2">  1       -2 0.88377719E-01 0.17766380E+04</pdfrwt>
<totfact> 0.15619328E+01</totfact>
</mgrwt>
</event>
<event>
12    1  0.2214165E-007  0.1226789E+04  0.7818608E-02  0.9089726E-01
         -2   -1    0    0    0  501 -0.00000000000E+00  0.00000000000E+00  0.58191137357E+03  0.58191137357E+03  0.00000000000E+00 0.  1.
          2   -1    0    0  501    0  0.00000000000E+00 -0.00000000000E+00 -0.64658146305E+03  0.64658146305E+03  0.00000000000E+00 0. -1.
         23    2    1    2    0    0 -0.26492506885E+03 -0.38889112960E+02 -0.37596163897E+02  0.28767956274E+03  0.98226290106E+02 0.  0.
        254    2    1    2    0    0  0.26492506885E+03  0.38889112960E+02 -0.27073925593E+02  0.94081327388E+03  0.90149817728E+03 0.  0.
        -24    2    4    4    0    0 -0.14460797781E+03 -0.20894330038E+02  0.34232746643E+03  0.38001791912E+03  0.76664752668E+02 0.  0.
         24    2    4    4    0    0  0.40953304666E+03  0.59783442997E+02 -0.36940139203E+03  0.56079535476E+03  0.82113732837E+02 0.  0.
         11    1    3    3    0    0 -0.25050890399E+03 -0.24560140791E+02 -0.80773246677E+01  0.25183954151E+03  0.00000000000E+00 0.  1.
        -11    1    3    3    0    0 -0.14416164863E+02 -0.14328972169E+02 -0.29518839229E+02  0.35840021236E+02  0.00000000000E+00 0. -1.
          2    1    6    6  502    0  0.36518146325E+03  0.32372918978E+02 -0.29837803351E+03  0.47268907102E+03  0.00000000000E+00 0. -1.
          3    1    5    5  503    0 -0.11973270557E+03  0.10188681369E+02  0.29262428731E+03  0.31633637719E+03  0.00000000000E+00 0. -1.
         -4    1    5    5    0  503 -0.24875272244E+02 -0.31083011407E+02  0.49703179128E+02  0.63681541931E+02  0.00000000000E+00 0.  1.
         -1    1    6    6    0  502  0.44351583416E+02  0.27410524020E+02 -0.71023358520E+02  0.88106283738E+02  0.00000000000E+00 0.  1.
<mgrwt>
<rscale>  0 0.12267895E+04</rscale>
<asrwt>0</asrwt>
<pdfrwt beam="1">  1        2 0.99474071E-01 0.12267895E+04</pdfrwt>
<pdfrwt beam="2">  1       -2 0.89524827E-01 0.12267895E+04</pdfrwt>
<totfact> 0.47711174E+01</totfact>
</mgrwt>
</event>
<event>
12    1  0.2214165E-007  0.2627660E+04  0.7818608E-02  0.8358866E-01
         -1   -1    0    0    0  501 -0.00000000000E+00  0.00000000000E+00  0.88207780044E+03  0.88207780044E+03  0.00000000000E+00 0.  1.
          1   -1    0    0  501    0  0.00000000000E+00 -0.00000000000E+00 -0.19569133147E+04  0.19569133147E+04  0.00000000000E+00 0. -1.
         23    2    1    2    0    0 -0.64857049821E+03 -0.86345478101E+03 -0.92844164246E+03  0.14263585750E+04  0.79353961030E+02 0.  0.
        254    2    1    2    0    0  0.64857049821E+03  0.86345478101E+03 -0.14639387180E+03  0.14126325401E+04  0.89883350942E+03 0.  0.
        -24    2    4    4    0    0 -0.16313204899E+03  0.37272833893E+03  0.10578818797E+03  0.42798604611E+03  0.80264779981E+02 0.  0.
         24    2    4    4    0    0  0.81170254721E+03  0.49072644208E+03 -0.25218205977E+03  0.98464649398E+03  0.79116753873E+02 0.  0.
         13    1    3    3    0    0 -0.45313342911E+03 -0.57757754320E+03 -0.58575424752E+03  0.93916652489E+03  0.00000000000E+00 0.  1.
        -13    1    3    3    0    0 -0.19543706910E+03 -0.28587723780E+03 -0.34268739494E+03  0.48719205014E+03  0.00000000000E+00 0. -1.
          2    1    6    6  502    0  0.13376920352E+03  0.10090295920E+03 -0.70584420970E+02  0.18181795145E+03  0.00000000000E+00 0. -1.
          1    1    5    5  503    0 -0.84606914061E+02  0.19640314114E+03  0.14155386870E+02  0.21431961818E+03  0.00000000000E+00 0. -1.
         -2    1    5    5    0  503 -0.78525134933E+02  0.17632519779E+03  0.91632801103E+02  0.21366642794E+03  0.00000000000E+00 0.  1.
         -1    1    6    6    0  502  0.67793334369E+03  0.38982348288E+03 -0.18159763880E+03  0.80282854253E+03  0.00000000000E+00 0.  1.
<mgrwt>
<rscale>  0 0.26276604E+04</rscale>
<asrwt>0</asrwt>
<pdfrwt beam="1">  1        1 0.30106358E+00 0.26276604E+04</pdfrwt>
<pdfrwt beam="2">  1       -1 0.13570428E+00 0.26276604E+04</pdfrwt>
<totfact> 0.12728288E+00</totfact>
</mgrwt>
</event>
<event>
12    1  0.2730718E-007  0.2438046E+04  0.7818608E-02  0.8425395E-01
          2   -1    0    0  501    0  0.00000000000E+00  0.00000000000E+00  0.12999406526E+04  0.12999406526E+04  0.00000000000E+00 0. -1.
         -2   -1    0    0    0  501 -0.00000000000E+00 -0.00000000000E+00 -0.11431423795E+04  0.11431423795E+04  0.00000000000E+00 0.  1.
         23    2    1    2    0    0  0.35766421706E+02  0.64384467612E+03 -0.76342405360E+03  0.10031798917E+04  0.87968208265E+02 0.  0.
        254    2    1    2    0    0 -0.35766421706E+02 -0.64384467612E+03  0.92022232662E+03  0.14399031404E+04  0.90038698310E+03 0.  0.
        -24    2    4    4    0    0  0.32278676510E+03  0.17839584687E+02  0.40506363231E+03  0.52433169143E+03  0.79609232543E+02 0.  0.
         24    2    4    4    0    0 -0.35855318681E+03 -0.66168426081E+03  0.51515869430E+03  0.91557144894E+03  0.80598691212E+02 0.  0.
         13    1    3    3    0    0  0.20879646148E+02  0.42465593574E+03 -0.43693065378E+03  0.60965319617E+03  0.00000000000E+00 0. -1.
        -13    1    3    3    0    0  0.14886775558E+02  0.21918874038E+03 -0.32649339982E+03  0.39352669557E+03  0.00000000000E+00 0.  1.
          2    1    6    6  502    0 -0.50737656279E+02 -0.15724730774E+03  0.96310069975E+02  0.19125024219E+03  0.00000000000E+00 0. -1.
          3    1    5    5  503    0  0.18076862181E+02 -0.16209426704E+02  0.47244521582E+02  0.53118389282E+02  0.00000000000E+00 0. -1.
         -4    1    5    5    0  503  0.30470990292E+03  0.34049011391E+02  0.35781911073E+03  0.47121330214E+03  0.00000000000E+00 0.  1.
         -1    1    6    6    0  502 -0.30781553053E+03 -0.50443695306E+03  0.41884862433E+03  0.72432120675E+03  0.00000000000E+00 0.  1.
<mgrwt>
<rscale>  0 0.24380461E+04</rscale>
<asrwt>0</asrwt>
<pdfrwt beam="1">  1        2 0.19999087E+00 0.24380461E+04</pdfrwt>
<pdfrwt beam="2">  1       -2 0.17586806E+00 0.24380461E+04</pdfrwt>
<totfact> 0.28715637E+00</totfact>
</mgrwt>
</event>
<event>
12    1  0.2214165E-007  0.2008737E+04  0.7818608E-02  0.8602547E-01
         -2   -1    0    0    0  501 -0.00000000000E+00  0.00000000000E+00  0.35778785508E+03  0.35778785508E+03  0.00000000000E+00 0.  1.
          2   -1    0    0  501    0  0.00000000000E+00 -0.00000000000E+00 -0.28194260889E+04  0.28194260889E+04  0.00000000000E+00 0. -1.
         23    2    1    2    0    0 -0.60206781597E+03  0.52337228637E+03 -0.87961103973E+03  0.11906782104E+04  0.87148231919E+02 0.  0.
        254    2    1    2    0    0  0.60206781597E+03 -0.52337228637E+03 -0.15820271941E+04  0.19865357336E+04  0.89839299461E+03 0.  0.
        -24    2    4    4    0    0  0.13659678492E+03  0.20553086563E+03 -0.70975933216E+03  0.75575288985E+03  0.80638096182E+02 0.  0.
         24    2    4    4    0    0  0.46547103105E+03 -0.72890315200E+03 -0.87226786193E+03  0.12307828437E+04  0.77537730859E+02 0.  0.
         13    1    3    3    0    0 -0.38628942876E+03  0.28451532582E+03 -0.49942224508E+03  0.69252514198E+03  0.00000000000E+00 0.  1.
        -13    1    3    3    0    0 -0.21577838721E+03  0.23885696055E+03 -0.38018879465E+03  0.49815306841E+03  0.00000000000E+00 0. -1.
          4    1    6    6  502    0  0.16453645375E+03 -0.24511581851E+03 -0.24752984562E+03  0.38525969627E+03  0.00000000000E+00 0. -1.
          3    1    5    5  503    0  0.73324217596E+02  0.84127937568E+02 -0.21286766613E+03  0.24034682035E+03  0.00000000000E+00 0. -1.
         -4    1    5    5    0  503  0.63272567329E+02  0.12140292806E+03 -0.49689166603E+03  0.51540606951E+03  0.00000000000E+00 0.  1.
         -3    1    6    6    0  502  0.30093457730E+03 -0.48378733349E+03 -0.62473801631E+03  0.84552314745E+03  0.00000000000E+00 0.  1.
<mgrwt>
<rscale>  0 0.20087373E+04</rscale>
<asrwt>0</asrwt>
<pdfrwt beam="1">  1        2 0.43375784E+00 0.20087373E+04</pdfrwt>
<pdfrwt beam="2">  1       -2 0.55044288E-01 0.20087373E+04</pdfrwt>
<totfact> 0.64949821E+00</totfact>
</mgrwt>
</event>
<event>
12    1  0.2214165E-007  0.1472033E+04  0.7818608E-02  0.8903266E-01
         -2   -1    0    0    0  501 -0.00000000000E+00  0.00000000000E+00  0.32295589122E+03  0.32295589122E+03  0.00000000000E+00 0.  1.
          2   -1    0    0  501    0  0.00000000000E+00 -0.00000000000E+00 -0.16773824419E+04  0.16773824419E+04  0.00000000000E+00 0. -1.
         23    2    1    2    0    0  0.10016549644E+02  0.36075588926E+03 -0.80293508527E+03  0.88479488231E+03  0.88949928143E+02 0.  0.
        254    2    1    2    0    0 -0.10016549644E+02 -0.36075588926E+03 -0.55149146543E+03  0.11155434508E+04  0.90002733920E+03 0.  0.
        -24    2    4    4    0    0 -0.34690213193E+03  0.58762866755E+02 -0.29656394633E+02  0.36176379374E+03  0.78736123014E+02 0.  0.
         24    2    4    4    0    0  0.33688558229E+03 -0.41951875601E+03 -0.52183507080E+03  0.75377965708E+03  0.79900238465E+02 0.  0.
         13    1    3    3    0    0 -0.23456680968E+02  0.88048990697E+02 -0.13842262112E+03  0.16572164217E+03  0.00000000000E+00 0.  1.
        -13    1    3    3    0    0  0.33473230612E+02  0.27270689856E+03 -0.66451246414E+03  0.71907324014E+03  0.00000000000E+00 0. -1.
          2    1    6    6  502    0  0.99251271534E+02 -0.74895935159E+02 -0.13914598497E+03  0.18660605868E+03  0.00000000000E+00 0. -1.
          1    1    5    5  503    0 -0.21234812395E+03  0.61274798789E+00 -0.70451072213E+00  0.21235017669E+03  0.00000000000E+00 0. -1.
         -2    1    5    5    0  503 -0.13455400799E+03  0.58150118767E+02 -0.28951883911E+02  0.14941361705E+03  0.00000000000E+00 0.  1.
         -1    1    6    6    0  502  0.23763431076E+03 -0.34462282086E+03 -0.38268908583E+03  0.56717359840E+03  0.00000000000E+00 0.  1.
<mgrwt>
<rscale>  0 0.14720333E+04</rscale>
<asrwt>0</asrwt>
<pdfrwt beam="1">  1        2 0.25805884E+00 0.14720333E+04</pdfrwt>
<pdfrwt beam="2">  1       -2 0.49685521E-01 0.14720333E+04</pdfrwt>
<totfact> 0.37463790E+01</totfact>
</mgrwt>
</event>
<event>
12    1  0.2214165E-007  0.1549128E+04  0.7818608E-02  0.8852425E-01
         -2   -1    0    0    0  501 -0.00000000000E+00  0.00000000000E+00  0.93203537287E+03  0.93203537287E+03  0.00000000000E+00 0. -1.
          2   -1    0    0  501    0  0.00000000000E+00 -0.00000000000E+00 -0.64369825566E+03  0.64369825566E+03  0.00000000000E+00 0.  1.
         23    2    1    2    0    0  0.48594386061E+02 -0.43145216646E+03  0.34434798040E+03  0.56250572478E+03  0.96564861636E+02 0.  0.
        254    2    1    2    0    0 -0.48594386061E+02  0.43145216646E+03 -0.56010863190E+02  0.10132279038E+04  0.91377304723E+03 0.  0.
        -24    2    4    4    0    0  0.39508560533E+03  0.48256012298E+02 -0.10234948056E+03  0.41870021441E+03  0.80082302110E+02 0.  0.
         24    2    4    4    0    0 -0.44367999139E+03  0.38319615416E+03  0.46338617373E+02  0.59452768934E+03  0.87319405690E+02 0.  0.
         11    1    3    3    0    0 -0.88763200743E+01 -0.31304927382E+03  0.24272744470E+03  0.39622626025E+03  0.00000000000E+00 0. -1.
        -11    1    3    3    0    0  0.57470706135E+02 -0.11840289264E+03  0.10162053570E+03  0.16627946453E+03  0.00000000000E+00 0.  1.
          2    1    6    6  502    0 -0.44319729544E+03  0.38372418929E+03  0.52265883315E+02  0.58855740476E+03  0.00000000000E+00 0. -1.
          1    1    5    5  503    0  0.31628357767E+03  0.49039102931E+02 -0.49634088431E+02  0.32388837252E+03  0.00000000000E+00 0. -1.
         -2    1    5    5    0  503  0.78802027662E+02 -0.78309063315E+00 -0.52715392132E+02  0.94811841888E+02  0.00000000000E+00 0.  1.
         -1    1    6    6    0  502 -0.48269594941E+00 -0.52803513213E+00 -0.59272659422E+01  0.59702845853E+01  0.00000000000E+00 0.  1.
<mgrwt>
<rscale>  0 0.15491282E+04</rscale>
<asrwt>0</asrwt>
<pdfrwt beam="1">  1        2 0.99030500E-01 0.15491282E+04</pdfrwt>
<pdfrwt beam="2">  1       -2 0.14339006E+00 0.15491282E+04</pdfrwt>
<totfact> 0.14773016E+01</totfact>
</mgrwt>
</event>
<event>
12    1  0.2214165E-007  0.3932737E+04  0.7818608E-02  0.8018255E-01
         -1   -1    0    0    0  501 -0.00000000000E+00  0.00000000000E+00  0.22364102316E+04  0.22364102316E+04  0.00000000000E+00 0.  1.
          1   -1    0    0  501    0  0.00000000000E+00 -0.00000000000E+00 -0.17289339517E+04  0.17289339517E+04  0.00000000000E+00 0. -1.
         23    2    1    2    0    0 -0.15901052313E+04 -0.28745041210E+03 -0.69104470682E+03  0.17597399506E+04  0.89886154001E+02 0.  0.
        254    2    1    2    0    0  0.15901052313E+04  0.28745041210E+03  0.11985209868E+04  0.22056042328E+04  0.90397737233E+03 0.  0.
        -24    2    4    4    0    0  0.85997989202E+03 -0.11771621519E+03  0.10312962938E+04  0.13502657181E+04  0.78885626225E+02 0.  0.
         24    2    4    4    0    0  0.73012533931E+03  0.40516662729E+03  0.16722469302E+03  0.85533851463E+03  0.79980433134E+02 0.  0.
         11    1    3    3    0    0 -0.90043173533E+03 -0.14387865336E+03 -0.43379128797E+03  0.10097788166E+04  0.00000000000E+00 0. -1.
        -11    1    3    3    0    0 -0.68967349600E+03 -0.14357175874E+03 -0.25725341886E+03  0.74996113400E+03  0.00000000000E+00 0.  1.
          4    1    6    6  502    0  0.53512382032E+03  0.31401475753E+03  0.91558953686E+02  0.62717287332E+03  0.00000000000E+00 0. -1.
          3    1    5    5  503    0  0.80642909108E+03 -0.93385182330E+02  0.94488374789E+03  0.12457343088E+04  0.00000000000E+00 0. -1.
         -4    1    5    5    0  503  0.53550800937E+02 -0.24331032862E+02  0.86412545868E+02  0.10453140927E+03  0.00000000000E+00 0.  1.
         -3    1    6    6    0  502  0.19500151899E+03  0.91151869761E+02  0.75665739332E+02  0.22816564132E+03  0.00000000000E+00 0.  1.
<mgrwt>
<rscale>  0 0.39327373E+04</rscale>
<asrwt>0</asrwt>
<pdfrwt beam="1">  1        1 0.26598984E+00 0.39327373E+04</pdfrwt>
<pdfrwt beam="2">  1       -1 0.34406311E+00 0.39327373E+04</pdfrwt>
<totfact> 0.60941686E-02</totfact>
</mgrwt>
</event>
<event>
12    1  0.2214165E-007  0.1904934E+04  0.7818608E-02  0.8652404E-01
          2   -1    0    0  501    0  0.00000000000E+00  0.00000000000E+00  0.83020910428E+03  0.83020910428E+03  0.00000000000E+00 0.  1.
         -2   -1    0    0    0  501 -0.00000000000E+00 -0.00000000000E+00 -0.10927284300E+04  0.10927284300E+04  0.00000000000E+00 0. -1.
         23    2    1    2    0    0  0.81983120627E+01  0.40275833272E+03  0.52160447305E+03  0.66514517551E+03  0.89807523609E+02 0.  0.
        254    2    1    2    0    0 -0.81983120627E+01 -0.40275833272E+03 -0.78412379872E+03  0.12577923587E+04  0.89716776527E+03 0.  0.
        -24    2    4    4    0    0  0.40656712968E+03 -0.16707232961E+03 -0.58327612652E+03  0.73405544094E+03  0.73595899078E+02 0.  0.
         24    2    4    4    0    0 -0.41476544174E+03 -0.23568600311E+03 -0.20084767221E+03  0.52373691778E+03  0.79889347774E+02 0.  0.
         13    1    3    3    0    0  0.39523851566E+02  0.21720217103E+03  0.23643633046E+03  0.32348269861E+03  0.00000000000E+00 0. -1.
        -13    1    3    3    0    0 -0.31325539503E+02  0.18555616170E+03  0.28516814259E+03  0.34166247689E+03  0.00000000000E+00 0.  1.
          2    1    6    6  502    0 -0.41683573937E+03 -0.23542989020E+03 -0.20365047581E+03  0.52024300391E+03  0.00000000000E+00 0. -1.
          1    1    5    5  503    0  0.35671245352E+03 -0.16640887955E+03 -0.49230869673E+03  0.63032019051E+03  0.00000000000E+00 0. -1.
         -2    1    5    5    0  503  0.49854676152E+02 -0.66345006487E+00 -0.90967429790E+02  0.10373525044E+03  0.00000000000E+00 0.  1.
         -1    1    6    6    0  502  0.20702976284E+01 -0.25611290764E+00  0.28028036040E+01  0.34939138705E+01  0.00000000000E+00 0.  1.
<mgrwt>
<rscale>  0 0.19049337E+04</rscale>
<asrwt>0</asrwt>
<pdfrwt beam="1">  1        2 0.12772448E+00 0.19049337E+04</pdfrwt>
<pdfrwt beam="2">  1       -2 0.16811207E+00 0.19049337E+04</pdfrwt>
<totfact> 0.67426500E+00</totfact>
</mgrwt>
</event>
<event>
12    1  0.2214165E-007  0.1835951E+04  0.7818608E-02  0.8687411E-01
          1   -1    0    0  501    0  0.00000000000E+00  0.00000000000E+00  0.75141063910E+03  0.75141063910E+03  0.00000000000E+00 0. -1.
         -1   -1    0    0    0  501 -0.00000000000E+00 -0.00000000000E+00 -0.11214626910E+04  0.11214626910E+04  0.00000000000E+00 0.  1.
         23    2    1    2    0    0 -0.44565760300E+03  0.36147411805E+03  0.25696363163E+03  0.63461180605E+03  0.86183520881E+02 0.  0.
        254    2    1    2    0    0  0.44565760300E+03 -0.36147411805E+03 -0.62701568351E+03  0.12382615240E+04  0.90048248032E+03 0.  0.
        -24    2    4    4    0    0  0.41498105336E+03 -0.15009774374E+03  0.11373313690E+03  0.46301964729E+03  0.81935096425E+02 0.  0.
         24    2    4    4    0    0  0.30676549639E+02 -0.21137637431E+03 -0.74074882041E+03  0.77524187673E+03  0.81670864943E+02 0.  0.
         11    1    3    3    0    0 -0.23724349656E+03  0.13831925456E+03  0.13179963028E+03  0.30461095742E+03  0.00000000000E+00 0.  1.
        -11    1    3    3    0    0 -0.20841410644E+03  0.22315486349E+03  0.12516400135E+03  0.33000084863E+03  0.00000000000E+00 0. -1.
          4    1    6    6  502    0  0.18612836748E+02 -0.15138523044E+03 -0.38222657702E+03  0.41153503116E+03  0.00000000000E+00 0. -1.
          3    1    5    5  503    0  0.23997570643E+01  0.40254986337E+01  0.92469166070E+01  0.10366722720E+02  0.00000000000E+00 0. -1.
         -4    1    5    5    0  503  0.41258129629E+03 -0.15412324237E+03  0.10448622029E+03  0.45265292457E+03  0.00000000000E+00 0.  1.
         -3    1    6    6    0  502  0.12063712891E+02 -0.59991143867E+02 -0.35852224339E+03  0.36370684557E+03  0.00000000000E+00 0.  1.
<mgrwt>
<rscale>  0 0.18359510E+04</rscale>
<asrwt>0</asrwt>
<pdfrwt beam="1">  1        1 0.11560164E+00 0.18359510E+04</pdfrwt>
<pdfrwt beam="2">  1       -1 0.17253272E+00 0.18359510E+04</pdfrwt>
<totfact> 0.54158764E+00</totfact>
</mgrwt>
</event>
<event>
12    1  0.2254654E-007  0.2132737E+04  0.7818608E-02  0.8546958E-01
          1   -1    0    0  501    0  0.00000000000E+00  0.00000000000E+00  0.15293582693E+04  0.15293582693E+04  0.00000000000E+00 0. -1.
         -1   -1    0    0    0  501 -0.00000000000E+00 -0.00000000000E+00 -0.74354179365E+03  0.74354179365E+03  0.00000000000E+00 0.  1.
         23    2    1    2    0    0 -0.14735252578E+03 -0.53013233462E+03  0.10472699339E+04  0.11865025151E+04  0.90889189263E+02 0.  0.
        254    2    1    2    0    0  0.14735252578E+03  0.53013233462E+03 -0.26145345824E+03  0.10863975479E+04  0.89952691023E+03 0.  0.
        -24    2    4    4    0    0  0.44375133755E+02  0.19062173906E+03  0.32995388082E+03  0.39204781891E+03  0.80784459780E+02 0.  0.
         24    2    4    4    0    0  0.10297739202E+03  0.33951059556E+03 -0.59140733906E+03  0.69434972901E+03  0.80542645299E+02 0.  0.
         11    1    3    3    0    0 -0.79210859318E+02 -0.27088142508E+03  0.44044201358E+03  0.52310636969E+03  0.00000000000E+00 0.  1.
        -11    1    3    3    0    0 -0.68141666458E+02 -0.25925090955E+03  0.60682792033E+03  0.66339614538E+03  0.00000000000E+00 0. -1.
          2    1    6    6  502    0  0.87910797893E+02  0.32747672331E+03 -0.52315949024E+03  0.62343016042E+03  0.00000000000E+00 0. -1.
          3    1    5    5  503    0  0.41486166210E+02  0.17328992115E+03  0.32935511709E+03  0.37446667664E+03  0.00000000000E+00 0. -1.
         -4    1    5    5    0  503  0.28889675453E+01  0.17331817910E+02  0.59876373500E+00  0.17581142271E+02  0.00000000000E+00 0.  1.
         -1    1    6    6    0  502  0.15066594128E+02  0.12033872258E+02 -0.68247848819E+02  0.70919568587E+02  0.00000000000E+00 0.  1.
<mgrwt>
<rscale>  0 0.21327370E+04</rscale>
<asrwt>0</asrwt>
<pdfrwt beam="1">  1        1 0.23528589E+00 0.21327370E+04</pdfrwt>
<pdfrwt beam="2">  1       -1 0.11439105E+00 0.21327370E+04</pdfrwt>
<totfact> 0.39797398E+00</totfact>
</mgrwt>
</event>
<event>
12    1  0.2214165E-007  0.2221797E+04  0.7818608E-02  0.8509410E-01
          2   -1    0    0  501    0  0.00000000000E+00  0.00000000000E+00  0.36000461933E+03  0.36000461933E+03  0.00000000000E+00 0. -1.
         -2   -1    0    0    0  501 -0.00000000000E+00 -0.00000000000E+00 -0.34279978481E+04  0.34279978481E+04  0.00000000000E+00 0.  1.
         23    2    1    2    0    0  0.17837503162E+03  0.90316456872E+03 -0.11113260148E+04  0.14459795602E+04  0.91035638109E+02 0.  0.
        254    2    1    2    0    0 -0.17837503162E+03 -0.90316456872E+03 -0.19566672140E+04  0.23420229072E+04  0.89944472950E+03 0.  0.
        -24    2    4    4    0    0 -0.39499262700E+03 -0.52679929147E+02 -0.60982689667E+03  0.73255393544E+03  0.77149686347E+02 0.  0.
         24    2    4    4    0    0  0.21661759538E+03 -0.85048463957E+03 -0.13468403173E+04  0.16094689718E+04  0.78512584408E+02 0.  0.
         11    1    3    3    0    0  0.62858501165E+02  0.14778094935E+03 -0.20814990975E+03  0.26290071337E+03  0.00000000000E+00 0. -1.
        -11    1    3    3    0    0  0.11551653046E+03  0.75538361937E+03 -0.90317610503E+03  0.11830788469E+04  0.00000000000E+00 0.  1.
          2    1    6    6  502    0  0.98742520707E+02 -0.53369573984E+03 -0.80683674931E+03  0.97240257514E+03  0.00000000000E+00 0. -1.
          3    1    5    5  503    0 -0.19308065390E+03  0.11153269318E+02 -0.26928295960E+03  0.33153860508E+03  0.00000000000E+00 0. -1.
         -4    1    5    5    0  503 -0.20191197310E+03 -0.63833198465E+02 -0.34054393707E+03  0.40101533036E+03  0.00000000000E+00 0.  1.
         -1    1    6    6    0  502  0.11787507467E+03 -0.31678889974E+03 -0.54000356803E+03  0.63706639663E+03  0.00000000000E+00 0.  1.
<mgrwt>
<rscale>  0 0.22217966E+04</rscale>
<asrwt>0</asrwt>
<pdfrwt beam="1">  1        2 0.55385325E-01 0.22217966E+04</pdfrwt>
<pdfrwt beam="2">  1       -2 0.52738429E+00 0.22217966E+04</pdfrwt>
<totfact> 0.91758566E-02</totfact>
</mgrwt>
</event>
<event>
12    1  0.2214165E-007  0.1837978E+04  0.7818608E-02  0.8686360E-01
          2   -1    0    0  501    0  0.00000000000E+00  0.00000000000E+00  0.56565125075E+03  0.56565125075E+03  0.00000000000E+00 0. -1.
         -2   -1    0    0    0  501 -0.00000000000E+00 -0.00000000000E+00 -0.14930419965E+04  0.14930419965E+04  0.00000000000E+00 0.  1.
         23    2    1    2    0    0 -0.22595507984E+03  0.54197436056E+03  0.63447246832E+02  0.59751424348E+03  0.90585939444E+02 0.  0.
        254    2    1    2    0    0  0.22595507984E+03 -0.54197436056E+03 -0.99083799259E+03  0.14611790038E+04  0.89916196978E+03 0.  0.
        -24    2    4    4    0    0 -0.19668217079E+03 -0.32743125789E+03 -0.35797861607E+02  0.39183490490E+03  0.79737073274E+02 0.  0.
         24    2    4    4    0    0  0.42263725063E+03 -0.21454310267E+03 -0.95504013098E+03  0.10693440989E+04  0.82122843855E+02 0.  0.
         13    1    3    3    0    0 -0.55648414745E+02  0.16158224426E+03 -0.21269910752E+02  0.17221491464E+03  0.00000000000E+00 0.  1.
        -13    1    3    3    0    0 -0.17030666510E+03  0.38039211630E+03  0.84717157584E+02  0.42529932884E+03  0.00000000000E+00 0. -1.
          4    1    6    6  502    0  0.12594921135E+03 -0.67981782259E+02 -0.21016372707E+03  0.25427056207E+03  0.00000000000E+00 0. -1.
          3    1    5    5  503    0 -0.82592207590E+02 -0.18822942304E+03  0.11070155764E+02  0.20585027763E+03  0.00000000000E+00 0. -1.
         -4    1    5    5    0  503 -0.11408996320E+03 -0.13920183485E+03 -0.46868017372E+02  0.18598462727E+03  0.00000000000E+00 0.  1.
         -3    1    6    6    0  502  0.29668803928E+03 -0.14656132041E+03 -0.74487640391E+03  0.81507353680E+03  0.00000000000E+00 0.  1.
<mgrwt>
<rscale>  0 0.18379783E+04</rscale>
<asrwt>0</asrwt>
<pdfrwt beam="1">  1        2 0.87023271E-01 0.18379783E+04</pdfrwt>
<pdfrwt beam="2">  1       -2 0.22969876E+00 0.18379783E+04</pdfrwt>
<totfact> 0.43008957E+00</totfact>
</mgrwt>
</event>
<event>
12    1  0.2214165E-007  0.2345270E+04  0.7818608E-02  0.8460283E-01
          1   -1    0    0  501    0  0.00000000000E+00  0.00000000000E+00  0.19887817685E+04  0.19887817685E+04  0.00000000000E+00 0. -1.
         -1   -1    0    0    0  501 -0.00000000000E+00 -0.00000000000E+00 -0.69141447040E+03  0.69141447040E+03  0.00000000000E+00 0.  1.
         23    2    1    2    0    0 -0.81309324203E+03 -0.49202283368E+03  0.88818768022E+03  0.13039655767E+04  0.90784253756E+02 0.  0.
        254    2    1    2    0    0  0.81309324203E+03  0.49202283368E+03  0.40917961786E+03  0.13762306622E+04  0.90740056582E+03 0.  0.
        -24    2    4    4    0    0  0.55299819424E+03  0.70827901563E+02  0.61548560897E+03  0.83413252809E+03  0.78300351857E+02 0.  0.
         24    2    4    4    0    0  0.26009504778E+03  0.42119493211E+03 -0.20630599110E+03  0.54209813412E+03  0.79079835184E+02 0.  0.
         11    1    3    3    0    0 -0.34090015410E+03 -0.25896565034E+03  0.40192713389E+03  0.58721507481E+03  0.00000000000E+00 0. -1.
        -11    1    3    3    0    0 -0.47219308793E+03 -0.23305718333E+03  0.48626054633E+03  0.71675050185E+03  0.00000000000E+00 0.  1.
          4    1    6    6  502    0  0.43798773218E+02  0.90009749323E+02 -0.75812923352E+02  0.12556945033E+03  0.00000000000E+00 0. -1.
          1    1    5    5  503    0  0.40318819431E+03  0.68481068605E+02  0.40321403558E+03  0.57430996446E+03  0.00000000000E+00 0. -1.
         -2    1    5    5    0  503  0.14980999993E+03  0.23468329572E+01  0.21227157339E+03  0.25982256364E+03  0.00000000000E+00 0.  1.
         -3    1    6    6    0  502  0.21629627457E+03  0.33118518279E+03 -0.13049306775E+03  0.41652868379E+03  0.00000000000E+00 0.  1.
<mgrwt>
<rscale>  0 0.23452697E+04</rscale>
<asrwt>0</asrwt>
<pdfrwt beam="1">  1        1 0.30596642E+00 0.23452697E+04</pdfrwt>
<pdfrwt beam="2">  1       -1 0.10637146E+00 0.23452697E+04</pdfrwt>
<totfact> 0.22547914E+00</totfact>
</mgrwt>
</event>
<event>
12    1  0.2214165E-007  0.1171577E+04  0.7818608E-02  0.9138105E-01
         -2   -1    0    0    0  501 -0.00000000000E+00  0.00000000000E+00  0.29148067655E+03  0.29148067655E+03  0.00000000000E+00 0.  1.
          2   -1    0    0  501    0  0.00000000000E+00 -0.00000000000E+00 -0.11772595413E+04  0.11772595413E+04  0.00000000000E+00 0. -1.
         23    2    1    2    0    0 -0.11639112627E+03 -0.14340232992E+03 -0.30098769906E+02  0.20841955354E+03  0.91769558398E+02 0.  0.
        254    2    1    2    0    0  0.11639112627E+03  0.14340232992E+03 -0.85568009481E+03  0.12603206643E+04  0.90670206223E+03 0.  0.
        -24    2    4    4    0    0  0.47073372188E+03  0.14544607222E+03 -0.26074726525E+03  0.56329566061E+03  0.81043618394E+02 0.  0.
         24    2    4    4    0    0 -0.35434259561E+03 -0.20437423069E+01 -0.59493282956E+03  0.69702500367E+03  0.79598568532E+02 0.  0.
         11    1    3    3    0    0 -0.41109252074E+02 -0.33691058768E+02 -0.51082582628E+02  0.73718981917E+02  0.00000000000E+00 0. -1.
        -11    1    3    3    0    0 -0.75281874200E+02 -0.10971127115E+03  0.20983812721E+02  0.13470057163E+03  0.00000000000E+00 0.  1.
          2    1    6    6  502    0 -0.29622933504E+03 -0.28355497023E+02 -0.46146305616E+03  0.54909380378E+03  0.00000000000E+00 0. -1.
          1    1    5    5  503    0  0.42347190934E+03  0.13947853320E+03 -0.25901462961E+03  0.51562709158E+03  0.00000000000E+00 0. -1.
         -2    1    5    5    0  503  0.47261812542E+02  0.59675390268E+01 -0.17326356447E+01  0.47668569027E+02  0.00000000000E+00 0.  1.
         -1    1    6    6    0  502 -0.58113260563E+02  0.26311754716E+02 -0.13346977340E+03  0.14793119989E+03  0.00000000000E+00 0.  1.
<mgrwt>
<rscale>  0 0.11715774E+04</rscale>
<asrwt>0</asrwt>
<pdfrwt beam="1">  1        2 0.18111685E+00 0.11715774E+04</pdfrwt>
<pdfrwt beam="2">  1       -2 0.44843181E-01 0.11715774E+04</pdfrwt>
<totfact> 0.91077769E+01</totfact>
</mgrwt>
</event>
<event>
12    1  0.3457937E-007  0.2214826E+04  0.7818608E-02  0.8512283E-01
          1   -1    0    0  501    0  0.00000000000E+00  0.00000000000E+00  0.76889075536E+03  0.76889075536E+03  0.00000000000E+00 0. -1.
         -1   -1    0    0    0  501 -0.00000000000E+00 -0.00000000000E+00 -0.15949770012E+04  0.15949770012E+04  0.00000000000E+00 0.  1.
         23    2    1    2    0    0  0.81137454789E+03 -0.25329027434E+03  0.34284791951E+02  0.85609343546E+03  0.96103606785E+02 0.  0.
        254    2    1    2    0    0 -0.81137454789E+03  0.25329027434E+03 -0.86037103778E+03  0.15077743211E+04  0.90036684781E+03 0.  0.
        -24    2    4    4    0    0 -0.32030339305E+03  0.12139620436E+01  0.14197085220E+03  0.36060815499E+03  0.85362645631E+02 0.  0.
         24    2    4    4    0    0 -0.49107115484E+03  0.25207631229E+03 -0.10023418900E+04  0.11471661661E+04  0.81287157029E+02 0.  0.
         13    1    3    3    0    0  0.30108701039E+03 -0.62955248567E+02 -0.23016666120E+02  0.30845829227E+03  0.00000000000E+00 0. -1.
        -13    1    3    3    0    0  0.51028753750E+03 -0.19033502577E+03  0.57301458071E+02  0.54763514319E+03  0.00000000000E+00 0.  1.
          2    1    6    6  502    0 -0.44142262418E+03  0.21764937676E+03 -0.93551065623E+03  0.10570739673E+04  0.00000000000E+00 0. -1.
          3    1    5    5  503    0 -0.26261368438E+03 -0.48025296093E+01  0.14933124799E+03  0.30214041957E+03  0.00000000000E+00 0. -1.
         -4    1    5    5    0  503 -0.57689708672E+02  0.60164916529E+01 -0.73603957965E+01  0.58467735416E+02  0.00000000000E+00 0.  1.
         -1    1    6    6    0  502 -0.49648530655E+02  0.34426935531E+02 -0.66831233747E+02  0.90092198832E+02  0.00000000000E+00 0.  1.
<mgrwt>
<rscale>  0 0.22148256E+04</rscale>
<asrwt>0</asrwt>
<pdfrwt beam="1">  1        1 0.11829089E+00 0.22148256E+04</pdfrwt>
<pdfrwt beam="2">  1       -1 0.24538108E+00 0.22148256E+04</pdfrwt>
<totfact> 0.16028942E+00</totfact>
</mgrwt>
</event>
<event>
12    1  0.2214165E-007  0.3020940E+04  0.7818608E-02  0.8237777E-01
         -1   -1    0    0    0  501 -0.00000000000E+00  0.00000000000E+00  0.79207632299E+03  0.79207632299E+03  0.00000000000E+00 0.  1.
          1   -1    0    0  501    0  0.00000000000E+00 -0.00000000000E+00 -0.28804283506E+04  0.28804283506E+04  0.00000000000E+00 0. -1.
         23    2    1    2    0    0  0.64171048650E+03 -0.10398390497E+04 -0.18368405352E+03  0.12374382744E+04  0.66753679968E+02 0.  0.
        254    2    1    2    0    0 -0.64171048650E+03  0.10398390497E+04 -0.19046679741E+04  0.24350663991E+04  0.89929454519E+03 0.  0.
        -24    2    4    4    0    0  0.39181018782E+02  0.58138183750E+02  0.65042542025E+02  0.12997439750E+03  0.88020515158E+02 0.  0.
         24    2    4    4    0    0 -0.68089150528E+03  0.98170086594E+03 -0.19697105161E+04  0.23050920016E+04  0.79622777320E+02 0.  0.
         11    1    3    3    0    0  0.16866733852E+03 -0.24252560389E+03 -0.20649393039E+02  0.29613128349E+03  0.00000000000E+00 0.  1.
        -11    1    3    3    0    0  0.47304314798E+03 -0.79731344580E+03 -0.16303466048E+03  0.94130699095E+03  0.00000000000E+00 0. -1.
          2    1    6    6  502    0 -0.41376804033E+03  0.58456994124E+03 -0.11058918281E+04  0.13175442091E+04  0.00000000000E+00 0. -1.
          1    1    5    5  503    0  0.60450380489E+02  0.12980471157E+02  0.28320903114E+02  0.68005990074E+02  0.00000000000E+00 0. -1.
         -2    1    5    5    0  503 -0.21269361707E+02  0.45157712594E+02  0.36721638911E+02  0.61968407422E+02  0.00000000000E+00 0.  1.
         -1    1    6    6    0  502 -0.26712346495E+03  0.39713092470E+03 -0.86381868800E+03  0.98754779257E+03  0.00000000000E+00 0.  1.
<mgrwt>
<rscale>  0 0.30209397E+04</rscale>
<asrwt>0</asrwt>
<pdfrwt beam="1">  1        1 0.44314283E+00 0.30209397E+04</pdfrwt>
<pdfrwt beam="2">  1       -1 0.12185790E+00 0.30209397E+04</pdfrwt>
<totfact> 0.36933176E-01</totfact>
</mgrwt>
</event>
<event>
12    1  0.2379599E-007  0.2558127E+04  0.7818608E-02  0.8382565E-01
          3   -1    0    0  501    0  0.00000000000E+00  0.00000000000E+00  0.24221194511E+04  0.24221194511E+04  0.00000000000E+00 0. -1.
         -3   -1    0    0    0  501 -0.00000000000E+00 -0.00000000000E+00 -0.67544290272E+03  0.67544290272E+03  0.00000000000E+00 0.  1.
         23    2    1    2    0    0 -0.25887388785E+03 -0.10298853835E+04  0.34029491835E+03  0.11188419936E+04  0.91253396137E+02 0.  0.
        254    2    1    2    0    0  0.25887388785E+03  0.10298853835E+04  0.14063816300E+04  0.19787203602E+04  0.89985853433E+03 0.  0.
        -24    2    4    4    0    0  0.27313365919E+03  0.10220501760E+04  0.70760989099E+03  0.12752014772E+04  0.78984121706E+02 0.  0.
         24    2    4    4    0    0 -0.14259771343E+02  0.78352074330E+01  0.69877173904E+03  0.70351888304E+03  0.79950884690E+02 0.  0.
         13    1    3    3    0    0 -0.10342651134E+03 -0.51264266092E+03  0.20770777809E+03  0.56270957173E+03  0.00000000000E+00 0. -1.
        -13    1    3    3    0    0 -0.15544737651E+03 -0.51724272254E+03  0.13258714026E+03  0.55613242186E+03  0.00000000000E+00 0.  1.
          4    1    6    6  502    0  0.80575520297E+01  0.16018948452E+02  0.35039372483E+02  0.39361001997E+02  0.00000000000E+00 0. -1.
          3    1    5    5  503    0  0.28139262299E+02  0.23138999194E+03  0.15867558767E+03  0.28197710648E+03  0.00000000000E+00 0. -1.
         -4    1    5    5    0  503  0.24499439689E+03  0.79066018408E+03  0.54893430333E+03  0.99322437070E+03  0.00000000000E+00 0.  1.
         -3    1    6    6    0  502 -0.22317323373E+02 -0.81837410193E+01  0.66373236655E+03  0.66415788104E+03  0.00000000000E+00 0.  1.
<mgrwt>
<rscale>  0 0.25581270E+04</rscale>
<asrwt>0</asrwt>
<pdfrwt beam="1">  1        3 0.37263376E+00 0.25581270E+04</pdfrwt>
<pdfrwt beam="2">  1       -3 0.10391429E+00 0.25581270E+04</pdfrwt>
<totfact> 0.28748087E-02</totfact>
</mgrwt>
</event>
<event>
12    1  0.2214165E-007  0.1537052E+04  0.7818608E-02  0.8860181E-01
         -1   -1    0    0    0  501 -0.00000000000E+00  0.00000000000E+00  0.42190144284E+03  0.42190144284E+03  0.00000000000E+00 0.  1.
          1   -1    0    0  501    0  0.00000000000E+00 -0.00000000000E+00 -0.13999302054E+04  0.13999302054E+04  0.00000000000E+00 0. -1.
         23    2    1    2    0    0 -0.69561444728E+02  0.47228183751E+03 -0.49484228407E+03  0.69383692415E+03  0.93015388940E+02 0.  0.
        254    2    1    2    0    0  0.69561444728E+02 -0.47228183751E+03 -0.48318647854E+03  0.11279947241E+04  0.90056315492E+03 0.  0.
        -24    2    4    4    0    0 -0.31801444338E+03 -0.52568209230E+03 -0.31694144824E+03  0.69585388091E+03  0.79283627569E+02 0.  0.
         24    2    4    4    0    0  0.38757588810E+03  0.53400254792E+02 -0.16624503030E+03  0.43214084323E+03  0.77728000312E+02 0.  0.
         13    1    3    3    0    0 -0.72417673705E+02  0.43014497796E+03 -0.40800809702E+03  0.59727684432E+03  0.00000000000E+00 0.  1.
        -13    1    3    3    0    0  0.28562289769E+01  0.42136859555E+02 -0.86834187047E+02  0.96560079833E+02  0.00000000000E+00 0. -1.
          4    1    6    6  502    0  0.29965614570E+03  0.73374953175E+02 -0.13453199054E+03  0.33656581212E+03  0.00000000000E+00 0. -1.
          1    1    5    5  503    0 -0.29056750475E+03 -0.42574741514E+03 -0.25444196582E+03  0.57483132333E+03  0.00000000000E+00 0. -1.
         -2    1    5    5    0  503 -0.27446938630E+02 -0.99934677167E+02 -0.62499482419E+02  0.12102255758E+03  0.00000000000E+00 0.  1.
         -3    1    6    6    0  502  0.87919742407E+02 -0.19974698383E+02 -0.31713039756E+02  0.95575031106E+02  0.00000000000E+00 0.  1.
<mgrwt>
<rscale>  0 0.15370525E+04</rscale>
<asrwt>0</asrwt>
<pdfrwt beam="1">  1        1 0.21537388E+00 0.15370525E+04</pdfrwt>
<pdfrwt beam="2">  1       -1 0.64907914E-01 0.15370525E+04</pdfrwt>
<totfact> 0.17833337E+01</totfact>
</mgrwt>
</event>
<event>
12    1  0.2379607E-007  0.2858089E+04  0.7818608E-02  0.8285458E-01
         -1   -1    0    0    0  501 -0.00000000000E+00  0.00000000000E+00  0.15548026437E+04  0.15548026437E+04  0.00000000000E+00 0.  1.
          1   -1    0    0  501    0  0.00000000000E+00 -0.00000000000E+00 -0.13134578103E+04  0.13134578103E+04  0.00000000000E+00 0. -1.
         23    2    1    2    0    0 -0.11108715271E+04  0.56927704232E+02  0.75647462033E+03  0.13481878079E+04  0.89889938922E+02 0.  0.
        254    2    1    2    0    0  0.11108715271E+04 -0.56927704232E+02 -0.51512978693E+03  0.15200726460E+04  0.89888032498E+03 0.  0.
        -24    2    4    4    0    0 -0.13266726224E+03  0.28859741834E+01  0.30587290813E+02  0.15844845161E+03  0.81002457616E+02 0.  0.
         24    2    4    4    0    0  0.12435387893E+04 -0.59813678416E+02 -0.54571707774E+03  0.13616241944E+04  0.79037467275E+02 0.  0.
         13    1    3    3    0    0 -0.49600412729E+03  0.69339491784E+02  0.34999234439E+03  0.61100139161E+03  0.00000000000E+00 0. -1.
        -13    1    3    3    0    0 -0.61486739978E+03 -0.12411787552E+02  0.40648227593E+03  0.73718641634E+03  0.00000000000E+00 0.  1.
          2    1    6    6  502    0  0.72965888710E+03  0.33714373501E+01 -0.32612304012E+03  0.79923068973E+03  0.00000000000E+00 0. -1.
          3    1    5    5  503    0 -0.37468274248E+02 -0.36612003253E+02  0.92928014719E+01  0.53204008462E+02  0.00000000000E+00 0. -1.
         -4    1    5    5    0  503 -0.95198987991E+02  0.39497977436E+02  0.21294489341E+02  0.10524444314E+03  0.00000000000E+00 0.  1.
         -1    1    6    6    0  502  0.51387990221E+03 -0.63185115766E+02 -0.21959403762E+03  0.56239350469E+03  0.00000000000E+00 0.  1.
<mgrwt>
<rscale>  0 0.28580886E+04</rscale>
<asrwt>0</asrwt>
<pdfrwt beam="1">  1        1 0.20207043E+00 0.28580886E+04</pdfrwt>
<pdfrwt beam="2">  1       -1 0.23920041E+00 0.28580886E+04</pdfrwt>
<totfact> 0.62543341E-01</totfact>
</mgrwt>
</event>
<event>
12    1  0.2214165E-007  0.1289980E+04  0.7818608E-02  0.9037549E-01
          2   -1    0    0  501    0  0.00000000000E+00  0.00000000000E+00  0.68975060599E+03  0.68975060599E+03  0.00000000000E+00 0. -1.
         -2   -1    0    0    0  501 -0.00000000000E+00 -0.00000000000E+00 -0.60313384096E+03  0.60313384096E+03  0.00000000000E+00 0.  1.
         23    2    1    2    0    0  0.13414658835E+03 -0.28239939242E+03  0.10165334270E+03  0.34121109874E+03  0.91361303704E+02 0.  0.
        254    2    1    2    0    0 -0.13414658835E+03  0.28239939242E+03 -0.15036577671E+02  0.95167334820E+03  0.89872762226E+03 0.  0.
        -24    2    4    4    0    0  0.21290076917E+03  0.46934347679E+03 -0.12279067407E+03  0.53468622500E+03  0.72123316936E+02 0.  0.
         24    2    4    4    0    0 -0.34704735752E+03 -0.18694408436E+03  0.10775409640E+03  0.41698712321E+03  0.82929829298E+02 0.  0.
         13    1    3    3    0    0  0.27677481010E+02 -0.16425510167E+03  0.47643175384E+02  0.17325026274E+03  0.00000000000E+00 0.  1.
        -13    1    3    3    0    0  0.10646910734E+03 -0.11814429075E+03  0.54010167320E+02  0.16796083600E+03  0.00000000000E+00 0. -1.
          2    1    6    6  502    0 -0.31004681467E+03 -0.19179913357E+03  0.89289839993E+02  0.37535131604E+03  0.00000000000E+00 0. -1.
          3    1    5    5  503    0  0.19425870316E+03  0.41389941656E+03 -0.13100773518E+03  0.47561770096E+03  0.00000000000E+00 0. -1.
         -4    1    5    5    0  503  0.18642066008E+02  0.55444060224E+02  0.82170611060E+01  0.59068524041E+02  0.00000000000E+00 0.  1.
         -1    1    6    6    0  502 -0.37000542849E+02  0.48550492019E+01  0.18464256408E+02  0.41635807169E+02  0.00000000000E+00 0.  1.
<mgrwt>
<rscale>  0 0.12899797E+04</rscale>
<asrwt>0</asrwt>
<pdfrwt beam="1">  1        2 0.10611548E+00 0.12899797E+04</pdfrwt>
<pdfrwt beam="2">  1       -2 0.92789822E-01 0.12899797E+04</pdfrwt>
<totfact> 0.40330097E+01</totfact>
</mgrwt>
</event>
<event>
12    1  0.2214165E-007  0.2436458E+04  0.7818608E-02  0.8425979E-01
         -2   -1    0    0    0  501 -0.00000000000E+00  0.00000000000E+00  0.41809615843E+03  0.41809615843E+03  0.00000000000E+00 0.  1.
          2   -1    0    0  501    0  0.00000000000E+00 -0.00000000000E+00 -0.35496195086E+04  0.35496195086E+04  0.00000000000E+00 0. -1.
         23    2    1    2    0    0 -0.63365502476E+03 -0.68396379165E+03 -0.56432351470E+03  0.10928432200E+04  0.80747232985E+02 0.  0.
        254    2    1    2    0    0  0.63365502476E+03  0.68396379165E+03 -0.25671998355E+04  0.28748724470E+04  0.89724658406E+03 0.  0.
        -24    2    4    4    0    0  0.29913275390E+03  0.42804435683E+03 -0.39170084787E+03  0.65761039016E+03  0.79495252356E+02 0.  0.
         24    2    4    4    0    0  0.33452227086E+03  0.25591943482E+03 -0.21754989876E+04  0.22172620569E+04  0.77815659416E+02 0.  0.
         11    1    3    3    0    0 -0.48015449926E+03 -0.54253284298E+03 -0.47151541313E+03  0.86441715259E+03  0.00000000000E+00 0. -1.
        -11    1    3    3    0    0 -0.15350052550E+03 -0.14143094867E+03 -0.92808101575E+02  0.22842606745E+03  0.00000000000E+00 0.  1.
          2    1    6    6  502    0  0.18351438445E+03  0.18459119030E+03 -0.12494860434E+04  0.12763098407E+04  0.00000000000E+00 0. -1.
          1    1    5    5  503    0  0.26731795173E+03  0.40911317893E+03 -0.34596604143E+03  0.59876955693E+03  0.00000000000E+00 0. -1.
         -2    1    5    5    0  503  0.31814802175E+02  0.18931177909E+02 -0.45734806447E+02  0.58840833230E+02  0.00000000000E+00 0.  1.
         -1    1    6    6    0  502  0.15100788641E+03  0.71328244518E+02 -0.92601294428E+03  0.94095221622E+03  0.00000000000E+00 0.  1.
<mgrwt>
<rscale>  0 0.24364583E+04</rscale>
<asrwt>0</asrwt>
<pdfrwt beam="1">  1        2 0.54609529E+00 0.24364583E+04</pdfrwt>
<pdfrwt beam="2">  1       -2 0.64322488E-01 0.24364583E+04</pdfrwt>
<totfact> 0.15043861E+00</totfact>
</mgrwt>
</event>
<event>
12    1  0.2214165E-007  0.3295479E+04  0.7818608E-02  0.8164047E-01
          2   -1    0    0  501    0  0.00000000000E+00  0.00000000000E+00  0.31205313991E+04  0.31205313991E+04  0.00000000000E+00 0. -1.
         -2   -1    0    0    0  501 -0.00000000000E+00 -0.00000000000E+00 -0.87005861733E+03  0.87005861733E+03  0.00000000000E+00 0.  1.
         23    2    1    2    0    0 -0.51508167265E+03 -0.12277944343E+04  0.19148545054E+04  0.23340515026E+04  0.91325448153E+02 0.  0.
        254    2    1    2    0    0  0.51508167265E+03  0.12277944343E+04  0.33561827632E+03  0.16565385138E+04  0.92665631061E+03 0.  0.
        -24    2    4    4    0    0  0.23489740144E+03  0.11083406629E+03  0.41904429238E+03  0.49939743741E+03  0.79615966108E+02 0.  0.
         24    2    4    4    0    0  0.28018427122E+03  0.11169603680E+04 -0.83426016067E+02  0.11571410764E+04  0.76888757552E+02 0.  0.
         13    1    3    3    0    0 -0.49462005711E+03 -0.11126026505E+04  0.17462027666E+04  0.21287925593E+04  0.00000000000E+00 0. -1.
        -13    1    3    3    0    0 -0.20461615545E+02 -0.11519178382E+03  0.16865173888E+03  0.20525894328E+03  0.00000000000E+00 0.  1.
          4    1    6    6  502    0  0.17110017939E+03  0.58243180095E+03 -0.14093177811E+02  0.60720728899E+03  0.00000000000E+00 0. -1.
          3    1    5    5  503    0  0.82763919507E+02  0.56101574053E+02  0.22904704453E+03  0.24991959025E+03  0.00000000000E+00 0. -1.
         -4    1    5    5    0  503  0.15213348193E+03  0.54732492236E+02  0.18999724785E+03  0.24947784716E+03  0.00000000000E+00 0.  1.
         -3    1    6    6    0  502  0.10908409183E+03  0.53452856704E+03 -0.69332838256E+02  0.54993378741E+03  0.00000000000E+00 0.  1.
<mgrwt>
<rscale>  0 0.32954789E+04</rscale>
<asrwt>0</asrwt>
<pdfrwt beam="1">  1        2 0.48008175E+00 0.32954789E+04</pdfrwt>
<pdfrwt beam="2">  1       -2 0.13385517E+00 0.32954789E+04</pdfrwt>
<totfact> 0.49137506E-01</totfact>
</mgrwt>
</event>
<event>
12    1  0.2214165E-007  0.3706151E+04  0.7818608E-02  0.8066600E-01
          2   -1    0    0  501    0  0.00000000000E+00  0.00000000000E+00  0.52329709572E+04  0.52329709572E+04  0.00000000000E+00 0. -1.
         -2   -1    0    0    0  501 -0.00000000000E+00 -0.00000000000E+00 -0.65620268503E+03  0.65620268503E+03  0.00000000000E+00 0.  1.
         23    2    1    2    0    0 -0.14353022914E+04  0.40334373596E+03  0.35873476094E+04  0.38858650515E+04  0.90030502473E+02 0.  0.
        254    2    1    2    0    0  0.14353022914E+04 -0.40334373596E+03  0.98942066276E+03  0.20033085906E+04  0.90084028796E+03 0.  0.
        -24    2    4    4    0    0  0.50935688733E+03 -0.40452002116E+03  0.12896098614E+02  0.65536579740E+03  0.79102040778E+02 0.  0.
         24    2    4    4    0    0  0.92594540405E+03  0.11762851946E+01  0.97652456415E+03  0.13479427932E+04  0.77286962063E+02 0.  0.
         13    1    3    3    0    0 -0.91314945617E+03  0.24086077467E+03  0.23760773430E+04  0.25568729694E+04  0.00000000000E+00 0.  1.
        -13    1    3    3    0    0 -0.52215283522E+03  0.16248296130E+03  0.12112702664E+04  0.13289920821E+04  0.00000000000E+00 0. -1.
          4    1    6    6  502    0  0.53605265619E+03  0.38703917406E+02  0.56956968870E+03  0.78310923485E+03  0.00000000000E+00 0. -1.
          1    1    5    5  503    0  0.30869428887E+03 -0.29318134105E+03  0.11146962188E+02  0.42587758510E+03  0.00000000000E+00 0. -1.
         -2    1    5    5    0  503  0.20066259846E+03 -0.11133868011E+03  0.17491364265E+01  0.22948821231E+03  0.00000000000E+00 0.  1.
         -3    1    6    6    0  502  0.38989274787E+03 -0.37527632211E+02  0.40695487545E+03  0.56483355838E+03  0.00000000000E+00 0.  1.
<mgrwt>
<rscale>  0 0.37061514E+04</rscale>
<asrwt>0</asrwt>
<pdfrwt beam="1">  1        2 0.80507243E+00 0.37061514E+04</pdfrwt>
<pdfrwt beam="2">  1       -2 0.10095426E+00 0.37061514E+04</pdfrwt>
<totfact> 0.10640356E-02</totfact>
</mgrwt>
</event>
<event>
12    1  0.2214165E-007  0.1668728E+04  0.7818608E-02  0.8779404E-01
         -2   -1    0    0    0  501 -0.00000000000E+00  0.00000000000E+00  0.78226065178E+03  0.78226065178E+03  0.00000000000E+00 0.  1.
          2   -1    0    0  501    0  0.00000000000E+00 -0.00000000000E+00 -0.88993789192E+03  0.88993789192E+03  0.00000000000E+00 0. -1.
         23    2    1    2    0    0  0.12093248914E+03 -0.37065076457E+02  0.53876141835E+03  0.56076918424E+03  0.90552334388E+02 0.  0.
        254    2    1    2    0    0 -0.12093248914E+03  0.37065076457E+02 -0.64643865849E+03  0.11114293595E+04  0.89520600705E+03 0.  0.
        -24    2    4    4    0    0 -0.48862542990E+03  0.12295602257E+03 -0.43926726158E+03  0.67316176602E+03  0.79486111332E+02 0.  0.
         24    2    4    4    0    0  0.36769294077E+03 -0.85890946114E+02 -0.20717139691E+03  0.43826759344E+03  0.81136566676E+02 0.  0.
         11    1    3    3    0    0  0.10507377607E+03 -0.48409727560E+02  0.52315512916E+03  0.53579407360E+03  0.00000000000E+00 0.  1.
        -11    1    3    3    0    0  0.15858713072E+02  0.11344651102E+02  0.15606289192E+02  0.24975110636E+02  0.00000000000E+00 0. -1.
          2    1    6    6  502    0  0.31551658081E+03 -0.98825908137E+02 -0.16266987165E+03  0.36848169565E+03  0.00000000000E+00 0. -1.
          1    1    5    5  503    0 -0.29480710462E+03  0.49196220926E+02 -0.29922013594E+03  0.42292338176E+03  0.00000000000E+00 0. -1.
         -2    1    5    5    0  503 -0.19381832529E+03  0.73759801646E+02 -0.14004712564E+03  0.25023838426E+03  0.00000000000E+00 0.  1.
         -1    1    6    6    0  502  0.52176359956E+02  0.12934962022E+02 -0.44501525257E+02  0.69785897795E+02  0.00000000000E+00 0.  1.
<mgrwt>
<rscale>  0 0.16687281E+04</rscale>
<asrwt>0</asrwt>
<pdfrwt beam="1">  1        2 0.13691352E+00 0.16687281E+04</pdfrwt>
<pdfrwt beam="2">  1       -2 0.12034779E+00 0.16687281E+04</pdfrwt>
<totfact> 0.14978944E+01</totfact>
</mgrwt>
</event>
<event>
12    1  0.2214165E-007  0.3058769E+04  0.7818608E-02  0.8227145E-01
          2   -1    0    0  501    0  0.00000000000E+00  0.00000000000E+00  0.12673655751E+04  0.12673655751E+04  0.00000000000E+00 0. -1.
         -2   -1    0    0    0  501 -0.00000000000E+00 -0.00000000000E+00 -0.18455740357E+04  0.18455740357E+04  0.00000000000E+00 0.  1.
         23    2    1    2    0    0 -0.10066337349E+04  0.74097419870E+03  0.36663847241E+03  0.13058634979E+04  0.92203396500E+02 0.  0.
        254    2    1    2    0    0  0.10066337349E+04 -0.74097419870E+03 -0.94484693299E+03  0.18070761129E+04  0.90024114082E+03 0.  0.
        -24    2    4    4    0    0 -0.12370342180E+02 -0.47076814641E+03 -0.36571616321E+03  0.60166894540E+03  0.80507979623E+02 0.  0.
         24    2    4    4    0    0  0.10190040771E+04 -0.27020605229E+03 -0.57913076977E+03  0.12054071675E+04  0.78951701123E+02 0.  0.
         11    1    3    3    0    0 -0.50975917391E+03  0.38466294905E+03  0.23465003683E+03  0.68035331963E+03  0.00000000000E+00 0. -1.
        -11    1    3    3    0    0 -0.49687456103E+03  0.35631124965E+03  0.13198843558E+03  0.62551017830E+03  0.00000000000E+00 0.  1.
          4    1    6    6  502    0  0.42566831337E+03 -0.14104593013E+03 -0.21425503928E+03  0.49698359055E+03  0.00000000000E+00 0. -1.
          3    1    5    5  503    0 -0.23220397296E+02 -0.13015323852E+03 -0.14195972081E+03  0.19398869730E+03  0.00000000000E+00 0. -1.
         -4    1    5    5    0  503  0.10850055115E+02 -0.34061490789E+03 -0.22375644240E+03  0.40768024810E+03  0.00000000000E+00 0.  1.
         -1    1    6    6    0  502  0.59333576375E+03 -0.12916012216E+03 -0.36487573049E+03  0.70842357696E+03  0.00000000000E+00 0.  1.
<mgrwt>
<rscale>  0 0.30587690E+04</rscale>
<asrwt>0</asrwt>
<pdfrwt beam="1">  1        2 0.19497932E+00 0.30587690E+04</pdfrwt>
<pdfrwt beam="2">  1       -2 0.28393447E+00 0.30587690E+04</pdfrwt>
<totfact> 0.58642325E-01</totfact>
</mgrwt>
</event>
<event>
12    1  0.2214165E-007  0.3010343E+04  0.7818608E-02  0.8240783E-01
          2   -1    0    0  501    0  0.00000000000E+00  0.00000000000E+00  0.42334354332E+04  0.42334354332E+04  0.00000000000E+00 0. -1.
         -2   -1    0    0    0  501 -0.00000000000E+00 -0.00000000000E+00 -0.53515448383E+03  0.53515448383E+03  0.00000000000E+00 0.  1.
         23    2    1    2    0    0 -0.73763522144E+03  0.11474781114E+04  0.15173968736E+04  0.20424826239E+04  0.91816451768E+02 0.  0.
        254    2    1    2    0    0  0.73763522144E+03 -0.11474781114E+04  0.21808840757E+04  0.27261072931E+04  0.90254855040E+03 0.  0.
        -24    2    4    4    0    0  0.69867409170E+03 -0.26989882103E+03  0.96986367537E+03  0.12279419384E+04  0.78835240863E+02 0.  0.
         24    2    4    4    0    0  0.38961129745E+02 -0.87757929033E+03  0.12110204004E+04  0.14981653548E+04  0.79155793335E+02 0.  0.
         11    1    3    3    0    0 -0.39078039216E+03  0.55031352366E+03  0.80041311642E+03  0.10470030784E+04  0.00000000000E+00 0. -1.
        -11    1    3    3    0    0 -0.34685482928E+03  0.59716458770E+03  0.71698375716E+03  0.99547954546E+03  0.00000000000E+00 0.  1.
          4    1    6    6  502    0  0.73519024569E+01 -0.75156670157E+03  0.10496682335E+04  0.12910112152E+04  0.00000000000E+00 0. -1.
          1    1    5    5  503    0  0.66626062962E+03 -0.27114305556E+03  0.94159851584E+03  0.11849175280E+04  0.00000000000E+00 0. -1.
         -2    1    5    5    0  503  0.32413462075E+02  0.12442345281E+01  0.28265159534E+02  0.43024410359E+02  0.00000000000E+00 0.  1.
         -3    1    6    6    0  502  0.31609227288E+02 -0.12601258876E+03  0.16135216688E+03  0.20715413955E+03  0.00000000000E+00 0.  1.
<mgrwt>
<rscale>  0 0.30103435E+04</rscale>
<asrwt>0</asrwt>
<pdfrwt beam="1">  1        2 0.65129774E+00 0.30103435E+04</pdfrwt>
<pdfrwt beam="2">  1       -2 0.82331462E-01 0.30103435E+04</pdfrwt>
<totfact> 0.24072022E-01</totfact>
</mgrwt>
</event>
<event>
12    1  0.2214165E-007  0.1223193E+04  0.7818608E-02  0.9092794E-01
          2   -1    0    0  501    0  0.00000000000E+00  0.00000000000E+00  0.23125571167E+04  0.23125571167E+04  0.00000000000E+00 0. -1.
         -2   -1    0    0    0  501 -0.00000000000E+00 -0.00000000000E+00 -0.16174749813E+03  0.16174749813E+03  0.00000000000E+00 0.  1.
         23    2    1    2    0    0  0.26195766368E+03  0.73131404569E+02  0.53182593127E+03  0.60311488038E+03  0.83298966759E+02 0.  0.
        254    2    1    2    0    0 -0.26195766368E+03 -0.73131404569E+02  0.16189836873E+04  0.18711897345E+04  0.89792695844E+03 0.  0.
        -24    2    4    4    0    0  0.11124272112E+03 -0.28879790783E+03  0.12733511585E+04  0.13128722552E+04  0.80194831646E+02 0.  0.
         24    2    4    4    0    0 -0.37320038480E+03  0.21566650326E+03  0.34563252879E+03  0.55831747925E+03  0.80411409894E+02 0.  0.
         11    1    3    3    0    0  0.17516143482E+03  0.26285801025E+02  0.40814951868E+03  0.44492527595E+03  0.00000000000E+00 0. -1.
        -11    1    3    3    0    0  0.86796228863E+02  0.46845603544E+02  0.12367641259E+03  0.15818960443E+03  0.00000000000E+00 0.  1.
          2    1    6    6  502    0 -0.23553193377E+03  0.93196934546E+02  0.21773762602E+03  0.33402190680E+03  0.00000000000E+00 0. -1.
          3    1    5    5  503    0  0.10510676289E+03 -0.22375939440E+03  0.11044001195E+04  0.11317311174E+04  0.00000000000E+00 0. -1.
         -4    1    5    5    0  503  0.61359582242E+01 -0.65038513433E+02  0.16895103901E+03  0.18114113778E+03  0.00000000000E+00 0.  1.
         -1    1    6    6    0  502 -0.13766845102E+03  0.12246956872E+03  0.12789490276E+03  0.22429557245E+03  0.00000000000E+00 0.  1.
<mgrwt>
<rscale>  0 0.12231931E+04</rscale>
<asrwt>0</asrwt>
<pdfrwt beam="1">  1        2 0.35577799E+00 0.12231931E+04</pdfrwt>
<pdfrwt beam="2">  1       -2 0.24884232E-01 0.12231931E+04</pdfrwt>
<totfact> 0.63813299E+01</totfact>
</mgrwt>
</event>
<event>
12    1  0.2214165E-007  0.1640721E+04  0.7818608E-02  0.8795915E-01
          1   -1    0    0  501    0  0.00000000000E+00  0.00000000000E+00  0.29810436798E+03  0.29810436798E+03  0.00000000000E+00 0. -1.
         -1   -1    0    0    0  501 -0.00000000000E+00 -0.00000000000E+00 -0.22575688351E+04  0.22575688351E+04  0.00000000000E+00 0.  1.
         23    2    1    2    0    0 -0.56211518158E+03  0.36283242678E+02 -0.56288631501E+03  0.80143506680E+03  0.90372626486E+02 0.  0.
        254    2    1    2    0    0  0.56211518158E+03 -0.36283242678E+02 -0.13965781521E+04  0.17542381363E+04  0.89979495038E+03 0.  0.
        -24    2    4    4    0    0  0.38491251824E+03 -0.43520385595E+03 -0.99738226822E+03  0.11573565591E+04  0.84514928028E+02 0.  0.
         24    2    4    4    0    0  0.17720266334E+03  0.39892061327E+03 -0.39919588391E+03  0.59688157717E+03  0.79823704733E+02 0.  0.
         13    1    3    3    0    0 -0.20449330793E+03 -0.27695773427E+02 -0.22488657851E+03  0.30521884287E+03  0.00000000000E+00 0. -1.
        -13    1    3    3    0    0 -0.35762187365E+03  0.63979016105E+02 -0.33799973650E+03  0.49621622393E+03  0.00000000000E+00 0.  1.
          2    1    6    6  502    0  0.17277028956E+03  0.32441853948E+03 -0.34965296517E+03  0.50730085528E+03  0.00000000000E+00 0. -1.
          1    1    5    5  503    0  0.25656817025E+03 -0.33883148033E+03 -0.76091928110E+03  0.87156878696E+03  0.00000000000E+00 0. -1.
         -2    1    5    5    0  503  0.12834434798E+03 -0.96372375616E+02 -0.23646298712E+03  0.28578777217E+03  0.00000000000E+00 0.  1.
         -1    1    6    6    0  502  0.44323737880E+01  0.74502073794E+02 -0.49542918745E+02  0.89580721892E+02  0.00000000000E+00 0.  1.
<mgrwt>
<rscale>  0 0.16407207E+04</rscale>
<asrwt>0</asrwt>
<pdfrwt beam="1">  1        1 0.45862209E-01 0.16407207E+04</pdfrwt>
<pdfrwt beam="2">  1       -1 0.34731829E+00 0.16407207E+04</pdfrwt>
<totfact> 0.13733348E+00</totfact>
</mgrwt>
</event>
<event>
12    1  0.2214165E-007  0.1781360E+04  0.7818608E-02  0.8716275E-01
          2   -1    0    0  501    0  0.00000000000E+00  0.00000000000E+00  0.25802127088E+04  0.25802127088E+04  0.00000000000E+00 0. -1.
         -2   -1    0    0    0  501 -0.00000000000E+00 -0.00000000000E+00 -0.30745964950E+03  0.30745964950E+03  0.00000000000E+00 0.  1.
         23    2    1    2    0    0  0.22023920120E+03  0.61989656315E+03  0.84779442333E+03  0.10777247661E+04  0.99790943713E+02 0.  0.
        254    2    1    2    0    0 -0.22023920120E+03 -0.61989656315E+03  0.14249586360E+04  0.18099475922E+04  0.90145777360E+03 0.  0.
        -24    2    4    4    0    0  0.27569161592E+03 -0.19166593727E+03  0.15222954490E+03  0.37625742889E+03  0.75193881762E+02 0.  0.
         24    2    4    4    0    0 -0.49593081712E+03 -0.42823062589E+03  0.12727290911E+04  0.14336901633E+04  0.79368135008E+02 0.  0.
         11    1    3    3    0    0  0.15127946123E+03  0.44927192874E+03  0.53503227003E+03  0.71483583522E+03  0.00000000000E+00 0.  1.
        -11    1    3    3    0    0  0.68959739964E+02  0.17062463441E+03  0.31276215330E+03  0.36288893086E+03  0.00000000000E+00 0. -1.
          2    1    6    6  502    0 -0.49231216007E+03 -0.42448788639E+03  0.12352606606E+04  0.13958617870E+04  0.00000000000E+00 0. -1.
          3    1    5    5  503    0  0.24947467635E+03 -0.18367066377E+03  0.11593698150E+03  0.33077773587E+03  0.00000000000E+00 0. -1.
         -4    1    5    5    0  503  0.26216939577E+02 -0.79952735028E+01  0.36292563402E+02  0.45479693023E+02  0.00000000000E+00 0.  1.
         -1    1    6    6    0  502 -0.36186570497E+01 -0.37427394936E+01  0.37468430429E+02  0.37828376341E+02  0.00000000000E+00 0.  1.
<mgrwt>
<rscale>  0 0.17813605E+04</rscale>
<asrwt>0</asrwt>
<pdfrwt beam="1">  1        2 0.39695579E+00 0.17813605E+04</pdfrwt>
<pdfrwt beam="2">  1       -2 0.47301486E-01 0.17813605E+04</pdfrwt>
<totfact> 0.12538386E+01</totfact>
</mgrwt>
</event>
<event>
12    1  0.2214165E-007  0.2279340E+04  0.7818608E-02  0.8486112E-01
         -2   -1    0    0    0  501 -0.00000000000E+00  0.00000000000E+00  0.11181803764E+04  0.11181803764E+04  0.00000000000E+00 0.  1.
          2   -1    0    0  501    0  0.00000000000E+00 -0.00000000000E+00 -0.11615724988E+04  0.11615724988E+04  0.00000000000E+00 0. -1.
         23    2    1    2    0    0 -0.46424956630E+02 -0.83920601858E+03 -0.47589236953E+03  0.97036611892E+03  0.93353302878E+02 0.  0.
        254    2    1    2    0    0  0.46424956630E+02  0.83920601858E+03  0.43250024720E+03  0.13093867563E+04  0.90609888836E+03 0.  0.
        -24    2    4    4    0    0  0.46826199422E+03  0.39665235612E+03  0.23720010367E+03  0.66281577268E+03  0.80364622068E+02 0.  0.
         24    2    4    4    0    0 -0.42183703759E+03  0.44255366246E+03  0.19530014352E+03  0.64657098361E+03  0.78177108764E+02 0.  0.
         13    1    3    3    0    0 -0.65548762547E+02 -0.44234584063E+03 -0.27732412497E+03  0.52618927515E+03  0.00000000000E+00 0.  1.
        -13    1    3    3    0    0  0.19123805917E+02 -0.39686017795E+03 -0.19856824456E+03  0.44417684377E+03  0.00000000000E+00 0. -1.
          2    1    6    6  502    0 -0.38376108113E+03  0.42911728316E+03  0.17735889591E+03  0.60238724095E+03  0.00000000000E+00 0. -1.
          3    1    5    5  503    0  0.24188749603E+03  0.24673059712E+03  0.15835808056E+03  0.38008266202E+03  0.00000000000E+00 0. -1.
         -4    1    5    5    0  503  0.22637449819E+03  0.14992175900E+03  0.78842023118E+02  0.28273311066E+03  0.00000000000E+00 0.  1.
         -1    1    6    6    0  502 -0.38075956461E+02  0.13436379302E+02  0.17941247617E+02  0.44183742657E+02  0.00000000000E+00 0.  1.
<mgrwt>
<rscale>  0 0.22793399E+04</rscale>
<asrwt>0</asrwt>
<pdfrwt beam="1">  1        2 0.17870346E+00 0.22793399E+04</pdfrwt>
<pdfrwt beam="2">  1       -2 0.17202775E+00 0.22793399E+04</pdfrwt>
<totfact> 0.37406085E+00</totfact>
</mgrwt>
</event>
<event>
12    1  0.2214165E-007  0.2299976E+04  0.7818608E-02  0.8477931E-01
         -2   -1    0    0    0  501 -0.00000000000E+00  0.00000000000E+00  0.86214984203E+03  0.86214984203E+03  0.00000000000E+00 0.  1.
          2   -1    0    0  501    0  0.00000000000E+00 -0.00000000000E+00 -0.15339239433E+04  0.15339239433E+04  0.00000000000E+00 0. -1.
         23    2    1    2    0    0  0.20621464587E+03 -0.58039929272E+03 -0.10671577551E+04  0.12352153259E+04  0.86852794021E+02 0.  0.
        254    2    1    2    0    0 -0.20621464587E+03  0.58039929272E+03  0.39538365387E+03  0.11608584594E+04  0.90104179143E+03 0.  0.
        -24    2    4    4    0    0 -0.60741815465E+02  0.78777438611E+03  0.41211302018E+03  0.89475998098E+03  0.80499879475E+02 0.  0.
         24    2    4    4    0    0 -0.14547283041E+03 -0.20737509339E+03 -0.16729366306E+02  0.26609847845E+03  0.79760609254E+02 0.  0.
         13    1    3    3    0    0  0.99170150799E+02 -0.30062183551E+03 -0.63303117263E+03  0.70776879863E+03  0.00000000000E+00 0. -1.
        -13    1    3    3    0    0  0.10704449508E+03 -0.27977745722E+03 -0.43412658250E+03  0.52744652727E+03  0.00000000000E+00 0.  1.
          2    1    6    6  502    0 -0.31498179176E+02 -0.46976411440E+01  0.62005380362E+01  0.32444564964E+02  0.00000000000E+00 0. -1.
          3    1    5    5  503    0  0.16218032005E+02  0.29563761603E+03  0.15246481270E+03  0.33303174576E+03  0.00000000000E+00 0. -1.
         -4    1    5    5    0  503 -0.76959847470E+02  0.49213677009E+03  0.25964820747E+03  0.56172823521E+03  0.00000000000E+00 0.  1.
         -1    1    6    6    0  502 -0.11397465123E+03 -0.20267745225E+03 -0.22929904342E+02  0.23365391348E+03  0.00000000000E+00 0.  1.
<mgrwt>
<rscale>  0 0.22999759E+04</rscale>
<asrwt>0</asrwt>
<pdfrwt beam="1">  1        2 0.23598830E+00 0.22999759E+04</pdfrwt>
<pdfrwt beam="2">  1       -2 0.13263844E+00 0.22999759E+04</pdfrwt>
<totfact> 0.45454062E+00</totfact>
</mgrwt>
</event>
<event>
12    1  0.2214165E-007  0.1240320E+04  0.7818608E-02  0.9078279E-01
          2   -1    0    0  501    0  0.00000000000E+00  0.00000000000E+00  0.44312217365E+03  0.44312217365E+03  0.00000000000E+00 0. -1.
         -2   -1    0    0    0  501 -0.00000000000E+00 -0.00000000000E+00 -0.86792837992E+03  0.86792837992E+03  0.00000000000E+00 0.  1.
         23    2    1    2    0    0  0.19460731958E+03 -0.76346603786E+02 -0.30335957123E+03  0.37936758917E+03  0.90509256534E+02 0.  0.
        254    2    1    2    0    0 -0.19460731958E+03  0.76346603786E+02 -0.12144663504E+03  0.93168296440E+03  0.89976833032E+03 0.  0.
        -24    2    4    4    0    0  0.72933156666E+02 -0.37557378355E+03 -0.80053116117E+02  0.39855959659E+03  0.77886702343E+02 0.  0.
         24    2    4    4    0    0 -0.26754047624E+03  0.45192038734E+03 -0.41393518923E+02  0.53312336781E+03  0.81836171561E+02 0.  0.
         13    1    3    3    0    0  0.59313396490E+02 -0.65026888892E+02 -0.85761950444E+02  0.12288892312E+03  0.00000000000E+00 0. -1.
        -13    1    3    3    0    0  0.13529392309E+03 -0.11319714894E+02 -0.21759762078E+03  0.25647866605E+03  0.00000000000E+00 0.  1.
          2    1    6    6  502    0 -0.22846119046E+03  0.42338218467E+03 -0.23950221998E+02  0.48168516998E+03  0.00000000000E+00 0. -1.
          1    1    5    5  503    0  0.30549788732E+02 -0.31480262517E+03 -0.62005373300E+02  0.32230210785E+03  0.00000000000E+00 0. -1.
         -2    1    5    5    0  503  0.42383367934E+02 -0.60771158381E+02 -0.18047742817E+02  0.76257488741E+02  0.00000000000E+00 0.  1.
         -1    1    6    6    0  502 -0.39079285780E+02  0.28538202672E+02 -0.17443296925E+02  0.51438197834E+02  0.00000000000E+00 0.  1.
<mgrwt>
<rscale>  0 0.12403198E+04</rscale>
<asrwt>0</asrwt>
<pdfrwt beam="1">  1        2 0.68172642E-01 0.12403198E+04</pdfrwt>
<pdfrwt beam="2">  1       -2 0.13352744E+00 0.12403198E+04</pdfrwt>
<totfact> 0.28244093E+01</totfact>
</mgrwt>
</event>
<event>
12    1  0.2214165E-007  0.2881772E+04  0.7818608E-02  0.8278322E-01
         -1   -1    0    0    0  501 -0.00000000000E+00  0.00000000000E+00  0.11577729225E+04  0.11577729225E+04  0.00000000000E+00 0.  1.
          1   -1    0    0  501    0  0.00000000000E+00 -0.00000000000E+00 -0.17932295527E+04  0.17932295527E+04  0.00000000000E+00 0. -1.
         23    2    1    2    0    0  0.74131603972E+03 -0.82188116591E+03 -0.98333264877E+03  0.14834353765E+04  0.92732392408E+02 0.  0.
        254    2    1    2    0    0 -0.74131603972E+03  0.82188116591E+03  0.34787601855E+03  0.14675670987E+04  0.89871983573E+03 0.  0.
        -24    2    4    4    0    0 -0.89833432562E+03  0.47415177084E+03  0.35125902833E+03  0.10778156169E+04  0.80493084370E+02 0.  0.
         24    2    4    4    0    0  0.15701828591E+03  0.34772939507E+03 -0.33830097833E+01  0.38975148176E+03  0.79525458059E+02 0.  0.
         13    1    3    3    0    0  0.11474945698E+03 -0.83682900446E+02 -0.13956987443E+03  0.19912311657E+03  0.00000000000E+00 0. -1.
        -13    1    3    3    0    0  0.62656658274E+03 -0.73819826546E+03 -0.84376277434E+03  0.12843122600E+04  0.00000000000E+00 0.  1.
          2    1    6    6  502    0  0.11844057551E+03  0.25574545122E+03  0.32587039781E+02  0.28371785441E+03  0.00000000000E+00 0. -1.
          1    1    5    5  503    0 -0.74485933711E+03  0.36253159143E+03  0.26897487210E+03  0.87097191039E+03  0.00000000000E+00 0. -1.
         -2    1    5    5    0  503 -0.15347498852E+03  0.11162017941E+03  0.82284156225E+02  0.20684370650E+03  0.00000000000E+00 0.  1.
         -1    1    6    6    0  502  0.38577710393E+02  0.91983943845E+02 -0.35970049564E+02  0.10603362736E+03  0.00000000000E+00 0.  1.
<mgrwt>
<rscale>  0 0.28817721E+04</rscale>
<asrwt>0</asrwt>
<pdfrwt beam="1">  1        1 0.27588147E+00 0.28817721E+04</pdfrwt>
<pdfrwt beam="2">  1       -1 0.17811891E+00 0.28817721E+04</pdfrwt>
<totfact> 0.76004131E-01</totfact>
</mgrwt>
</event>
<event>
12    1  0.2214165E-007  0.1248820E+04  0.7818608E-02  0.9071166E-01
         -1   -1    0    0    0  501 -0.00000000000E+00  0.00000000000E+00  0.30270825986E+03  0.30270825986E+03  0.00000000000E+00 0.  1.
          1   -1    0    0  501    0  0.00000000000E+00 -0.00000000000E+00 -0.12879991204E+04  0.12879991204E+04  0.00000000000E+00 0. -1.
         23    2    1    2    0    0  0.18228479640E+03  0.10437646146E+02 -0.52575000451E+03  0.56370669455E+03  0.89529206338E+02 0.  0.
        254    2    1    2    0    0 -0.18228479640E+03 -0.10437646146E+02 -0.45954085600E+03  0.10270006857E+04  0.90011994678E+03 0.  0.
        -24    2    4    4    0    0 -0.12511876418E+03 -0.29830802995E+03  0.13468424742E+03  0.35936404212E+03  0.79751378602E+02 0.  0.
         24    2    4    4    0    0 -0.57166032219E+02  0.28787038380E+03 -0.59422510342E+03  0.66763664355E+03  0.80609560088E+02 0.  0.
         11    1    3    3    0    0  0.13397721357E+03  0.66201231099E+01 -0.24983549270E+03  0.28356920354E+03  0.00000000000E+00 0.  1.
        -11    1    3    3    0    0  0.48307582823E+02  0.38175230364E+01 -0.27591451181E+03  0.28013749101E+03  0.00000000000E+00 0. -1.
          2    1    6    6  502    0 -0.33913849737E+02  0.22565378399E+03 -0.37896215367E+03  0.44235968776E+03  0.00000000000E+00 0. -1.
          3    1    5    5  503    0 -0.13264705918E+03 -0.24015779052E+03  0.11541509365E+03  0.29764349564E+03  0.00000000000E+00 0. -1.
         -4    1    5    5    0  503  0.75282950006E+01 -0.58150239425E+02  0.19269153769E+02  0.61720546480E+02  0.00000000000E+00 0.  1.
         -1    1    6    6    0  502 -0.23252182482E+02  0.62216599805E+02 -0.21526294974E+03  0.22527695580E+03  0.00000000000E+00 0.  1.
<mgrwt>
<rscale>  0 0.12488202E+04</rscale>
<asrwt>0</asrwt>
<pdfrwt beam="1">  1        1 0.19815371E+00 0.12488202E+04</pdfrwt>
<pdfrwt beam="2">  1       -1 0.46570502E-01 0.12488202E+04</pdfrwt>
<totfact> 0.41774158E+01</totfact>
</mgrwt>
</event>
<event>
12    1  0.2214165E-007  0.2049026E+04  0.7818608E-02  0.8584036E-01
         -1   -1    0    0    0  501 -0.00000000000E+00  0.00000000000E+00  0.11443117625E+04  0.11443117625E+04  0.00000000000E+00 0.  1.
          1   -1    0    0  501    0  0.00000000000E+00 -0.00000000000E+00 -0.91725637946E+03  0.91725637946E+03  0.00000000000E+00 0. -1.
         23    2    1    2    0    0  0.23849809463E+03 -0.18590657369E+03  0.86333692706E+03  0.91920127007E+03  0.90209367507E+02 0.  0.
        254    2    1    2    0    0 -0.23849809463E+03  0.18590657369E+03 -0.63628154403E+03  0.11423668719E+04  0.89928041869E+03 0.  0.
        -24    2    4    4    0    0 -0.95203793313E+02 -0.30348169698E+03 -0.51637589912E+03  0.61203914401E+03  0.82358617936E+02 0.  0.
         24    2    4    4    0    0 -0.14329430132E+03  0.48938827067E+03 -0.11990564491E+03  0.53032772788E+03  0.82680100473E+02 0.  0.
         11    1    3    3    0    0  0.15717460034E+03 -0.75279373892E+02  0.55394645445E+03  0.58071293555E+03  0.00000000000E+00 0. -1.
        -11    1    3    3    0    0  0.81323494296E+02 -0.11062719980E+03  0.30939047262E+03  0.33848833452E+03  0.00000000000E+00 0.  1.
          4    1    6    6  502    0 -0.88184070245E+02  0.24952863415E+03 -0.10178943412E+03  0.28355256727E+03  0.00000000000E+00 0. -1.
          3    1    5    5  503    0 -0.74137907228E+02 -0.26847448586E+03 -0.39015430571E+03  0.47936975407E+03  0.00000000000E+00 0. -1.
         -4    1    5    5    0  503 -0.21065886086E+02 -0.35007211122E+02 -0.12622159340E+03  0.13266938995E+03  0.00000000000E+00 0.  1.
         -3    1    6    6    0  502 -0.55110231074E+02  0.23985963652E+03 -0.18116210792E+02  0.24677516061E+03  0.00000000000E+00 0.  1.
<mgrwt>
<rscale>  0 0.20490264E+04</rscale>
<asrwt>0</asrwt>
<pdfrwt beam="1">  1        1 0.14111637E+00 0.20490264E+04</pdfrwt>
<pdfrwt beam="2">  1       -1 0.17604796E+00 0.20490264E+04</pdfrwt>
<totfact> 0.36163999E+00</totfact>
</mgrwt>
</event>
<event>
12    1  0.2214165E-007  0.1540522E+04  0.7818608E-02  0.8857945E-01
         -2   -1    0    0    0  501 -0.00000000000E+00  0.00000000000E+00  0.93019759200E+03  0.93019759200E+03  0.00000000000E+00 0.  1.
          2   -1    0    0  501    0  0.00000000000E+00 -0.00000000000E+00 -0.63782350257E+03  0.63782350257E+03  0.00000000000E+00 0. -1.
         23    2    1    2    0    0  0.44349529353E+03  0.15573488174E+03  0.27887746763E+03  0.55399178645E+03  0.90514246009E+02 0.  0.
        254    2    1    2    0    0 -0.44349529353E+03 -0.15573488174E+03  0.13496621801E+02  0.10140293081E+04  0.89840517037E+03 0.  0.
        -24    2    4    4    0    0 -0.60456398848E+03 -0.18153672884E+03  0.27652962882E+03  0.69414399388E+03  0.83150757893E+02 0.  0.
         24    2    4    4    0    0  0.16106869495E+03  0.25801847094E+02 -0.26303300702E+03  0.31988531423E+03  0.80817025877E+02 0.  0.
         11    1    3    3    0    0  0.24712777751E+03  0.38922564290E+02  0.14318184515E+03  0.28825014346E+03  0.00000000000E+00 0. -1.
        -11    1    3    3    0    0  0.19636751602E+03  0.11681231746E+03  0.13569562249E+03  0.26574164299E+03  0.00000000000E+00 0.  1.
          4    1    6    6  502    0  0.10827577618E+03  0.38251779162E+02 -0.11626380105E+03  0.16341393377E+03  0.00000000000E+00 0. -1.
          3    1    5    5  503    0 -0.58706727141E+03 -0.19023724054E+03  0.26905338062E+03  0.67322203654E+03  0.00000000000E+00 0. -1.
         -4    1    5    5    0  503 -0.17496717070E+02  0.87005117005E+01  0.74762481980E+01  0.20921957346E+02  0.00000000000E+00 0.  1.
         -3    1    6    6    0  502  0.52792918770E+02 -0.12449932068E+02 -0.14676920597E+03  0.15647138046E+03  0.00000000000E+00 0.  1.
<mgrwt>
<rscale>  0 0.15405218E+04</rscale>
<asrwt>0</asrwt>
<pdfrwt beam="1">  1        2 0.98126693E-01 0.15405218E+04</pdfrwt>
<pdfrwt beam="2">  1       -2 0.14310732E+00 0.15405218E+04</pdfrwt>
<totfact> 0.15028200E+01</totfact>
</mgrwt>
</event>
<event>
12    1  0.2214165E-007  0.1698951E+04  0.7818608E-02  0.8761963E-01
          2   -1    0    0  501    0  0.00000000000E+00  0.00000000000E+00  0.34387574262E+04  0.34387574262E+04  0.00000000000E+00 0. -1.
         -2   -1    0    0    0  501 -0.00000000000E+00 -0.00000000000E+00 -0.20984580068E+03  0.20984580068E+03  0.00000000000E+00 0.  1.
         23    2    1    2    0    0  0.46473892526E+03  0.37314685812E+03  0.95223061775E+03  0.11268965639E+04  0.89061046357E+02 0.  0.
        254    2    1    2    0    0 -0.46473892526E+03 -0.37314685812E+03  0.22766810077E+04  0.25217066630E+04  0.90581854508E+03 0.  0.
        -24    2    4    4    0    0  0.43589736240E+02  0.20421067297E+03  0.18143861987E+03  0.28829681384E+03  0.81197389313E+02 0.  0.
         24    2    4    4    0    0 -0.50832866150E+03 -0.57735753109E+03  0.20952423879E+04  0.22334098491E+04  0.79618737738E+02 0.  0.
         11    1    3    3    0    0  0.24142757222E+03  0.17218597670E+03  0.39602867882E+03  0.49474639730E+03  0.00000000000E+00 0.  1.
        -11    1    3    3    0    0  0.22331135304E+03  0.20096088142E+03  0.55620193894E+03  0.63215016661E+03  0.00000000000E+00 0. -1.
          2    1    6    6  502    0 -0.23017993592E+03 -0.22542661461E+03  0.96719538281E+03  0.10194443928E+04  0.00000000000E+00 0. -1.
          3    1    5    5  503    0 -0.22869638980E+01  0.28358167187E+00 -0.66921581601E+01  0.70778247559E+01  0.00000000000E+00 0. -1.
         -4    1    5    5    0  503  0.45876700138E+02  0.20392709129E+03  0.18813077803E+03  0.28121898908E+03  0.00000000000E+00 0.  1.
         -1    1    6    6    0  502 -0.27814872558E+03 -0.35193091648E+03  0.11280470051E+04  0.12139654563E+04  0.00000000000E+00 0.  1.
<mgrwt>
<rscale>  0 0.16989512E+04</rscale>
<asrwt>0</asrwt>
<pdfrwt beam="1">  1        2 0.52903956E+00 0.16989512E+04</pdfrwt>
<pdfrwt beam="2">  1       -2 0.32283972E-01 0.16989512E+04</pdfrwt>
<totfact> 0.76942985E+00</totfact>
</mgrwt>
</event>
<event>
12    1  0.2214165E-007  0.2003018E+04  0.7818608E-02  0.8605211E-01
          2   -1    0    0  501    0  0.00000000000E+00  0.00000000000E+00  0.24185135275E+04  0.24185135275E+04  0.00000000000E+00 0. -1.
         -2   -1    0    0    0  501 -0.00000000000E+00 -0.00000000000E+00 -0.41472605435E+03  0.41472605435E+03  0.00000000000E+00 0.  1.
         23    2    1    2    0    0  0.50371525553E+03  0.60280723654E+03  0.98483869026E+03  0.12632266871E+04  0.93428016183E+02 0.  0.
        254    2    1    2    0    0 -0.50371525553E+03 -0.60280723654E+03  0.10189487829E+04  0.15700128947E+04  0.89976566079E+03 0.  0.
        -24    2    4    4    0    0 -0.50149919232E+03 -0.51634552192E+02  0.13897124921E+03  0.52852827955E+03  0.76560873127E+02 0.  0.
         24    2    4    4    0    0 -0.22160632017E+01 -0.55117268435E+03  0.87997753368E+03  0.10414846152E+04  0.80830099216E+02 0.  0.
         13    1    3    3    0    0  0.75088457007E+02  0.62375886965E+02  0.85059254720E+02  0.12947626989E+03  0.00000000000E+00 0.  1.
        -13    1    3    3    0    0  0.42862679852E+03  0.54043134957E+03  0.89977943554E+03  0.11337504173E+04  0.00000000000E+00 0. -1.
          2    1    6    6  502    0 -0.64229004083E+01 -0.41737292399E+03  0.72604823113E+03  0.83748877321E+03  0.00000000000E+00 0. -1.
          1    1    5    5  503    0 -0.43633100826E+03 -0.40185674280E+02  0.92941326387E+02  0.44792602887E+03  0.00000000000E+00 0. -1.
         -2    1    5    5    0  503 -0.65168184066E+02 -0.11448877913E+02  0.46029922827E+02  0.80602250684E+02  0.00000000000E+00 0.  1.
         -1    1    6    6    0  502  0.42068372066E+01 -0.13379976036E+03  0.15392930255E+03  0.20399584195E+03  0.00000000000E+00 0.  1.
<mgrwt>
<rscale>  0 0.20030183E+04</rscale>
<asrwt>0</asrwt>
<pdfrwt beam="1">  1        2 0.37207900E+00 0.20030183E+04</pdfrwt>
<pdfrwt beam="2">  1       -2 0.63804010E-01 0.20030183E+04</pdfrwt>
<totfact> 0.81897014E+00</totfact>
</mgrwt>
</event>
<event>
12    1  0.2214165E-007  0.1204401E+04  0.7818608E-02  0.9109013E-01
         -2   -1    0    0    0  501 -0.00000000000E+00  0.00000000000E+00  0.15088725047E+03  0.15088725047E+03  0.00000000000E+00 0.  1.
          2   -1    0    0  501    0  0.00000000000E+00 -0.00000000000E+00 -0.24034217504E+04  0.24034217504E+04  0.00000000000E+00 0. -1.
         23    2    1    2    0    0  0.88603505386E+02 -0.15309760932E+03 -0.11461018916E+03  0.22872944256E+03  0.88838073427E+02 0.  0.
        254    2    1    2    0    0 -0.88603505386E+02  0.15309760932E+03 -0.21379243107E+04  0.23255795583E+04  0.89794791850E+03 0.  0.
        -24    2    4    4    0    0 -0.16763924474E+03  0.50907905378E+03 -0.12291854357E+04  0.13431637983E+04  0.76991911280E+02 0.  0.
         24    2    4    4    0    0  0.79035739358E+02 -0.35598144446E+03 -0.90873887505E+03  0.98241575998E+03  0.79780608742E+02 0.  0.
         11    1    3    3    0    0 -0.56961981713E+00 -0.29712529599E+02 -0.60069274409E+02  0.67018479615E+02  0.00000000000E+00 0. -1.
        -11    1    3    3    0    0  0.89173125203E+02 -0.12338507972E+03 -0.54540914753E+02  0.16171096295E+03  0.00000000000E+00 0.  1.
          2    1    6    6  502    0  0.71347734913E+02 -0.29057379398E+03 -0.65218270154E+03  0.71754157037E+03  0.00000000000E+00 0. -1.
          3    1    5    5  503    0 -0.11051159685E+03  0.37825577018E+03 -0.97519554949E+03  0.10518063512E+04  0.00000000000E+00 0. -1.
         -4    1    5    5    0  503 -0.57127647897E+02  0.13082328360E+03 -0.25398988621E+03  0.29135744710E+03  0.00000000000E+00 0.  1.
         -1    1    6    6    0  502  0.76880044441E+01 -0.65407650489E+02 -0.25655617351E+03  0.26487418961E+03  0.00000000000E+00 0.  1.
<mgrwt>
<rscale>  0 0.12044014E+04</rscale>
<asrwt>0</asrwt>
<pdfrwt beam="1">  1        2 0.36975723E+00 0.12044014E+04</pdfrwt>
<pdfrwt beam="2">  1       -2 0.23213421E-01 0.12044014E+04</pdfrwt>
<totfact> 0.64359998E+01</totfact>
</mgrwt>
</event>
<event>
12    1  0.2214165E-007  0.1766545E+04  0.7818608E-02  0.8724296E-01
         -1   -1    0    0    0  501 -0.00000000000E+00  0.00000000000E+00  0.81838953746E+03  0.81838953746E+03  0.00000000000E+00 0.  1.
          1   -1    0    0  501    0  0.00000000000E+00 -0.00000000000E+00 -0.95329932831E+03  0.95329932831E+03  0.00000000000E+00 0. -1.
         23    2    1    2    0    0  0.50063753716E+03 -0.29776054488E+03 -0.32742259442E+03  0.67455852889E+03  0.92327503314E+02 0.  0.
        254    2    1    2    0    0 -0.50063753716E+03  0.29776054488E+03  0.19251280356E+03  0.10971303369E+04  0.90957930433E+03 0.  0.
        -24    2    4    4    0    0 -0.66940669537E+03  0.10784333774E+03  0.36950639554E+03  0.77633554095E+03  0.80164745994E+02 0.  0.
         24    2    4    4    0    0  0.16876915822E+03  0.18991720714E+03 -0.17699359197E+03  0.32079479592E+03  0.83851029557E+02 0.  0.
         13    1    3    3    0    0  0.42276676061E+03 -0.21681762788E+03 -0.28760592614E+03  0.55539066105E+03  0.00000000000E+00 0. -1.
        -13    1    3    3    0    0  0.77870776549E+02 -0.80942916997E+02 -0.39816668280E+02  0.11916786784E+03  0.00000000000E+00 0.  1.
          2    1    6    6  502    0  0.15375343155E+03  0.15772641370E+03 -0.18093916754E+03  0.28505564657E+03  0.00000000000E+00 0. -1.
          1    1    5    5  503    0 -0.25052690570E+03  0.59225453597E+02  0.10170789088E+03  0.27679573678E+03  0.00000000000E+00 0. -1.
         -4    1    5    5    0  503 -0.41887978967E+03  0.48617884145E+02  0.26779850466E+03  0.49953980417E+03  0.00000000000E+00 0.  1.
         -1    1    6    6    0  502  0.15015726665E+02  0.32190793439E+02  0.39455755688E+01  0.35739149347E+02  0.00000000000E+00 0.  1.
<mgrwt>
<rscale>  0 0.17665449E+04</rscale>
<asrwt>0</asrwt>
<pdfrwt beam="1">  1        1 0.14666144E+00 0.17665449E+04</pdfrwt>
<pdfrwt beam="2">  1       -1 0.12590608E+00 0.17665449E+04</pdfrwt>
<totfact> 0.85700193E+00</totfact>
</mgrwt>
</event>
<event>
12    1  0.2214165E-007  0.1771645E+04  0.7818608E-02  0.8721525E-01
         -2   -1    0    0    0  501 -0.00000000000E+00  0.00000000000E+00  0.65943307435E+03  0.65943307435E+03  0.00000000000E+00 0. -1.
          2   -1    0    0  501    0  0.00000000000E+00 -0.00000000000E+00 -0.11899339388E+04  0.11899339388E+04  0.00000000000E+00 0.  1.
         23    2    1    2    0    0  0.58297750742E+03 -0.18391226075E+03 -0.44169969606E+03  0.75967765521E+03  0.91241572352E+02 0.  0.
        254    2    1    2    0    0 -0.58297750742E+03  0.18391226075E+03 -0.88801168352E+02  0.10896893579E+04  0.89769190451E+03 0.  0.
        -24    2    4    4    0    0 -0.31993875026E+03  0.31082872782E+03  0.33889057481E+03  0.56580876396E+03  0.79482285611E+02 0.  0.
         24    2    4    4    0    0 -0.26303875715E+03 -0.12691646707E+03 -0.42769174316E+03  0.52388059394E+03  0.78952341095E+02 0.  0.
         13    1    3    3    0    0  0.66305999837E+02  0.31760352137E+01 -0.68747265369E+02  0.95565471325E+02  0.00000000000E+00 0.  1.
        -13    1    3    3    0    0  0.51667150758E+03 -0.18708829596E+03 -0.37295243069E+03  0.66411218389E+03  0.00000000000E+00 0. -1.
          2    1    6    6  502    0 -0.48795619466E+02  0.13766786095E+01 -0.41951992567E+02  0.64365187822E+02  0.00000000000E+00 0. -1.
          3    1    5    5  503    0 -0.44898831467E+02  0.42840932801E+02  0.15997085458E+02  0.64087107390E+02  0.00000000000E+00 0. -1.
         -4    1    5    5    0  503 -0.27503991880E+03  0.26798779501E+03  0.32289348935E+03  0.50172165657E+03  0.00000000000E+00 0.  1.
         -1    1    6    6    0  502 -0.21424313768E+03 -0.12829314568E+03 -0.38573975060E+03  0.45951540612E+03  0.00000000000E+00 0.  1.
<mgrwt>
<rscale>  0 0.17716453E+04</rscale>
<asrwt>0</asrwt>
<pdfrwt beam="1">  1        2 0.18306676E+00 0.17716453E+04</pdfrwt>
<pdfrwt beam="2">  1       -2 0.10145124E+00 0.17716453E+04</pdfrwt>
<totfact> 0.14507029E+01</totfact>
</mgrwt>
</event>
<event>
12    1  0.2214165E-007  0.1730204E+04  0.7818608E-02  0.8744323E-01
          3   -1    0    0  501    0  0.00000000000E+00  0.00000000000E+00  0.59372834434E+03  0.59372834434E+03  0.00000000000E+00 0. -1.
         -3   -1    0    0    0  501 -0.00000000000E+00 -0.00000000000E+00 -0.12605120424E+04  0.12605120424E+04  0.00000000000E+00 0.  1.
         23    2    1    2    0    0 -0.39748964749E+03 -0.32181602442E+03  0.14428408160E+03  0.53951954711E+03  0.93273104756E+02 0.  0.
        254    2    1    2    0    0  0.39748964749E+03  0.32181602442E+03 -0.81106777968E+03  0.13147208397E+04  0.89949784299E+03 0.  0.
        -24    2    4    4    0    0  0.53257142626E+03  0.46951001695E+03 -0.83398644498E+03  0.10981066413E+04  0.78948244177E+02 0.  0.
         24    2    4    4    0    0 -0.13508177876E+03 -0.14769399253E+03  0.22918665298E+02  0.21661419831E+03  0.79598010718E+02 0.  0.
         11    1    3    3    0    0 -0.37998572281E+03 -0.30984239890E+03  0.15696486081E+03  0.51481009044E+03  0.00000000000E+00 0. -1.
        -11    1    3    3    0    0 -0.17503924688E+02 -0.11973625520E+02 -0.12680779205E+02  0.24709456668E+02  0.00000000000E+00 0.  1.
          4    1    6    6  502    0 -0.12579200302E+03 -0.11587457219E+03 -0.80960151978E+01  0.17121942053E+03  0.00000000000E+00 0. -1.
          3    1    5    5  503    0  0.47817483803E+03  0.38720221266E+03 -0.73126063230E+03  0.95567716388E+03  0.00000000000E+00 0. -1.
         -4    1    5    5    0  503  0.54396588225E+02  0.82307804286E+02 -0.10272581268E+03  0.14242947745E+03  0.00000000000E+00 0.  1.
         -3    1    6    6    0  502 -0.92897757412E+01 -0.31819420332E+02  0.31014680496E+02  0.45394777782E+02  0.00000000000E+00 0.  1.
<mgrwt>
<rscale>  0 0.17302043E+04</rscale>
<asrwt>0</asrwt>
<pdfrwt beam="1">  1        3 0.91342824E-01 0.17302043E+04</pdfrwt>
<pdfrwt beam="2">  1       -3 0.19392493E+00 0.17302043E+04</pdfrwt>
<totfact> 0.42898143E-01</totfact>
</mgrwt>
</event>
<event>
12    1  0.2214165E-007  0.1481204E+04  0.7818608E-02  0.8897049E-01
         -2   -1    0    0    0  501 -0.00000000000E+00  0.00000000000E+00  0.39638710660E+03  0.39638710660E+03  0.00000000000E+00 0.  1.
          2   -1    0    0  501    0  0.00000000000E+00 -0.00000000000E+00 -0.13837268713E+04  0.13837268713E+04  0.00000000000E+00 0. -1.
         23    2    1    2    0    0  0.43120114125E+02 -0.40496127948E+03 -0.54408607646E+02  0.42083191515E+03  0.91028688336E+02 0.  0.
        254    2    1    2    0    0 -0.43120114125E+02  0.40496127948E+03 -0.93293115702E+03  0.13592820627E+04  0.90079642548E+03 0.  0.
        -24    2    4    4    0    0 -0.36550599456E+03  0.46718592532E+03 -0.79287818623E+03  0.99347692390E+03  0.80518688763E+02 0.  0.
         24    2    4    4    0    0  0.32238588043E+03 -0.62224645840E+02 -0.14005297078E+03  0.36580513881E+03  0.79962506853E+02 0.  0.
         13    1    3    3    0    0  0.69111297536E+02 -0.29355515634E+03 -0.24415270325E+02  0.30256752417E+03  0.00000000000E+00 0.  1.
        -13    1    3    3    0    0 -0.25991183411E+02 -0.11140612314E+03 -0.29993337321E+02  0.11826439097E+03  0.00000000000E+00 0. -1.
          4    1    6    6  502    0  0.35842040255E+02 -0.22269881464E+01 -0.45901894993E+02  0.58280316487E+02  0.00000000000E+00 0. -1.
          3    1    5    5  503    0 -0.29483217618E+03  0.34994862948E+03 -0.55816170820E+03  0.72175795658E+03  0.00000000000E+00 0. -1.
         -4    1    5    5    0  503 -0.70673818375E+02  0.11723729584E+03 -0.23471647804E+03  0.27171896732E+03  0.00000000000E+00 0.  1.
         -3    1    6    6    0  502  0.28654384018E+03 -0.59997657693E+02 -0.94151075790E+02  0.30752482232E+03  0.00000000000E+00 0.  1.
<mgrwt>
<rscale>  0 0.14812042E+04</rscale>
<asrwt>0</asrwt>
<pdfrwt beam="1">  1        2 0.21288106E+00 0.14812042E+04</pdfrwt>
<pdfrwt beam="2">  1       -2 0.60982632E-01 0.14812042E+04</pdfrwt>
<totfact> 0.35792076E+01</totfact>
</mgrwt>
</event>
<event>
12    1  0.2214165E-007  0.3130119E+04  0.7818608E-02  0.8207520E-01
         -1   -1    0    0    0  501 -0.00000000000E+00  0.00000000000E+00  0.17676038029E+04  0.17676038029E+04  0.00000000000E+00 0.  1.
          1   -1    0    0  501    0  0.00000000000E+00 -0.00000000000E+00 -0.13857238332E+04  0.13857238332E+04  0.00000000000E+00 0. -1.
         23    2    1    2    0    0  0.91920455246E+03  0.98129545300E+03  0.67725144181E+03  0.15081389739E+04  0.89083521732E+02 0.  0.
        254    2    1    2    0    0 -0.91920455246E+03 -0.98129545300E+03 -0.29537147212E+03  0.16451886622E+04  0.90084607589E+03 0.  0.
        -24    2    4    4    0    0 -0.10380714198E+04 -0.58034692490E+03 -0.19637771198E+03  0.12080575110E+04  0.80274019932E+02 0.  0.
         24    2    4    4    0    0  0.11886686737E+03 -0.40094852810E+03 -0.98993760136E+02  0.43713115120E+03  0.79967646338E+02 0.  0.
         13    1    3    3    0    0  0.25611171810E+03  0.32348762501E+03  0.23305568229E+03  0.47386960942E+03  0.00000000000E+00 0.  1.
        -13    1    3    3    0    0  0.66309283436E+03  0.65780782798E+03  0.44419575951E+03  0.10342693645E+04  0.00000000000E+00 0. -1.
          4    1    6    6  502    0  0.10860141641E+03 -0.37904823752E+03 -0.11169244066E+03  0.40981341524E+03  0.00000000000E+00 0. -1.
          3    1    5    5  503    0 -0.97631006413E+03 -0.52500659172E+03 -0.19192363283E+03  0.11250101971E+04  0.00000000000E+00 0. -1.
         -4    1    5    5    0  503 -0.61761355700E+02 -0.55340333181E+02 -0.44540791497E+01  0.83047313958E+02  0.00000000000E+00 0.  1.
         -3    1    6    6    0  502  0.10265450963E+02 -0.21900290580E+02  0.12698680521E+02  0.27317735960E+02  0.00000000000E+00 0.  1.
<mgrwt>
<rscale>  0 0.31301187E+04</rscale>
<asrwt>0</asrwt>
<pdfrwt beam="1">  1        1 0.21318828E+00 0.31301187E+04</pdfrwt>
<pdfrwt beam="2">  1       -1 0.27193905E+00 0.31301187E+04</pdfrwt>
<totfact> 0.33215028E-01</totfact>
</mgrwt>
</event>
<event>
12    1  0.2214165E-007  0.1500280E+04  0.7818608E-02  0.8884267E-01
         -2   -1    0    0    0  501 -0.00000000000E+00  0.00000000000E+00  0.55696261386E+03  0.55696261386E+03  0.00000000000E+00 0.  1.
          2   -1    0    0  501    0  0.00000000000E+00 -0.00000000000E+00 -0.10103192454E+04  0.10103192454E+04  0.00000000000E+00 0. -1.
         23    2    1    2    0    0  0.41108975792E+03 -0.33680868683E+02  0.10539669694E+03  0.43573714686E+03  0.92893527484E+02 0.  0.
        254    2    1    2    0    0 -0.41108975792E+03  0.33680868683E+02 -0.55875332851E+03  0.11315447124E+04  0.89334145999E+03 0.  0.
        -24    2    4    4    0    0 -0.67928936485E+03  0.99741973701E+01 -0.29371826382E+03  0.74437066313E+03  0.79270043635E+02 0.  0.
         24    2    4    4    0    0  0.26819960693E+03  0.23706671313E+02 -0.26503506469E+03  0.38717404930E+03  0.84658865557E+02 0.  0.
         13    1    3    3    0    0  0.33237519577E+03 -0.46248268914E+02  0.51479271744E+02  0.33950300228E+03  0.00000000000E+00 0. -1.
        -13    1    3    3    0    0  0.78714562151E+02  0.12567400232E+02  0.53917425196E+02  0.96234144579E+02  0.00000000000E+00 0.  1.
          2    1    6    6  502    0  0.83785300219E+02  0.39129606762E+02 -0.56498946617E+02  0.10836620150E+03  0.00000000000E+00 0. -1.
          3    1    5    5  503    0 -0.46637014067E+03 -0.20003462389E+02 -0.22818902662E+03  0.51958779670E+03  0.00000000000E+00 0. -1.
         -4    1    5    5    0  503 -0.21291922418E+03  0.29977659759E+02 -0.65529237194E+02  0.22478286642E+03  0.00000000000E+00 0.  1.
         -1    1    6    6    0  502  0.18441430671E+03 -0.15422935450E+02 -0.20853611808E+03  0.27880784781E+03  0.00000000000E+00 0.  1.
<mgrwt>
<rscale>  0 0.15002800E+04</rscale>
<asrwt>0</asrwt>
<pdfrwt beam="1">  1        2 0.15543373E+00 0.15002800E+04</pdfrwt>
<pdfrwt beam="2">  1       -2 0.85686556E-01 0.15002800E+04</pdfrwt>
<totfact> 0.28360770E+01</totfact>
</mgrwt>
</event>
<event>
12    1  0.2214165E-007  0.2960990E+04  0.7818608E-02  0.8254959E-01
         -1   -1    0    0    0  501 -0.00000000000E+00  0.00000000000E+00  0.75090886835E+03  0.75090886835E+03  0.00000000000E+00 0.  1.
          1   -1    0    0  501    0  0.00000000000E+00 -0.00000000000E+00 -0.29189494394E+04  0.29189494394E+04  0.00000000000E+00 0. -1.
         23    2    1    2    0    0 -0.13847101933E+03  0.11059561513E+04 -0.19102822484E+04  0.22135769544E+04  0.91822834194E+02 0.  0.
        254    2    1    2    0    0  0.13847101933E+03 -0.11059561513E+04 -0.25775832264E+03  0.14562813533E+04  0.90111197710E+03 0.  0.
        -24    2    4    4    0    0 -0.12025588427E+02 -0.86133832586E+03 -0.56075818101E+03  0.10312905505E+04  0.84036513632E+02 0.  0.
         24    2    4    4    0    0  0.15049660775E+03 -0.24461782545E+03  0.30299985837E+03  0.42499080279E+03  0.79505715621E+02 0.  0.
         11    1    3    3    0    0 -0.50539351161E+01  0.27562802127E+02 -0.24934371804E+02  0.37509641674E+02  0.00000000000E+00 0.  1.
        -11    1    3    3    0    0 -0.13341708421E+03  0.10783933492E+04 -0.18853478766E+04  0.21760673128E+04  0.00000000000E+00 0. -1.
          2    1    6    6  502    0  0.15785929364E+03 -0.22519840900E+03  0.26627636026E+03  0.38280148907E+03  0.00000000000E+00 0. -1.
          1    1    5    5  503    0 -0.21051032209E+02 -0.60744833130E+03 -0.43766033319E+03  0.74898810966E+03  0.00000000000E+00 0. -1.
         -2    1    5    5    0  503  0.90254437827E+01 -0.25388999456E+03 -0.12309784782E+03  0.28230244085E+03  0.00000000000E+00 0.  1.
         -1    1    6    6    0  502 -0.73626858894E+01 -0.19419416449E+02  0.36723498110E+02  0.42189313720E+02  0.00000000000E+00 0.  1.
<mgrwt>
<rscale>  0 0.29609897E+04</rscale>
<asrwt>0</asrwt>
<pdfrwt beam="1">  1        1 0.44906916E+00 0.29609897E+04</pdfrwt>
<pdfrwt beam="2">  1       -1 0.11552444E+00 0.29609897E+04</pdfrwt>
<totfact> 0.39659662E-01</totfact>
</mgrwt>
</event>
<event>
12    1  0.2214165E-007  0.3067980E+04  0.7818608E-02  0.8224581E-01
         -1   -1    0    0    0  501 -0.00000000000E+00  0.00000000000E+00  0.24947340022E+04  0.24947340022E+04  0.00000000000E+00 0.  1.
          1   -1    0    0  501    0  0.00000000000E+00 -0.00000000000E+00 -0.94323697727E+03  0.94323697727E+03  0.00000000000E+00 0. -1.
         23    2    1    2    0    0 -0.52023553214E+03  0.59117970891E+03 -0.58801304276E+03  0.98695157088E+03  0.90419067042E+02 0.  0.
        254    2    1    2    0    0  0.52023553214E+03 -0.59117970891E+03  0.21395100677E+04  0.24510194086E+04  0.89991908213E+03 0.  0.
        -24    2    4    4    0    0 -0.80937012907E+02  0.15066971681E+03  0.14293341784E+03  0.23641877431E+03  0.78814410399E+02 0.  0.
         24    2    4    4    0    0  0.60117254505E+03 -0.74184942572E+03  0.19965766498E+04  0.22146006342E+04  0.79929038815E+02 0.  0.
         11    1    3    3    0    0 -0.28180254372E+03  0.34244574577E+03 -0.27771117827E+03  0.52326404518E+03  0.00000000000E+00 0.  1.
        -11    1    3    3    0    0 -0.23843298842E+03  0.24873396314E+03 -0.31030186448E+03  0.46368752570E+03  0.00000000000E+00 0. -1.
          2    1    6    6  502    0  0.60283805840E+03 -0.73710982291E+03  0.19915656657E+04  0.22075050207E+04  0.00000000000E+00 0. -1.
          1    1    5    5  503    0 -0.91332568455E+02  0.13964546744E+03  0.10914119838E+03  0.19938479336E+03  0.00000000000E+00 0. -1.
         -2    1    5    5    0  503  0.10395555548E+02  0.11024249376E+02  0.33792219456E+02  0.37033980953E+02  0.00000000000E+00 0.  1.
         -1    1    6    6    0  502 -0.16655133500E+01 -0.47396028111E+01  0.50109841008E+01  0.70956135171E+01  0.00000000000E+00 0.  1.
<mgrwt>
<rscale>  0 0.30679800E+04</rscale>
<asrwt>0</asrwt>
<pdfrwt beam="1">  1        1 0.14511338E+00 0.30679800E+04</pdfrwt>
<pdfrwt beam="2">  1       -1 0.38380523E+00 0.30679800E+04</pdfrwt>
<totfact> 0.13086356E-01</totfact>
</mgrwt>
</event>
<event>
12    1  0.2214165E-007  0.2243607E+04  0.7818608E-02  0.8500494E-01
         -2   -1    0    0    0  501 -0.00000000000E+00  0.00000000000E+00  0.10275562655E+04  0.10275562655E+04  0.00000000000E+00 0. -1.
          2   -1    0    0  501    0  0.00000000000E+00 -0.00000000000E+00 -0.12246951286E+04  0.12246951286E+04  0.00000000000E+00 0.  1.
         23    2    1    2    0    0  0.17819419905E+03 -0.83621311150E+03  0.30565722875E+03  0.91212922710E+03  0.86878334518E+02 0.  0.
        254    2    1    2    0    0 -0.17819419905E+03  0.83621311150E+03 -0.50279609185E+03  0.13401221671E+04  0.90117588314E+03 0.  0.
        -24    2    4    4    0    0 -0.47351901481E+03  0.27888433497E+03 -0.42663363005E+03  0.70020992670E+03  0.79252491935E+02 0.  0.
         24    2    4    4    0    0  0.29532481576E+03  0.55732877653E+03 -0.76162461797E+02  0.63991224040E+03  0.76516944980E+02 0.  0.
         13    1    3    3    0    0  0.12919272578E+03 -0.51065954683E+03  0.22738670166E+03  0.57373220692E+03  0.00000000000E+00 0. -1.
        -13    1    3    3    0    0  0.49001473271E+02 -0.32555356467E+03  0.78270527093E+02  0.33839702018E+03  0.00000000000E+00 0.  1.
          4    1    6    6  502    0  0.28328941888E+03  0.48212631114E+03 -0.65893911457E+02  0.56306365742E+03  0.00000000000E+00 0. -1.
          3    1    5    5  503    0 -0.40028117272E+03  0.20093879847E+03 -0.33388804237E+03  0.55864357403E+03  0.00000000000E+00 0. -1.
         -4    1    5    5    0  503 -0.73237842094E+02  0.77945536502E+02 -0.92745587679E+02  0.14156635267E+03  0.00000000000E+00 0.  1.
         -3    1    6    6    0  502  0.12035396879E+02  0.75202465394E+02 -0.10268550340E+02  0.76848582976E+02  0.00000000000E+00 0.  1.
<mgrwt>
<rscale>  0 0.22436071E+04</rscale>
<asrwt>0</asrwt>
<pdfrwt beam="1">  1        2 0.18841464E+00 0.22436071E+04</pdfrwt>
<pdfrwt beam="2">  1       -2 0.15808558E+00 0.22436071E+04</pdfrwt>
<totfact> 0.43406151E+00</totfact>
</mgrwt>
</event>
<event>
12    1  0.2214165E-007  0.1218348E+04  0.7818608E-02  0.9096947E-01
         -1   -1    0    0    0  501 -0.00000000000E+00  0.00000000000E+00  0.38063628476E+03  0.38063628476E+03  0.00000000000E+00 0.  1.
          1   -1    0    0  501    0  0.00000000000E+00 -0.00000000000E+00 -0.97492771446E+03  0.97492771446E+03  0.00000000000E+00 0. -1.
         23    2    1    2    0    0 -0.15206231258E+03 -0.21728256343E+02 -0.37550894454E+03  0.41633986722E+03  0.93471137661E+02 0.  0.
        254    2    1    2    0    0  0.15206231258E+03  0.21728256343E+02 -0.21878248515E+03  0.93922413200E+03  0.90037832620E+03 0.  0.
        -24    2    4    4    0    0  0.25834434017E+03 -0.22796932566E+03 -0.45115478687E+03  0.57347541664E+03  0.81373215714E+02 0.  0.
         24    2    4    4    0    0 -0.10628202760E+03  0.24969758201E+03  0.23237230171E+03  0.36574871535E+03  0.78297409474E+02 0.  0.
         11    1    3    3    0    0 -0.28602428540E+02 -0.26413035174E+02 -0.18659034041E+03  0.19060876810E+03  0.00000000000E+00 0. -1.
        -11    1    3    3    0    0 -0.12345988404E+03  0.46847788309E+01 -0.18891860414E+03  0.22573109912E+03  0.00000000000E+00 0.  1.
          2    1    6    6  502    0 -0.15499115601E+02  0.63597444878E+02  0.10155821645E+03  0.12082602745E+03  0.00000000000E+00 0. -1.
          3    1    5    5  503    0  0.42859355297E+02 -0.69801109013E+02 -0.14919351612E+03  0.17019936665E+03  0.00000000000E+00 0. -1.
         -4    1    5    5    0  503  0.21548498488E+03 -0.15816821665E+03 -0.30196127075E+03  0.40327605000E+03  0.00000000000E+00 0.  1.
         -1    1    6    6    0  502 -0.90782911995E+02  0.18610013713E+03  0.13081408526E+03  0.24492268791E+03  0.00000000000E+00 0.  1.
<mgrwt>
<rscale>  0 0.12183478E+04</rscale>
<asrwt>0</asrwt>
<pdfrwt beam="1">  1        1 0.14998888E+00 0.12183478E+04</pdfrwt>
<pdfrwt beam="2">  1       -1 0.58559429E-01 0.12183478E+04</pdfrwt>
<totfact> 0.46250742E+01</totfact>
</mgrwt>
</event>
<event>
12    1  0.2214165E-007  0.3012514E+04  0.7818608E-02  0.8240166E-01
          2   -1    0    0  501    0  0.00000000000E+00  0.00000000000E+00  0.33045141390E+04  0.33045141390E+04  0.00000000000E+00 0. -1.
         -2   -1    0    0    0  501 -0.00000000000E+00 -0.00000000000E+00 -0.68657903242E+03  0.68657903242E+03  0.00000000000E+00 0.  1.
         23    2    1    2    0    0  0.72266431615E+03 -0.79275646495E+03  0.23239646045E+04  0.25612646897E+04  0.92513787995E+02 0.  0.
        254    2    1    2    0    0 -0.72266431615E+03  0.79275646495E+03  0.29397050207E+03  0.14298284818E+04  0.89849001365E+03 0.  0.
        -24    2    4    4    0    0 -0.18851872600E+03  0.13152213301E+03 -0.30185470309E+03  0.38802428925E+03  0.81297021727E+02 0.  0.
         24    2    4    4    0    0 -0.53414559014E+03  0.66123433194E+03  0.59582520516E+03  0.10418041925E+04  0.88351271849E+02 0.  0.
         11    1    3    3    0    0  0.24110917430E+03 -0.29965075006E+03  0.74485746163E+03  0.83829400815E+03  0.00000000000E+00 0.  1.
        -11    1    3    3    0    0  0.48155514185E+03 -0.49310571489E+03  0.15791071429E+04  0.17229706815E+04  0.00000000000E+00 0. -1.
          2    1    6    6  502    0 -0.24112320540E+03  0.23799749635E+03  0.26171152444E+03  0.42810761553E+03  0.00000000000E+00 0. -1.
          3    1    5    5  503    0 -0.40465444047E+02  0.64700811211E+02 -0.61903975053E+02  0.98263672131E+02  0.00000000000E+00 0. -1.
         -4    1    5    5    0  503 -0.14805328196E+03  0.66821321797E+02 -0.23995072804E+03  0.28976061712E+03  0.00000000000E+00 0.  1.
         -3    1    6    6    0  502 -0.29302238475E+03  0.42323683559E+03  0.33411368072E+03  0.61369657699E+03  0.00000000000E+00 0.  1.
<mgrwt>
<rscale>  0 0.30125140E+04</rscale>
<asrwt>0</asrwt>
<pdfrwt beam="1">  1        2 0.50838678E+00 0.30125140E+04</pdfrwt>
<pdfrwt beam="2">  1       -2 0.10562755E+00 0.30125140E+04</pdfrwt>
<totfact> 0.68489217E-01</totfact>
</mgrwt>
</event>
<event>
12    1  0.2214165E-007  0.2477347E+04  0.7818608E-02  0.8411100E-01
         -2   -1    0    0    0  501 -0.00000000000E+00  0.00000000000E+00  0.66061818017E+03  0.66061818017E+03  0.00000000000E+00 0.  1.
          2   -1    0    0  501    0  0.00000000000E+00 -0.00000000000E+00 -0.23225407087E+04  0.23225407087E+04  0.00000000000E+00 0. -1.
         23    2    1    2    0    0  0.91490905279E+03 -0.56134019869E+03 -0.71989960444E+03  0.12951835274E+04  0.84163742301E+02 0.  0.
        254    2    1    2    0    0 -0.91490905279E+03  0.56134019869E+03 -0.94202292408E+03  0.16879753615E+04  0.89982900488E+03 0.  0.
        -24    2    4    4    0    0 -0.28840782775E+03 -0.23297874424E+03 -0.33111382793E+03  0.50342715081E+03  0.79651483017E+02 0.  0.
         24    2    4    4    0    0 -0.62650122503E+03  0.79431894293E+03 -0.61090909615E+03  0.11845482107E+04  0.80611237660E+02 0.  0.
         13    1    3    3    0    0  0.99676420490E+02 -0.52751527203E+02 -0.10718096822E+03  0.15558236524E+03  0.00000000000E+00 0. -1.
        -13    1    3    3    0    0  0.81523263230E+03 -0.50858867148E+03 -0.61271863622E+03  0.11396011621E+04  0.00000000000E+00 0.  1.
          4    1    6    6  502    0 -0.34082290040E+03  0.49141676651E+03 -0.34265575285E+03  0.68924861466E+03  0.00000000000E+00 0. -1.
          3    1    5    5  503    0 -0.12881013498E+03 -0.60791363422E+02 -0.10040172823E+03  0.17426459127E+03  0.00000000000E+00 0. -1.
         -4    1    5    5    0  503 -0.15959769278E+03 -0.17218738082E+03 -0.23071209970E+03  0.32916255954E+03  0.00000000000E+00 0.  1.
         -3    1    6    6    0  502 -0.28567832463E+03  0.30290217642E+03 -0.26825334330E+03  0.49529959604E+03  0.00000000000E+00 0.  1.
<mgrwt>
<rscale>  0 0.24773475E+04</rscale>
<asrwt>0</asrwt>
<pdfrwt beam="1">  1        2 0.35731395E+00 0.24773475E+04</pdfrwt>
<pdfrwt beam="2">  1       -2 0.10163357E+00 0.24773475E+04</pdfrwt>
<totfact> 0.31253971E+00</totfact>
</mgrwt>
</event>
<event>
12    1  0.2214165E-007  0.3213029E+04  0.7818608E-02  0.8185385E-01
         -1   -1    0    0    0  501 -0.00000000000E+00  0.00000000000E+00  0.35434277758E+04  0.35434277758E+04  0.00000000000E+00 0.  1.
          1   -1    0    0  501    0  0.00000000000E+00 -0.00000000000E+00 -0.72835953166E+03  0.72835953166E+03  0.00000000000E+00 0. -1.
         23    2    1    2    0    0  0.11787212207E+04 -0.87435622928E+03  0.15436226799E+04  0.21317101749E+04  0.86802996050E+02 0.  0.
        254    2    1    2    0    0 -0.11787212207E+04  0.87435622928E+03  0.12714455642E+04  0.21400771326E+04  0.89970760741E+03 0.  0.
        -24    2    4    4    0    0 -0.62842477278E+03 -0.54481449011E+02  0.40774933457E+03  0.75533090478E+03  0.79870723963E+02 0.  0.
         24    2    4    4    0    0 -0.55029644787E+03  0.92883767829E+03  0.86369622968E+03  0.13847462278E+04  0.77364882688E+02 0.  0.
         13    1    3    3    0    0  0.42092277676E+03 -0.27313100015E+03  0.56616516037E+03  0.75651802098E+03  0.00000000000E+00 0.  1.
        -13    1    3    3    0    0  0.75779844389E+03 -0.60122522912E+03  0.97745751952E+03  0.13751921539E+04  0.00000000000E+00 0. -1.
          2    1    6    6  502    0 -0.11116180788E+03  0.22386574383E+03  0.23501969929E+03  0.34308465114E+03  0.00000000000E+00 0. -1.
          1    1    5    5  503    0 -0.60242668386E+03 -0.36511117872E+02  0.37942490714E+03  0.71289145830E+03  0.00000000000E+00 0. -1.
         -2    1    5    5    0  503 -0.25998088921E+02 -0.17970331139E+02  0.28324427429E+02  0.42439446485E+02  0.00000000000E+00 0.  1.
         -1    1    6    6    0  502 -0.43913464000E+03  0.70497193445E+03  0.62867653039E+03  0.10416615767E+04  0.00000000000E+00 0.  1.
<mgrwt>
<rscale>  0 0.32130293E+04</rscale>
<asrwt>0</asrwt>
<pdfrwt beam="1">  1        1 0.11205531E+00 0.32130293E+04</pdfrwt>
<pdfrwt beam="2">  1       -1 0.54514272E+00 0.32130293E+04</pdfrwt>
<totfact> 0.17008372E-02</totfact>
</mgrwt>
</event>
<event>
12    1  0.2214165E-007  0.2640091E+04  0.7818608E-02  0.8354709E-01
         -1   -1    0    0    0  501 -0.00000000000E+00  0.00000000000E+00  0.84552494737E+03  0.84552494737E+03  0.00000000000E+00 0.  1.
          1   -1    0    0  501    0  0.00000000000E+00 -0.00000000000E+00 -0.20608731082E+04  0.20608731082E+04  0.00000000000E+00 0. -1.
         23    2    1    2    0    0  0.30701730100E+03  0.10878823951E+04 -0.83538683885E+03  0.14085948245E+04  0.92306448878E+02 0.  0.
        254    2    1    2    0    0 -0.30701730100E+03 -0.10878823951E+04 -0.37996132202E+03  0.14978032311E+04  0.90625392913E+03 0.  0.
        -24    2    4    4    0    0 -0.33456243781E+03 -0.88817411015E+03 -0.64869457601E+03  0.11524000880E+04  0.80224902913E+02 0.  0.
         24    2    4    4    0    0  0.27545136807E+02 -0.19970828496E+03  0.26873325399E+03  0.34540314311E+03  0.80272260608E+02 0.  0.
         11    1    3    3    0    0  0.58643469709E+02  0.27533414019E+03 -0.25305237699E+03  0.37852800530E+03  0.00000000000E+00 0. -1.
        -11    1    3    3    0    0  0.24837383129E+03  0.81254825492E+03 -0.58233446186E+03  0.10300668192E+04  0.00000000000E+00 0.  1.
          4    1    6    6  502    0 -0.13302824858E+02 -0.92150186306E+02  0.72804752886E+02  0.11819117576E+03  0.00000000000E+00 0. -1.
          1    1    5    5  503    0 -0.20650266740E+03 -0.44803382800E+03 -0.35918796976E+03  0.61024065769E+03  0.00000000000E+00 0. -1.
         -2    1    5    5    0  503 -0.12805977041E+03 -0.44014028215E+03 -0.28950660625E+03  0.54215943027E+03  0.00000000000E+00 0.  1.
         -3    1    6    6    0  502  0.40847961664E+02 -0.10755809865E+03  0.19592850111E+03  0.22721196734E+03  0.00000000000E+00 0.  1.
<mgrwt>
<rscale>  0 0.26400906E+04</rscale>
<asrwt>0</asrwt>
<pdfrwt beam="1">  1        1 0.31705740E+00 0.26400906E+04</pdfrwt>
<pdfrwt beam="2">  1       -1 0.13008076E+00 0.26400906E+04</pdfrwt>
<totfact> 0.12038716E+00</totfact>
</mgrwt>
</event>
<event>
12    1  0.2214165E-007  0.1845678E+04  0.7818608E-02  0.8682378E-01
         -1   -1    0    0    0  501 -0.00000000000E+00  0.00000000000E+00  0.10996318543E+04  0.10996318543E+04  0.00000000000E+00 0.  1.
          1   -1    0    0  501    0  0.00000000000E+00 -0.00000000000E+00 -0.77447016651E+03  0.77447016651E+03  0.00000000000E+00 0. -1.
         23    2    1    2    0    0 -0.30786332126E+03  0.43105914700E+03 -0.33878754675E+03  0.63544863831E+03  0.91794102801E+02 0.  0.
        254    2    1    2    0    0  0.30786332126E+03 -0.43105914700E+03  0.66394923459E+03  0.12386533825E+04  0.90157739723E+03 0.  0.
        -24    2    4    4    0    0  0.14611562349E+03  0.27217700914E+03  0.21574025136E+03  0.38535629344E+03  0.80780672820E+02 0.  0.
         24    2    4    4    0    0  0.16174769777E+03 -0.70323615614E+03  0.44820898323E+03  0.85329708911E+03  0.80754074766E+02 0.  0.
         11    1    3    3    0    0 -0.17016831850E+03  0.31261557632E+03 -0.22036433988E+03  0.41862417210E+03  0.00000000000E+00 0.  1.
        -11    1    3    3    0    0 -0.13769500277E+03  0.11844357069E+03 -0.11842320687E+03  0.21682446622E+03  0.00000000000E+00 0. -1.
          2    1    6    6  502    0  0.43313348274E+02 -0.18424975973E+03  0.16068635166E+03  0.24828234675E+03  0.00000000000E+00 0. -1.
          3    1    5    5  503    0  0.79276006811E+01  0.61146456632E+02  0.72874305917E+02  0.95458894159E+02  0.00000000000E+00 0. -1.
         -4    1    5    5    0  503  0.13818802281E+03  0.21103055251E+03  0.14286594545E+03  0.28989739928E+03  0.00000000000E+00 0.  1.
         -1    1    6    6    0  502  0.11843434949E+03 -0.51898639641E+03  0.28752263157E+03  0.60501474236E+03  0.00000000000E+00 0.  1.
<mgrwt>
<rscale>  0 0.18456783E+04</rscale>
<asrwt>0</asrwt>
<pdfrwt beam="1">  1        1 0.11914926E+00 0.18456783E+04</pdfrwt>
<pdfrwt beam="2">  1       -1 0.16917413E+00 0.18456783E+04</pdfrwt>
<totfact> 0.54613783E+00</totfact>
</mgrwt>
</event>
<event>
12    1  0.2214165E-007  0.2170580E+04  0.7818608E-02  0.8530774E-01
          2   -1    0    0  501    0  0.00000000000E+00  0.00000000000E+00  0.21636944764E+04  0.21636944764E+04  0.00000000000E+00 0. -1.
         -2   -1    0    0    0  501 -0.00000000000E+00 -0.00000000000E+00 -0.54437170409E+03  0.54437170409E+03  0.00000000000E+00 0.  1.
         23    2    1    2    0    0  0.13839841972E+03 -0.73851636696E+03  0.12681666931E+04  0.14768730281E+04  0.91359907743E+02 0.  0.
        254    2    1    2    0    0 -0.13839841972E+03  0.73851636696E+03  0.35115607926E+03  0.12311931525E+04  0.90992606283E+03 0.  0.
        -24    2    4    4    0    0  0.29385746672E+03  0.35916549581E+03  0.43937815171E+03  0.64403471368E+03  0.79846653589E+02 0.  0.
         24    2    4    4    0    0 -0.43225588644E+03  0.37935087115E+03 -0.88222072445E+02  0.58715843878E+03  0.78864842401E+02 0.  0.
         13    1    3    3    0    0  0.88438006882E+02 -0.24440911635E+03  0.41418372548E+03  0.48898390123E+03  0.00000000000E+00 0.  1.
        -13    1    3    3    0    0  0.49960412836E+02 -0.49410725061E+03  0.85398296761E+03  0.98788912683E+03  0.00000000000E+00 0. -1.
          4    1    6    6  502    0 -0.21471526006E+03  0.23859483228E+03 -0.37931642254E+02  0.32321656266E+03  0.00000000000E+00 0. -1.
          3    1    5    5  503    0  0.18694763234E+03  0.16571504882E+03  0.22942509736E+03  0.33918545066E+03  0.00000000000E+00 0. -1.
         -4    1    5    5    0  503  0.10690983438E+03  0.19345044699E+03  0.20995305435E+03  0.30484926301E+03  0.00000000000E+00 0.  1.
         -3    1    6    6    0  502 -0.21754062638E+03  0.14075603886E+03 -0.50290430192E+02  0.26394187612E+03  0.00000000000E+00 0.  1.
<mgrwt>
<rscale>  0 0.21705797E+04</rscale>
<asrwt>0</asrwt>
<pdfrwt beam="1">  1        2 0.33287607E+00 0.21705797E+04</pdfrwt>
<pdfrwt beam="2">  1       -2 0.83749494E-01 0.21705797E+04</pdfrwt>
<totfact> 0.61794829E+00</totfact>
</mgrwt>
</event>
<event>
12    1  0.2214165E-007  0.3708167E+04  0.7818608E-02  0.8066154E-01
         -2   -1    0    0    0  501 -0.00000000000E+00  0.00000000000E+00  0.25013750383E+04  0.25013750383E+04  0.00000000000E+00 0. -1.
          2   -1    0    0  501    0  0.00000000000E+00 -0.00000000000E+00 -0.13742946556E+04  0.13742946556E+04  0.00000000000E+00 0.  1.
         23    2    1    2    0    0  0.17399793592E+04  0.10828638174E+03  0.53440857825E+03  0.18256179126E+04  0.89633271935E+02 0.  0.
        254    2    1    2    0    0 -0.17399793592E+04 -0.10828638174E+03  0.59267180448E+03  0.20500517814E+04  0.90122046563E+03 0.  0.
        -24    2    4    4    0    0 -0.13714907469E+04  0.23773906518E+03  0.20747478420E+03  0.14095501121E+04  0.79240145317E+02 0.  0.
         24    2    4    4    0    0 -0.36848861231E+03 -0.34602544692E+03  0.38519702028E+03  0.64050166927E+03  0.79675445282E+02 0.  0.
         11    1    3    3    0    0  0.10307808255E+04  0.96858359667E+02  0.34797379370E+03  0.10922345962E+04  0.00000000000E+00 0. -1.
        -11    1    3    3    0    0  0.70919853365E+03  0.11428022072E+02  0.18643478455E+03  0.73338331635E+03  0.00000000000E+00 0.  1.
          4    1    6    6  502    0 -0.34904695614E+03 -0.29524742769E+03  0.33883347660E+03  0.56904564493E+03  0.00000000000E+00 0. -1.
          1    1    5    5  503    0 -0.13258336971E+04  0.24375426436E+03  0.19772905877E+03  0.13624785923E+04  0.00000000000E+00 0. -1.
         -2    1    5    5    0  503 -0.45657049789E+02 -0.60151991858E+01  0.97457254216E+01  0.47071519847E+02  0.00000000000E+00 0.  1.
         -3    1    6    6    0  502 -0.19441656171E+02 -0.50778019225E+02  0.46363543683E+02  0.71456024336E+02  0.00000000000E+00 0.  1.
<mgrwt>
<rscale>  0 0.37081674E+04</rscale>
<asrwt>0</asrwt>
<pdfrwt beam="1">  1        2 0.21142995E+00 0.37081674E+04</pdfrwt>
<pdfrwt beam="2">  1       -2 0.38482693E+00 0.37081674E+04</pdfrwt>
<totfact> 0.11262174E-01</totfact>
</mgrwt>
</event>
<event>
12    1  0.2214165E-007  0.1648484E+04  0.7818608E-02  0.8791304E-01
          1   -1    0    0  501    0  0.00000000000E+00  0.00000000000E+00  0.43086921623E+03  0.43086921623E+03  0.00000000000E+00 0. -1.
         -1   -1    0    0    0  501 -0.00000000000E+00 -0.00000000000E+00 -0.15767535703E+04  0.15767535703E+04  0.00000000000E+00 0.  1.
         23    2    1    2    0    0  0.46910578752E+03 -0.32895390279E+03 -0.42282108017E+03  0.71779933382E+03  0.90483743073E+02 0.  0.
        254    2    1    2    0    0 -0.46910578752E+03  0.32895390279E+03 -0.72306327387E+03  0.12898234527E+04  0.90141729017E+03 0.  0.
        -24    2    4    4    0    0 -0.64252101120E+03  0.23932083425E+03 -0.18899810199E+03  0.71565667752E+03  0.79602047624E+02 0.  0.
         24    2    4    4    0    0  0.17341522369E+03  0.89633068531E+02 -0.53406517189E+03  0.57416677516E+03  0.79592405986E+02 0.  0.
         11    1    3    3    0    0  0.13579238688E+03 -0.83868646790E+02 -0.70879957808E+02  0.17463530762E+03  0.00000000000E+00 0. -1.
        -11    1    3    3    0    0  0.33331340064E+03 -0.24508525600E+03 -0.35194112237E+03  0.54316402621E+03  0.00000000000E+00 0.  1.
          2    1    6    6  502    0  0.21476109576E+02  0.23670548374E+02 -0.18566420783E+03  0.18839510665E+03  0.00000000000E+00 0. -1.
          1    1    5    5  503    0 -0.34284861593E+03  0.15371052544E+03 -0.70837259181E+02  0.38234803042E+03  0.00000000000E+00 0. -1.
         -2    1    5    5    0  503 -0.29967239527E+03  0.85610308815E+02 -0.11816084280E+03  0.33330864711E+03  0.00000000000E+00 0.  1.
         -1    1    6    6    0  502  0.15193911411E+03  0.65962520157E+02 -0.34840096406E+03  0.38577166850E+03  0.00000000000E+00 0.  1.
<mgrwt>
<rscale>  0 0.16484836E+04</rscale>
<asrwt>0</asrwt>
<pdfrwt beam="1">  1        1 0.66287573E-01 0.16484836E+04</pdfrwt>
<pdfrwt beam="2">  1       -1 0.24257747E+00 0.16484836E+04</pdfrwt>
<totfact> 0.40473653E+00</totfact>
</mgrwt>
</event>
<event>
12    1  0.2214165E-007  0.2607433E+04  0.7818608E-02  0.8365681E-01
         -1   -1    0    0    0  501 -0.00000000000E+00  0.00000000000E+00  0.21033702359E+04  0.21033702359E+04  0.00000000000E+00 0.  1.
          1   -1    0    0  501    0  0.00000000000E+00 -0.00000000000E+00 -0.80807322544E+03  0.80807322544E+03  0.00000000000E+00 0. -1.
         23    2    1    2    0    0  0.11402698216E+04 -0.10608368705E+03  0.50888848772E+03  0.12564252073E+04  0.90375847522E+02 0.  0.
        254    2    1    2    0    0 -0.11402698216E+04  0.10608368705E+03  0.78640852271E+03  0.16550182540E+04  0.89954324072E+03 0.  0.
        -24    2    4    4    0    0 -0.60775357650E+03 -0.26021053212E+03  0.74973188791E+03  0.10026602513E+04  0.78458556141E+02 0.  0.
         24    2    4    4    0    0 -0.53251624509E+03  0.36629421917E+03  0.36676634800E+02  0.65235800273E+03  0.80503303681E+02 0.  0.
         13    1    3    3    0    0  0.50445331921E+03 -0.38366009895E+02  0.27315636035E+03  0.57494303994E+03  0.00000000000E+00 0. -1.
        -13    1    3    3    0    0  0.63581650238E+03 -0.67717677153E+02  0.23573212737E+03  0.68148216732E+03  0.00000000000E+00 0.  1.
          2    1    6    6  502    0 -0.18399987936E+03  0.12428553967E+03 -0.25588828871E+02  0.22351205592E+03  0.00000000000E+00 0. -1.
          1    1    5    5  503    0 -0.52886497299E+03 -0.22326499225E+03  0.68720959034E+03  0.89543421727E+03  0.00000000000E+00 0. -1.
         -2    1    5    5    0  503 -0.78888603516E+02 -0.36945539875E+02  0.62522297571E+02  0.10722603404E+03  0.00000000000E+00 0.  1.
         -1    1    6    6    0  502 -0.34851636573E+03  0.24200867950E+03  0.62265463671E+02  0.42884594682E+03  0.00000000000E+00 0.  1.
<mgrwt>
<rscale>  0 0.26074334E+04</rscale>
<asrwt>0</asrwt>
<pdfrwt beam="1">  1        1 0.12431896E+00 0.26074334E+04</pdfrwt>
<pdfrwt beam="2">  1       -1 0.32359542E+00 0.26074334E+04</pdfrwt>
<totfact> 0.44399843E-01</totfact>
</mgrwt>
</event>
<event>
12    1  0.2214165E-007  0.1196717E+04  0.7818608E-02  0.9115735E-01
          2   -1    0    0  501    0  0.00000000000E+00  0.00000000000E+00  0.10420314789E+04  0.10420314789E+04  0.00000000000E+00 0.  1.
         -2   -1    0    0    0  501 -0.00000000000E+00 -0.00000000000E+00 -0.34359123753E+03  0.34359123753E+03  0.00000000000E+00 0. -1.
         23    2    1    2    0    0 -0.24370614988E+03 -0.39816569469E+01  0.20304321116E+03  0.33029177898E+03  0.91965061744E+02 0.  0.
        254    2    1    2    0    0  0.24370614988E+03  0.39816569469E+01  0.49539703021E+03  0.10553309375E+04  0.89938680718E+03 0.  0.
        -24    2    4    4    0    0 -0.18567844050E+02 -0.19511957971E+03  0.64989025045E+03  0.68334974600E+03  0.78696394534E+02 0.  0.
         24    2    4    4    0    0  0.26227399393E+03  0.19910123666E+03 -0.15449322023E+03  0.37198119146E+03  0.77928822470E+02 0.  0.
         11    1    3    3    0    0 -0.80469851059E+02  0.26742948106E+02  0.28781346697E+02  0.89548579668E+02  0.00000000000E+00 0. -1.
        -11    1    3    3    0    0 -0.16323629882E+03 -0.30724605053E+02  0.17426186446E+03  0.24074319931E+03  0.00000000000E+00 0.  1.
          2    1    6    6  502    0  0.22083203325E+03  0.13034475725E+03 -0.10149889847E+03  0.27578718070E+03  0.00000000000E+00 0. -1.
          3    1    5    5  503    0 -0.40361805003E+01 -0.15288743504E+03  0.58439062713E+03  0.60407223378E+03  0.00000000000E+00 0. -1.
         -4    1    5    5    0  503 -0.14531663550E+02 -0.42232144671E+02  0.65499623312E+02  0.79277512215E+02  0.00000000000E+00 0.  1.
         -1    1    6    6    0  502  0.41441960680E+02  0.68756479408E+02 -0.52994321767E+02  0.96194010755E+02  0.00000000000E+00 0.  1.
<mgrwt>
<rscale>  0 0.11967170E+04</rscale>
<asrwt>0</asrwt>
<pdfrwt beam="1">  1        2 0.16031253E+00 0.11967170E+04</pdfrwt>
<pdfrwt beam="2">  1       -2 0.52860191E-01 0.11967170E+04</pdfrwt>
<totfact> 0.78886399E+01</totfact>
</mgrwt>
</event>
<event>
12    1  0.2214165E-007  0.3133620E+04  0.7818608E-02  0.8206571E-01
          1   -1    0    0  501    0  0.00000000000E+00  0.00000000000E+00  0.16437870078E+04  0.16437870078E+04  0.00000000000E+00 0. -1.
         -1   -1    0    0    0  501 -0.00000000000E+00 -0.00000000000E+00 -0.14934380812E+04  0.14934380812E+04  0.00000000000E+00 0.  1.
         23    2    1    2    0    0  0.44248213967E+03 -0.13446232496E+04  0.30822784629E+03  0.14513412521E+04  0.87091317709E+02 0.  0.
        254    2    1    2    0    0 -0.44248213967E+03  0.13446232496E+04 -0.15787891964E+03  0.16858838368E+04  0.90192928258E+03 0.  0.
        -24    2    4    4    0    0  0.39143869575E+02  0.12976572945E+03 -0.32995529942E+03  0.36544998011E+03  0.79446845653E+02 0.  0.
         24    2    4    4    0    0 -0.48162600924E+03  0.12148575202E+04  0.17207637978E+03  0.13204338567E+04  0.78056918189E+02 0.  0.
         13    1    3    3    0    0  0.35385180701E+03 -0.11700894790E+04  0.27033650027E+03  0.12519593897E+04  0.00000000000E+00 0. -1.
        -13    1    3    3    0    0  0.88630332658E+02 -0.17453377065E+03  0.37891346015E+02  0.19938186243E+03  0.00000000000E+00 0.  1.
          2    1    6    6  502    0 -0.40763870320E+03  0.94835240973E+03  0.12343596131E+03  0.10396047528E+04  0.00000000000E+00 0. -1.
          1    1    5    5  503    0  0.56513323406E+02  0.10683341834E+03 -0.30221597882E+03  0.32548676295E+03  0.00000000000E+00 0. -1.
         -2    1    5    5    0  503 -0.17369453831E+02  0.22932311108E+02 -0.27739320596E+02  0.39963217165E+02  0.00000000000E+00 0.  1.
         -1    1    6    6    0  502 -0.73987306039E+02  0.26650511042E+03  0.48640418470E+02  0.28082910398E+03  0.00000000000E+00 0.  1.
<mgrwt>
<rscale>  0 0.31336203E+04</rscale>
<asrwt>0</asrwt>
<pdfrwt beam="1">  1        1 0.25289031E+00 0.31336203E+04</pdfrwt>
<pdfrwt beam="2">  1       -1 0.22975971E+00 0.31336203E+04</pdfrwt>
<totfact> 0.41510248E-01</totfact>
</mgrwt>
</event>
<event>
12    1  0.2214165E-007  0.2312126E+04  0.7818608E-02  0.8473155E-01
         -2   -1    0    0    0  501 -0.00000000000E+00  0.00000000000E+00  0.11605416989E+04  0.11605416989E+04  0.00000000000E+00 0.  1.
          2   -1    0    0  501    0  0.00000000000E+00 -0.00000000000E+00 -0.11516013272E+04  0.11516013272E+04  0.00000000000E+00 0. -1.
         23    2    1    2    0    0 -0.90899510367E+02 -0.88882142111E+03 -0.39652690513E+03  0.98145201439E+03  0.88024033397E+02 0.  0.
        254    2    1    2    0    0  0.90899510367E+02  0.88882142111E+03  0.40546727685E+03  0.13306910116E+04  0.89892636866E+03 0.  0.
        -24    2    4    4    0    0  0.44425088351E+02  0.10638368095E+04  0.32764732002E+03  0.11170536098E+04  0.82058852284E+02 0.  0.
         24    2    4    4    0    0  0.46474422016E+02 -0.17501538836E+03  0.77819956837E+02  0.21363740183E+03  0.82430186891E+02 0.  0.
         11    1    3    3    0    0 -0.90507348334E+01 -0.56452292354E+01 -0.27938600389E+01  0.11026788656E+02  0.00000000000E+00 0.  1.
        -11    1    3    3    0    0 -0.81848775533E+02 -0.88317619187E+03 -0.39373304509E+03  0.97042522574E+03  0.00000000000E+00 0. -1.
          4    1    6    6  502    0  0.19233767776E+02 -0.14541794629E+03  0.27540727005E+02  0.14924747425E+03  0.00000000000E+00 0. -1.
          3    1    5    5  503    0 -0.12714097509E+01  0.80314611890E+03  0.25330411062E+03  0.84214504525E+03  0.00000000000E+00 0. -1.
         -4    1    5    5    0  503  0.45696498102E+02  0.26069069057E+03  0.74343209393E+02  0.27490856457E+03  0.00000000000E+00 0.  1.
         -3    1    6    6    0  502  0.27240654240E+02 -0.29597442074E+02  0.50279229831E+02  0.64389927576E+02  0.00000000000E+00 0.  1.
<mgrwt>
<rscale>  0 0.23121257E+04</rscale>
<asrwt>0</asrwt>
<pdfrwt beam="1">  1        2 0.17716943E+00 0.23121257E+04</pdfrwt>
<pdfrwt beam="2">  1       -2 0.17854488E+00 0.23121257E+04</pdfrwt>
<totfact> 0.34048769E+00</totfact>
</mgrwt>
</event>
<event>
12    1  0.2214165E-007  0.3447513E+04  0.7818608E-02  0.8126343E-01
          2   -1    0    0  501    0  0.00000000000E+00  0.00000000000E+00  0.20427082864E+04  0.20427082864E+04  0.00000000000E+00 0. -1.
         -2   -1    0    0    0  501 -0.00000000000E+00 -0.00000000000E+00 -0.14546061700E+04  0.14546061700E+04  0.00000000000E+00 0.  1.
         23    2    1    2    0    0  0.61946077235E+03 -0.14617722045E+04  0.50111210310E+03  0.16676856776E+04  0.97737163746E+02 0.  0.
        254    2    1    2    0    0 -0.61946077235E+03  0.14617722045E+04  0.86990013305E+02  0.18296287787E+04  0.90524282883E+03 0.  0.
        -24    2    4    4    0    0 -0.65230826598E+03  0.14809694332E+04 -0.10018452032E+03  0.16233762871E+04  0.80852308222E+02 0.  0.
         24    2    4    4    0    0  0.32847493632E+02 -0.19197228676E+02  0.18717453362E+03  0.20625249155E+03  0.77835035855E+02 0.  0.
         13    1    3    3    0    0  0.12319087946E+03 -0.29240415241E+03  0.59702685432E+02  0.32286311616E+03  0.00000000000E+00 0.  1.
        -13    1    3    3    0    0  0.49626989289E+03 -0.11693680521E+04  0.44140941767E+03  0.13448225615E+04  0.00000000000E+00 0. -1.
          4    1    6    6  502    0  0.36032610396E+02 -0.46493070177E+02  0.11888415098E+03  0.13264009929E+03  0.00000000000E+00 0. -1.
          1    1    5    5  503    0 -0.60955764916E+03  0.14032069357E+04 -0.77826402681E+02  0.15318639564E+04  0.00000000000E+00 0. -1.
         -2    1    5    5    0  503 -0.42750616822E+02  0.77762497452E+02 -0.22358117637E+02  0.91512330715E+02  0.00000000000E+00 0.  1.
         -3    1    6    6    0  502 -0.31851167643E+01  0.27295841500E+02  0.68290382644E+02  0.73612392257E+02  0.00000000000E+00 0.  1.
<mgrwt>
<rscale>  0 0.34475128E+04</rscale>
<asrwt>0</asrwt>
<pdfrwt beam="1">  1        2 0.31426281E+00 0.34475128E+04</pdfrwt>
<pdfrwt beam="2">  1       -2 0.22378556E+00 0.34475128E+04</pdfrwt>
<totfact> 0.48825984E-01</totfact>
</mgrwt>
</event>
<event>
12    1  0.2214165E-007  0.1854968E+04  0.7818608E-02  0.8677602E-01
         -1   -1    0    0    0  501 -0.00000000000E+00  0.00000000000E+00  0.10842608867E+04  0.10842608867E+04  0.00000000000E+00 0.  1.
          1   -1    0    0  501    0  0.00000000000E+00 -0.00000000000E+00 -0.79337572403E+03  0.79337572403E+03  0.00000000000E+00 0. -1.
         23    2    1    2    0    0  0.42768035224E+03 -0.56165621171E+03  0.96247608436E+02  0.71826749329E+03  0.90974754415E+02 0.  0.
        254    2    1    2    0    0 -0.42768035224E+03  0.56165621171E+03  0.19463755419E+03  0.11593691174E+04  0.89882411464E+03 0.  0.
        -24    2    4    4    0    0 -0.46184930327E+03  0.33374035054E+03  0.50413113756E+03  0.76500256474E+03  0.79958237155E+02 0.  0.
         24    2    4    4    0    0  0.34168951029E+02  0.22791586117E+03 -0.30949358337E+03  0.39436655267E+03  0.81397436857E+02 0.  0.
         13    1    3    3    0    0  0.31592799896E+03 -0.35545386452E+03  0.41100153714E+02  0.47733339813E+03  0.00000000000E+00 0. -1.
        -13    1    3    3    0    0  0.11175235327E+03 -0.20620234719E+03  0.55147454722E+02  0.24093409516E+03  0.00000000000E+00 0.  1.
          4    1    6    6  502    0  0.40384913809E+02  0.55879465263E+02 -0.11965885306E+03  0.13810031505E+03  0.00000000000E+00 0. -1.
          3    1    5    5  503    0 -0.97991661810E+02  0.11155664555E+03  0.14553428685E+03  0.20791219204E+03  0.00000000000E+00 0. -1.
         -4    1    5    5    0  503 -0.36385764146E+03  0.22218370499E+03  0.35859685071E+03  0.55709037269E+03  0.00000000000E+00 0.  1.
         -3    1    6    6    0  502 -0.62159627803E+01  0.17203639590E+03 -0.18983473032E+03  0.25626623762E+03  0.00000000000E+00 0.  1.
<mgrwt>
<rscale>  0 0.18549677E+04</rscale>
<asrwt>0</asrwt>
<pdfrwt beam="1">  1        1 0.12205780E+00 0.18549677E+04</pdfrwt>
<pdfrwt beam="2">  1       -1 0.16680937E+00 0.18549677E+04</pdfrwt>
<totfact> 0.54672504E+00</totfact>
</mgrwt>
</event>
<event>
12    1  0.2214165E-007  0.2722350E+04  0.7818608E-02  0.8327790E-01
         -2   -1    0    0    0  501 -0.00000000000E+00  0.00000000000E+00  0.11458589919E+04  0.11458589919E+04  0.00000000000E+00 0.  1.
          2   -1    0    0  501    0  0.00000000000E+00 -0.00000000000E+00 -0.16169500195E+04  0.16169500195E+04  0.00000000000E+00 0. -1.
         23    2    1    2    0    0  0.81122242847E+03  0.28582012466E+03 -0.10727771682E+04  0.13780944928E+04  0.92296296598E+02 0.  0.
        254    2    1    2    0    0 -0.81122242847E+03 -0.28582012466E+03  0.60168614063E+03  0.13847145185E+04  0.90312408554E+03 0.  0.
        -24    2    4    4    0    0 -0.59585943567E+02  0.12673958623E+03  0.49132366324E+03  0.51650456251E+03  0.75925052874E+02 0.  0.
         24    2    4    4    0    0 -0.75163648490E+03 -0.41255971089E+03  0.11036247739E+03  0.86820995601E+03  0.80285308873E+02 0.  0.
         13    1    3    3    0    0  0.48616166098E+03  0.15256331898E+03 -0.70059737026E+03  0.86629406216E+03  0.00000000000E+00 0.  1.
        -13    1    3    3    0    0  0.32506076748E+03  0.13325680568E+03 -0.37217979798E+03  0.51180043068E+03  0.00000000000E+00 0. -1.
          4    1    6    6  502    0 -0.19150960135E+03 -0.66498846493E+02  0.29217822891E+02  0.20482115411E+03  0.00000000000E+00 0. -1.
          3    1    5    5  503    0 -0.20593070396E+01  0.11472795742E+01  0.12465427132E+03  0.12467655896E+03  0.00000000000E+00 0. -1.
         -4    1    5    5    0  503 -0.57526636527E+02  0.12559230665E+03  0.36666939192E+03  0.39182800356E+03  0.00000000000E+00 0.  1.
         -3    1    6    6    0  502 -0.56012688355E+03 -0.34606086440E+03  0.81144654502E+02  0.66338880191E+03  0.00000000000E+00 0.  1.
<mgrwt>
<rscale>  0 0.27223495E+04</rscale>
<asrwt>0</asrwt>
<pdfrwt beam="1">  1        2 0.24876154E+00 0.27223495E+04</pdfrwt>
<pdfrwt beam="2">  1       -2 0.17628600E+00 0.27223495E+04</pdfrwt>
<totfact> 0.18390142E+00</totfact>
</mgrwt>
</event>
<event>
12    1  0.2214165E-007  0.1531336E+04  0.7818608E-02  0.8863878E-01
         -2   -1    0    0    0  501 -0.00000000000E+00  0.00000000000E+00  0.20381012973E+03  0.20381012973E+03  0.00000000000E+00 0. -1.
          2   -1    0    0  501    0  0.00000000000E+00 -0.00000000000E+00 -0.28764403425E+04  0.28764403425E+04  0.00000000000E+00 0.  1.
         23    2    1    2    0    0  0.36057486065E+03 -0.33135225395E+03 -0.73056321701E+03  0.88428966045E+03  0.91853378827E+02 0.  0.
        254    2    1    2    0    0 -0.36057486065E+03  0.33135225395E+03 -0.19420669957E+04  0.21959608117E+04  0.90045051195E+03 0.  0.
        -24    2    4    4    0    0 -0.48875799461E+03  0.74904144941E+02 -0.44768158934E+03  0.67215724388E+03  0.82955089315E+02 0.  0.
         24    2    4    4    0    0  0.12818313396E+03  0.25644810901E+03 -0.14943854064E+04  0.15238035679E+04  0.81197427032E+02 0.  0.
         11    1    3    3    0    0  0.32437460488E+03 -0.25175428657E+03 -0.61143795941E+03  0.73651577262E+03  0.00000000000E+00 0.  1.
        -11    1    3    3    0    0  0.36200255764E+02 -0.79597967377E+02 -0.11912525760E+03  0.14777388784E+03  0.00000000000E+00 0. -1.
          2    1    6    6  502    0  0.81944661336E+02  0.22967582153E+03 -0.11837485385E+04  0.12086051931E+04  0.00000000000E+00 0. -1.
          3    1    5    5  503    0 -0.38359610228E+03  0.47001962823E+02 -0.30274357648E+03  0.49092649887E+03  0.00000000000E+00 0. -1.
         -4    1    5    5    0  503 -0.10516189233E+03  0.27902182119E+02 -0.14493801286E+03  0.18123074501E+03  0.00000000000E+00 0.  1.
         -1    1    6    6    0  502  0.46238472622E+02  0.26772287481E+02 -0.31063686793E+03  0.31519837475E+03  0.00000000000E+00 0.  1.
<mgrwt>
<rscale>  0 0.15313363E+04</rscale>
<asrwt>0</asrwt>
<pdfrwt beam="1">  1        2 0.44252928E+00 0.15313363E+04</pdfrwt>
<pdfrwt beam="2">  1       -2 0.31355405E-01 0.15313363E+04</pdfrwt>
<totfact> 0.19005663E+01</totfact>
</mgrwt>
</event>
<event>
12    1  0.2214165E-007  0.3750665E+04  0.7818608E-02  0.8056826E-01
          2   -1    0    0  501    0  0.00000000000E+00  0.00000000000E+00  0.21680503205E+04  0.21680503205E+04  0.00000000000E+00 0. -1.
         -2   -1    0    0    0  501 -0.00000000000E+00 -0.00000000000E+00 -0.16221360849E+04  0.16221360849E+04  0.00000000000E+00 0.  1.
         23    2    1    2    0    0 -0.11624085388E+04  0.78967858036E+03  0.13385908810E+04  0.19427631899E+04  0.87848699912E+02 0.  0.
        254    2    1    2    0    0  0.11624085388E+04 -0.78967858036E+03 -0.79267664539E+03  0.18474232154E+04  0.89991688574E+03 0.  0.
        -24    2    4    4    0    0  0.34165256936E+03 -0.41447741193E+03  0.12546708368E+03  0.55757738292E+03  0.81440442687E+02 0.  0.
         24    2    4    4    0    0  0.82075596948E+03 -0.37520116844E+03 -0.91814372907E+03  0.12898458325E+04  0.79360482150E+02 0.  0.
         11    1    3    3    0    0 -0.50934119313E+03  0.29914618427E+03  0.53510959198E+03  0.79703147116E+03  0.00000000000E+00 0.  1.
        -11    1    3    3    0    0 -0.65306734572E+03  0.49053239610E+03  0.80348128899E+03  0.11457317188E+04  0.00000000000E+00 0. -1.
          4    1    6    6  502    0  0.36415795635E+03 -0.12571286514E+03 -0.40895443347E+03  0.56183491373E+03  0.00000000000E+00 0. -1.
          3    1    5    5  503    0  0.49471533937E+02 -0.10932402295E+03  0.15276443961E+02  0.12096505448E+03  0.00000000000E+00 0. -1.
         -4    1    5    5    0  503  0.29218103543E+03 -0.30515338898E+03  0.11019063972E+03  0.43661232844E+03  0.00000000000E+00 0.  1.
         -3    1    6    6    0  502  0.45659801314E+03 -0.24948830329E+03 -0.50918929560E+03  0.72801091876E+03  0.00000000000E+00 0.  1.
<mgrwt>
<rscale>  0 0.37506654E+04</rscale>
<asrwt>0</asrwt>
<pdfrwt beam="1">  1        2 0.33354620E+00 0.37506654E+04</pdfrwt>
<pdfrwt beam="2">  1       -2 0.24955940E+00 0.37506654E+04</pdfrwt>
<totfact> 0.28019306E-01</totfact>
</mgrwt>
</event>
<event>
12    1  0.2214165E-007  0.2311633E+04  0.7818608E-02  0.8473348E-01
         -2   -1    0    0    0  501 -0.00000000000E+00  0.00000000000E+00  0.15711056127E+04  0.15711056127E+04  0.00000000000E+00 0.  1.
          2   -1    0    0  501    0  0.00000000000E+00 -0.00000000000E+00 -0.85030052259E+03  0.85030052259E+03  0.00000000000E+00 0. -1.
         23    2    1    2    0    0 -0.10948501042E+02 -0.96315588760E+03  0.48775184715E+03  0.10834051797E+04  0.89865374452E+02 0.  0.
        254    2    1    2    0    0  0.10948501042E+02  0.96315588760E+03  0.23305324292E+03  0.13380009555E+04  0.89896808036E+03 0.  0.
        -24    2    4    4    0    0  0.89964181794E+02 -0.11690829372E+03 -0.10451444194E+03  0.20097778735E+03  0.87793503667E+02 0.  0.
         24    2    4    4    0    0 -0.79015680752E+02  0.10800641813E+04  0.33756768485E+03  0.11370231682E+04  0.78023263064E+02 0.  0.
         13    1    3    3    0    0 -0.25412704655E+01 -0.28199020106E+03  0.97840929570E+02  0.29849251087E+03  0.00000000000E+00 0. -1.
        -13    1    3    3    0    0 -0.84072305765E+01 -0.68116568654E+03  0.38991091758E+03  0.78491266883E+03  0.00000000000E+00 0.  1.
          4    1    6    6  502    0 -0.74517779596E+02  0.10713575033E+04  0.34076927581E+03  0.11267135833E+04  0.00000000000E+00 0. -1.
          3    1    5    5  503    0  0.90239347828E+02 -0.62871430331E+02 -0.40492180545E+02  0.11719886234E+03  0.00000000000E+00 0. -1.
         -4    1    5    5    0  503 -0.27516603389E+00 -0.54036863391E+02 -0.64022261393E+02  0.83778925007E+02  0.00000000000E+00 0.  1.
         -3    1    6    6    0  502 -0.44979011553E+01  0.87066779967E+01 -0.32015909564E+01  0.10309584919E+02  0.00000000000E+00 0.  1.
<mgrwt>
<rscale>  0 0.23116331E+04</rscale>
<asrwt>0</asrwt>
<pdfrwt beam="1">  1        2 0.13081546E+00 0.23116331E+04</pdfrwt>
<pdfrwt beam="2">  1       -2 0.24170856E+00 0.23116331E+04</pdfrwt>
<totfact> 0.20767717E+00</totfact>
</mgrwt>
</event>
<event>
12    1  0.2214165E-007  0.4725520E+04  0.7818608E-02  0.7872302E-01
         -1   -1    0    0    0  501 -0.00000000000E+00  0.00000000000E+00  0.27802903894E+04  0.27802903894E+04  0.00000000000E+00 0.  1.
          1   -1    0    0  501    0  0.00000000000E+00 -0.00000000000E+00 -0.20079322346E+04  0.20079322346E+04  0.00000000000E+00 0. -1.
         23    2    1    2    0    0  0.63387350592E+03 -0.20326710968E+04  0.11883157778E+04  0.24400574403E+04  0.90766265717E+02 0.  0.
        254    2    1    2    0    0 -0.63387350592E+03  0.20326710968E+04 -0.41595762301E+03  0.23481651837E+04  0.89850519003E+03 0.  0.
        -24    2    4    4    0    0 -0.57965137343E+03  0.20952860996E+04 -0.31982373863E+03  0.21988429217E+04  0.80021351708E+02 0.  0.
         24    2    4    4    0    0 -0.54222132485E+02 -0.62615002790E+02 -0.96133884386E+02  0.14932226198E+03  0.78706645021E+02 0.  0.
         13    1    3    3    0    0  0.37484492644E+03 -0.10793714400E+04  0.66790792101E+03  0.13235000624E+04  0.00000000000E+00 0. -1.
        -13    1    3    3    0    0  0.25902857948E+03 -0.95329965683E+03  0.52040785675E+03  0.11165573779E+04  0.00000000000E+00 0.  1.
          2    1    6    6  502    0 -0.74565229645E+01  0.17773111821E+02 -0.28175626056E+02  0.34137210521E+02  0.00000000000E+00 0. -1.
          3    1    5    5  503    0 -0.26989853602E+03  0.10237795391E+04 -0.11746603869E+03  0.10652549153E+04  0.00000000000E+00 0. -1.
         -4    1    5    5    0  503 -0.30975283741E+03  0.10715065605E+04 -0.20235769994E+03  0.11335880064E+04  0.00000000000E+00 0.  1.
         -1    1    6    6    0  502 -0.46765609521E+02 -0.80388114611E+02 -0.67958258330E+02  0.11518505146E+03  0.00000000000E+00 0.  1.
<mgrwt>
<rscale>  0 0.47255199E+04</rscale>
<asrwt>0</asrwt>
<pdfrwt beam="1">  1        1 0.30891265E+00 0.47255199E+04</pdfrwt>
<pdfrwt beam="2">  1       -1 0.42773698E+00 0.47255199E+04</pdfrwt>
<totfact> 0.10019538E-02</totfact>
</mgrwt>
</event>
<event>
12    1  0.2214165E-007  0.1699736E+04  0.7818608E-02  0.8761515E-01
         -2   -1    0    0    0  501 -0.00000000000E+00  0.00000000000E+00  0.48696864509E+03  0.48696864509E+03  0.00000000000E+00 0.  1.
          2   -1    0    0  501    0  0.00000000000E+00 -0.00000000000E+00 -0.14832074272E+04  0.14832074272E+04  0.00000000000E+00 0. -1.
         23    2    1    2    0    0 -0.29999503692E+03 -0.51716762884E+03 -0.25253515761E+03  0.65545622384E+03  0.91594088515E+02 0.  0.
        254    2    1    2    0    0  0.29999503692E+03  0.51716762884E+03 -0.74370362452E+03  0.13147198485E+04  0.90439693739E+03 0.  0.
        -24    2    4    4    0    0  0.56977682532E+03  0.14177261301E+03 -0.28064548072E+03  0.65557755291E+03  0.79214503532E+02 0.  0.
         24    2    4    4    0    0 -0.26978178839E+03  0.37539501583E+03 -0.46305814380E+03  0.65914229556E+03  0.79637240028E+02 0.  0.
         13    1    3    3    0    0 -0.24256421140E+03 -0.33804484897E+03 -0.18822490249E+03  0.45666216231E+03  0.00000000000E+00 0. -1.
        -13    1    3    3    0    0 -0.57430825519E+02 -0.17912277987E+03 -0.64310255121E+02  0.19879406153E+03  0.00000000000E+00 0.  1.
          2    1    6    6  502    0 -0.20743916927E+02  0.10452522028E+02 -0.46197784901E+02  0.51708806174E+02  0.00000000000E+00 0. -1.
          3    1    5    5  503    0  0.27361616926E+01 -0.59095286373E+01 -0.29859242368E+01  0.71641365894E+01  0.00000000000E+00 0. -1.
         -4    1    5    5    0  503  0.56704066362E+03  0.14768214164E+03 -0.27765955648E+03  0.64841341632E+03  0.00000000000E+00 0.  1.
         -1    1    6    6    0  502 -0.24903787147E+03  0.36494249380E+03 -0.41686035890E+03  0.60743348939E+03  0.00000000000E+00 0.  1.
<mgrwt>
<rscale>  0 0.16997359E+04</rscale>
<asrwt>0</asrwt>
<pdfrwt beam="1">  1        2 0.22818575E+00 0.16997359E+04</pdfrwt>
<pdfrwt beam="2">  1       -2 0.74918254E-01 0.16997359E+04</pdfrwt>
<totfact> 0.19761684E+01</totfact>
</mgrwt>
</event>
<event>
12    1  0.2214165E-007  0.2101072E+04  0.7818608E-02  0.8560771E-01
          2   -1    0    0  501    0  0.00000000000E+00  0.00000000000E+00  0.18298591737E+04  0.18298591737E+04  0.00000000000E+00 0. -1.
         -2   -1    0    0    0  501 -0.00000000000E+00 -0.00000000000E+00 -0.60312048257E+03  0.60312048257E+03  0.00000000000E+00 0.  1.
         23    2    1    2    0    0  0.24361975381E+03  0.75034535004E+03  0.88298819330E+03  0.11877386111E+04  0.93199410116E+02 0.  0.
        254    2    1    2    0    0 -0.24361975381E+03 -0.75034535004E+03  0.34375049779E+03  0.12452410451E+04  0.90005118016E+03 0.  0.
        -24    2    4    4    0    0 -0.52147066477E+03 -0.40048946550E+03 -0.21930171770E+02  0.66238486567E+03  0.77131781026E+02 0.  0.
         24    2    4    4    0    0  0.27785091096E+03 -0.34985588454E+03  0.36568066956E+03  0.58285617944E+03  0.79991906750E+02 0.  0.
         13    1    3    3    0    0  0.20525061043E+03  0.65100679918E+03  0.80670044402E+03  0.10567418190E+04  0.00000000000E+00 0. -1.
        -13    1    3    3    0    0  0.38369143382E+02  0.99338550861E+02  0.76287749274E+02  0.13099679210E+03  0.00000000000E+00 0.  1.
          2    1    6    6  502    0 -0.14136473873E+01 -0.22281410340E+01 -0.31980808215E+01  0.41461708049E+01  0.00000000000E+00 0. -1.
          1    1    5    5  503    0 -0.76407015101E+01  0.15747603998E+01  0.52106518246E+01  0.93814221907E+01  0.00000000000E+00 0. -1.
         -2    1    5    5    0  503 -0.51382996326E+03 -0.40206422590E+03 -0.27140823595E+02  0.65300344348E+03  0.00000000000E+00 0.  1.
         -1    1    6    6    0  502  0.27926455835E+03 -0.34762774351E+03  0.36887875038E+03  0.57871000863E+03  0.00000000000E+00 0.  1.
<mgrwt>
<rscale>  0 0.21010717E+04</rscale>
<asrwt>0</asrwt>
<pdfrwt beam="1">  1        2 0.28151679E+00 0.21010717E+04</pdfrwt>
<pdfrwt beam="2">  1       -2 0.92787767E-01 0.21010717E+04</pdfrwt>
<totfact> 0.75358089E+00</totfact>
</mgrwt>
</event>
<event>
12    1  0.2214165E-007  0.1278559E+04  0.7818608E-02  0.9046743E-01
          2   -1    0    0  501    0  0.00000000000E+00  0.00000000000E+00  0.14117159509E+04  0.14117159509E+04  0.00000000000E+00 0. -1.
         -2   -1    0    0    0  501 -0.00000000000E+00 -0.00000000000E+00 -0.28949057472E+03  0.28949057472E+03  0.00000000000E+00 0.  1.
         23    2    1    2    0    0 -0.19759574764E+03 -0.72491973353E+02  0.59803979139E+03  0.64055260350E+03  0.91415972757E+02 0.  0.
        254    2    1    2    0    0  0.19759574764E+03  0.72491973353E+02  0.52418558476E+03  0.10606539221E+04  0.89772882848E+03 0.  0.
        -24    2    4    4    0    0 -0.25025328766E+03  0.21448524595E+02 -0.10400509791E+03  0.28332675508E+03  0.79813799346E+02 0.  0.
         24    2    4    4    0    0  0.44784903530E+03  0.51043448758E+02  0.62819068266E+03  0.77732716700E+03  0.80248356307E+02 0.  0.
         13    1    3    3    0    0 -0.88421446612E+02  0.70500541629E+01  0.17067266840E+03  0.19234660180E+03  0.00000000000E+00 0.  1.
        -13    1    3    3    0    0 -0.10917430103E+03 -0.79542027516E+02  0.42736712299E+03  0.44820600170E+03  0.00000000000E+00 0. -1.
          4    1    6    6  502    0  0.37046915571E+03  0.72393774952E+02  0.52377161577E+03  0.64561982580E+03  0.00000000000E+00 0. -1.
          1    1    5    5  503    0 -0.16340653149E+03 -0.10758771301E+02 -0.34077488628E+02  0.16726840982E+03  0.00000000000E+00 0. -1.
         -2    1    5    5    0  503 -0.86846756167E+02  0.32207295895E+02 -0.69927609277E+02  0.11605834526E+03  0.00000000000E+00 0.  1.
         -3    1    6    6    0  502  0.77379879594E+02 -0.21350326194E+02  0.10441906689E+03  0.13170734120E+03  0.00000000000E+00 0.  1.
<mgrwt>
<rscale>  0 0.12785593E+04</rscale>
<asrwt>0</asrwt>
<pdfrwt beam="1">  1        2 0.21718706E+00 0.12785593E+04</pdfrwt>
<pdfrwt beam="2">  1       -2 0.44537013E-01 0.12785593E+04</pdfrwt>
<totfact> 0.66844830E+01</totfact>
</mgrwt>
</event>
<event>
12    1  0.2214165E-007  0.2279684E+04  0.7818608E-02  0.8485975E-01
          1   -1    0    0  501    0  0.00000000000E+00  0.00000000000E+00  0.15505609047E+04  0.15505609047E+04  0.00000000000E+00 0. -1.
         -1   -1    0    0    0  501 -0.00000000000E+00 -0.00000000000E+00 -0.83791617748E+03  0.83791617748E+03  0.00000000000E+00 0.  1.
         23    2    1    2    0    0  0.50878886710E+03 -0.69737657908E+03  0.74216062940E+03  0.11416437041E+04  0.85718976867E+02 0.  0.
        254    2    1    2    0    0 -0.50878886710E+03  0.69737657908E+03 -0.29515902202E+02  0.12468333780E+04  0.89917855834E+03 0.  0.
        -24    2    4    4    0    0  0.22905527840E+03  0.23708314481E+02 -0.77838108049E+01  0.24381341743E+03  0.79724463446E+02 0.  0.
         24    2    4    4    0    0 -0.73784414550E+03  0.67366826460E+03 -0.21732091397E+02  0.10030199606E+04  0.85637864335E+02 0.  0.
         11    1    3    3    0    0  0.46508244689E+03 -0.59721123017E+03  0.62720536505E+03  0.98303077560E+03  0.00000000000E+00 0. -1.
        -11    1    3    3    0    0  0.43706420213E+02 -0.10016534891E+03  0.11495526435E+03  0.15861292852E+03  0.00000000000E+00 0.  1.
          2    1    6    6  502    0 -0.18818359210E+03  0.15234932201E+03  0.28500977464E+02  0.24379435180E+03  0.00000000000E+00 0. -1.
          1    1    5    5  503    0  0.11710814399E+02 -0.18555587063E+02  0.29410167892E+01  0.22138260205E+02  0.00000000000E+00 0. -1.
         -2    1    5    5    0  503  0.21734446400E+03  0.42263901544E+02 -0.10724827594E+02  0.22167515723E+03  0.00000000000E+00 0.  1.
         -1    1    6    6    0  502 -0.54966055340E+03  0.52131894259E+03 -0.50233068861E+02  0.75922560881E+03  0.00000000000E+00 0.  1.
<mgrwt>
<rscale>  0 0.22796842E+04</rscale>
<asrwt>0</asrwt>
<pdfrwt beam="1">  1        1 0.23854783E+00 0.22796842E+04</pdfrwt>
<pdfrwt beam="2">  1       -1 0.12891018E+00 0.22796842E+04</pdfrwt>
<totfact> 0.28309513E+00</totfact>
</mgrwt>
</event>
<event>
12    1  0.2214165E-007  0.1442240E+04  0.7818608E-02  0.8923798E-01
          1   -1    0    0  501    0  0.00000000000E+00  0.00000000000E+00  0.28165966372E+03  0.28165966372E+03  0.00000000000E+00 0.  1.
         -1   -1    0    0    0  501 -0.00000000000E+00 -0.00000000000E+00 -0.18462500715E+04  0.18462500715E+04  0.00000000000E+00 0. -1.
         23    2    1    2    0    0 -0.12625139902E+03  0.37310552144E+03 -0.20739257423E+03  0.45465043673E+03  0.92456443203E+02 0.  0.
        254    2    1    2    0    0  0.12625139902E+03 -0.37310552144E+03 -0.13571978335E+04  0.16732592985E+04  0.89591493719E+03 0.  0.
        -24    2    4    4    0    0  0.78552179406E+02  0.92413054975E+02  0.77192539565E+02  0.16242681481E+03  0.75585477350E+02 0.  0.
         24    2    4    4    0    0  0.47699219619E+02 -0.46551857641E+03 -0.14343903731E+04  0.15108324837E+04  0.78462033503E+02 0.  0.
         13    1    3    3    0    0  0.53499917487E+01  0.22481553088E+02 -0.36018758745E+02  0.42794784992E+02  0.00000000000E+00 0. -1.
        -13    1    3    3    0    0 -0.13160139077E+03  0.35062396835E+03 -0.17137381549E+03  0.41185565174E+03  0.00000000000E+00 0.  1.
          4    1    6    6  502    0  0.62934953259E+02 -0.44107586818E+03 -0.13380578870E+04  0.14102863677E+04  0.00000000000E+00 0. -1.
          3    1    5    5  503    0  0.41720290288E+02  0.95328747376E+02  0.68151408322E+02  0.12438957816E+03  0.00000000000E+00 0. -1.
         -2    1    5    5    0  503  0.36831889118E+02 -0.29156924001E+01  0.90411312429E+01  0.38037236655E+02  0.00000000000E+00 0.  1.
         -3    1    6    6    0  502 -0.15235733640E+02 -0.24442708230E+02 -0.96332486059E+02  0.10054611596E+03  0.00000000000E+00 0.  1.
<mgrwt>
<rscale>  0 0.14422402E+04</rscale>
<asrwt>0</asrwt>
<pdfrwt beam="1">  1        1 0.43332258E-01 0.14422402E+04</pdfrwt>
<pdfrwt beam="2">  1       -1 0.28403846E+00 0.14422402E+04</pdfrwt>
<totfact> 0.38859544E+00</totfact>
</mgrwt>
</event>
<event>
12    1  0.2214165E-007  0.1168557E+04  0.7818608E-02  0.9140833E-01
         -2   -1    0    0    0  501 -0.00000000000E+00  0.00000000000E+00  0.32176757609E+03  0.32176757609E+03  0.00000000000E+00 0. -1.
          2   -1    0    0  501    0  0.00000000000E+00 -0.00000000000E+00 -0.10609562479E+04  0.10609562479E+04  0.00000000000E+00 0.  1.
         23    2    1    2    0    0  0.20968449841E+03 -0.20819957785E+02 -0.46070572362E+02  0.23408501834E+03  0.90951848022E+02 0.  0.
        254    2    1    2    0    0 -0.20968449841E+03  0.20819957785E+02 -0.69311809947E+03  0.11486388057E+04  0.89137946271E+03 0.  0.
        -24    2    4    4    0    0  0.15339182283E+02 -0.38807298692E+03 -0.14076376380E+03  0.42106689360E+03  0.81528878305E+02 0.  0.
         24    2    4    4    0    0 -0.22502368069E+03  0.40889294470E+03 -0.55235433567E+03  0.72757191206E+03  0.80227663466E+02 0.  0.
         11    1    3    3    0    0  0.19232389978E+03 -0.88780664466E+01 -0.67512353563E+02  0.20402259770E+03  0.00000000000E+00 0.  1.
        -11    1    3    3    0    0  0.17360598631E+02 -0.11941891338E+02  0.21441781201E+02  0.30062420639E+02  0.00000000000E+00 0. -1.
          4    1    6    6  502    0 -0.22729353088E+03  0.41136733016E+03 -0.54626713679E+03  0.72062002070E+03  0.00000000000E+00 0. -1.
          1    1    5    5  503    0 -0.24547289748E+02 -0.27553446907E+03 -0.11061112359E+03  0.29792051581E+03  0.00000000000E+00 0. -1.
         -2    1    5    5    0  503  0.39886472031E+02 -0.11253851785E+03 -0.30152640208E+02  0.12314637779E+03  0.00000000000E+00 0.  1.
         -3    1    6    6    0  502  0.22698501847E+01 -0.24743854555E+01 -0.60871988815E+01  0.69518913589E+01  0.00000000000E+00 0.  1.
<mgrwt>
<rscale>  0 0.11685569E+04</rscale>
<asrwt>0</asrwt>
<pdfrwt beam="1">  1        2 0.16322404E+00 0.11685569E+04</pdfrwt>
<pdfrwt beam="2">  1       -2 0.49502704E-01 0.11685569E+04</pdfrwt>
<totfact> 0.87961863E+01</totfact>
</mgrwt>
</event>
<event>
12    1  0.2214165E-007  0.1585982E+04  0.7818608E-02  0.8829207E-01
         -2   -1    0    0    0  501 -0.00000000000E+00  0.00000000000E+00  0.43969034124E+03  0.43969034124E+03  0.00000000000E+00 0.  1.
          2   -1    0    0  501    0  0.00000000000E+00 -0.00000000000E+00 -0.14301758800E+04  0.14301758800E+04  0.00000000000E+00 0. -1.
         23    2    1    2    0    0 -0.43489357357E+03 -0.20655684039E+03 -0.67587461910E+02  0.49523075704E+03  0.94272419458E+02 0.  0.
        254    2    1    2    0    0  0.43489357357E+03  0.20655684039E+03 -0.92289807683E+03  0.13746354642E+04  0.89782161398E+03 0.  0.
        -24    2    4    4    0    0  0.41429159450E+03 -0.17358141355E+03 -0.10414969117E+03  0.46813580393E+03  0.80845162791E+02 0.  0.
         24    2    4    4    0    0  0.20601979070E+02  0.38013825394E+03 -0.81874838566E+03  0.90649966026E+03  0.80393913742E+02 0.  0.
         11    1    3    3    0    0 -0.38985594502E+03 -0.21262813743E+03 -0.70771637547E+02  0.44967433480E+03  0.00000000000E+00 0.  1.
        -11    1    3    3    0    0 -0.45037628550E+02  0.60712970447E+01  0.31841756374E+01  0.45556422245E+02  0.00000000000E+00 0. -1.
          4    1    6    6  502    0  0.82367522003E+01  0.62569097576E+02 -0.21688813159E+03  0.22588315050E+03  0.00000000000E+00 0. -1.
          1    1    5    5  503    0  0.40264479545E+03 -0.16154983635E+03 -0.11417748470E+03  0.44861751965E+03  0.00000000000E+00 0. -1.
         -2    1    5    5    0  503  0.11646799047E+02 -0.12031577204E+02  0.10027793527E+02  0.19518284276E+02  0.00000000000E+00 0.  1.
         -3    1    6    6    0  502  0.12365226870E+02  0.31756915637E+03 -0.60186025408E+03  0.68061650975E+03  0.00000000000E+00 0.  1.
<mgrwt>
<rscale>  0 0.15859817E+04</rscale>
<asrwt>0</asrwt>
<pdfrwt beam="1">  1        2 0.22002706E+00 0.15859817E+04</pdfrwt>
<pdfrwt beam="2">  1       -2 0.67644667E-01 0.15859817E+04</pdfrwt>
<totfact> 0.26736650E+01</totfact>
</mgrwt>
</event>
<event>
12    1  0.2214165E-007  0.2122182E+04  0.7818608E-02  0.8551534E-01
         -2   -1    0    0    0  501 -0.00000000000E+00  0.00000000000E+00  0.60576646755E+03  0.60576646755E+03  0.00000000000E+00 0.  1.
          2   -1    0    0  501    0  0.00000000000E+00 -0.00000000000E+00 -0.18586605700E+04  0.18586605700E+04  0.00000000000E+00 0. -1.
         23    2    1    2    0    0 -0.79919619977E+03  0.21360045964E+03 -0.22075821320E+03  0.86119186027E+03  0.92614844435E+02 0.  0.
        254    2    1    2    0    0  0.79919619977E+03 -0.21360045964E+03 -0.10321358893E+04  0.16032351773E+04  0.90593532757E+03 0.  0.
        -24    2    4    4    0    0  0.38980411999E+03 -0.38074411456E+03 -0.10134351612E+04  0.11533041082E+04  0.78397749441E+02 0.  0.
         24    2    4    4    0    0  0.40939207978E+03  0.16714365491E+03 -0.18700728039E+02  0.44993106916E+03  0.80928199043E+02 0.  0.
         11    1    3    3    0    0 -0.34641858328E+03  0.11843216323E+03 -0.13759152675E+03  0.39110540824E+03  0.00000000000E+00 0. -1.
        -11    1    3    3    0    0 -0.45277761649E+03  0.95168296415E+02 -0.83166686457E+02  0.47008645202E+03  0.00000000000E+00 0.  1.
          4    1    6    6  502    0  0.14306251372E+02 -0.87772276328E+01  0.22897886600E+01  0.16939648324E+02  0.00000000000E+00 0. -1.
          3    1    5    5  503    0  0.31751522787E+02 -0.16996787136E+02 -0.37715136306E+02  0.52148647910E+02  0.00000000000E+00 0. -1.
         -4    1    5    5    0  503  0.35805259720E+03 -0.36374732742E+03 -0.97572002494E+03  0.11011554602E+04  0.00000000000E+00 0.  1.
         -3    1    6    6    0  502  0.39508582841E+03  0.17592088255E+03 -0.20990516699E+02  0.43299142083E+03  0.00000000000E+00 0.  1.
<mgrwt>
<rscale>  0 0.21221821E+04</rscale>
<asrwt>0</asrwt>
<pdfrwt beam="1">  1        2 0.28594778E+00 0.21221821E+04</pdfrwt>
<pdfrwt beam="2">  1       -2 0.93194842E-01 0.21221821E+04</pdfrwt>
<totfact> 0.71774072E+00</totfact>
</mgrwt>
</event>
<event>
12    1  0.2214165E-007  0.2325235E+04  0.7818608E-02  0.8468037E-01
         -2   -1    0    0    0  501 -0.00000000000E+00  0.00000000000E+00  0.37762133321E+03  0.37762133321E+03  0.00000000000E+00 0.  1.
          2   -1    0    0  501    0  0.00000000000E+00 -0.00000000000E+00 -0.35794562716E+04  0.35794562716E+04  0.00000000000E+00 0. -1.
         23    2    1    2    0    0  0.52225627479E+03 -0.77484978138E+03 -0.19014862204E+04  0.21207773659E+04  0.94355654129E+02 0.  0.
        254    2    1    2    0    0 -0.52225627479E+03  0.77484978138E+03 -0.13003487180E+04  0.18363002388E+04  0.89885926508E+03 0.  0.
        -24    2    4    4    0    0  0.73071518643E+02 -0.13059645747E+03 -0.36513037515E+03  0.40277845908E+03  0.80718118777E+02 0.  0.
         24    2    4    4    0    0 -0.59532779344E+03  0.90544623885E+03 -0.93521834286E+03  0.14335217797E+04  0.78123435064E+02 0.  0.
         11    1    3    3    0    0  0.37563073720E+03 -0.57132994204E+03 -0.12939864146E+04  0.14635290207E+04  0.00000000000E+00 0.  1.
        -11    1    3    3    0    0  0.14662553760E+03 -0.20351983933E+03 -0.60749980577E+03  0.65724834521E+03  0.00000000000E+00 0. -1.
          2    1    6    6  502    0 -0.21907030599E+03  0.40273595857E+03 -0.40173689712E+03  0.60957410198E+03  0.00000000000E+00 0. -1.
          1    1    5    5  503    0  0.62260077279E+02 -0.81463093043E+02 -0.14899180417E+03  0.18086213108E+03  0.00000000000E+00 0. -1.
         -2    1    5    5    0  503  0.10811441364E+02 -0.49133364431E+02 -0.21613857098E+03  0.22191632799E+03  0.00000000000E+00 0.  1.
         -1    1    6    6    0  502 -0.37625748744E+03  0.50271028028E+03 -0.53348144574E+03  0.82394767777E+03  0.00000000000E+00 0.  1.
<mgrwt>
<rscale>  0 0.23252347E+04</rscale>
<asrwt>0</asrwt>
<pdfrwt beam="1">  1        2 0.55068559E+00 0.23252347E+04</pdfrwt>
<pdfrwt beam="2">  1       -2 0.58095589E-01 0.23252347E+04</pdfrwt>
<totfact> 0.17966648E+00</totfact>
</mgrwt>
</event>
<event>
12    1  0.2214165E-007  0.2150433E+04  0.7818608E-02  0.8539347E-01
         -3   -1    0    0    0  501 -0.00000000000E+00  0.00000000000E+00  0.34916842407E+03  0.34916842407E+03  0.00000000000E+00 0.  1.
          3   -1    0    0  501    0  0.00000000000E+00 -0.00000000000E+00 -0.33109838287E+04  0.33109838287E+04  0.00000000000E+00 0. -1.
         23    2    1    2    0    0 -0.35040725998E+03  0.73495461511E+03 -0.64133034263E+03  0.10402548501E+04  0.88780688304E+02 0.  0.
        254    2    1    2    0    0  0.35040725998E+03 -0.73495461511E+03 -0.23204850620E+04  0.26198974027E+04  0.90347548035E+03 0.  0.
        -24    2    4    4    0    0 -0.16892780035E+03 -0.46354065427E+03 -0.50432780734E+03  0.70987370694E+03  0.78534085921E+02 0.  0.
         24    2    4    4    0    0  0.51933506033E+03 -0.27141396084E+03 -0.18161572547E+04  0.19100236958E+04  0.79930605478E+02 0.  0.
         13    1    3    3    0    0 -0.15960648739E+03  0.34331380105E+03 -0.35451022689E+03  0.51866761783E+03  0.00000000000E+00 0. -1.
        -13    1    3    3    0    0 -0.19080077259E+03  0.39164081406E+03 -0.28682011573E+03  0.52158723225E+03  0.00000000000E+00 0.  1.
          2    1    6    6  502    0  0.17854729160E+03 -0.11753653481E+03 -0.56064751725E+03  0.60001634224E+03  0.00000000000E+00 0. -1.
          1    1    5    5  503    0 -0.48813782411E+02 -0.66965365880E+02 -0.11128941281E+03  0.13875330261E+03  0.00000000000E+00 0. -1.
         -2    1    5    5    0  503 -0.12011401794E+03 -0.39657528839E+03 -0.39303839453E+03  0.57112040433E+03  0.00000000000E+00 0.  1.
         -1    1    6    6    0  502  0.34078776873E+03 -0.15387742603E+03 -0.12555097374E+04  0.13100073536E+04  0.00000000000E+00 0.  1.
<mgrwt>
<rscale>  0 0.21504334E+04</rscale>
<asrwt>0</asrwt>
<pdfrwt beam="1">  1        3 0.50938211E+00 0.21504334E+04</pdfrwt>
<pdfrwt beam="2">  1       -3 0.53718221E-01 0.21504334E+04</pdfrwt>
<totfact> 0.25358135E-02</totfact>
</mgrwt>
</event>
<event>
12    1  0.2214165E-007  0.2049834E+04  0.7818608E-02  0.8583669E-01
         -2   -1    0    0    0  501 -0.00000000000E+00  0.00000000000E+00  0.38403510564E+03  0.38403510564E+03  0.00000000000E+00 0.  1.
          2   -1    0    0  501    0  0.00000000000E+00 -0.00000000000E+00 -0.27353105337E+04  0.27353105337E+04  0.00000000000E+00 0. -1.
         23    2    1    2    0    0 -0.43612526342E+03 -0.62216275129E+03 -0.14344225991E+04  0.16259674905E+04  0.94394666335E+02 0.  0.
        254    2    1    2    0    0  0.43612526342E+03  0.62216275129E+03 -0.91685282898E+03  0.14933781488E+04  0.90125881457E+03 0.  0.
        -24    2    4    4    0    0  0.54935025213E+02  0.13542553621E+03  0.17319482042E+03  0.23767997647E+03  0.71675606310E+02 0.  0.
         24    2    4    4    0    0  0.38119023821E+03  0.48673721508E+03 -0.10900476494E+04  0.12556981723E+04  0.79717675707E+02 0.  0.
         13    1    3    3    0    0 -0.42023754451E+03 -0.58540370264E+03 -0.13929692648E+04  0.15683304695E+04  0.00000000000E+00 0. -1.
        -13    1    3    3    0    0 -0.15887718911E+02 -0.36759048651E+02 -0.41453334232E+02  0.57637020992E+02  0.00000000000E+00 0.  1.
          2    1    6    6  502    0  0.22516332482E+02  0.25084253102E+02 -0.29965584600E+02  0.45101454994E+02  0.00000000000E+00 0. -1.
          1    1    5    5  503    0  0.44520425142E+02  0.24241214863E+02  0.46416793252E+02  0.68732986612E+02  0.00000000000E+00 0. -1.
         -2    1    5    5    0  503  0.10414600071E+02  0.11118432135E+03  0.12677802716E+03  0.16894698985E+03  0.00000000000E+00 0.  1.
         -1    1    6    6    0  502  0.35867390573E+03  0.46165296198E+03 -0.10600820648E+04  0.12105967173E+04  0.00000000000E+00 0.  1.
<mgrwt>
<rscale>  0 0.20498344E+04</rscale>
<asrwt>0</asrwt>
<pdfrwt beam="1">  1        2 0.42081701E+00 0.20498344E+04</pdfrwt>
<pdfrwt beam="2">  1       -2 0.59082324E-01 0.20498344E+04</pdfrwt>
<totfact> 0.62694435E+00</totfact>
</mgrwt>
</event>
<event>
12    1  0.2214165E-007  0.3830981E+04  0.7818608E-02  0.8039539E-01
         -1   -1    0    0    0  501 -0.00000000000E+00  0.00000000000E+00  0.12944416334E+04  0.12944416334E+04  0.00000000000E+00 0.  1.
          1   -1    0    0  501    0  0.00000000000E+00 -0.00000000000E+00 -0.28345072467E+04  0.28345072467E+04  0.00000000000E+00 0. -1.
         23    2    1    2    0    0 -0.64057514131E+03 -0.14728935062E+04  0.16783131742E+03  0.16174768918E+04  0.91172100912E+02 0.  0.
        254    2    1    2    0    0  0.64057514131E+03  0.14728935062E+04 -0.17078969308E+04  0.25114719883E+04  0.90045978788E+03 0.  0.
        -24    2    4    4    0    0  0.35982235011E+03  0.12441774520E+04 -0.78400330230E+03  0.15161551570E+04  0.81336502354E+02 0.  0.
         24    2    4    4    0    0  0.28075279120E+03  0.22871605427E+03 -0.92389362845E+03  0.99531683125E+03  0.77090820672E+02 0.  0.
         13    1    3    3    0    0 -0.28292601406E+03 -0.57241556666E+03  0.98798970899E+02  0.64611759536E+03  0.00000000000E+00 0.  1.
        -13    1    3    3    0    0 -0.35764912725E+03 -0.90047793957E+03  0.69032346520E+02  0.97135929642E+03  0.00000000000E+00 0. -1.
          2    1    6    6  502    0  0.15952541167E+03  0.17712786601E+03 -0.60684384816E+03  0.65198320066E+03  0.00000000000E+00 0. -1.
          1    1    5    5  503    0  0.33957127527E+03  0.11744890922E+04 -0.71669242251E+03  0.14171737040E+04  0.00000000000E+00 0. -1.
         -2    1    5    5    0  503  0.20251074844E+02  0.69688359730E+02 -0.67310879785E+02  0.98981453069E+02  0.00000000000E+00 0.  1.
         -1    1    6    6    0  502  0.12122737953E+03  0.51588188255E+02 -0.31704978029E+03  0.34333363059E+03  0.00000000000E+00 0.  1.
<mgrwt>
<rscale>  0 0.38309812E+04</rscale>
<asrwt>0</asrwt>
<pdfrwt beam="1">  1        1 0.43607803E+00 0.38309812E+04</pdfrwt>
<pdfrwt beam="2">  1       -1 0.19914487E+00 0.38309812E+04</pdfrwt>
<totfact> 0.95300023E-02</totfact>
</mgrwt>
</event>
<event>
12    1  0.2214165E-007  0.2287683E+04  0.7818608E-02  0.8482793E-01
          1   -1    0    0  501    0  0.00000000000E+00  0.00000000000E+00  0.10152886699E+04  0.10152886699E+04  0.00000000000E+00 0. -1.
         -1   -1    0    0    0  501 -0.00000000000E+00 -0.00000000000E+00 -0.12886714060E+04  0.12886714060E+04  0.00000000000E+00 0.  1.
         23    2    1    2    0    0 -0.24405828430E+03 -0.35726288342E+03 -0.98438531371E+03  0.10790942173E+04  0.90712016473E+02 0.  0.
        254    2    1    2    0    0  0.24405828430E+03  0.35726288342E+03  0.71100257758E+03  0.12248658587E+04  0.89864925996E+03 0.  0.
        -24    2    4    4    0    0  0.13579960637E+03  0.36429644708E+03  0.90517507153E+03  0.98836892764E+03  0.79861082911E+02 0.  0.
         24    2    4    4    0    0  0.10825867794E+03 -0.70335636578E+01 -0.19417249394E+03  0.23649693104E+03  0.80364349200E+02 0.  0.
         11    1    3    3    0    0 -0.13244656188E+03 -0.12569300742E+03 -0.35420710663E+03  0.39850156619E+03  0.00000000000E+00 0. -1.
        -11    1    3    3    0    0 -0.11161172242E+03 -0.23156987600E+03 -0.63017820708E+03  0.68059265110E+03  0.00000000000E+00 0.  1.
          4    1    6    6  502    0  0.61782805164E+01 -0.68012166272E+01 -0.90634022226E+02  0.91098593198E+02  0.00000000000E+00 0. -1.
          1    1    5    5  503    0  0.14391192466E+03  0.31723126776E+03  0.77424909656E+03  0.84900411237E+03  0.00000000000E+00 0. -1.
         -2    1    5    5    0  503 -0.81123182966E+01  0.47065179318E+02  0.13092597497E+03  0.13936481527E+03  0.00000000000E+00 0.  1.
         -3    1    6    6    0  502  0.10208039742E+03 -0.23234703063E+00 -0.10353847172E+03  0.14539833785E+03  0.00000000000E+00 0.  1.
<mgrwt>
<rscale>  0 0.22876831E+04</rscale>
<asrwt>0</asrwt>
<pdfrwt beam="1">  1        1 0.15619826E+00 0.22876831E+04</pdfrwt>
<pdfrwt beam="2">  1       -1 0.19825714E+00 0.22876831E+04</pdfrwt>
<totfact> 0.20611258E+00</totfact>
</mgrwt>
</event>
<event>
12    1  0.2214165E-007  0.4705523E+04  0.7818608E-02  0.7875612E-01
          2   -1    0    0  501    0  0.00000000000E+00  0.00000000000E+00  0.24986597451E+04  0.24986597451E+04  0.00000000000E+00 0. -1.
         -2   -1    0    0    0  501 -0.00000000000E+00 -0.00000000000E+00 -0.22153820554E+04  0.22153820554E+04  0.00000000000E+00 0.  1.
         23    2    1    2    0    0 -0.81870123016E+03  0.19070412625E+04 -0.77333731865E+03  0.22167323372E+04  0.93667310720E+02 0.  0.
        254    2    1    2    0    0  0.81870123016E+03 -0.19070412625E+04  0.10566150084E+04  0.24973094633E+04  0.90168797171E+03 0.  0.
        -24    2    4    4    0    0  0.79913184597E+03 -0.16066327039E+04  0.50877064486E+03  0.18670001246E+04  0.83435864969E+02 0.  0.
         24    2    4    4    0    0  0.19569384186E+02 -0.30040855856E+03  0.54784436352E+03  0.63030933869E+03  0.80796985963E+02 0.  0.
         11    1    3    3    0    0 -0.67715893809E+03  0.15587386818E+04 -0.67048131371E+03  0.18269525713E+04  0.00000000000E+00 0.  1.
        -11    1    3    3    0    0 -0.14154229207E+03  0.34830258068E+03 -0.10285600494E+03  0.38977976590E+03  0.00000000000E+00 0. -1.
          4    1    6    6  502    0  0.32832908755E+02 -0.24954574676E+03  0.49739806976E+03  0.55745485864E+03  0.00000000000E+00 0. -1.
          3    1    5    5  503    0  0.39819241037E+03 -0.87217454134E+03  0.24386341699E+03  0.98930025391E+03  0.00000000000E+00 0. -1.
         -4    1    5    5    0  503  0.40093943560E+03 -0.73445816260E+03  0.26490722788E+03  0.87769987069E+03  0.00000000000E+00 0.  1.
         -3    1    6    6    0  502 -0.13263524569E+02 -0.50862811806E+02  0.50446293764E+02  0.72854480049E+02  0.00000000000E+00 0.  1.
<mgrwt>
<rscale>  0 0.47055227E+04</rscale>
<asrwt>0</asrwt>
<pdfrwt beam="1">  1        2 0.38440919E+00 0.47055227E+04</pdfrwt>
<pdfrwt beam="2">  1       -2 0.34082801E+00 0.47055227E+04</pdfrwt>
<totfact> 0.46177174E-02</totfact>
</mgrwt>
</event>
<event>
12    1  0.2214165E-007  0.1980117E+04  0.7818608E-02  0.8615973E-01
          2   -1    0    0  501    0  0.00000000000E+00  0.00000000000E+00  0.21481573263E+04  0.21481573263E+04  0.00000000000E+00 0.  1.
         -2   -1    0    0    0  501 -0.00000000000E+00 -0.00000000000E+00 -0.45630544904E+03  0.45630544904E+03  0.00000000000E+00 0. -1.
         23    2    1    2    0    0 -0.31529059292E+03  0.44088141706E+03  0.14142405278E+04  0.15173097229E+04  0.91476460504E+02 0.  0.
        254    2    1    2    0    0  0.31529059292E+03 -0.44088141706E+03  0.27761134943E+03  0.10871530524E+04  0.90058265370E+03 0.  0.
        -24    2    4    4    0    0 -0.27673166252E+03 -0.33878273390E+03  0.85941480381E+02  0.45237722490E+03  0.76844399486E+02 0.  0.
         24    2    4    4    0    0  0.59202225544E+03 -0.10209868316E+03  0.19166986905E+03  0.63477582751E+03  0.72722214312E+02 0.  0.
         13    1    3    3    0    0 -0.23629957558E+03  0.33166335515E+03  0.11623446939E+04  0.12316181462E+04  0.00000000000E+00 0.  1.
        -13    1    3    3    0    0 -0.78991017342E+02  0.10921806191E+03  0.25189583390E+03  0.28569157671E+03  0.00000000000E+00 0. -1.
          2    1    6    6  502    0  0.13113130908E+03 -0.20892647272E+02  0.74838271598E+02  0.15242273396E+03  0.00000000000E+00 0. -1.
          1    1    5    5  503    0 -0.56617446968E+02 -0.96861074266E+02  0.51648918509E+02  0.12351199858E+03  0.00000000000E+00 0. -1.
         -2    1    5    5    0  503 -0.22011421555E+03 -0.24192165963E+03  0.34292561872E+02  0.32886522633E+03  0.00000000000E+00 0.  1.
         -1    1    6    6    0  502  0.46089094635E+03 -0.81206035890E+02  0.11683159746E+03  0.48235309355E+03  0.00000000000E+00 0.  1.
<mgrwt>
<rscale>  0 0.19801171E+04</rscale>
<asrwt>0</asrwt>
<pdfrwt beam="1">  1        2 0.33048574E+00 0.19801171E+04</pdfrwt>
<pdfrwt beam="2">  1       -2 0.70200839E-01 0.19801171E+04</pdfrwt>
<totfact> 0.94925182E+00</totfact>
</mgrwt>
</event>
<event>
12    1  0.2214165E-007  0.1497371E+04  0.7818608E-02  0.8886203E-01
         -2   -1    0    0    0  501 -0.00000000000E+00  0.00000000000E+00  0.12853494593E+03  0.12853494593E+03  0.00000000000E+00 0. -1.
          2   -1    0    0  501    0  0.00000000000E+00 -0.00000000000E+00 -0.43609144805E+04  0.43609144805E+04  0.00000000000E+00 0.  1.
         23    2    1    2    0    0  0.35636377510E+03  0.30811502028E+03 -0.12756773790E+04  0.13630130799E+04  0.92314000888E+02 0.  0.
        254    2    1    2    0    0 -0.35636377510E+03 -0.30811502028E+03 -0.29567021556E+04  0.31264363465E+04  0.90032582226E+03 0.  0.
        -24    2    4    4    0    0  0.19300759280E+03 -0.30180073162E+03 -0.58471283353E+03  0.69034101185E+03  0.79661800530E+02 0.  0.
         24    2    4    4    0    0 -0.54937136790E+03 -0.63142886625E+01 -0.23719893220E+04  0.24360953347E+04  0.79864670974E+02 0.  0.
         13    1    3    3    0    0  0.38149537414E+02  0.51088511258E+02 -0.10404899313E+03  0.12203120978E+03  0.00000000000E+00 0. -1.
        -13    1    3    3    0    0  0.31821423769E+03  0.25702650903E+03 -0.11716283859E+04  0.12409818701E+04  0.00000000000E+00 0.  1.
          2    1    6    6  502    0 -0.50984328816E+03 -0.15078546633E+02 -0.20970312717E+04  0.21581723044E+04  0.00000000000E+00 0. -1.
          3    1    5    5  503    0  0.93569439819E+02 -0.13398310287E+03 -0.34132463085E+03  0.37842993479E+03  0.00000000000E+00 0. -1.
         -4    1    5    5    0  503  0.99438152980E+02 -0.16781762875E+03 -0.24338820269E+03  0.31191107706E+03  0.00000000000E+00 0.  1.
         -1    1    6    6    0  502 -0.39528079741E+02  0.87642579704E+01 -0.27495805036E+03  0.27792303028E+03  0.00000000000E+00 0.  1.
<mgrwt>
<rscale>  0 0.14973709E+04</rscale>
<asrwt>0</asrwt>
<pdfrwt beam="1">  1        2 0.67090992E+00 0.14973709E+04</pdfrwt>
<pdfrwt beam="2">  1       -2 0.19774607E-01 0.14973709E+04</pdfrwt>
<totfact> 0.36318796E+00</totfact>
</mgrwt>
</event>
<event>
12    1  0.2214165E-007  0.1491496E+04  0.7818608E-02  0.8890128E-01
          1   -1    0    0  501    0  0.00000000000E+00  0.00000000000E+00  0.10022643390E+04  0.10022643390E+04  0.00000000000E+00 0. -1.
         -1   -1    0    0    0  501 -0.00000000000E+00 -0.00000000000E+00 -0.55488346208E+03  0.55488346208E+03  0.00000000000E+00 0.  1.
         23    2    1    2    0    0 -0.46778747973E+03  0.24569906605E+02  0.16231148475E+03  0.50426392994E+03  0.92240373221E+02 0.  0.
        254    2    1    2    0    0  0.46778747973E+03 -0.24569906605E+02  0.28506939215E+03  0.10528838711E+04  0.89881648919E+03 0.  0.
        -24    2    4    4    0    0 -0.11377178813E+03 -0.29264491537E+03  0.24587041686E+03  0.40648549736E+03  0.78696451075E+02 0.  0.
         24    2    4    4    0    0  0.58155926786E+03  0.26807500876E+03  0.39198975290E+02  0.64639837377E+03  0.78860038037E+02 0.  0.
         11    1    3    3    0    0 -0.35280201084E+03 -0.17846306251E+02  0.13837973756E+03  0.37938990665E+03  0.00000000000E+00 0. -1.
        -11    1    3    3    0    0 -0.11498546889E+03  0.42416212856E+02  0.23931747189E+02  0.12487402329E+03  0.00000000000E+00 0.  1.
          4    1    6    6  502    0  0.81231696253E+02  0.11585891203E+02  0.16522810835E+02  0.83700804231E+02  0.00000000000E+00 0. -1.
          3    1    5    5  503    0  0.66720063884E+00 -0.51170646707E+01  0.26888346417E+02  0.27379055509E+02  0.00000000000E+00 0. -1.
         -4    1    5    5    0  503 -0.11443898876E+03 -0.28752785069E+03  0.21898207044E+03  0.37910644185E+03  0.00000000000E+00 0.  1.
         -3    1    6    6    0  502  0.50032757160E+03  0.25648911756E+03  0.22676164454E+02  0.56269756954E+03  0.00000000000E+00 0.  1.
<mgrwt>
<rscale>  0 0.14914958E+04</rscale>
<asrwt>0</asrwt>
<pdfrwt beam="1">  1        1 0.15419451E+00 0.14914958E+04</pdfrwt>
<pdfrwt beam="2">  1       -1 0.85366687E-01 0.14914958E+04</pdfrwt>
<totfact> 0.19790309E+01</totfact>
</mgrwt>
</event>
<event>
12    1  0.2214165E-007  0.1937648E+04  0.7818608E-02  0.8636340E-01
          2   -1    0    0  501    0  0.00000000000E+00  0.00000000000E+00  0.32179212166E+04  0.32179212166E+04  0.00000000000E+00 0. -1.
         -2   -1    0    0    0  501 -0.00000000000E+00 -0.00000000000E+00 -0.29168510399E+03  0.29168510399E+03  0.00000000000E+00 0.  1.
         23    2    1    2    0    0  0.11851378324E+03  0.52604282130E+03  0.21073809239E+04  0.21771398775E+04  0.90095068027E+02 0.  0.
        254    2    1    2    0    0 -0.11851378324E+03 -0.52604282130E+03  0.81885518870E+03  0.13324664430E+04  0.90231725857E+03 0.  0.
        -24    2    4    4    0    0 -0.48940409451E+03 -0.38142523260E+03  0.36819248798E+03  0.72593392960E+03  0.80079873531E+02 0.  0.
         24    2    4    4    0    0  0.37089031127E+03 -0.14461758871E+03  0.45066270072E+03  0.60653251345E+03  0.79441488476E+02 0.  0.
         13    1    3    3    0    0  0.27103618743E+02  0.32175432014E+03  0.12420663981E+04  0.12833508429E+04  0.00000000000E+00 0. -1.
        -13    1    3    3    0    0  0.91410164496E+02  0.20428850116E+03  0.86531452579E+03  0.89378903463E+03  0.00000000000E+00 0.  1.
          2    1    6    6  502    0  0.13787191600E+03 -0.80253613962E+02  0.13532782269E+03  0.20919590667E+03  0.00000000000E+00 0. -1.
          3    1    5    5  503    0 -0.12051616311E+03 -0.99121674164E+02  0.53925253606E+02  0.16509750100E+03  0.00000000000E+00 0. -1.
         -4    1    5    5    0  503 -0.36888793141E+03 -0.28230355843E+03  0.31426723438E+03  0.56083642860E+03  0.00000000000E+00 0.  1.
         -1    1    6    6    0  502  0.23301839528E+03 -0.64363974743E+02  0.31533487803E+03  0.39733660678E+03  0.00000000000E+00 0.  1.
<mgrwt>
<rscale>  0 0.19376477E+04</rscale>
<asrwt>0</asrwt>
<pdfrwt beam="1">  1        2 0.49506478E+00 0.19376477E+04</pdfrwt>
<pdfrwt beam="2">  1       -2 0.44874634E-01 0.19376477E+04</pdfrwt>
<totfact> 0.55736093E+00</totfact>
</mgrwt>
</event>
<event>
12    1  0.2214165E-007  0.4948197E+04  0.7818608E-02  0.7836548E-01
         -1   -1    0    0    0  501 -0.00000000000E+00  0.00000000000E+00  0.46907238568E+04  0.46907238568E+04  0.00000000000E+00 0.  1.
          1   -1    0    0  501    0  0.00000000000E+00 -0.00000000000E+00 -0.13049507049E+04  0.13049507049E+04  0.00000000000E+00 0. -1.
         23    2    1    2    0    0 -0.55533219717E+03  0.22542988112E+04  0.23316734589E+04  0.32918487169E+04  0.96487704802E+02 0.  0.
        254    2    1    2    0    0  0.55533219717E+03 -0.22542988112E+04  0.10540996930E+04  0.27038258447E+04  0.89960605628E+03 0.  0.
        -24    2    4    4    0    0 -0.12059836291E+03 -0.10791484698E+04  0.22240395512E+03  0.11112856008E+04  0.79917347630E+02 0.  0.
         24    2    4    4    0    0  0.67593056007E+03 -0.11751503414E+04  0.83169573792E+03  0.15925402439E+04  0.81278416351E+02 0.  0.
         11    1    3    3    0    0 -0.20010888422E+03  0.80523804840E+03  0.76840243363E+03  0.11308820363E+04  0.00000000000E+00 0. -1.
        -11    1    3    3    0    0 -0.35522331294E+03  0.14490607628E+04  0.15632710253E+04  0.21609666806E+04  0.00000000000E+00 0.  1.
          2    1    6    6  502    0  0.20020127385E+03 -0.36464348492E+03  0.21284537667E+03  0.46727783547E+03  0.00000000000E+00 0. -1.
          3    1    5    5  503    0 -0.85879045893E+02 -0.42325782532E+03  0.96021797199E+02  0.44242805377E+03  0.00000000000E+00 0. -1.
         -4    1    5    5    0  503 -0.34719317013E+02 -0.65589064445E+03  0.12638215792E+03  0.66885754708E+03  0.00000000000E+00 0.  1.
         -1    1    6    6    0  502  0.47572928623E+03 -0.81050685646E+03  0.61885036125E+03  0.11252624084E+04  0.00000000000E+00 0.  1.
<mgrwt>
<rscale>  0 0.49481970E+04</rscale>
<asrwt>0</asrwt>
<pdfrwt beam="1">  1        1 0.20076165E+00 0.49481970E+04</pdfrwt>
<pdfrwt beam="2">  1       -1 0.72164981E+00 0.49481970E+04</pdfrwt>
<totfact> 0.10936765E-03</totfact>
</mgrwt>
</event>
<event>
12    1  0.2214165E-007  0.1595815E+04  0.7818608E-02  0.8823123E-01
         -1   -1    0    0    0  501 -0.00000000000E+00  0.00000000000E+00  0.26316085052E+03  0.26316085052E+03  0.00000000000E+00 0.  1.
          1   -1    0    0  501    0  0.00000000000E+00 -0.00000000000E+00 -0.24192682729E+04  0.24192682729E+04  0.00000000000E+00 0. -1.
         23    2    1    2    0    0 -0.25238564318E+03 -0.46012069685E+03 -0.53072953188E+03  0.75164055121E+03  0.88770004347E+02 0.  0.
        254    2    1    2    0    0  0.25238564318E+03  0.46012069685E+03 -0.16253778905E+04  0.19307885722E+04  0.90037861762E+03 0.  0.
        -24    2    4    4    0    0  0.53300184438E+03  0.21062491997E+03 -0.58938427425E+03  0.82596286002E+03  0.79918711045E+02 0.  0.
         24    2    4    4    0    0 -0.28061620120E+03  0.24949577687E+03 -0.10359936163E+04  0.11048257122E+04  0.79771463028E+02 0.  0.
         11    1    3    3    0    0 -0.20704901420E+03 -0.43150557382E+03 -0.47488389501E+03  0.67422627378E+03  0.00000000000E+00 0.  1.
        -11    1    3    3    0    0 -0.45336628975E+02 -0.28615123024E+02 -0.55845636869E+02  0.77414277429E+02  0.00000000000E+00 0. -1.
          4    1    6    6  502    0 -0.21049040941E+03  0.13905326514E+03 -0.71477891616E+03  0.75799137330E+03  0.00000000000E+00 0. -1.
          1    1    5    5  503    0  0.42651100941E+03  0.15770390162E+03 -0.50837636008E+03  0.68207674438E+03  0.00000000000E+00 0. -1.
         -4    1    5    5    0  503  0.10649083497E+03  0.52921018357E+02 -0.81007914165E+02  0.14388611564E+03  0.00000000000E+00 0.  1.
         -3    1    6    6    0  502 -0.70125791791E+02  0.11044251174E+03 -0.32121470013E+03  0.34683433892E+03  0.00000000000E+00 0.  1.
<mgrwt>
<rscale>  0 0.15958154E+04</rscale>
<asrwt>0</asrwt>
<pdfrwt beam="1">  1        1 0.37219511E+00 0.15958154E+04</pdfrwt>
<pdfrwt beam="2">  1       -1 0.40486286E-01 0.15958154E+04</pdfrwt>
<totfact> 0.88256425E+00</totfact>
</mgrwt>
</event>
<event>
12    1  0.2214165E-007  0.2111930E+04  0.7818608E-02  0.8556006E-01
         -1   -1    0    0    0  501 -0.00000000000E+00  0.00000000000E+00  0.15693073048E+04  0.15693073048E+04  0.00000000000E+00 0.  1.
          1   -1    0    0  501    0  0.00000000000E+00 -0.00000000000E+00 -0.71054427889E+03  0.71054427889E+03  0.00000000000E+00 0. -1.
         23    2    1    2    0    0  0.58659913523E+03  0.56304406314E+03  0.65906985850E+03  0.10505374165E+04  0.90214315137E+02 0.  0.
        254    2    1    2    0    0 -0.58659913523E+03 -0.56304406314E+03  0.19969316745E+03  0.12293141672E+04  0.90012154628E+03 0.  0.
        -24    2    4    4    0    0 -0.68694920927E+03 -0.28068367417E+03  0.41268703418E+03  0.85288882926E+03  0.80163743883E+02 0.  0.
         24    2    4    4    0    0  0.10035007404E+03 -0.28236038897E+03 -0.21299386673E+03  0.37642533795E+03  0.80821538964E+02 0.  0.
         11    1    3    3    0    0  0.17769967852E+03  0.12203833277E+03  0.19842420240E+03  0.29298923958E+03  0.00000000000E+00 0. -1.
        -11    1    3    3    0    0  0.40889945671E+03  0.44100573037E+03  0.46064565610E+03  0.75754817695E+03  0.00000000000E+00 0.  1.
          4    1    6    6  502    0  0.11376462109E+03 -0.25291750820E+03 -0.18266795177E+03  0.33208016437E+03  0.00000000000E+00 0. -1.
          3    1    5    5  503    0 -0.54028425308E+03 -0.22488388581E+03  0.36132525905E+03  0.68777596574E+03  0.00000000000E+00 0. -1.
         -4    1    5    5    0  503 -0.14666495619E+03 -0.55799788354E+02  0.51361775136E+02  0.16511286352E+03  0.00000000000E+00 0.  1.
         -3    1    6    6    0  502 -0.13414547051E+02 -0.29442880775E+02 -0.30325914966E+02  0.44345173576E+02  0.00000000000E+00 0.  1.
<mgrwt>
<rscale>  0 0.21119302E+04</rscale>
<asrwt>0</asrwt>
<pdfrwt beam="1">  1        1 0.10931450E+00 0.21119302E+04</pdfrwt>
<pdfrwt beam="2">  1       -1 0.24143189E+00 0.21119302E+04</pdfrwt>
<totfact> 0.19407979E+00</totfact>
</mgrwt>
</event>
<event>
12    1  0.2214165E-007  0.2663215E+04  0.7818608E-02  0.8347040E-01
         -2   -1    0    0    0  501 -0.00000000000E+00  0.00000000000E+00  0.63062562815E+03  0.63062562815E+03  0.00000000000E+00 0. -1.
          2   -1    0    0  501    0  0.00000000000E+00 -0.00000000000E+00 -0.28117768012E+04  0.28117768012E+04  0.00000000000E+00 0.  1.
         23    2    1    2    0    0 -0.10966309287E+04  0.14627241055E+03 -0.15065081397E+04  0.18713369710E+04  0.91325091458E+02 0.  0.
        254    2    1    2    0    0  0.10966309287E+04 -0.14627241055E+03 -0.67464303338E+03  0.15710654583E+04  0.88831775849E+03 0.  0.
        -24    2    4    4    0    0  0.75324337670E+03 -0.14492495351E+03  0.41844551417E+02  0.77247309158E+03  0.81147298360E+02 0.  0.
         24    2    4    4    0    0  0.34338755199E+03 -0.13474570357E+01 -0.71648758480E+03  0.79859236676E+03  0.80489021508E+02 0.  0.
         13    1    3    3    0    0 -0.77614330136E+03  0.72440857560E+02 -0.11059656904E+04  0.13530728770E+04  0.00000000000E+00 0.  1.
        -13    1    3    3    0    0 -0.32048762734E+03  0.73831552990E+02 -0.40054244927E+03  0.51826409403E+03  0.00000000000E+00 0. -1.
          2    1    6    6  502    0  0.11424755828E+03  0.34678455620E+02 -0.27740030161E+03  0.30200335626E+03  0.00000000000E+00 0. -1.
          1    1    5    5  503    0  0.62789215308E+03 -0.92023788176E+02  0.22040088918E+02  0.63498243992E+03  0.00000000000E+00 0. -1.
         -2    1    5    5    0  503  0.12535122362E+03 -0.52901165339E+02  0.19804462500E+02  0.13749065165E+03  0.00000000000E+00 0.  1.
         -1    1    6    6    0  502  0.22913999371E+03 -0.36025912656E+02 -0.43908728319E+03  0.49658901051E+03  0.00000000000E+00 0.  1.
<mgrwt>
<rscale>  0 0.26632150E+04</rscale>
<asrwt>0</asrwt>
<pdfrwt beam="1">  1        2 0.43258105E+00 0.26632150E+04</pdfrwt>
<pdfrwt beam="2">  1       -2 0.97019327E-01 0.26632150E+04</pdfrwt>
<totfact> 0.17752687E+00</totfact>
</mgrwt>
</event>
<event>
12    1  0.2214165E-007  0.3387484E+04  0.7818608E-02  0.8140985E-01
          2   -1    0    0  501    0  0.00000000000E+00  0.00000000000E+00  0.20299630612E+04  0.20299630612E+04  0.00000000000E+00 0. -1.
         -2   -1    0    0    0  501 -0.00000000000E+00 -0.00000000000E+00 -0.14132089309E+04  0.14132089309E+04  0.00000000000E+00 0.  1.
         23    2    1    2    0    0  0.14589195617E+04 -0.21494793739E+03  0.84385606254E+03  0.17011354060E+04  0.84378385315E+02 0.  0.
        254    2    1    2    0    0 -0.14589195617E+04  0.21494793739E+03 -0.22710193224E+03  0.17420365861E+04  0.89914808368E+03 0.  0.
        -24    2    4    4    0    0  0.10636075176E+03 -0.36538205320E+02 -0.47117220753E+02  0.14453174278E+03  0.77599885423E+02 0.  0.
         24    2    4    4    0    0 -0.15652803135E+04  0.25148614271E+03 -0.17998471149E+03  0.15975048433E+04  0.79243223011E+02 0.  0.
         13    1    3    3    0    0  0.55566000626E+03 -0.53874743284E+02  0.35409614044E+03  0.66109349353E+03  0.00000000000E+00 0.  1.
        -13    1    3    3    0    0  0.90325955545E+03 -0.16107319411E+03  0.48975992210E+03  0.10400419125E+04  0.00000000000E+00 0. -1.
          2    1    6    6  502    0 -0.38116169259E+03  0.95599495736E+02 -0.40307108036E+02  0.39502931845E+03  0.00000000000E+00 0. -1.
          1    1    5    5  503    0  0.18692197355E+02  0.21459068100E+02 -0.23228823567E+02  0.36735107050E+02  0.00000000000E+00 0. -1.
         -2    1    5    5    0  503  0.87668554400E+02 -0.57997273419E+02 -0.23888397186E+02  0.10779663573E+03  0.00000000000E+00 0.  1.
         -1    1    6    6    0  502 -0.11841186209E+04  0.15588664698E+03 -0.13967760345E+03  0.12024755249E+04  0.00000000000E+00 0.  1.
<mgrwt>
<rscale>  0 0.33874840E+04</rscale>
<asrwt>0</asrwt>
<pdfrwt beam="1">  1        2 0.31230201E+00 0.33874840E+04</pdfrwt>
<pdfrwt beam="2">  1       -2 0.21741676E+00 0.33874840E+04</pdfrwt>
<totfact> 0.54729522E-01</totfact>
</mgrwt>
</event>
<event>
12    1  0.2214165E-007  0.4176993E+04  0.7818608E-02  0.7969763E-01
         -3   -1    0    0    0  501 -0.00000000000E+00  0.00000000000E+00  0.24978406542E+04  0.24978406542E+04  0.00000000000E+00 0.  1.
          3   -1    0    0  501    0  0.00000000000E+00 -0.00000000000E+00 -0.17462356778E+04  0.17462356778E+04  0.00000000000E+00 0. -1.
         23    2    1    2    0    0 -0.16612246460E+04 -0.48661057251E+03 -0.64147124832E+03  0.18480572649E+04  0.85866863406E+02 0.  0.
        254    2    1    2    0    0  0.16612246460E+04  0.48661057251E+03  0.13930762246E+04  0.23960190671E+04  0.89654270887E+03 0.  0.
        -24    2    4    4    0    0  0.30217458149E+02 -0.15400250955E+03  0.39619216633E+02  0.18038929368E+03  0.79628809001E+02 0.  0.
         24    2    4    4    0    0  0.16310071878E+04  0.64061308206E+03  0.13534570080E+04  0.22156297735E+04  0.81239478820E+02 0.  0.
         11    1    3    3    0    0 -0.49724756653E+03 -0.18237569714E+03 -0.21529230395E+03  0.57172267181E+03  0.00000000000E+00 0. -1.
        -11    1    3    3    0    0 -0.11639770794E+04 -0.30423487538E+03 -0.42617894436E+03  0.12763345931E+04  0.00000000000E+00 0.  1.
          4    1    6    6  502    0  0.10237310768E+04  0.36540466017E+03  0.86372545678E+03  0.13883686643E+04  0.00000000000E+00 0. -1.
          3    1    5    5  503    0  0.16801190592E+01  0.96717403423E+01  0.29090065874E+01  0.10238538989E+02  0.00000000000E+00 0. -1.
         -4    1    5    5    0  503  0.28537339090E+02 -0.16367424989E+03  0.36710210046E+02  0.17015075469E+03  0.00000000000E+00 0.  1.
         -3    1    6    6    0  502  0.60727611103E+03  0.27520842190E+03  0.48973155123E+03  0.82726110919E+03  0.00000000000E+00 0.  1.
<mgrwt>
<rscale>  0 0.41769934E+04</rscale>
<asrwt>0</asrwt>
<pdfrwt beam="1">  1        3 0.26865164E+00 0.41769934E+04</pdfrwt>
<pdfrwt beam="2">  1       -3 0.38428318E+00 0.41769934E+04</pdfrwt>
<totfact> 0.14938146E-03</totfact>
</mgrwt>
</event>
<event>
12    1  0.2214165E-007  0.1304478E+04  0.7818608E-02  0.9026022E-01
         -1   -1    0    0    0  501 -0.00000000000E+00  0.00000000000E+00  0.91773215716E+03  0.91773215716E+03  0.00000000000E+00 0.  1.
          1   -1    0    0  501    0  0.00000000000E+00 -0.00000000000E+00 -0.46355106589E+03  0.46355106589E+03  0.00000000000E+00 0. -1.
         23    2    1    2    0    0 -0.56684840455E+02 -0.58078221866E+02 -0.21625157956E+03  0.24763693319E+03  0.89291959458E+02 0.  0.
        254    2    1    2    0    0  0.56684840455E+02  0.58078221866E+02  0.67043267083E+03  0.11336462899E+04  0.91054252697E+03 0.  0.
        -24    2    4    4    0    0 -0.32653654175E+03 -0.19299392312E+03  0.10411675405E+03  0.40095645054E+03  0.77801088001E+02 0.  0.
         24    2    4    4    0    0  0.38322138221E+03  0.25107214498E+03  0.56631591678E+03  0.73268983933E+03  0.78897612697E+02 0.  0.
         13    1    3    3    0    0 -0.63338911856E+02 -0.56026922941E+02 -0.22265793312E+03  0.23817512261E+03  0.00000000000E+00 0. -1.
        -13    1    3    3    0    0  0.66540714009E+01 -0.20512989253E+01  0.64063535590E+01  0.94618105779E+01  0.00000000000E+00 0.  1.
          4    1    6    6  502    0  0.15562361587E+03  0.12204116422E+03  0.30032043174E+03  0.35959020746E+03  0.00000000000E+00 0. -1.
          3    1    5    5  503    0 -0.35202740892E+02 -0.44979551089E+02 -0.26511959977E+01  0.57178858179E+02  0.00000000000E+00 0. -1.
         -4    1    5    5    0  503 -0.29133380086E+03 -0.14801437203E+03  0.10676795004E+03  0.34377759236E+03  0.00000000000E+00 0.  1.
         -3    1    6    6    0  502  0.22759776634E+03  0.12903098076E+03  0.26599548504E+03  0.37309963187E+03  0.00000000000E+00 0.  1.
<mgrwt>
<rscale>  0 0.13044780E+04</rscale>
<asrwt>0</asrwt>
<pdfrwt beam="1">  1        1 0.71315549E-01 0.13044780E+04</pdfrwt>
<pdfrwt beam="2">  1       -1 0.14118956E+00 0.13044780E+04</pdfrwt>
<totfact> 0.19805198E+01</totfact>
</mgrwt>
</event>
<event>
12    1  0.2214165E-007  0.2467373E+04  0.7818608E-02  0.8414702E-01
         -1   -1    0    0    0  501 -0.00000000000E+00  0.00000000000E+00  0.63179968372E+03  0.63179968372E+03  0.00000000000E+00 0.  1.
          1   -1    0    0  501    0  0.00000000000E+00 -0.00000000000E+00 -0.24089643824E+04  0.24089643824E+04  0.00000000000E+00 0. -1.
         23    2    1    2    0    0 -0.85470916639E+03 -0.57675198381E+03 -0.43438198943E+03  0.11226153168E+04  0.91688749981E+02 0.  0.
        254    2    1    2    0    0  0.85470916639E+03  0.57675198381E+03 -0.13427827092E+04  0.19181487493E+04  0.90169762682E+03 0.  0.
        -24    2    4    4    0    0  0.32962446579E+03  0.66966599918E+03 -0.45044825061E+03  0.87542607544E+03  0.79764328924E+02 0.  0.
         24    2    4    4    0    0  0.52508470060E+03 -0.92914015369E+02 -0.89233445860E+03  0.10427226738E+04  0.81626168968E+02 0.  0.
         11    1    3    3    0    0 -0.64910772436E+03 -0.41276326919E+03 -0.36003720255E+03  0.84931804493E+03  0.00000000000E+00 0. -1.
        -11    1    3    3    0    0 -0.20560144203E+03 -0.16398871462E+03 -0.74344786879E+02  0.27329727189E+03  0.00000000000E+00 0.  1.
          4    1    6    6  502    0  0.44930473741E+02 -0.12192749729E+02 -0.13084650593E+03  0.13888203170E+03  0.00000000000E+00 0. -1.
          3    1    5    5  503    0  0.30726015532E+02  0.11715967142E+03 -0.92694759966E+02  0.15252145804E+03  0.00000000000E+00 0. -1.
         -4    1    5    5    0  503  0.29889845026E+03  0.55250632777E+03 -0.35775349064E+03  0.72290461740E+03  0.00000000000E+00 0.  1.
         -3    1    6    6    0  502  0.48015422686E+03 -0.80721265641E+02 -0.76148795267E+03  0.90384064213E+03  0.00000000000E+00 0.  1.
<mgrwt>
<rscale>  0 0.24673734E+04</rscale>
<asrwt>0</asrwt>
<pdfrwt beam="1">  1        1 0.37060990E+00 0.24673734E+04</pdfrwt>
<pdfrwt beam="2">  1       -1 0.97199954E-01 0.24673734E+04</pdfrwt>
<totfact> 0.14184373E+00</totfact>
</mgrwt>
</event>
<event>
12    1  0.2214165E-007  0.1725187E+04  0.7818608E-02  0.8747128E-01
          2   -1    0    0  501    0  0.00000000000E+00  0.00000000000E+00  0.20096640715E+04  0.20096640715E+04  0.00000000000E+00 0. -1.
         -2   -1    0    0    0  501 -0.00000000000E+00 -0.00000000000E+00 -0.37024456223E+03  0.37024456223E+03  0.00000000000E+00 0.  1.
         23    2    1    2    0    0 -0.20566485600E+02  0.33631173695E+03 -0.12363509590E+03  0.37054647758E+03  0.92143856954E+02 0.  0.
        254    2    1    2    0    0  0.20566485600E+02 -0.33631173695E+03  0.17630546052E+04  0.20093621562E+04  0.90313131329E+03 0.  0.
        -24    2    4    4    0    0  0.34061113959E+03  0.39112732869E+02  0.12252226159E+04  0.12748953412E+04  0.81497964362E+02 0.  0.
         24    2    4    4    0    0 -0.32004465399E+03 -0.37542446981E+03  0.53783198929E+03  0.73446681498E+03  0.82499336487E+02 0.  0.
         11    1    3    3    0    0 -0.61729637918E+01  0.34606971701E+02  0.14978504769E+02  0.38211301697E+02  0.00000000000E+00 0. -1.
        -11    1    3    3    0    0 -0.14393521809E+02  0.30170476524E+03 -0.13861360067E+03  0.33233517589E+03  0.00000000000E+00 0.  1.
          2    1    6    6  502    0 -0.16235570749E+03 -0.23653205304E+03  0.26925348763E+03  0.39345168505E+03  0.00000000000E+00 0. -1.
          1    1    5    5  503    0  0.33276125051E+03  0.51892330136E+02  0.11555811693E+04  0.12036572197E+04  0.00000000000E+00 0. -1.
         -2    1    5    5    0  503  0.78498890804E+01 -0.12779597267E+02  0.69641446606E+02  0.71238121468E+02  0.00000000000E+00 0.  1.
         -1    1    6    6    0  502 -0.15768894650E+03 -0.13889241677E+03  0.26857850166E+03  0.34101512993E+03  0.00000000000E+00 0.  1.
<mgrwt>
<rscale>  0 0.17251866E+04</rscale>
<asrwt>0</asrwt>
<pdfrwt beam="1">  1        2 0.30917908E+00 0.17251866E+04</pdfrwt>
<pdfrwt beam="2">  1       -2 0.56960703E-01 0.17251866E+04</pdfrwt>
<totfact> 0.18110379E+01</totfact>
</mgrwt>
</event>
<event>
12    1  0.2214165E-007  0.3137302E+04  0.7818608E-02  0.8205575E-01
          2   -1    0    0  501    0  0.00000000000E+00  0.00000000000E+00  0.33641810176E+04  0.33641810176E+04  0.00000000000E+00 0.  1.
         -2   -1    0    0    0  501 -0.00000000000E+00 -0.00000000000E+00 -0.73143067774E+03  0.73143067774E+03  0.00000000000E+00 0. -1.
         23    2    1    2    0    0  0.11262096796E+04 -0.78055913268E+03  0.17808152729E+04  0.22486194194E+04  0.85822231074E+02 0.  0.
        254    2    1    2    0    0 -0.11262096796E+04  0.78055913268E+03  0.85193506695E+03  0.18469922759E+04  0.89886946045E+03 0.  0.
        -24    2    4    4    0    0 -0.10865123117E+04  0.93923000862E+03  0.66868257986E+03  0.15862041448E+04  0.79026475056E+02 0.  0.
         24    2    4    4    0    0 -0.39697367906E+02 -0.15867087594E+03  0.18325248709E+03  0.26078813113E+03  0.87616479194E+02 0.  0.
         13    1    3    3    0    0  0.80066830030E+03 -0.51565161746E+03  0.11982275720E+04  0.15305932288E+04  0.00000000000E+00 0. -1.
        -13    1    3    3    0    0  0.32554137925E+03 -0.26490751522E+03  0.58258770088E+03  0.71802619064E+03  0.00000000000E+00 0.  1.
          2    1    6    6  502    0 -0.66701121578E+02 -0.10690824249E+03  0.11126823043E+03  0.16810422670E+03  0.00000000000E+00 0. -1.
          3    1    5    5  503    0 -0.69452153309E+03  0.64737807054E+03  0.45429612134E+03  0.10525414443E+04  0.00000000000E+00 0. -1.
         -4    1    5    5    0  503 -0.39199077856E+03  0.29185193807E+03  0.21438645852E+03  0.53366270043E+03  0.00000000000E+00 0.  1.
         -1    1    6    6    0  502  0.27003753673E+02 -0.51762633445E+02  0.71984256657E+02  0.92683904428E+02  0.00000000000E+00 0.  1.
<mgrwt>
<rscale>  0 0.31373015E+04</rscale>
<asrwt>0</asrwt>
<pdfrwt beam="1">  1        2 0.51756630E+00 0.31373015E+04</pdfrwt>
<pdfrwt beam="2">  1       -2 0.11252780E+00 0.31373015E+04</pdfrwt>
<totfact> 0.53015132E-01</totfact>
</mgrwt>
</event>
<event>
12    1  0.2214165E-007  0.1664958E+04  0.7818608E-02  0.8781607E-01
         -1   -1    0    0    0  501 -0.00000000000E+00  0.00000000000E+00  0.64012198084E+03  0.64012198084E+03  0.00000000000E+00 0.  1.
          1   -1    0    0  501    0  0.00000000000E+00 -0.00000000000E+00 -0.10826389936E+04  0.10826389936E+04  0.00000000000E+00 0. -1.
         23    2    1    2    0    0 -0.51308293850E+03  0.42083283364E+02 -0.44445348746E+03  0.68621001445E+03  0.91215003729E+02 0.  0.
        254    2    1    2    0    0  0.51308293850E+03 -0.42083283364E+02  0.19364746547E+01  0.10365509600E+04  0.89967162804E+03 0.  0.
        -24    2    4    4    0    0  0.51059214307E+03  0.68395047366E+02 -0.37061186106E+03  0.63993565343E+03  0.82354537813E+02 0.  0.
         24    2    4    4    0    0  0.24907954217E+01 -0.11047833073E+03  0.37254833572E+03  0.39661530661E+03  0.79371111659E+02 0.  0.
         13    1    3    3    0    0 -0.19047108681E+03  0.60035512274E+02 -0.17121024368E+03  0.26305217198E+03  0.00000000000E+00 0.  1.
        -13    1    3    3    0    0 -0.32261185169E+03 -0.17952228911E+02 -0.27324324378E+03  0.42315784247E+03  0.00000000000E+00 0. -1.
          4    1    6    6  502    0  0.36239642662E+02 -0.88885581406E+02  0.26184740795E+03  0.27888711575E+03  0.00000000000E+00 0. -1.
          1    1    5    5  503    0  0.24367293608E+03  0.68374825194E+02 -0.15467944170E+03  0.29660975403E+03  0.00000000000E+00 0. -1.
         -2    1    5    5    0  503  0.26691920700E+03  0.20222172642E-01 -0.21593241936E+03  0.34332589941E+03  0.00000000000E+00 0.  1.
         -3    1    6    6    0  502 -0.33748847240E+02 -0.21592749324E+02  0.11070092777E+03  0.11772819085E+03  0.00000000000E+00 0.  1.
<mgrwt>
<rscale>  0 0.16649577E+04</rscale>
<asrwt>0</asrwt>
<pdfrwt beam="1">  1        1 0.16655984E+00 0.16649577E+04</pdfrwt>
<pdfrwt beam="2">  1       -1 0.98480305E-01 0.16649577E+04</pdfrwt>
<totfact> 0.12312536E+01</totfact>
</mgrwt>
</event>
<event>
12    1  0.2214165E-007  0.1685688E+04  0.7818608E-02  0.8769570E-01
          2   -1    0    0  501    0  0.00000000000E+00  0.00000000000E+00  0.12887488257E+04  0.12887488257E+04  0.00000000000E+00 0. -1.
         -2   -1    0    0    0  501 -0.00000000000E+00 -0.00000000000E+00 -0.55122122946E+03  0.55122122946E+03  0.00000000000E+00 0.  1.
         23    2    1    2    0    0  0.40795577856E+03 -0.30502763902E+03  0.60550516082E+03  0.79637784941E+03  0.90063319033E+02 0.  0.
        254    2    1    2    0    0 -0.40795577856E+03  0.30502763902E+03  0.13202243545E+03  0.10435922058E+04  0.90121306619E+03 0.  0.
        -24    2    4    4    0    0  0.14880697075E+03  0.19675378144E+03  0.34544406500E+03  0.43231640513E+03  0.81916463810E+02 0.  0.
         24    2    4    4    0    0 -0.55676274932E+03  0.10827385757E+03 -0.21342162955E+03  0.61127580065E+03  0.80008282307E+02 0.  0.
         13    1    3    3    0    0  0.13313155955E+03 -0.50459347160E+02  0.17898834645E+03  0.22870720589E+03  0.00000000000E+00 0. -1.
        -13    1    3    3    0    0  0.27482421901E+03 -0.25456829186E+03  0.42651681437E+03  0.56767064352E+03  0.00000000000E+00 0.  1.
          2    1    6    6  502    0 -0.30659153470E+03  0.46393814940E+02 -0.76192496306E+02  0.31930557732E+03  0.00000000000E+00 0. -1.
          1    1    5    5  503    0  0.13469400939E+03  0.12390619025E+03  0.21597228563E+03  0.28308876401E+03  0.00000000000E+00 0. -1.
         -2    1    5    5    0  503  0.14112961363E+02  0.72847591192E+02  0.12947177937E+03  0.14922764112E+03  0.00000000000E+00 0.  1.
         -1    1    6    6    0  502 -0.25017121462E+03  0.61880042635E+02 -0.13722913324E+03  0.29197022333E+03  0.00000000000E+00 0.  1.
<mgrwt>
<rscale>  0 0.16856876E+04</rscale>
<asrwt>0</asrwt>
<pdfrwt beam="1">  1        2 0.19826905E+00 0.16856876E+04</pdfrwt>
<pdfrwt beam="2">  1       -2 0.84803267E-01 0.16856876E+04</pdfrwt>
<totfact> 0.19368598E+01</totfact>
</mgrwt>
</event>
<event>
12    1  0.2214165E-007  0.2071233E+04  0.7818608E-02  0.8574023E-01
          1   -1    0    0  501    0  0.00000000000E+00  0.00000000000E+00  0.86060872436E+03  0.86060872436E+03  0.00000000000E+00 0. -1.
         -1   -1    0    0    0  501 -0.00000000000E+00 -0.00000000000E+00 -0.12462123037E+04  0.12462123037E+04  0.00000000000E+00 0.  1.
         23    2    1    2    0    0 -0.68654249973E+03  0.47477700081E+03 -0.22058388987E+03  0.86785558893E+03  0.88103724866E+02 0.  0.
        254    2    1    2    0    0  0.68654249973E+03 -0.47477700081E+03 -0.16501968948E+03  0.12389654391E+04  0.90058317608E+03 0.  0.
        -24    2    4    4    0    0  0.79933009646E+03 -0.53936717742E+03  0.58036474342E+02  0.96887379237E+03  0.74179768101E+02 0.  0.
         24    2    4    4    0    0 -0.11278759673E+03  0.64590176619E+02 -0.22305616382E+03  0.27009164677E+03  0.79388365311E+02 0.  0.
         11    1    3    3    0    0 -0.37376661875E+03  0.24579931733E+03 -0.73963067551E+02  0.45341959050E+03  0.00000000000E+00 0.  1.
        -11    1    3    3    0    0 -0.31277588098E+03  0.22897768348E+03 -0.14662082232E+03  0.41443599843E+03  0.00000000000E+00 0. -1.
          2    1    6    6  502    0 -0.89992850808E+02  0.79982643237E+02 -0.15206232925E+03  0.19395589291E+03  0.00000000000E+00 0. -1.
          1    1    5    5  503    0  0.69414355498E+03 -0.46001717502E+03  0.25362630649E+02  0.83312324375E+03  0.00000000000E+00 0. -1.
         -2    1    5    5    0  503  0.10518654147E+03 -0.79350002401E+02  0.32673843693E+02  0.13575054862E+03  0.00000000000E+00 0.  1.
         -1    1    6    6    0  502 -0.22794745923E+02 -0.15392466618E+02 -0.70993834563E+02  0.76135753863E+02  0.00000000000E+00 0.  1.
<mgrwt>
<rscale>  0 0.20712327E+04</rscale>
<asrwt>0</asrwt>
<pdfrwt beam="1">  1        1 0.13240134E+00 0.20712327E+04</pdfrwt>
<pdfrwt beam="2">  1       -1 0.19172497E+00 0.20712327E+04</pdfrwt>
<totfact> 0.31082867E+00</totfact>
</mgrwt>
</event>
<event>
12    1  0.2214165E-007  0.1664537E+04  0.7818608E-02  0.8781853E-01
         -2   -1    0    0    0  501 -0.00000000000E+00  0.00000000000E+00  0.68874951931E+03  0.68874951931E+03  0.00000000000E+00 0. -1.
          2   -1    0    0  501    0  0.00000000000E+00 -0.00000000000E+00 -0.10056930819E+04  0.10056930819E+04  0.00000000000E+00 0.  1.
         23    2    1    2    0    0  0.78491777406E+02  0.56116757095E+03  0.37043426755E+02  0.57492117056E+03  0.89956295467E+02 0.  0.
        254    2    1    2    0    0 -0.78491777406E+02 -0.56116757095E+03 -0.35398698938E+03  0.11195214307E+04  0.89830476083E+03 0.  0.
        -24    2    4    4    0    0 -0.46291301652E+03 -0.37007313292E+03 -0.33018324416E+03  0.68303585476E+03  0.79211233990E+02 0.  0.
         24    2    4    4    0    0  0.38442123912E+03 -0.19109443802E+03 -0.23803745219E+02  0.43648557593E+03  0.75208153653E+02 0.  0.
         13    1    3    3    0    0  0.85151710325E+02  0.52308036179E+03  0.53982863756E+02  0.53270820178E+03  0.00000000000E+00 0. -1.
        -13    1    3    3    0    0 -0.66599329184E+01  0.38087209152E+02 -0.16939437001E+02  0.42212968782E+02  0.00000000000E+00 0.  1.
          4    1    6    6  502    0  0.21048182358E+03 -0.77365675885E+02  0.16261371694E+02  0.22483878240E+03  0.00000000000E+00 0. -1.
          3    1    5    5  503    0 -0.21075044950E+03 -0.21685846890E+03 -0.18066366552E+03  0.35225375447E+03  0.00000000000E+00 0. -1.
         -4    1    5    5    0  503 -0.25216256702E+03 -0.15321466402E+03 -0.14951957864E+03  0.33078210030E+03  0.00000000000E+00 0.  1.
         -3    1    6    6    0  502  0.17393941554E+03 -0.11372876214E+03 -0.40065116914E+02  0.21164679352E+03  0.00000000000E+00 0.  1.
<mgrwt>
<rscale>  0 0.16645367E+04</rscale>
<asrwt>0</asrwt>
<pdfrwt beam="1">  1        2 0.15472201E+00 0.16645367E+04</pdfrwt>
<pdfrwt beam="2">  1       -2 0.10596146E+00 0.16645367E+04</pdfrwt>
<totfact> 0.17141896E+01</totfact>
</mgrwt>
</event>
<event>
12    1  0.2214165E-007  0.1627133E+04  0.7818608E-02  0.8804050E-01
          2   -1    0    0  501    0  0.00000000000E+00  0.00000000000E+00  0.84712701583E+03  0.84712701583E+03  0.00000000000E+00 0. -1.
         -2   -1    0    0    0  501 -0.00000000000E+00 -0.00000000000E+00 -0.78133569144E+03  0.78133569144E+03  0.00000000000E+00 0.  1.
         23    2    1    2    0    0 -0.31288970191E+03  0.20026159351E+03 -0.38333171164E+03  0.54161626950E+03  0.91653209664E+02 0.  0.
        254    2    1    2    0    0  0.31288970191E+03 -0.20026159351E+03  0.44912303603E+03  0.10868464378E+04  0.91734345062E+03 0.  0.
        -24    2    4    4    0    0  0.58755449845E+02 -0.54471207773E+03  0.23824995645E+03  0.60278921143E+03  0.80176936576E+02 0.  0.
         24    2    4    4    0    0  0.25413425206E+03  0.34445048421E+03  0.21087307957E+03  0.48405722634E+03  0.81323972687E+02 0.  0.
         13    1    3    3    0    0 -0.18755427335E+03  0.16795537497E+03 -0.23053675077E+03  0.34136901864E+03  0.00000000000E+00 0.  1.
        -13    1    3    3    0    0 -0.12533542856E+03  0.32306218540E+02 -0.15279496087E+03  0.20024725086E+03  0.00000000000E+00 0. -1.
          4    1    6    6  502    0  0.25763702710E+03  0.32396414285E+03  0.19325891930E+03  0.45681354344E+03  0.00000000000E+00 0. -1.
          1    1    5    5  503    0 -0.12584431149E+02 -0.16256195735E+03  0.93556285850E+02  0.18798280908E+03  0.00000000000E+00 0. -1.
         -2    1    5    5    0  503  0.71339880994E+02 -0.38215012037E+03  0.14469367060E+03  0.41480640235E+03  0.00000000000E+00 0.  1.
         -3    1    6    6    0  502 -0.35027750362E+01  0.20486341367E+02  0.17614160273E+02  0.27243682895E+02  0.00000000000E+00 0.  1.
<mgrwt>
<rscale>  0 0.16271332E+04</rscale>
<asrwt>0</asrwt>
<pdfrwt beam="1">  1        2 0.13032723E+00 0.16271332E+04</pdfrwt>
<pdfrwt beam="2">  1       -2 0.12020549E+00 0.16271332E+04</pdfrwt>
<totfact> 0.16133089E+01</totfact>
</mgrwt>
</event>
<event>
12    1  0.2214165E-007  0.1444104E+04  0.7818608E-02  0.8922499E-01
         -1   -1    0    0    0  501 -0.00000000000E+00  0.00000000000E+00  0.93268266528E+03  0.93268266528E+03  0.00000000000E+00 0.  1.
          1   -1    0    0  501    0  0.00000000000E+00 -0.00000000000E+00 -0.55898838743E+03  0.55898838743E+03  0.00000000000E+00 0. -1.
         23    2    1    2    0    0 -0.33755302445E+03  0.21726487587E+03 -0.47569486947E+02  0.41535828676E+03  0.95465070517E+02 0.  0.
        254    2    1    2    0    0  0.33755302445E+03 -0.21726487587E+03  0.42126376480E+03  0.10763127660E+04  0.90545013116E+03 0.  0.
        -24    2    4    4    0    0  0.47598395084E+03  0.10828764848E+03  0.50306292560E+03  0.70543855329E+03  0.79273634213E+02 0.  0.
         24    2    4    4    0    0 -0.13843092639E+03 -0.32555252436E+03 -0.81799160804E+02  0.37087421267E+03  0.75558000353E+02 0.  0.
         13    1    3    3    0    0 -0.95589825914E+02  0.10939936349E+03 -0.38469122648E+02  0.15028475953E+03  0.00000000000E+00 0. -1.
        -13    1    3    3    0    0 -0.24196319853E+03  0.10786551238E+03 -0.91003642988E+01  0.26507352723E+03  0.00000000000E+00 0.  1.
          2    1    6    6  502    0 -0.12063940284E+03 -0.32112795142E+03 -0.81254289339E+02  0.35253267400E+03  0.00000000000E+00 0. -1.
          3    1    5    5  503    0  0.40127713356E+03  0.10426124282E+03  0.38575844265E+03  0.56630673733E+03  0.00000000000E+00 0. -1.
         -4    1    5    5    0  503  0.74706817273E+02  0.40264056678E+01  0.11730448296E+03  0.13913181596E+03  0.00000000000E+00 0.  1.
         -1    1    6    6    0  502 -0.17791523550E+02 -0.44245729398E+01 -0.54487146529E+00  0.18341538671E+02  0.00000000000E+00 0.  1.
<mgrwt>
<rscale>  0 0.14441036E+04</rscale>
<asrwt>0</asrwt>
<pdfrwt beam="1">  1        1 0.85998214E-01 0.14441036E+04</pdfrwt>
<pdfrwt beam="2">  1       -1 0.14348964E+00 0.14441036E+04</pdfrwt>
<totfact> 0.14472823E+01</totfact>
</mgrwt>
</event>
<event>
12    1  0.2889241E-007  0.3296093E+04  0.7818608E-02  0.8163890E-01
          1   -1    0    0  501    0  0.00000000000E+00  0.00000000000E+00  0.20470219686E+04  0.20470219686E+04  0.00000000000E+00 0. -1.
         -1   -1    0    0    0  501 -0.00000000000E+00 -0.00000000000E+00 -0.13268335755E+04  0.13268335755E+04  0.00000000000E+00 0.  1.
         23    2    1    2    0    0  0.25564824204E+03  0.14550710013E+04  0.71674886604E+03  0.16436969940E+04  0.73642574393E+02 0.  0.
        254    2    1    2    0    0 -0.25564824204E+03 -0.14550710013E+04  0.34395271342E+01  0.17301585501E+04  0.90047161858E+03 0.  0.
        -24    2    4    4    0    0  0.36736115801E+02 -0.13983136956E+04  0.10906483622E+03  0.14053233616E+04  0.80049226996E+02 0.  0.
         24    2    4    4    0    0 -0.29238435784E+03 -0.56757305701E+02 -0.10562530909E+03  0.32483518854E+03  0.75174392794E+02 0.  0.
         13    1    3    3    0    0  0.11450714203E+03  0.83784067248E+03  0.42878247229E+03  0.94812619760E+03  0.00000000000E+00 0. -1.
        -13    1    3    3    0    0  0.14114110000E+03  0.61723032877E+03  0.28796639375E+03  0.69557079639E+03  0.00000000000E+00 0.  1.
          2    1    6    6  502    0 -0.25010623287E+02 -0.13457414017E+02 -0.34709267698E+02  0.44848261208E+02  0.00000000000E+00 0. -1.
          1    1    5    5  503    0 -0.64867324825E+01 -0.56560879969E+02  0.18338362808E+02  0.59812259543E+02  0.00000000000E+00 0. -1.
         -2    1    5    5    0  503  0.43222848283E+02 -0.13417528156E+04  0.90726473414E+02  0.13455111020E+04  0.00000000000E+00 0.  1.
         -1    1    6    6    0  502 -0.26737373455E+03 -0.43299891684E+02 -0.70916041389E+02  0.27998692733E+03  0.00000000000E+00 0.  1.
<mgrwt>
<rscale>  0 0.32960931E+04</rscale>
<asrwt>0</asrwt>
<pdfrwt beam="1">  1        1 0.31492646E+00 0.32960931E+04</pdfrwt>
<pdfrwt beam="2">  1       -1 0.20412824E+00 0.32960931E+04</pdfrwt>
<totfact> 0.32394815E-01</totfact>
</mgrwt>
</event>
<event>
12    1  0.2214165E-007  0.4641901E+04  0.7818608E-02  0.7886254E-01
         -2   -1    0    0    0  501 -0.00000000000E+00  0.00000000000E+00  0.19166631323E+04  0.19166631323E+04  0.00000000000E+00 0.  1.
          2   -1    0    0  501    0  0.00000000000E+00 -0.00000000000E+00 -0.28105150347E+04  0.28105150347E+04  0.00000000000E+00 0. -1.
         23    2    1    2    0    0 -0.72965243128E+03 -0.20782021158E+04 -0.60640320512E+02  0.22053942504E+04  0.93647457660E+02 0.  0.
        254    2    1    2    0    0  0.72965243128E+03  0.20782021158E+04 -0.83321158190E+03  0.25217839167E+04  0.90212852609E+03 0.  0.
        -24    2    4    4    0    0  0.41812921289E+03  0.10346039650E+04 -0.88741807770E+03  0.14283089371E+04  0.85546315101E+02 0.  0.
         24    2    4    4    0    0  0.31152321839E+03  0.10435981508E+04  0.54206495807E+02  0.10934749796E+04  0.81273432715E+02 0.  0.
         11    1    3    3    0    0 -0.39429149235E+03 -0.11361609305E+04  0.13334255325E+02  0.12027074638E+04  0.00000000000E+00 0. -1.
        -11    1    3    3    0    0 -0.33536093893E+03 -0.94204118531E+03 -0.73974575836E+02  0.10026867866E+04  0.00000000000E+00 0.  1.
          2    1    6    6  502    0  0.30672964371E+03  0.96519976946E+03  0.39295841034E+02  0.10135274207E+04  0.00000000000E+00 0. -1.
          1    1    5    5  503    0  0.22777043193E+03  0.66131053989E+03 -0.57946861053E+03  0.90829228249E+03  0.00000000000E+00 0. -1.
         -2    1    5    5    0  503  0.19035878096E+03  0.37329342513E+03 -0.30794946717E+03  0.52001665461E+03  0.00000000000E+00 0.  1.
         -1    1    6    6    0  502  0.47935746815E+01  0.78398381344E+02  0.14910654773E+02  0.79947558946E+02  0.00000000000E+00 0.  1.
<mgrwt>
<rscale>  0 0.46419007E+04</rscale>
<asrwt>0</asrwt>
<pdfrwt beam="1">  1        2 0.43238693E+00 0.46419007E+04</pdfrwt>
<pdfrwt beam="2">  1       -2 0.29487125E+00 0.46419007E+04</pdfrwt>
<totfact> 0.58305360E-02</totfact>
</mgrwt>
</event>
<event>
12    1  0.2214165E-007  0.1457356E+04  0.7818608E-02  0.8913316E-01
          2   -1    0    0  501    0  0.00000000000E+00  0.00000000000E+00  0.35917947478E+04  0.35917947478E+04  0.00000000000E+00 0. -1.
         -2   -1    0    0    0  501 -0.00000000000E+00 -0.00000000000E+00 -0.14782915179E+03  0.14782915179E+03  0.00000000000E+00 0.  1.
         23    2    1    2    0    0 -0.32281919463E+03  0.21944894436E+03  0.16210233964E+04  0.16699488160E+04  0.92963028398E+02 0.  0.
        254    2    1    2    0    0  0.32281919463E+03 -0.21944894436E+03  0.18229421996E+04  0.20696750836E+04  0.89892525668E+03 0.  0.
        -24    2    4    4    0    0  0.66347675220E+02  0.11512251065E+03  0.15580615919E+04  0.15658552481E+04  0.81801757287E+02 0.  0.
         24    2    4    4    0    0  0.25647151941E+03 -0.33457145500E+03  0.26488060765E+03  0.50381983545E+03  0.77181549020E+02 0.  0.
         13    1    3    3    0    0 -0.10864083620E+03  0.45047574451E+02  0.64322771628E+03  0.65389143613E+03  0.00000000000E+00 0. -1.
        -13    1    3    3    0    0 -0.21417835843E+03  0.17440136990E+03  0.97779568014E+03  0.10160573799E+04  0.00000000000E+00 0.  1.
          2    1    6    6  502    0  0.78781992693E+02 -0.64596597944E+02  0.37132553168E+02  0.10843500055E+03  0.00000000000E+00 0. -1.
          1    1    5    5  503    0  0.92897743247E+01  0.59511272407E+02  0.10359252427E+04  0.10376748045E+04  0.00000000000E+00 0. -1.
         -2    1    5    5    0  503  0.57057900895E+02  0.55611238241E+02  0.52213634919E+03  0.52818044362E+03  0.00000000000E+00 0.  1.
         -1    1    6    6    0  502  0.17768952672E+03 -0.26997485706E+03  0.22774805449E+03  0.39538483490E+03  0.00000000000E+00 0.  1.
<mgrwt>
<rscale>  0 0.14573565E+04</rscale>
<asrwt>0</asrwt>
<pdfrwt beam="1">  1        2 0.55258374E+00 0.14573565E+04</pdfrwt>
<pdfrwt beam="2">  1       -2 0.22742949E-01 0.14573565E+04</pdfrwt>
<totfact> 0.11740399E+01</totfact>
</mgrwt>
</event>
<event>
12    1  0.2214165E-007  0.3669175E+04  0.7818608E-02  0.8074828E-01
         -2   -1    0    0    0  501 -0.00000000000E+00  0.00000000000E+00  0.15729744382E+04  0.15729744382E+04  0.00000000000E+00 0.  1.
          2   -1    0    0  501    0  0.00000000000E+00 -0.00000000000E+00 -0.21397112859E+04  0.21397112859E+04  0.00000000000E+00 0. -1.
         23    2    1    2    0    0 -0.12362268024E+04 -0.11663248026E+04 -0.55486608477E+03  0.17900739613E+04  0.88984058440E+02 0.  0.
        254    2    1    2    0    0  0.12362268024E+04  0.11663248026E+04 -0.11870762988E+02  0.19226117628E+04  0.89873512423E+03 0.  0.
        -24    2    4    4    0    0  0.13515801047E+04  0.11573303187E+04 -0.80679234486E+01  0.17811874927E+04  0.79884585013E+02 0.  0.
         24    2    4    4    0    0 -0.11535330226E+03  0.89944839018E+01 -0.38028395399E+01  0.14142427014E+03  0.81234706347E+02 0.  0.
         11    1    3    3    0    0 -0.10314168936E+04 -0.10060065346E+04 -0.44741620389E+03  0.15086587472E+04  0.00000000000E+00 0.  1.
        -11    1    3    3    0    0 -0.20480990881E+03 -0.16031826799E+03 -0.10744988088E+03  0.28141521405E+03  0.00000000000E+00 0. -1.
          2    1    6    6  502    0 -0.10258810704E+03  0.25016864588E+02 -0.28464862779E+02  0.10936366687E+03  0.00000000000E+00 0. -1.
          1    1    5    5  503    0  0.10507458300E+04  0.86783645800E+03  0.17461324211E+02  0.13629056515E+04  0.00000000000E+00 0. -1.
         -2    1    5    5    0  503  0.30083427471E+03  0.28949386065E+03 -0.25529247660E+02  0.41828184121E+03  0.00000000000E+00 0.  1.
         -1    1    6    6    0  502 -0.12765195221E+02 -0.16022380686E+02  0.24662023239E+02  0.32060603271E+02  0.00000000000E+00 0.  1.
<mgrwt>
<rscale>  0 0.36691749E+04</rscale>
<asrwt>0</asrwt>
<pdfrwt beam="1">  1        2 0.32918635E+00 0.36691749E+04</pdfrwt>
<pdfrwt beam="2">  1       -2 0.24199607E+00 0.36691749E+04</pdfrwt>
<totfact> 0.32576519E-01</totfact>
</mgrwt>
</event>
<event>
12    1  0.2214165E-007  0.1481123E+04  0.7818608E-02  0.8897104E-01
         -1   -1    0    0    0  501 -0.00000000000E+00  0.00000000000E+00  0.36193824227E+03  0.36193824227E+03  0.00000000000E+00 0.  1.
          1   -1    0    0  501    0  0.00000000000E+00 -0.00000000000E+00 -0.15152621226E+04  0.15152621226E+04  0.00000000000E+00 0. -1.
         23    2    1    2    0    0  0.54330266877E+02  0.27255692869E+03  0.10078406620E+03  0.30919674945E+03  0.90587772868E+02 0.  0.
        254    2    1    2    0    0 -0.54330266877E+02 -0.27255692869E+03 -0.12541079465E+04  0.15680036154E+04  0.89922718994E+03 0.  0.
        -24    2    4    4    0    0  0.40136425113E+03 -0.86282697737E+01 -0.54659450496E+03  0.68282282339E+03  0.79459084872E+02 0.  0.
         24    2    4    4    0    0 -0.45569451801E+03 -0.26392865892E+03 -0.70751344157E+03  0.88518079202E+03  0.75192644669E+02 0.  0.
         11    1    3    3    0    0  0.19071610298E+01  0.20149492662E+03  0.88341152613E+02  0.22001818553E+03  0.00000000000E+00 0.  1.
        -11    1    3    3    0    0  0.52423105847E+02  0.71062002073E+02  0.12442913591E+02  0.89178563926E+02  0.00000000000E+00 0. -1.
          4    1    6    6  502    0 -0.32938193098E+03 -0.15073450368E+03 -0.47365253949E+03  0.59628858384E+03  0.00000000000E+00 0. -1.
          1    1    5    5  503    0  0.69849020934E+02 -0.53698147359E+01 -0.15252151905E+03  0.16784080079E+03  0.00000000000E+00 0. -1.
         -2    1    5    5    0  503  0.33151523020E+03 -0.32584550378E+01 -0.39407298590E+03  0.51498202260E+03  0.00000000000E+00 0.  1.
         -3    1    6    6    0  502 -0.12631258703E+03 -0.11319415524E+03 -0.23386090209E+03  0.28889220818E+03  0.00000000000E+00 0.  1.
<mgrwt>
<rscale>  0 0.14811230E+04</rscale>
<asrwt>0</asrwt>
<pdfrwt beam="1">  1        1 0.23311725E+00 0.14811230E+04</pdfrwt>
<pdfrwt beam="2">  1       -1 0.55682807E-01 0.14811230E+04</pdfrwt>
<totfact> 0.20173656E+01</totfact>
</mgrwt>
</event>
<event>
12    1  0.2214165E-007  0.3036662E+04  0.7818608E-02  0.8233339E-01
         -2   -1    0    0    0  501 -0.00000000000E+00  0.00000000000E+00  0.75090519843E+03  0.75090519843E+03  0.00000000000E+00 0.  1.
          2   -1    0    0  501    0  0.00000000000E+00 -0.00000000000E+00 -0.30700662540E+04  0.30700662540E+04  0.00000000000E+00 0. -1.
         23    2    1    2    0    0  0.36595165869E+03  0.13222983607E+04 -0.12789680423E+04  0.18778988392E+04  0.91385040324E+02 0.  0.
        254    2    1    2    0    0 -0.36595165869E+03 -0.13222983607E+04 -0.10401930133E+04  0.19430726133E+04  0.90063094797E+03 0.  0.
        -24    2    4    4    0    0  0.19414862409E+03 -0.62666127688E+03 -0.14622675466E+03  0.67684652606E+03  0.79629842926E+02 0.  0.
         24    2    4    4    0    0 -0.56010028279E+03 -0.69563708383E+03 -0.89396625862E+03  0.12662260872E+04  0.80805651282E+02 0.  0.
         13    1    3    3    0    0  0.14466322666E+03  0.41941036226E+03 -0.36915880508E+03  0.57715745208E+03  0.00000000000E+00 0. -1.
        -13    1    3    3    0    0  0.22128843203E+03  0.90288799845E+03 -0.90980923725E+03  0.13007413871E+04  0.00000000000E+00 0.  1.
          2    1    6    6  502    0 -0.55488038820E+03 -0.69593371075E+03 -0.88146583766E+03  0.12526763341E+04  0.00000000000E+00 0. -1.
          3    1    5    5  503    0  0.15447265020E+03 -0.56953852556E+03 -0.11805740571E+03  0.60180851008E+03  0.00000000000E+00 0. -1.
         -4    1    5    5    0  503  0.39675973893E+02 -0.57122751316E+02 -0.28169348944E+02  0.75038015980E+02  0.00000000000E+00 0.  1.
         -1    1    6    6    0  502 -0.52198945911E+01  0.29662691334E+00 -0.12500420958E+02  0.13549753178E+02  0.00000000000E+00 0.  1.
<mgrwt>
<rscale>  0 0.30366618E+04</rscale>
<asrwt>0</asrwt>
<pdfrwt beam="1">  1        2 0.47231787E+00 0.30366618E+04</pdfrwt>
<pdfrwt beam="2">  1       -2 0.11552388E+00 0.30366618E+04</pdfrwt>
<totfact> 0.78204859E-01</totfact>
</mgrwt>
</event>
<event>
12    1  0.2214165E-007  0.3581717E+04  0.7818608E-02  0.8094692E-01
         -2   -1    0    0    0  501 -0.00000000000E+00  0.00000000000E+00  0.21318729366E+04  0.21318729366E+04  0.00000000000E+00 0.  1.
          2   -1    0    0  501    0  0.00000000000E+00 -0.00000000000E+00 -0.15043929352E+04  0.15043929352E+04  0.00000000000E+00 0. -1.
         23    2    1    2    0    0  0.11466905128E+04 -0.54127957525E+03  0.14091787934E+04  0.18978432245E+04  0.90229275726E+02 0.  0.
        254    2    1    2    0    0 -0.11466905128E+04  0.54127957525E+03 -0.78169879211E+03  0.17384226473E+04  0.89620175658E+03 0.  0.
        -24    2    4    4    0    0 -0.10330045671E+04  0.60956410740E+03 -0.31048461729E+03  0.12422291434E+04  0.89809300337E+02 0.  0.
         24    2    4    4    0    0 -0.11368594565E+03 -0.68284532150E+02 -0.47121417482E+03  0.49619350392E+03  0.81104397044E+02 0.  0.
         13    1    3    3    0    0  0.10706776628E+04 -0.49732239425E+03  0.12762579945E+04  0.17385380899E+04  0.00000000000E+00 0.  1.
        -13    1    3    3    0    0  0.76012849949E+02 -0.43957181002E+02  0.13292079890E+03  0.15930513457E+03  0.00000000000E+00 0. -1.
          4    1    6    6  502    0 -0.53659967149E+02 -0.66165487759E+02 -0.35841117482E+03  0.36839630031E+03  0.00000000000E+00 0. -1.
          1    1    5    5  503    0 -0.76082742244E+03  0.40195888771E+03 -0.22070886677E+03  0.88833648918E+03  0.00000000000E+00 0. -1.
         -2    1    5    5    0  503 -0.27217714468E+03  0.20760521969E+03 -0.89775750523E+02  0.35389265422E+03  0.00000000000E+00 0.  1.
         -3    1    6    6    0  502 -0.60025978501E+02 -0.21190443908E+01 -0.11280300000E+03  0.12779720362E+03  0.00000000000E+00 0.  1.
<mgrwt>
<rscale>  0 0.35817172E+04</rscale>
<asrwt>0</asrwt>
<pdfrwt beam="1">  1        2 0.23144507E+00 0.35817172E+04</pdfrwt>
<pdfrwt beam="2">  1       -2 0.32798045E+00 0.35817172E+04</pdfrwt>
<totfact> 0.22007702E-01</totfact>
</mgrwt>
</event>
<event>
12    1  0.2214165E-007  0.1829361E+04  0.7818608E-02  0.8690840E-01
          1   -1    0    0  501    0  0.00000000000E+00  0.00000000000E+00  0.33597028367E+04  0.33597028367E+04  0.00000000000E+00 0. -1.
         -1   -1    0    0    0  501 -0.00000000000E+00 -0.00000000000E+00 -0.24902205491E+03  0.24902205491E+03  0.00000000000E+00 0.  1.
         23    2    1    2    0    0  0.44940184930E+02  0.59484652729E+03  0.18608869293E+04  0.19562773231E+04  0.90877884984E+02 0.  0.
        254    2    1    2    0    0 -0.44940184930E+02 -0.59484652729E+03  0.12497938525E+04  0.16524475685E+04  0.90151887484E+03 0.  0.
        -24    2    4    4    0    0  0.32827434198E+03 -0.51244092529E+03  0.10450206048E+04  0.12117428822E+04  0.76765894782E+02 0.  0.
         24    2    4    4    0    0 -0.37321452691E+03 -0.82405602001E+02  0.20477324763E+03  0.44070468625E+03  0.78795756275E+02 0.  0.
         13    1    3    3    0    0  0.65343206880E+02  0.30615097997E+03  0.10219915763E+04  0.10688615154E+04  0.00000000000E+00 0. -1.
        -13    1    3    3    0    0 -0.20403021950E+02  0.28869554732E+03  0.83889535306E+03  0.88741580769E+03  0.00000000000E+00 0.  1.
          2    1    6    6  502    0 -0.51189622563E+02 -0.40934442530E+02  0.33033020463E+02  0.73397455571E+02  0.00000000000E+00 0. -1.
          1    1    5    5  503    0  0.51388869946E+02 -0.75537479340E+02  0.10821253902E+03  0.14162160973E+03  0.00000000000E+00 0. -1.
         -2    1    5    5    0  503  0.27688547203E+03 -0.43690344595E+03  0.93680806582E+03  0.10701212725E+04  0.00000000000E+00 0.  1.
         -1    1    6    6    0  502 -0.32202490434E+03 -0.41471159471E+02  0.17174022716E+03  0.36730723068E+03  0.00000000000E+00 0.  1.
<mgrwt>
<rscale>  0 0.18293607E+04</rscale>
<asrwt>0</asrwt>
<pdfrwt beam="1">  1        1 0.51687733E+00 0.18293607E+04</pdfrwt>
<pdfrwt beam="2">  1       -1 0.38311088E-01 0.18293607E+04</pdfrwt>
<totfact> 0.20040601E+00</totfact>
</mgrwt>
</event>
<event>
12    1  0.2214165E-007  0.1768986E+04  0.7818608E-02  0.8722968E-01
         -2   -1    0    0    0  501 -0.00000000000E+00  0.00000000000E+00  0.26878566076E+04  0.26878566076E+04  0.00000000000E+00 0.  1.
          2   -1    0    0  501    0  0.00000000000E+00 -0.00000000000E+00 -0.29106022128E+03  0.29106022128E+03  0.00000000000E+00 0. -1.
         23    2    1    2    0    0  0.24652829653E+03  0.26854298450E+03 -0.17030072277E+02  0.37714257584E+03  0.95157572657E+02 0.  0.
        254    2    1    2    0    0 -0.24652829653E+03 -0.26854298450E+03  0.24138264586E+04  0.26017742530E+04  0.89987752282E+03 0.  0.
        -24    2    4    4    0    0 -0.28356594428E+03  0.12140753669E+03  0.20069349918E+04  0.20320787217E+04  0.80040210002E+02 0.  0.
         24    2    4    4    0    0  0.37037647747E+02 -0.38995052119E+03  0.40689146682E+03  0.56969553136E+03  0.74559616061E+02 0.  0.
         11    1    3    3    0    0  0.12922667176E+03  0.20426653627E+03 -0.25877397188E+02  0.24309255484E+03  0.00000000000E+00 0. -1.
        -11    1    3    3    0    0  0.11730162478E+03  0.64276448230E+02  0.88473249106E+01  0.13405002100E+03  0.00000000000E+00 0.  1.
          2    1    6    6  502    0  0.18510160778E+02 -0.24548056570E+03  0.20276049739E+03  0.31892813217E+03  0.00000000000E+00 0. -1.
          1    1    5    5  503    0 -0.45406678195E+02  0.16930523271E+02  0.54858311290E+03  0.55071938480E+03  0.00000000000E+00 0. -1.
         -2    1    5    5    0  503 -0.23815926608E+03  0.10447701342E+03  0.14583518789E+04  0.14813593369E+04  0.00000000000E+00 0.  1.
         -1    1    6    6    0  502  0.18527486969E+02 -0.14446995549E+03  0.20413096943E+03  0.25076739918E+03  0.00000000000E+00 0.  1.
<mgrwt>
<rscale>  0 0.17689863E+04</rscale>
<asrwt>0</asrwt>
<pdfrwt beam="1">  1        2 0.44778497E-01 0.17689863E+04</pdfrwt>
<pdfrwt beam="2">  1       -2 0.41351639E+00 0.17689863E+04</pdfrwt>
<totfact> 0.65361350E-01</totfact>
</mgrwt>
</event>
<event>
12    1  0.2214165E-007  0.2347887E+04  0.7818608E-02  0.8459276E-01
          2   -1    0    0  501    0  0.00000000000E+00  0.00000000000E+00  0.14479579082E+04  0.14479579082E+04  0.00000000000E+00 0. -1.
         -2   -1    0    0    0  501 -0.00000000000E+00 -0.00000000000E+00 -0.95178402287E+03  0.95178402287E+03  0.00000000000E+00 0.  1.
         23    2    1    2    0    0 -0.56264353035E+03 -0.48218491196E+03  0.89748964292E+03  0.11674982667E+04  0.92165677235E+02 0.  0.
        254    2    1    2    0    0  0.56264353035E+03  0.48218491196E+03 -0.40131575757E+03  0.12322436644E+04  0.89905510375E+03 0.  0.
        -24    2    4    4    0    0 -0.32732569160E+02 -0.20970672616E+03 -0.18216687137E+03  0.29063397076E+03  0.78962040596E+02 0.  0.
         24    2    4    4    0    0  0.59537609951E+03  0.69189163812E+03 -0.21914888621E+03  0.94160969363E+03  0.73592404827E+02 0.  0.
         13    1    3    3    0    0 -0.93570872179E+02 -0.62592592354E+02  0.92600022883E+02  0.14576729735E+03  0.00000000000E+00 0.  1.
        -13    1    3    3    0    0 -0.46907265817E+03 -0.41959231960E+03  0.80488962004E+03  0.10217309694E+04  0.00000000000E+00 0. -1.
          4    1    6    6  502    0  0.14323885671E+03  0.21673184518E+03 -0.67195114310E+02  0.26833793279E+03  0.00000000000E+00 0. -1.
          3    1    5    5  503    0 -0.17147565055E+02 -0.10134033260E+03 -0.37938134357E+02  0.10955913489E+03  0.00000000000E+00 0. -1.
         -4    1    5    5    0  503 -0.15585004105E+02 -0.10836639356E+03 -0.14422873701E+03  0.18107483587E+03  0.00000000000E+00 0.  1.
         -3    1    6    6    0  502  0.45213724280E+03  0.47515979293E+03 -0.15195377190E+03  0.67327176084E+03  0.00000000000E+00 0.  1.
<mgrwt>
<rscale>  0 0.23478869E+04</rscale>
<asrwt>0</asrwt>
<pdfrwt beam="1">  1        2 0.22276275E+00 0.23478869E+04</pdfrwt>
<pdfrwt beam="2">  1       -2 0.14642831E+00 0.23478869E+04</pdfrwt>
<totfact> 0.39187398E+00</totfact>
</mgrwt>
</event>
<event>
12    1  0.2214165E-007  0.1142328E+04  0.7818608E-02  0.9164890E-01
          1   -1    0    0  501    0  0.00000000000E+00  0.00000000000E+00  0.16443391136E+04  0.16443391136E+04  0.00000000000E+00 0. -1.
         -1   -1    0    0    0  501 -0.00000000000E+00 -0.00000000000E+00 -0.19839488992E+03  0.19839488992E+03  0.00000000000E+00 0.  1.
         23    2    1    2    0    0  0.52801223621E+02 -0.13264816620E+03  0.50374576337E+02  0.17578012826E+03  0.89317133494E+02 0.  0.
        254    2    1    2    0    0 -0.52801223621E+02  0.13264816620E+03  0.13955696474E+04  0.16669538753E+04  0.90040939382E+03 0.  0.
        -24    2    4    4    0    0  0.11096096146E+03 -0.24117493372E+03  0.11524872190E+04  0.11856265369E+04  0.83700726592E+02 0.  0.
         24    2    4    4    0    0 -0.16376218508E+03  0.37382309992E+03  0.24308242841E+03  0.48132733834E+03  0.77622009337E+02 0.  0.
         13    1    3    3    0    0  0.23261077665E+02 -0.35106952223E+02  0.60115772518E+02  0.73399468213E+02  0.00000000000E+00 0. -1.
        -13    1    3    3    0    0  0.29540145956E+02 -0.97541213980E+02 -0.97411961807E+01  0.10238066004E+03  0.00000000000E+00 0.  1.
          2    1    6    6  502    0 -0.13804924416E+03  0.28787986498E+03  0.15242254357E+03  0.35378671860E+03  0.00000000000E+00 0. -1.
          1    1    5    5  503    0  0.10582765690E+03 -0.13333923806E+03  0.72521385402E+03  0.74492548583E+03  0.00000000000E+00 0. -1.
         -2    1    5    5    0  503  0.51333045566E+01 -0.10783569566E+03  0.42727336493E+03  0.44070105112E+03  0.00000000000E+00 0.  1.
         -1    1    6    6    0  502 -0.25712940926E+02  0.85943234948E+02  0.90659884840E+02  0.12754061974E+03  0.00000000000E+00 0.  1.
<mgrwt>
<rscale>  0 0.11423283E+04</rscale>
<asrwt>0</asrwt>
<pdfrwt beam="1">  1        1 0.25297524E+00 0.11423283E+04</pdfrwt>
<pdfrwt beam="2">  1       -1 0.30522292E-01 0.11423283E+04</pdfrwt>
<totfact> 0.51185646E+01</totfact>
</mgrwt>
</event>
<event>
12    1  0.2214165E-007  0.1108891E+04  0.7818608E-02  0.9196570E-01
         -1   -1    0    0    0  501 -0.00000000000E+00  0.00000000000E+00  0.24480487949E+03  0.24480487949E+03  0.00000000000E+00 0.  1.
          1   -1    0    0  501    0  0.00000000000E+00 -0.00000000000E+00 -0.12557331194E+04  0.12557331194E+04  0.00000000000E+00 0. -1.
         23    2    1    2    0    0  0.10051351858E+02  0.24677739075E+02  0.52753776291E+02  0.10827519395E+03  0.90722302838E+02 0.  0.
        254    2    1    2    0    0 -0.10051351858E+02 -0.24677739075E+02 -0.10636820162E+04  0.13922628049E+04  0.89792330738E+03 0.  0.
        -24    2    4    4    0    0  0.14338849721E+03  0.40458380688E+03 -0.50276214307E+03  0.66533881442E+03  0.75217335448E+02 0.  0.
         24    2    4    4    0    0 -0.15343984907E+03 -0.42926154596E+03 -0.56091987314E+03  0.72692399051E+03  0.77318314676E+02 0.  0.
         11    1    3    3    0    0 -0.21343649517E+02  0.35814436266E+02 -0.46043581701E+01  0.41945504335E+02  0.00000000000E+00 0. -1.
        -11    1    3    3    0    0  0.31395001375E+02 -0.11136697192E+02  0.57358134461E+02  0.66329689616E+02  0.00000000000E+00 0.  1.
          4    1    6    6  502    0 -0.42135890959E+02 -0.45544822955E+02 -0.90631235800E+02  0.10983526350E+03  0.00000000000E+00 0. -1.
          1    1    5    5  503    0  0.83936511404E+02  0.12933951267E+03 -0.17696592799E+03  0.23471469310E+03  0.00000000000E+00 0. -1.
         -2    1    5    5    0  503  0.59451985810E+02  0.27524429421E+03 -0.32579621508E+03  0.43062412133E+03  0.00000000000E+00 0.  1.
         -3    1    6    6    0  502 -0.11130395811E+03 -0.38371672300E+03 -0.47028863734E+03  0.61708872702E+03  0.00000000000E+00 0.  1.
<mgrwt>
<rscale>  0 0.11088906E+04</rscale>
<asrwt>0</asrwt>
<pdfrwt beam="1">  1        1 0.19318971E+00 0.11088906E+04</pdfrwt>
<pdfrwt beam="2">  1       -1 0.37662289E-01 0.11088906E+04</pdfrwt>
<totfact> 0.65852107E+01</totfact>
</mgrwt>
</event>
<event>
12    1  0.2214165E-007  0.1215184E+04  0.7818608E-02  0.9099668E-01
         -1   -1    0    0    0  501 -0.00000000000E+00  0.00000000000E+00  0.27973795855E+03  0.27973795855E+03  0.00000000000E+00 0.  1.
          1   -1    0    0  501    0  0.00000000000E+00 -0.00000000000E+00 -0.13196932877E+04  0.13196932877E+04  0.00000000000E+00 0. -1.
         23    2    1    2    0    0  0.25763674116E+03  0.71916807358E-01 -0.27529894207E+03  0.38795496304E+03  0.91339204499E+02 0.  0.
        254    2    1    2    0    0 -0.25763674116E+03 -0.71916807358E-01 -0.76465638711E+03  0.12114762832E+04  0.90365850791E+03 0.  0.
        -24    2    4    4    0    0  0.68726062653E+02 -0.37332207820E+03 -0.52971133123E+03  0.65674021749E+03  0.81369362056E+02 0.  0.
         24    2    4    4    0    0 -0.32636280381E+03  0.37325016139E+03 -0.23494505589E+03  0.55473606574E+03  0.81881381665E+02 0.  0.
         13    1    3    3    0    0  0.10722196940E+03  0.31208307057E+02 -0.70914896147E+02  0.13228541736E+03  0.00000000000E+00 0.  1.
        -13    1    3    3    0    0  0.15041477176E+03 -0.31136390250E+02 -0.20438404592E+03  0.25566954568E+03  0.00000000000E+00 0. -1.
          4    1    6    6  502    0 -0.21484874670E+03  0.23011621486E+03 -0.10619288223E+03  0.33225048463E+03  0.00000000000E+00 0. -1.
          1    1    5    5  503    0  0.54734378572E+02 -0.24292108293E+03 -0.40701055223E+03  0.47714158733E+03  0.00000000000E+00 0. -1.
         -2    1    5    5    0  503  0.13991684081E+02 -0.13040099527E+03 -0.12270077899E+03  0.17959863016E+03  0.00000000000E+00 0.  1.
         -3    1    6    6    0  502 -0.11151405711E+03  0.14313394653E+03 -0.12875217366E+03  0.22248558112E+03  0.00000000000E+00 0.  1.
<mgrwt>
<rscale>  0 0.12151844E+04</rscale>
<asrwt>0</asrwt>
<pdfrwt beam="1">  1        1 0.20302974E+00 0.12151844E+04</pdfrwt>
<pdfrwt beam="2">  1       -1 0.43036608E-01 0.12151844E+04</pdfrwt>
<totfact> 0.46058935E+01</totfact>
</mgrwt>
</event>
<event>
12    1  0.2214165E-007  0.1555268E+04  0.7818608E-02  0.8848510E-01
          2   -1    0    0  501    0  0.00000000000E+00  0.00000000000E+00  0.17315433815E+04  0.17315433815E+04  0.00000000000E+00 0. -1.
         -2   -1    0    0    0  501 -0.00000000000E+00 -0.00000000000E+00 -0.34923457125E+03  0.34923457125E+03  0.00000000000E+00 0.  1.
         23    2    1    2    0    0  0.20080138980E+03  0.44323374855E+03  0.24870364230E+03  0.55407775479E+03  0.91494823082E+02 0.  0.
        254    2    1    2    0    0 -0.20080138980E+03 -0.44323374855E+03  0.11336051679E+04  0.15267001979E+04  0.89943063304E+03 0.  0.
        -24    2    4    4    0    0 -0.54643098823E+03 -0.34655227979E+03  0.77964684628E+03  0.10161994563E+04  0.78274022330E+02 0.  0.
         24    2    4    4    0    0  0.34562959843E+03 -0.96681468764E+02  0.35395832163E+03  0.51050074162E+03  0.80730341449E+02 0.  0.
         13    1    3    3    0    0  0.93509496658E+02  0.17249154150E+03  0.14859424373E+03  0.24612518588E+03  0.00000000000E+00 0. -1.
        -13    1    3    3    0    0  0.10729189315E+03  0.27074220705E+03  0.10010939858E+03  0.30795256891E+03  0.00000000000E+00 0.  1.
          2    1    6    6  502    0  0.15614175219E+03 -0.73777408273E+02  0.12945775065E+03  0.21583016924E+03  0.00000000000E+00 0. -1.
          1    1    5    5  503    0 -0.26666439954E+03 -0.14857344822E+03  0.42212325135E+03  0.52093378737E+03  0.00000000000E+00 0. -1.
         -2    1    5    5    0  503 -0.27976658869E+03 -0.19797883157E+03  0.35752359492E+03  0.49526566893E+03  0.00000000000E+00 0.  1.
         -1    1    6    6    0  502  0.18948784623E+03 -0.22904060491E+02  0.22450057098E+03  0.29467057238E+03  0.00000000000E+00 0.  1.
<mgrwt>
<rscale>  0 0.15552682E+04</rscale>
<asrwt>0</asrwt>
<pdfrwt beam="1">  1        2 0.26639128E+00 0.15552682E+04</pdfrwt>
<pdfrwt beam="2">  1       -2 0.53728397E-01 0.15552682E+04</pdfrwt>
<totfact> 0.29574241E+01</totfact>
</mgrwt>
</event>
<event>
12    1  0.2214165E-007  0.1361666E+04  0.7818608E-02  0.8982044E-01
         -1   -1    0    0    0  501 -0.00000000000E+00  0.00000000000E+00  0.22402162755E+03  0.22402162755E+03  0.00000000000E+00 0.  1.
          1   -1    0    0  501    0  0.00000000000E+00 -0.00000000000E+00 -0.20691450707E+04  0.20691450707E+04  0.00000000000E+00 0. -1.
         23    2    1    2    0    0  0.26791915286E+03 -0.23070867178E+03 -0.31354414596E+03  0.48207338812E+03  0.95276735721E+02 0.  0.
        254    2    1    2    0    0 -0.26791915286E+03  0.23070867178E+03 -0.15315792971E+04  0.18110933101E+04  0.89962029251E+03 0.  0.
        -24    2    4    4    0    0 -0.12660431280E+03  0.13822584822E+02  0.84351935313E+02  0.17260159248E+03  0.80351383721E+02 0.  0.
         24    2    4    4    0    0 -0.14131484006E+03  0.21688608695E+03 -0.16159312325E+04  0.16384917176E+04  0.80074352304E+02 0.  0.
         11    1    3    3    0    0  0.25984939924E+02  0.21022124970E-02 -0.36702258378E+01  0.26242859314E+02  0.00000000000E+00 0. -1.
        -11    1    3    3    0    0  0.24193421294E+03 -0.23071077399E+03 -0.30987392012E+03  0.45583052881E+03  0.00000000000E+00 0.  1.
          2    1    6    6  502    0 -0.90074169504E+02  0.70426999735E+02 -0.77088171979E+03  0.77931504811E+03  0.00000000000E+00 0. -1.
          3    1    5    5  503    0 -0.70189262661E+02 -0.17691117932E+02  0.83854215861E+01  0.72868536020E+02  0.00000000000E+00 0. -1.
         -4    1    5    5    0  503 -0.56415050136E+02  0.31513702754E+02  0.75966513727E+02  0.99733056460E+02  0.00000000000E+00 0.  1.
         -1    1    6    6    0  502 -0.51240670559E+02  0.14645908722E+03 -0.84504951267E+03  0.85917666950E+03  0.00000000000E+00 0.  1.
<mgrwt>
<rscale>  0 0.13616655E+04</rscale>
<asrwt>0</asrwt>
<pdfrwt beam="1">  1        1 0.31833001E+00 0.13616655E+04</pdfrwt>
<pdfrwt beam="2">  1       -1 0.34464866E-01 0.13616655E+04</pdfrwt>
<totfact> 0.20893189E+01</totfact>
</mgrwt>
</event>
<event>
12    1  0.2679056E-007  0.2095781E+04  0.7818608E-02  0.8563104E-01
         -1   -1    0    0    0  501 -0.00000000000E+00  0.00000000000E+00  0.76059397977E+03  0.76059397977E+03  0.00000000000E+00 0.  1.
          1   -1    0    0  501    0  0.00000000000E+00 -0.00000000000E+00 -0.14437070506E+04  0.14437070506E+04  0.00000000000E+00 0. -1.
         23    2    1    2    0    0 -0.25026191394E+03  0.78146445765E+03 -0.52069610935E+03  0.97596969778E+03  0.89859270810E+02 0.  0.
        254    2    1    2    0    0  0.25026191394E+03 -0.78146445765E+03 -0.16241696153E+03  0.12283313326E+04  0.89950034420E+03 0.  0.
        -24    2    4    4    0    0 -0.29121085271E+03 -0.19969200322E+03 -0.22678681320E+03  0.42720177045E+03  0.79927699508E+02 0.  0.
         24    2    4    4    0    0  0.54147276665E+03 -0.58177245443E+03  0.64369851665E+02  0.80112956219E+03  0.77544515341E+02 0.  0.
         13    1    3    3    0    0 -0.59838686981E+02  0.33163299771E+03 -0.21232098261E+03  0.39829802069E+03  0.00000000000E+00 0. -1.
        -13    1    3    3    0    0 -0.19042322696E+03  0.44983145994E+03 -0.30837512674E+03  0.57767167709E+03  0.00000000000E+00 0.  1.
          4    1    6    6  502    0  0.48715952762E+03 -0.55248870672E+03  0.54102467332E+02  0.73857650476E+03  0.00000000000E+00 0. -1.
          1    1    5    5  503    0 -0.26795338590E+03 -0.17570931405E+03 -0.22880745919E+03  0.39373294686E+03  0.00000000000E+00 0. -1.
         -2    1    5    5    0  503 -0.23257466807E+02 -0.23982689174E+02  0.20206459963E+01  0.33468823590E+02  0.00000000000E+00 0.  1.
         -3    1    6    6    0  502  0.54313239028E+02 -0.29283747708E+02  0.10267384333E+02  0.62553057436E+02  0.00000000000E+00 0.  1.
<mgrwt>
<rscale>  0 0.20957814E+04</rscale>
<asrwt>0</asrwt>
<pdfrwt beam="1">  1        1 0.22210877E+00 0.20957814E+04</pdfrwt>
<pdfrwt beam="2">  1       -1 0.11701446E+00 0.20957814E+04</pdfrwt>
<totfact> 0.43359954E+00</totfact>
</mgrwt>
</event>
<event>
12    1  0.2214165E-007  0.1792253E+04  0.7818608E-02  0.8710430E-01
          2   -1    0    0  501    0  0.00000000000E+00  0.00000000000E+00  0.42529330787E+04  0.42529330787E+04  0.00000000000E+00 0. -1.
         -2   -1    0    0    0  501 -0.00000000000E+00 -0.00000000000E+00 -0.18882081519E+03  0.18882081519E+03  0.00000000000E+00 0.  1.
         23    2    1    2    0    0 -0.75452548171E+02  0.65462588910E+03  0.12756631608E+04  0.14387364921E+04  0.91749944002E+02 0.  0.
        254    2    1    2    0    0  0.75452548171E+02 -0.65462588910E+03  0.27884491027E+04  0.30030174018E+04  0.89913123362E+03 0.  0.
        -24    2    4    4    0    0  0.20538987627E+03  0.93547182682E+02  0.22680358255E+03  0.32983853022E+03  0.80109389577E+02 0.  0.
         24    2    4    4    0    0 -0.12993732810E+03 -0.74817307178E+03  0.25616455201E+04  0.26731788715E+04  0.84916746356E+02 0.  0.
         13    1    3    3    0    0 -0.53362296973E+02  0.19858979476E+03  0.33402720224E+03  0.39224942723E+03  0.00000000000E+00 0.  1.
        -13    1    3    3    0    0 -0.22090251198E+02  0.45603609434E+03  0.94163595855E+03  0.10464870649E+04  0.00000000000E+00 0. -1.
          2    1    6    6  502    0 -0.57626765629E+02 -0.49502965953E+03  0.15715833669E+04  0.16487114626E+04  0.00000000000E+00 0. -1.
          1    1    5    5  503    0  0.17357439003E+03  0.90096282462E+02  0.14946588232E+03  0.24614113627E+03  0.00000000000E+00 0. -1.
         -2    1    5    5    0  503  0.31815486241E+02  0.34509002204E+01  0.77337700227E+02  0.83697393947E+02  0.00000000000E+00 0.  1.
         -1    1    6    6    0  502 -0.72310562471E+02 -0.25314341225E+03  0.99006215324E+03  0.10244674089E+04  0.00000000000E+00 0.  1.
<mgrwt>
<rscale>  0 0.17922525E+04</rscale>
<asrwt>0</asrwt>
<pdfrwt beam="1">  1        2 0.65429733E+00 0.17922525E+04</pdfrwt>
<pdfrwt beam="2">  1       -2 0.29049359E-01 0.17922525E+04</pdfrwt>
<totfact> 0.21899644E+00</totfact>
</mgrwt>
</event>
<event>
12    1  0.2214165E-007  0.1399186E+04  0.7818608E-02  0.8954408E-01
         -2   -1    0    0    0  501 -0.00000000000E+00  0.00000000000E+00  0.23706055166E+03  0.23706055166E+03  0.00000000000E+00 0.  1.
          2   -1    0    0  501    0  0.00000000000E+00 -0.00000000000E+00 -0.20645789647E+04  0.20645789647E+04  0.00000000000E+00 0. -1.
         23    2    1    2    0    0  0.13534324733E+03 -0.24604827218E+02  0.85122600162E+02  0.18589790768E+03  0.91591390991E+02 0.  0.
        254    2    1    2    0    0 -0.13534324733E+03  0.24604827218E+02 -0.19126410132E+04  0.21157416087E+04  0.89400431611E+03 0.  0.
        -24    2    4    4    0    0 -0.49187616897E+02 -0.28518132857E+03 -0.16893186495E+04  0.17162914572E+04  0.90061394623E+02 0.  0.
         24    2    4    4    0    0 -0.86155630429E+02  0.30978615579E+03 -0.22332236377E+03  0.39945015152E+03  0.79355468698E+02 0.  0.
         11    1    3    3    0    0  0.46273922108E+02  0.34926107274E+02  0.26048486840E+02  0.63558103364E+02  0.00000000000E+00 0. -1.
        -11    1    3    3    0    0  0.89069325218E+02 -0.59530934492E+02  0.59074113322E+02  0.12233980432E+03  0.00000000000E+00 0.  1.
          2    1    6    6  502    0 -0.47259030126E+02  0.18441368273E+03 -0.84160490117E+02  0.20814612753E+03  0.00000000000E+00 0. -1.
          1    1    5    5  503    0 -0.44441358352E+02 -0.25048956370E+03 -0.16042852429E+04  0.16243309996E+04  0.00000000000E+00 0. -1.
         -2    1    5    5    0  503 -0.47462585451E+01 -0.34691764871E+02 -0.85033406611E+02  0.91960457588E+02  0.00000000000E+00 0.  1.
         -1    1    6    6    0  502 -0.38896600303E+02  0.12537247306E+03 -0.13916187366E+03  0.19130402399E+03  0.00000000000E+00 0.  1.
<mgrwt>
<rscale>  0 0.13991858E+04</rscale>
<asrwt>0</asrwt>
<pdfrwt beam="1">  1        2 0.31762754E+00 0.13991858E+04</pdfrwt>
<pdfrwt beam="2">  1       -2 0.36470854E-01 0.13991858E+04</pdfrwt>
<totfact> 0.42405557E+01</totfact>
</mgrwt>
</event>
<event>
12    1  0.2214165E-007  0.3906329E+04  0.7818608E-02  0.8023714E-01
         -1   -1    0    0    0  501 -0.00000000000E+00  0.00000000000E+00  0.15812524348E+04  0.15812524348E+04  0.00000000000E+00 0.  1.
          1   -1    0    0  501    0  0.00000000000E+00 -0.00000000000E+00 -0.24125510397E+04  0.24125510397E+04  0.00000000000E+00 0. -1.
         23    2    1    2    0    0 -0.12035277219E+04 -0.11446742802E+03 -0.18229111083E+04  0.21892627951E+04  0.91021467578E+02 0.  0.
        254    2    1    2    0    0  0.12035277219E+04  0.11446742802E+03  0.99161250346E+03  0.18045406794E+04  0.90082736259E+03 0.  0.
        -24    2    4    4    0    0  0.11612688807E+04  0.17371499258E+03  0.11278744090E+04  0.16300671187E+04  0.79346184652E+02 0.  0.
         24    2    4    4    0    0  0.42258841294E+02 -0.59247564560E+02 -0.13626190557E+03  0.17447356077E+03  0.81102607395E+02 0.  0.
         13    1    3    3    0    0 -0.10071466974E+04 -0.12657804637E+03 -0.15508498990E+04  0.18535106909E+04  0.00000000000E+00 0.  1.
        -13    1    3    3    0    0 -0.19638102452E+03  0.12110618358E+02 -0.27206120935E+03  0.33575210424E+03  0.00000000000E+00 0. -1.
          4    1    6    6  502    0  0.78838001742E+01  0.15893214870E+02 -0.58040623068E+02  0.60691535738E+02  0.00000000000E+00 0. -1.
          1    1    5    5  503    0  0.15899941611E+03  0.30366937243E+02  0.19410460528E+03  0.25274406619E+03  0.00000000000E+00 0. -1.
         -2    1    5    5    0  503  0.10022694645E+04  0.14334805533E+03  0.93376980375E+03  0.13773230525E+04  0.00000000000E+00 0.  1.
         -3    1    6    6    0  502  0.34375041120E+02 -0.75140779430E+02 -0.78221282499E+02  0.11378202503E+03  0.00000000000E+00 0.  1.
<mgrwt>
<rscale>  0 0.39063293E+04</rscale>
<asrwt>0</asrwt>
<pdfrwt beam="1">  1        1 0.37116170E+00 0.39063293E+04</pdfrwt>
<pdfrwt beam="2">  1       -1 0.24326961E+00 0.39063293E+04</pdfrwt>
<totfact> 0.94776251E-02</totfact>
</mgrwt>
</event>
<event>
12    1  0.2214165E-007  0.1183651E+04  0.7818608E-02  0.9127288E-01
          2   -1    0    0  501    0  0.00000000000E+00  0.00000000000E+00  0.54769214387E+03  0.54769214387E+03  0.00000000000E+00 0. -1.
         -2   -1    0    0    0  501 -0.00000000000E+00 -0.00000000000E+00 -0.63951558334E+03  0.63951558334E+03  0.00000000000E+00 0.  1.
         23    2    1    2    0    0 -0.10849014428E+03  0.11917614101E+03  0.15781676714E+03  0.23866364406E+03  0.77981658184E+02 0.  0.
        254    2    1    2    0    0  0.10849014428E+03 -0.11917614101E+03 -0.24964020661E+03  0.94854408316E+03  0.90080107735E+03 0.  0.
        -24    2    4    4    0    0  0.31278646768E+03 -0.25055049729E+03 -0.46118626022E+03  0.61671880292E+03  0.83895108389E+02 0.  0.
         24    2    4    4    0    0 -0.20429632340E+03  0.13137435628E+03  0.21154605361E+03  0.33182528024E+03  0.79750075634E+02 0.  0.
         11    1    3    3    0    0  0.81982720519E+01  0.28442220148E+02  0.15238936577E+02  0.33292592863E+02  0.00000000000E+00 0.  1.
        -11    1    3    3    0    0 -0.11668841633E+03  0.90733920858E+02  0.14257783056E+03  0.20537105119E+03  0.00000000000E+00 0. -1.
          2    1    6    6  502    0  0.42164386727E+01  0.73387084730E+01  0.23159868763E+02  0.24657950406E+02  0.00000000000E+00 0. -1.
          1    1    5    5  503    0  0.21166554137E+03 -0.18439243245E+03 -0.37436344665E+03  0.46792185324E+03  0.00000000000E+00 0. -1.
         -2    1    5    5    0  503  0.10112092631E+03 -0.66158064834E+02 -0.86822813569E+02  0.14879694969E+03  0.00000000000E+00 0.  1.
         -1    1    6    6    0  502 -0.20851276207E+03  0.12403564781E+03  0.18838618485E+03  0.30716732983E+03  0.00000000000E+00 0.  1.
<mgrwt>
<rscale>  0 0.11836514E+04</rscale>
<asrwt>0</asrwt>
<pdfrwt beam="1">  1        2 0.84260330E-01 0.11836514E+04</pdfrwt>
<pdfrwt beam="2">  1       -2 0.98387013E-01 0.11836514E+04</pdfrwt>
<totfact> 0.46924339E+01</totfact>
</mgrwt>
</event>
<event>
12    1  0.2214165E-007  0.1980625E+04  0.7818608E-02  0.8615733E-01
          1   -1    0    0  501    0  0.00000000000E+00  0.00000000000E+00  0.10272678076E+04  0.10272678076E+04  0.00000000000E+00 0. -1.
         -1   -1    0    0    0  501 -0.00000000000E+00 -0.00000000000E+00 -0.95468694345E+03  0.95468694345E+03  0.00000000000E+00 0.  1.
         23    2    1    2    0    0 -0.72698210907E+03 -0.79775527385E+01  0.32101226634E+03  0.79951235137E+03  0.87203764878E+02 0.  0.
        254    2    1    2    0    0  0.72698210907E+03  0.79775527385E+01 -0.24843140218E+03  0.11824423997E+04  0.89882436480E+03 0.  0.
        -24    2    4    4    0    0  0.93102306740E+03  0.31373815431E+02 -0.22293491914E+03  0.96107349708E+03  0.78574934206E+02 0.  0.
         24    2    4    4    0    0 -0.20404095833E+03 -0.23396262693E+02 -0.25496483041E+02  0.22136890262E+03  0.78574949017E+02 0.  0.
         11    1    3    3    0    0 -0.29652973588E+03  0.79092713985E+01  0.86117292111E+02  0.30888287235E+03  0.00000000000E+00 0.  1.
        -11    1    3    3    0    0 -0.43045237319E+03 -0.15886824137E+02  0.23489497423E+03  0.49062947902E+03  0.00000000000E+00 0. -1.
          2    1    6    6  502    0 -0.51805002957E+02  0.11878722180E+02  0.22760955841E+02  0.57818020398E+02  0.00000000000E+00 0. -1.
          1    1    5    5  503    0  0.95957042915E+02  0.27312541364E+02 -0.22101310810E+02  0.10218706836E+03  0.00000000000E+00 0. -1.
         -2    1    5    5    0  503  0.83506602449E+03  0.40612740668E+01 -0.20083360833E+03  0.85888642872E+03  0.00000000000E+00 0.  1.
         -1    1    6    6    0  502 -0.15223595538E+03 -0.35274984873E+02 -0.48257438882E+02  0.16355088222E+03  0.00000000000E+00 0.  1.
<mgrwt>
<rscale>  0 0.19806253E+04</rscale>
<asrwt>0</asrwt>
<pdfrwt beam="1">  1        1 0.15804120E+00 0.19806253E+04</pdfrwt>
<pdfrwt beam="2">  1       -1 0.14687491E+00 0.19806253E+04</pdfrwt>
<totfact> 0.49437401E+00</totfact>
</mgrwt>
</event>
<event>
12    1  0.2214165E-007  0.2669845E+04  0.7818608E-02  0.8344856E-01
         -1   -1    0    0    0  501 -0.00000000000E+00  0.00000000000E+00  0.16902312650E+04  0.16902312650E+04  0.00000000000E+00 0.  1.
          1   -1    0    0  501    0  0.00000000000E+00 -0.00000000000E+00 -0.10543040534E+04  0.10543040534E+04  0.00000000000E+00 0. -1.
         23    2    1    2    0    0  0.57963747815E+03 -0.10254146495E+04  0.19793140912E+03  0.11992622567E+04  0.10769544176E+03 0.  0.
        254    2    1    2    0    0 -0.57963747815E+03  0.10254146495E+04  0.43799580251E+03  0.15452730617E+04  0.89920726360E+03 0.  0.
        -24    2    4    4    0    0 -0.60752419329E+03  0.10402628432E+04  0.11657953300E+03  0.12129077591E+04  0.79511107490E+02 0.  0.
         24    2    4    4    0    0  0.27886715142E+02 -0.14848193697E+02  0.32141626950E+03  0.33236530266E+03  0.78486549004E+02 0.  0.
         11    1    3    3    0    0  0.34648729764E+03 -0.51465170688E+03  0.12771894317E+03  0.63342872943E+03  0.00000000000E+00 0.  1.
        -11    1    3    3    0    0  0.23315018051E+03 -0.51076294260E+03  0.70212465946E+02  0.56583352727E+03  0.00000000000E+00 0. -1.
          2    1    6    6  502    0  0.44098896848E+02 -0.34947899985E+02  0.17928923618E+03  0.18791141165E+03  0.00000000000E+00 0. -1.
          1    1    5    5  503    0 -0.13878375154E+03  0.19465985040E+03  0.46435318713E+02  0.24353567680E+03  0.00000000000E+00 0. -1.
         -2    1    5    5    0  503 -0.46874044175E+03  0.84560299278E+03  0.70144214289E+02  0.96937208229E+03  0.00000000000E+00 0.  1.
         -1    1    6    6    0  502 -0.16212181706E+02  0.20099706288E+02  0.14212703332E+03  0.14445389101E+03  0.00000000000E+00 0.  1.
<mgrwt>
<rscale>  0 0.26698447E+04</rscale>
<asrwt>0</asrwt>
<pdfrwt beam="1">  1        1 0.16220062E+00 0.26698447E+04</pdfrwt>
<pdfrwt beam="2">  1       -1 0.26003558E+00 0.26698447E+04</pdfrwt>
<totfact> 0.72100183E-01</totfact>
</mgrwt>
</event>
<event>
12    1  0.2214165E-007  0.5647155E+04  0.7818608E-02  0.7735759E-01
          1   -1    0    0  501    0  0.00000000000E+00  0.00000000000E+00  0.47433278230E+04  0.47433278230E+04  0.00000000000E+00 0. -1.
         -1   -1    0    0    0  501 -0.00000000000E+00 -0.00000000000E+00 -0.16808011384E+04  0.16808011384E+04  0.00000000000E+00 0.  1.
         23    2    1    2    0    0 -0.16766939145E+04 -0.21681690376E+04  0.12276659839E+04  0.30045770925E+04  0.89779050554E+02 0.  0.
        254    2    1    2    0    0  0.16766939145E+04  0.21681690376E+04  0.18348607007E+04  0.34195518690E+04  0.90241993273E+03 0.  0.
        -24    2    4    4    0    0  0.17124857678E+04  0.21908880815E+04  0.17106233731E+04  0.32657953082E+04  0.81170070891E+02 0.  0.
         24    2    4    4    0    0 -0.35791853298E+02 -0.22719043832E+02  0.12423732757E+03  0.15375656071E+03  0.80055947208E+02 0.  0.
         11    1    3    3    0    0 -0.15463706921E+04 -0.19710037214E+04  0.11413938639E+04  0.27529798292E+04  0.00000000000E+00 0. -1.
        -11    1    3    3    0    0 -0.13032322237E+03 -0.19716531622E+03  0.86272119993E+02  0.25159726329E+03  0.00000000000E+00 0.  1.
          4    1    6    6  502    0 -0.50762797959E+02  0.45878690442E+01  0.42759854845E+02  0.66530559786E+02  0.00000000000E+00 0. -1.
          1    1    5    5  503    0  0.75317679370E+03  0.90144759511E+03  0.73639167382E+03  0.13864183159E+04  0.00000000000E+00 0. -1.
         -2    1    5    5    0  503  0.95930897407E+03  0.12894404864E+04  0.97423169927E+03  0.18793769924E+04  0.00000000000E+00 0.  1.
         -3    1    6    6    0  502  0.14970944661E+02 -0.27306912876E+02  0.81477472730E+02  0.87226000925E+02  0.00000000000E+00 0.  1.
<mgrwt>
<rscale>  0 0.56471553E+04</rscale>
<asrwt>0</asrwt>
<pdfrwt beam="1">  1        1 0.72974274E+00 0.56471553E+04</pdfrwt>
<pdfrwt beam="2">  1       -1 0.25858479E+00 0.56471553E+04</pdfrwt>
<totfact> 0.73185253E-04</totfact>
</mgrwt>
</event>
<event>
12    1  0.2214165E-007  0.1252461E+04  0.7818608E-02  0.9068137E-01
         -2   -1    0    0    0  501 -0.00000000000E+00  0.00000000000E+00  0.20807692974E+03  0.20807692974E+03  0.00000000000E+00 0.  1.
          2   -1    0    0  501    0  0.00000000000E+00 -0.00000000000E+00 -0.18847103485E+04  0.18847103485E+04  0.00000000000E+00 0. -1.
         23    2    1    2    0    0  0.19323710258E+03 -0.21668027489E+03 -0.47281787153E+03  0.56139731952E+03  0.85552857239E+02 0.  0.
        254    2    1    2    0    0 -0.19323710258E+03  0.21668027489E+03 -0.12038155472E+04  0.15313899587E+04  0.90093973969E+03 0.  0.
        -24    2    4    4    0    0 -0.36346191282E+03 -0.65497610845E+02 -0.12191011451E+03  0.39753555331E+03  0.82328251737E+02 0.  0.
         24    2    4    4    0    0  0.17022481024E+03  0.28217788574E+03 -0.10819054327E+04  0.11338544054E+04  0.80657312685E+02 0.  0.
         13    1    3    3    0    0  0.15129352957E+03 -0.10967076233E+03 -0.27172388740E+03  0.32977458844E+03  0.00000000000E+00 0.  1.
        -13    1    3    3    0    0  0.41943573005E+02 -0.10700951256E+03 -0.20109398413E+03  0.23162273107E+03  0.00000000000E+00 0. -1.
          2    1    6    6  502    0  0.15267653110E+03  0.28282470484E+03 -0.10141877711E+04  0.10638969743E+04  0.00000000000E+00 0. -1.
          3    1    5    5  503    0 -0.19862953685E+02 -0.25033764760E+02 -0.15844056042E+02  0.35668759707E+02  0.00000000000E+00 0. -1.
         -4    1    5    5    0  503 -0.34359895913E+03 -0.40463846084E+02 -0.10606605846E+03  0.36186679361E+03  0.00000000000E+00 0.  1.
         -3    1    6    6    0  502  0.17548279146E+02 -0.64681909861E+00 -0.67717661590E+02  0.69957431107E+02  0.00000000000E+00 0.  1.
<mgrwt>
<rscale>  0 0.12524612E+04</rscale>
<asrwt>0</asrwt>
<pdfrwt beam="1">  1        2 0.28995544E+00 0.12524612E+04</pdfrwt>
<pdfrwt beam="2">  1       -2 0.32011835E-01 0.12524612E+04</pdfrwt>
<totfact> 0.69153515E+01</totfact>
</mgrwt>
</event>
<event>
12    1  0.2214165E-007  0.1518926E+04  0.7818608E-02  0.8871964E-01
         -1   -1    0    0    0  501 -0.00000000000E+00  0.00000000000E+00  0.33566799735E+03  0.33566799735E+03  0.00000000000E+00 0.  1.
          1   -1    0    0  501    0  0.00000000000E+00 -0.00000000000E+00 -0.17183165142E+04  0.17183165142E+04  0.00000000000E+00 0. -1.
         23    2    1    2    0    0 -0.37790983732E+03 -0.28731213487E+03 -0.29749980441E+03  0.56767394262E+03  0.91561255503E+02 0.  0.
        254    2    1    2    0    0  0.37790983732E+03  0.28731213487E+03 -0.10851487125E+04  0.14863105690E+04  0.89789045616E+03 0.  0.
        -24    2    4    4    0    0 -0.11653764695E+03 -0.24500186085E+03 -0.34472073001E+03  0.44605127747E+03  0.80761534536E+02 0.  0.
         24    2    4    4    0    0  0.49444748428E+03  0.53231399572E+03 -0.74042798247E+03  0.10402592915E+04  0.77905658238E+02 0.  0.
         13    1    3    3    0    0 -0.11693020633E+03 -0.14233832683E+03 -0.98549260033E+02  0.20891344880E+03  0.00000000000E+00 0. -1.
        -13    1    3    3    0    0 -0.26097963100E+03 -0.14497380804E+03 -0.19895054438E+03  0.35876049381E+03  0.00000000000E+00 0.  1.
          2    1    6    6  502    0  0.29023806850E+03  0.33012320236E+03 -0.39546110684E+03  0.59127739020E+03  0.00000000000E+00 0. -1.
          1    1    5    5  503    0 -0.21626051726E+02 -0.38839055627E+02 -0.11422688466E+03  0.12257218092E+03  0.00000000000E+00 0. -1.
         -4    1    5    5    0  503 -0.94911595227E+02 -0.20616280522E+03 -0.23049384535E+03  0.32347909655E+03  0.00000000000E+00 0.  1.
         -3    1    6    6    0  502  0.20420941578E+03  0.20219079336E+03 -0.34496687564E+03  0.44898190131E+03  0.00000000000E+00 0.  1.
<mgrwt>
<rscale>  0 0.15189258E+04</rscale>
<asrwt>0</asrwt>
<pdfrwt beam="1">  1        1 0.26435638E+00 0.15189258E+04</pdfrwt>
<pdfrwt beam="2">  1       -1 0.51641231E-01 0.15189258E+04</pdfrwt>
<totfact> 0.16878551E+01</totfact>
</mgrwt>
</event>
<event>
12    1  0.2214165E-007  0.1450851E+04  0.7818608E-02  0.8917810E-01
         -2   -1    0    0    0  501 -0.00000000000E+00  0.00000000000E+00  0.58128258534E+03  0.58128258534E+03  0.00000000000E+00 0. -1.
          2   -1    0    0  501    0  0.00000000000E+00 -0.00000000000E+00 -0.90531265491E+03  0.90531265491E+03  0.00000000000E+00 0.  1.
         23    2    1    2    0    0  0.28681272871E+03  0.30280710429E+03  0.41268658640E+02  0.42887988451E+03  0.91000930718E+02 0.  0.
        254    2    1    2    0    0 -0.28681272871E+03 -0.30280710429E+03 -0.36529872821E+03  0.10577153557E+04  0.90075797480E+03 0.  0.
        -24    2    4    4    0    0  0.28780074020E+03 -0.23474550195E+03 -0.26982519761E+03  0.46595039916E+03  0.79808649085E+02 0.  0.
         24    2    4    4    0    0 -0.57461346891E+03 -0.68061602340E+02 -0.95473530602E+02  0.59176495657E+03  0.79104667416E+02 0.  0.
         13    1    3    3    0    0  0.35931575389E+02  0.93350990300E+02  0.72044202710E+01  0.10028653534E+03  0.00000000000E+00 0. -1.
        -13    1    3    3    0    0  0.25088115332E+03  0.20945611399E+03  0.34064238369E+02  0.32859334917E+03  0.00000000000E+00 0.  1.
          4    1    6    6  502    0 -0.23423432763E+03 -0.66109665038E+02 -0.31398148788E+02  0.24540181703E+03  0.00000000000E+00 0. -1.
          1    1    5    5  503    0  0.15182216601E+03 -0.74980126872E+02 -0.13509711669E+03  0.21661768270E+03  0.00000000000E+00 0. -1.
         -2    1    5    5    0  503  0.13597857419E+03 -0.15976537508E+03 -0.13472808092E+03  0.24933271647E+03  0.00000000000E+00 0.  1.
         -3    1    6    6    0  502 -0.34037914128E+03 -0.19519373024E+01 -0.64075381814E+02  0.34636313954E+03  0.00000000000E+00 0.  1.
<mgrwt>
<rscale>  0 0.14508514E+04</rscale>
<asrwt>0</asrwt>
<pdfrwt beam="1">  1        2 0.13927887E+00 0.14508514E+04</pdfrwt>
<pdfrwt beam="2">  1       -2 0.89428089E-01 0.14508514E+04</pdfrwt>
<totfact> 0.30251509E+01</totfact>
</mgrwt>
</event>
<event>
12    1  0.2214165E-007  0.1432440E+04  0.7818608E-02  0.8930666E-01
          2   -1    0    0  501    0  0.00000000000E+00  0.00000000000E+00  0.31084424968E+04  0.31084424968E+04  0.00000000000E+00 0. -1.
         -2   -1    0    0    0  501 -0.00000000000E+00 -0.00000000000E+00 -0.16502501446E+03  0.16502501446E+03  0.00000000000E+00 0.  1.
         23    2    1    2    0    0  0.30156162265E+03  0.11364182203E+03  0.25913572975E+03  0.42390461721E+03  0.93219751596E+02 0.  0.
        254    2    1    2    0    0 -0.30156162265E+03 -0.11364182203E+03  0.26842817526E+04  0.28495628940E+04  0.90043671842E+03 0.  0.
        -24    2    4    4    0    0  0.21686986309E+03  0.14675359368E+03  0.35941444626E+03  0.45204810226E+03  0.81237847127E+02 0.  0.
         24    2    4    4    0    0 -0.51843148573E+03 -0.26039541571E+03  0.23248673063E+04  0.23975147918E+04  0.80574231988E+02 0.  0.
         13    1    3    3    0    0  0.18838965808E+03  0.63949907755E+02  0.21432814272E+03  0.29243256784E+03  0.00000000000E+00 0. -1.
        -13    1    3    3    0    0  0.11317196457E+03  0.49691914275E+02  0.44807587031E+02  0.13147204937E+03  0.00000000000E+00 0.  1.
          2    1    6    6  502    0 -0.19173385143E+03 -0.13045450833E+03  0.10279868994E+04  0.10538203423E+04  0.00000000000E+00 0. -1.
          1    1    5    5  503    0  0.98176407153E+02  0.90664499535E+02  0.12297453450E+03  0.18160780416E+03  0.00000000000E+00 0. -1.
         -2    1    5    5    0  503  0.11869345593E+03  0.56089094147E+02  0.23643991176E+03  0.27044029810E+03  0.00000000000E+00 0.  1.
         -1    1    6    6    0  502 -0.32669763430E+03 -0.12994090739E+03  0.12968804069E+04  0.13436944494E+04  0.00000000000E+00 0.  1.
<mgrwt>
<rscale>  0 0.14324396E+04</rscale>
<asrwt>0</asrwt>
<pdfrwt beam="1">  1        2 0.47822188E+00 0.14324396E+04</pdfrwt>
<pdfrwt beam="2">  1       -2 0.25388466E-01 0.14324396E+04</pdfrwt>
<totfact> 0.20333299E+01</totfact>
</mgrwt>
</event>
<event>
12    1  0.2214165E-007  0.2110704E+04  0.7818608E-02  0.8556543E-01
          2   -1    0    0  501    0  0.00000000000E+00  0.00000000000E+00  0.14851260446E+04  0.14851260446E+04  0.00000000000E+00 0. -1.
         -2   -1    0    0    0  501 -0.00000000000E+00 -0.00000000000E+00 -0.74994853769E+03  0.74994853769E+03  0.00000000000E+00 0.  1.
         23    2    1    2    0    0 -0.18173574245E+03  0.68644233616E+02  0.11889312457E+04  0.12081757112E+04  0.91603117964E+02 0.  0.
        254    2    1    2    0    0  0.18173574245E+03 -0.68644233616E+02 -0.45375373885E+03  0.10268988710E+04  0.90049371177E+03 0.  0.
        -24    2    4    4    0    0  0.12736276355E+02  0.38180642419E+03 -0.35814232025E+03  0.52991828800E+03  0.81296445900E+02 0.  0.
         24    2    4    4    0    0  0.16899946610E+03 -0.45045065780E+03 -0.95611418591E+02  0.49698058304E+03  0.79884553525E+02 0.  0.
         11    1    3    3    0    0 -0.23931606717E+02  0.10834155490E+02  0.46150146333E+02  0.53103076482E+02  0.00000000000E+00 0.  1.
        -11    1    3    3    0    0 -0.15780413573E+03  0.57810078126E+02  0.11427810994E+04  0.11550726347E+04  0.00000000000E+00 0. -1.
          4    1    6    6  502    0  0.17063837878E+03 -0.42374049781E+03 -0.74386497977E+02  0.46282482310E+03  0.00000000000E+00 0. -1.
          1    1    5    5  503    0  0.18318129433E+02  0.38080758196E+03 -0.33973136561E+03  0.51065386430E+03  0.00000000000E+00 0. -1.
         -2    1    5    5    0  503 -0.55818530776E+01  0.99884222378E+00 -0.18410954648E+02  0.19264423703E+02  0.00000000000E+00 0.  1.
         -3    1    6    6    0  502 -0.16389126818E+01 -0.26710159999E+02 -0.21224920615E+02  0.34155759940E+02  0.00000000000E+00 0.  1.
<mgrwt>
<rscale>  0 0.21107042E+04</rscale>
<asrwt>0</asrwt>
<pdfrwt beam="1">  1        2 0.22848093E+00 0.21107042E+04</pdfrwt>
<pdfrwt beam="2">  1       -2 0.11537670E+00 0.21107042E+04</pdfrwt>
<totfact> 0.69716813E+00</totfact>
</mgrwt>
</event>
<event>
12    1  0.2214165E-007  0.2471057E+04  0.7818608E-02  0.8413370E-01
          2   -1    0    0  501    0  0.00000000000E+00  0.00000000000E+00  0.31221165678E+04  0.31221165678E+04  0.00000000000E+00 0. -1.
         -2   -1    0    0    0  501 -0.00000000000E+00 -0.00000000000E+00 -0.48894077064E+03  0.48894077064E+03  0.00000000000E+00 0.  1.
         23    2    1    2    0    0 -0.88927434964E+03 -0.46071333331E+03  0.59633098325E+03  0.11691748843E+04  0.91069336600E+02 0.  0.
        254    2    1    2    0    0  0.88927434964E+03  0.46071333331E+03  0.20368448139E+04  0.24418824542E+04  0.90054843262E+03 0.  0.
        -24    2    4    4    0    0  0.89081703112E+03  0.92548580726E+02  0.10299600212E+04  0.13670188902E+04  0.76175969339E+02 0.  0.
         24    2    4    4    0    0 -0.15426814796E+01  0.36816475258E+03  0.10068847927E+04  0.10748635639E+04  0.77246555117E+02 0.  0.
         11    1    3    3    0    0 -0.46230417510E+03 -0.26482324140E+03  0.27087249974E+03  0.59768587955E+03  0.00000000000E+00 0.  1.
        -11    1    3    3    0    0 -0.42697017454E+03 -0.19589009191E+03  0.32545848351E+03  0.57148900474E+03  0.00000000000E+00 0. -1.
          4    1    6    6  502    0 -0.10812120937E+02  0.14651612345E+02  0.96581026778E+02  0.98282584606E+02  0.00000000000E+00 0. -1.
          1    1    5    5  503    0  0.21008960277E+02  0.87521100911E+01  0.13039489274E+02  0.26229832700E+02  0.00000000000E+00 0. -1.
         -2    1    5    5    0  503  0.86980807084E+03  0.83796470635E+02  0.10169205319E+04  0.13407890575E+04  0.00000000000E+00 0.  1.
         -3    1    6    6    0  502  0.92694394572E+01  0.35351314024E+03  0.91030376596E+03  0.97658097931E+03  0.00000000000E+00 0.  1.
<mgrwt>
<rscale>  0 0.24710565E+04</rscale>
<asrwt>0</asrwt>
<pdfrwt beam="1">  1        2 0.48032561E+00 0.24710565E+04</pdfrwt>
<pdfrwt beam="2">  1       -2 0.75221659E-01 0.24710565E+04</pdfrwt>
<totfact> 0.20666286E+00</totfact>
</mgrwt>
</event>
<event>
12    1  0.2214165E-007  0.1380386E+04  0.7818608E-02  0.8968140E-01
         -1   -1    0    0    0  501 -0.00000000000E+00  0.00000000000E+00  0.11970370914E+04  0.11970370914E+04  0.00000000000E+00 0.  1.
          1   -1    0    0  501    0  0.00000000000E+00 -0.00000000000E+00 -0.39795454336E+03  0.39795454336E+03  0.00000000000E+00 0. -1.
         23    2    1    2    0    0 -0.37650413837E+03  0.97065330172E+02  0.25010664819E+03  0.47205226656E+03  0.95409445882E+02 0.  0.
        254    2    1    2    0    0  0.37650413837E+03 -0.97065330172E+02  0.54897589983E+03  0.11229393682E+04  0.89913360602E+03 0.  0.
        -24    2    4    4    0    0 -0.43352877424E+02 -0.40285194786E+03  0.86450171069E+02  0.42222751302E+03  0.81444931061E+02 0.  0.
         24    2    4    4    0    0  0.41985701580E+03  0.30578661769E+03  0.46252572877E+03  0.70071185516E+03  0.85332789268E+02 0.  0.
         13    1    3    3    0    0 -0.22834569015E+03  0.16629437709E+02  0.11615787909E+03  0.25673127056E+03  0.00000000000E+00 0. -1.
        -13    1    3    3    0    0 -0.14815844823E+03  0.80435892463E+02  0.13394876910E+03  0.21532099600E+03  0.00000000000E+00 0.  1.
          2    1    6    6  502    0  0.90561662228E+02  0.11293008324E+03  0.12771601534E+03  0.19304403368E+03  0.00000000000E+00 0. -1.
          1    1    5    5  503    0 -0.36294088058E+02 -0.37758729317E+03  0.10057476393E+03  0.39243433582E+03  0.00000000000E+00 0. -1.
         -2    1    5    5    0  503 -0.70587893667E+01 -0.25264654689E+02 -0.14124592862E+02  0.29793177195E+02  0.00000000000E+00 0.  1.
         -1    1    6    6    0  502  0.32929535357E+03  0.19285653444E+03  0.33480971343E+03  0.50766782148E+03  0.00000000000E+00 0.  1.
<mgrwt>
<rscale>  0 0.13803860E+04</rscale>
<asrwt>0</asrwt>
<pdfrwt beam="1">  1        1 0.61223776E-01 0.13803860E+04</pdfrwt>
<pdfrwt beam="2">  1       -1 0.18415955E+00 0.13803860E+04</pdfrwt>
<totfact> 0.11462394E+01</totfact>
</mgrwt>
</event>
<event>
12    1  0.2214165E-007  0.3665859E+04  0.7818608E-02  0.8075570E-01
         -2   -1    0    0    0  501 -0.00000000000E+00  0.00000000000E+00  0.14001756449E+04  0.14001756449E+04  0.00000000000E+00 0.  1.
          2   -1    0    0  501    0  0.00000000000E+00 -0.00000000000E+00 -0.23994344431E+04  0.23994344431E+04  0.00000000000E+00 0. -1.
         23    2    1    2    0    0 -0.14363994989E+04 -0.89334278058E+03 -0.79865652067E+03  0.18729094211E+04  0.92911881254E+02 0.  0.
        254    2    1    2    0    0  0.14363994989E+04  0.89334278058E+03 -0.20060227750E+03  0.19267006669E+04  0.90034956658E+03 0.  0.
        -24    2    4    4    0    0  0.10904271346E+04  0.19408009238E+03 -0.25896810823E+03  0.11402186672E+04  0.79597171645E+02 0.  0.
         24    2    4    4    0    0  0.34597236430E+03  0.69926268820E+03  0.58365830735E+02  0.78648199974E+03  0.80511997533E+02 0.  0.
         11    1    3    3    0    0 -0.52603903393E+03 -0.36218814785E+03 -0.26412784934E+03  0.69113011833E+03  0.00000000000E+00 0.  1.
        -11    1    3    3    0    0 -0.91036046498E+03 -0.53115463273E+03 -0.53452867133E+03  0.11817793028E+04  0.00000000000E+00 0. -1.
          2    1    6    6  502    0  0.32260070564E+02  0.26567278147E+02  0.77892205584E+01  0.42511226492E+02  0.00000000000E+00 0. -1.
          1    1    5    5  503    0  0.79306397553E+03  0.11230903088E+03 -0.20900511699E+03  0.82779642826E+03  0.00000000000E+00 0. -1.
         -2    1    5    5    0  503  0.29736315907E+03  0.81771061503E+02 -0.49962991241E+02  0.31242223891E+03  0.00000000000E+00 0.  1.
         -1    1    6    6    0  502  0.31371229374E+03  0.67269541005E+03  0.50576610177E+02  0.74397077325E+03  0.00000000000E+00 0.  1.
<mgrwt>
<rscale>  0 0.36658585E+04</rscale>
<asrwt>0</asrwt>
<pdfrwt beam="1">  1        2 0.36914375E+00 0.36658585E+04</pdfrwt>
<pdfrwt beam="2">  1       -2 0.21541164E+00 0.36658585E+04</pdfrwt>
<totfact> 0.34092481E-01</totfact>
</mgrwt>
</event>
<event>
12    1  0.2533135E-007  0.3143014E+04  0.7818608E-02  0.8204031E-01
         -2   -1    0    0    0  501 -0.00000000000E+00  0.00000000000E+00  0.11532024383E+04  0.11532024383E+04  0.00000000000E+00 0.  1.
          2   -1    0    0  501    0  0.00000000000E+00 -0.00000000000E+00 -0.21415439291E+04  0.21415439291E+04  0.00000000000E+00 0. -1.
         23    2    1    2    0    0 -0.69383081603E+03 -0.96084681636E+03  0.40560176022E+03  0.12559643640E+04  0.91136655660E+02 0.  0.
        254    2    1    2    0    0  0.69383081603E+03  0.96084681636E+03 -0.13939432510E+04  0.20387820034E+04  0.89940339378E+03 0.  0.
        -24    2    4    4    0    0  0.45124770884E+03  0.70656288396E+03 -0.31181591239E+03  0.89824421011E+03  0.82206411244E+02 0.  0.
         24    2    4    4    0    0  0.24258310719E+03  0.25428393239E+03 -0.10821273386E+04  0.11405377933E+04  0.79498420607E+02 0.  0.
         13    1    3    3    0    0 -0.35412748343E+03 -0.41410971530E+03  0.17731452514E+03  0.57300398921E+03  0.00000000000E+00 0. -1.
        -13    1    3    3    0    0 -0.33970333260E+03 -0.54673710106E+03  0.22828723507E+03  0.68296037480E+03  0.00000000000E+00 0.  1.
          4    1    6    6  502    0  0.27324863119E+02  0.60333463935E+00 -0.94850597209E+02  0.98709918185E+02  0.00000000000E+00 0. -1.
          1    1    5    5  503    0 -0.32449831088E+01  0.11250819740E+02 -0.42532830793E+01  0.12457980460E+02  0.00000000000E+00 0. -1.
         -2    1    5    5    0  503  0.45449269195E+03  0.69531206422E+03 -0.30756262931E+03  0.88578622965E+03  0.00000000000E+00 0.  1.
         -3    1    6    6    0  502  0.21525824407E+03  0.25368059775E+03 -0.98727674137E+03  0.10418278751E+04  0.00000000000E+00 0.  1.
<mgrwt>
<rscale>  0 0.31430136E+04</rscale>
<asrwt>0</asrwt>
<pdfrwt beam="1">  1        2 0.32946829E+00 0.31430136E+04</pdfrwt>
<pdfrwt beam="2">  1       -2 0.17741576E+00 0.31430136E+04</pdfrwt>
<totfact> 0.89045295E-01</totfact>
</mgrwt>
</event>
<event>
12    1  0.2214165E-007  0.3754259E+04  0.7818608E-02  0.8056043E-01
         -2   -1    0    0    0  501 -0.00000000000E+00  0.00000000000E+00  0.11807587383E+04  0.11807587383E+04  0.00000000000E+00 0.  1.
          2   -1    0    0  501    0  0.00000000000E+00 -0.00000000000E+00 -0.29841952104E+04  0.29841952104E+04  0.00000000000E+00 0. -1.
         23    2    1    2    0    0  0.71168991796E+02 -0.16179708824E+04 -0.16375796483E+04  0.23049835441E+04  0.91581834478E+02 0.  0.
        254    2    1    2    0    0 -0.71168991796E+02  0.16179708824E+04 -0.16585682388E+03  0.18599704046E+04  0.89949242251E+03 0.  0.
        -24    2    4    4    0    0 -0.21721172194E+03  0.69201590205E+03  0.32555559599E+03  0.79900208915E+03  0.79692857609E+02 0.  0.
         24    2    4    4    0    0  0.14604273014E+03  0.92595498037E+03 -0.49141241987E+03  0.10609683154E+04  0.73800374319E+02 0.  0.
         11    1    3    3    0    0  0.80968106196E+01 -0.24050718474E+03 -0.29136942754E+03  0.37789602745E+03  0.00000000000E+00 0. -1.
        -11    1    3    3    0    0  0.63072181176E+02 -0.13774636977E+04 -0.13462102208E+04  0.19270875167E+04  0.00000000000E+00 0.  1.
          2    1    6    6  502    0  0.80569362322E+02  0.54021731157E+03 -0.24532918048E+03  0.59875919422E+03  0.00000000000E+00 0. -1.
          3    1    5    5  503    0 -0.58826262731E-01  0.21802850640E+02  0.24675285529E+02  0.32927761426E+02  0.00000000000E+00 0. -1.
         -4    1    5    5    0  503 -0.21715289567E+03  0.67021305141E+03  0.30088031046E+03  0.76607432773E+03  0.00000000000E+00 0.  1.
         -1    1    6    6    0  502  0.65473367819E+02  0.38573766879E+03 -0.24608323939E+03  0.46220912121E+03  0.00000000000E+00 0.  1.
<mgrwt>
<rscale>  0 0.37542587E+04</rscale>
<asrwt>0</asrwt>
<pdfrwt beam="1">  1        2 0.45910696E+00 0.37542587E+04</pdfrwt>
<pdfrwt beam="2">  1       -2 0.18165519E+00 0.37542587E+04</pdfrwt>
<totfact> 0.25305140E-01</totfact>
</mgrwt>
</event>
<event>
12    1  0.2214165E-007  0.2430017E+04  0.7818608E-02  0.8428350E-01
         -2   -1    0    0    0  501 -0.00000000000E+00  0.00000000000E+00  0.14173394461E+04  0.14173394461E+04  0.00000000000E+00 0.  1.
          2   -1    0    0  501    0  0.00000000000E+00 -0.00000000000E+00 -0.10415613510E+04  0.10415613510E+04  0.00000000000E+00 0. -1.
         23    2    1    2    0    0  0.92313688070E+03  0.36726096628E+03 -0.17079410747E+03  0.10121509097E+04  0.90645016006E+02 0.  0.
        254    2    1    2    0    0 -0.92313688070E+03 -0.36726096628E+03  0.54657220260E+03  0.14467498875E+04  0.89848859003E+03 0.  0.
        -24    2    4    4    0    0 -0.28087901921E+03 -0.57994857769E+03  0.35552440132E+03  0.73964542120E+03  0.73785994408E+02 0.  0.
         24    2    4    4    0    0 -0.64225786149E+03  0.21268761142E+03  0.19104780127E+03  0.70710446628E+03  0.75936046526E+02 0.  0.
         13    1    3    3    0    0  0.19386728519E+03  0.78853245872E+02  0.11568762798E+01  0.20929332769E+03  0.00000000000E+00 0.  1.
        -13    1    3    3    0    0  0.72926959551E+03  0.28840772040E+03 -0.17195098375E+03  0.80285758197E+03  0.00000000000E+00 0. -1.
          4    1    6    6  502    0 -0.35965223985E+03  0.13367524986E+03  0.71769565649E+02  0.39034558612E+03  0.00000000000E+00 0. -1.
          3    1    5    5  503    0 -0.47285755618E+02 -0.55248418217E+02  0.56683705348E+02  0.92202889606E+02  0.00000000000E+00 0. -1.
         -4    1    5    5    0  503 -0.23359326359E+03 -0.52470015948E+03  0.29884069598E+03  0.64744253160E+03  0.00000000000E+00 0.  1.
         -3    1    6    6    0  502 -0.28260562164E+03  0.79012361555E+02  0.11927823562E+03  0.31675888015E+03  0.00000000000E+00 0.  1.
<mgrwt>
<rscale>  0 0.24300173E+04</rscale>
<asrwt>0</asrwt>
<pdfrwt beam="1">  1        2 0.16024021E+00 0.24300173E+04</pdfrwt>
<pdfrwt beam="2">  1       -2 0.21805222E+00 0.24300173E+04</pdfrwt>
<totfact> 0.21612575E+00</totfact>
</mgrwt>
</event>
<event>
12    1  0.2214165E-007  0.1973162E+04  0.7818608E-02  0.8619272E-01
          2   -1    0    0  501    0  0.00000000000E+00  0.00000000000E+00  0.27334211894E+04  0.27334211894E+04  0.00000000000E+00 0.  1.
         -2   -1    0    0    0  501 -0.00000000000E+00 -0.00000000000E+00 -0.35608930342E+03  0.35608930342E+03  0.00000000000E+00 0. -1.
         23    2    1    2    0    0 -0.26934090950E+03  0.63904942679E+03  0.38710204249E+03  0.80122343087E+03  0.10574639220E+03 0.  0.
        254    2    1    2    0    0  0.26934090950E+03 -0.63904942679E+03  0.19902298435E+04  0.22882870620E+04  0.89124303788E+03 0.  0.
        -24    2    4    4    0    0  0.26201917716E+03 -0.43969677244E+03  0.20077157317E+04  0.20734380461E+04  0.78965630090E+02 0.  0.
         24    2    4    4    0    0  0.73217323387E+01 -0.19935265435E+03 -0.17485888179E+02  0.21484901590E+03  0.77841215212E+02 0.  0.
         11    1    3    3    0    0 -0.73926125822E+02  0.20422007327E+03  0.17734182774E+03  0.28039442625E+03  0.00000000000E+00 0.  1.
        -11    1    3    3    0    0 -0.19541478368E+03  0.43482935352E+03  0.20976021476E+03  0.52082900462E+03  0.00000000000E+00 0. -1.
          4    1    6    6  502    0 -0.27223896143E+02 -0.84220420348E+02 -0.31237636141E+02  0.93861651576E+02  0.00000000000E+00 0. -1.
          3    1    5    5  503    0  0.23955997991E+03 -0.37227413238E+03  0.16272590086E+04  0.16864011666E+04  0.00000000000E+00 0. -1.
         -4    1    5    5    0  503  0.22459197247E+02 -0.67422640055E+02  0.38045672310E+03  0.38703687949E+03  0.00000000000E+00 0.  1.
         -3    1    6    6    0  502  0.34545628482E+02 -0.11513223400E+03  0.13751747962E+02  0.12098736432E+03  0.00000000000E+00 0.  1.
<mgrwt>
<rscale>  0 0.19731620E+04</rscale>
<asrwt>0</asrwt>
<pdfrwt beam="1">  1        2 0.42052632E+00 0.19731620E+04</pdfrwt>
<pdfrwt beam="2">  1       -2 0.54782971E-01 0.19731620E+04</pdfrwt>
<totfact> 0.74121261E+00</totfact>
</mgrwt>
</event>
<event>
12    1  0.2214165E-007  0.2055916E+04  0.7818608E-02  0.8580915E-01
          1   -1    0    0  501    0  0.00000000000E+00  0.00000000000E+00  0.18494232062E+04  0.18494232062E+04  0.00000000000E+00 0. -1.
         -1   -1    0    0    0  501 -0.00000000000E+00 -0.00000000000E+00 -0.57136606656E+03  0.57136606656E+03  0.00000000000E+00 0.  1.
         23    2    1    2    0    0 -0.81533417270E+03  0.64976931882E+02  0.37098058807E+03  0.90268504023E+03  0.90674529448E+02 0.  0.
        254    2    1    2    0    0  0.81533417270E+03 -0.64976931882E+02  0.90707655161E+03  0.15181042326E+04  0.90158791897E+03 0.  0.
        -24    2    4    4    0    0  0.29366952780E+02  0.24288903261E+03 -0.24418773711E+02  0.25836735141E+03  0.79371983037E+02 0.  0.
         24    2    4    4    0    0  0.78596721992E+03 -0.30786596449E+03  0.93149532532E+03  0.12597368812E+04  0.82021617770E+02 0.  0.
         13    1    3    3    0    0 -0.58863195958E+02 -0.15502222948E+02  0.41431745765E+02  0.73632766564E+02  0.00000000000E+00 0. -1.
        -13    1    3    3    0    0 -0.75647097674E+03  0.80479154830E+02  0.32954884230E+03  0.82905227367E+03  0.00000000000E+00 0.  1.
          4    1    6    6  502    0  0.30376254844E+03 -0.16198018087E+03  0.37164422149E+03  0.50658532569E+03  0.00000000000E+00 0. -1.
          3    1    5    5  503    0  0.25188155354E+02  0.50493844812E+02  0.21736174879E+02  0.60469271803E+02  0.00000000000E+00 0. -1.
         -4    1    5    5    0  503  0.41787974255E+01  0.19239518779E+03 -0.46154948590E+02  0.19789807961E+03  0.00000000000E+00 0.  1.
         -3    1    6    6    0  502  0.48220467147E+03 -0.14588578362E+03  0.55985110383E+03  0.75315155547E+03  0.00000000000E+00 0.  1.
<mgrwt>
<rscale>  0 0.20559160E+04</rscale>
<asrwt>0</asrwt>
<pdfrwt beam="1">  1        1 0.28452664E+00 0.20559160E+04</pdfrwt>
<pdfrwt beam="2">  1       -1 0.87902473E-01 0.20559160E+04</pdfrwt>
<totfact> 0.44286551E+00</totfact>
</mgrwt>
</event>
<event>
12    1  0.2214165E-007  0.3702001E+04  0.7818608E-02  0.8067518E-01
          2   -1    0    0  501    0  0.00000000000E+00  0.00000000000E+00  0.20578013647E+04  0.20578013647E+04  0.00000000000E+00 0. -1.
         -2   -1    0    0    0  501 -0.00000000000E+00 -0.00000000000E+00 -0.16649825521E+04  0.16649825521E+04  0.00000000000E+00 0.  1.
         23    2    1    2    0    0  0.94928894335E+03 -0.84855929180E+03  0.13781889754E+04  0.18785310813E+04  0.90949447153E+02 0.  0.
        254    2    1    2    0    0 -0.94928894335E+03  0.84855929180E+03 -0.98537016273E+03  0.18442528355E+04  0.89950641687E+03 0.  0.
        -24    2    4    4    0    0 -0.57223087497E+03  0.94598021023E+03 -0.49769131506E+03  0.12150022783E+04  0.78785523951E+02 0.  0.
         24    2    4    4    0    0 -0.37705806839E+03 -0.97420918429E+02 -0.48767884767E+03  0.62925055720E+03  0.80386460227E+02 0.  0.
         11    1    3    3    0    0  0.19579353515E+03 -0.13196021018E+03  0.23387251383E+03  0.33233260177E+03  0.00000000000E+00 0.  1.
        -11    1    3    3    0    0  0.75349540821E+03 -0.71659908162E+03  0.11443164615E+04  0.15461984795E+04  0.00000000000E+00 0. -1.
          4    1    6    6  502    0 -0.33115216003E+03 -0.72873806441E+02 -0.37769126906E+03  0.50756579818E+03  0.00000000000E+00 0. -1.
          3    1    5    5  503    0 -0.49355203196E+03  0.83935783097E+03 -0.46208258205E+03  0.10777919508E+04  0.00000000000E+00 0. -1.
         -4    1    5    5    0  503 -0.78678843004E+02  0.10662237926E+03 -0.35608733009E+02  0.13721032746E+03  0.00000000000E+00 0.  1.
         -3    1    6    6    0  502 -0.45905908357E+02 -0.24547111989E+02 -0.10998757861E+03  0.12168475902E+03  0.00000000000E+00 0.  1.
<mgrwt>
<rscale>  0 0.37020013E+04</rscale>
<asrwt>0</asrwt>
<pdfrwt beam="1">  1        2 0.31658482E+00 0.37020013E+04</pdfrwt>
<pdfrwt beam="2">  1       -2 0.25615116E+00 0.37020013E+04</pdfrwt>
<totfact> 0.29538507E-01</totfact>
</mgrwt>
</event>
<event>
12    1  0.2214165E-007  0.1241908E+04  0.7818608E-02  0.9076945E-01
         -2   -1    0    0    0  501 -0.00000000000E+00  0.00000000000E+00  0.31428138946E+03  0.31428138946E+03  0.00000000000E+00 0.  1.
          2   -1    0    0  501    0  0.00000000000E+00 -0.00000000000E+00 -0.12268752849E+04  0.12268752849E+04  0.00000000000E+00 0. -1.
         23    2    1    2    0    0 -0.15424049353E+03  0.23316336189E+03 -0.29432385056E+03  0.41603810232E+03  0.91136657839E+02 0.  0.
        254    2    1    2    0    0  0.15424049353E+03 -0.23316336189E+03 -0.61827004484E+03  0.11251185720E+04  0.89748463470E+03 0.  0.
        -24    2    4    4    0    0 -0.81841924966E+02 -0.51869680814E+03 -0.21641946826E+03  0.57237345509E+03  0.70919012859E+02 0.  0.
         24    2    4    4    0    0  0.23608241850E+03  0.28553344625E+03 -0.40185057658E+03  0.55274511690E+03  0.82334811037E+02 0.  0.
         11    1    3    3    0    0 -0.47257957644E+01  0.50511698126E+01 -0.48093858704E+02  0.48588750829E+02  0.00000000000E+00 0. -1.
        -11    1    3    3    0    0 -0.14951469777E+03  0.22811219208E+03 -0.24622999186E+03  0.36744935150E+03  0.00000000000E+00 0.  1.
          4    1    6    6  502    0  0.17507721550E+03  0.14960579304E+03 -0.25372678126E+03  0.34265318360E+03  0.00000000000E+00 0. -1.
          3    1    5    5  503    0 -0.52309976685E+02 -0.15319102885E+03 -0.85021333628E+02  0.18284543241E+03  0.00000000000E+00 0. -1.
         -4    1    5    5    0  503 -0.29531948282E+02 -0.36550577929E+03 -0.13139813463E+03  0.38952802268E+03  0.00000000000E+00 0.  1.
         -3    1    6    6    0  502  0.61005202999E+02  0.13592765322E+03 -0.14812379532E+03  0.21009193331E+03  0.00000000000E+00 0.  1.
<mgrwt>
<rscale>  0 0.12419083E+04</rscale>
<asrwt>0</asrwt>
<pdfrwt beam="1">  1        2 0.18875004E+00 0.12419083E+04</pdfrwt>
<pdfrwt beam="2">  1       -2 0.48350984E-01 0.12419083E+04</pdfrwt>
<totfact> 0.72758244E+01</totfact>
</mgrwt>
</event>
<event>
12    1  0.2214165E-007  0.2087046E+04  0.7818608E-02  0.8566971E-01
          1   -1    0    0  501    0  0.00000000000E+00  0.00000000000E+00  0.70483596373E+03  0.70483596373E+03  0.00000000000E+00 0. -1.
         -1   -1    0    0    0  501 -0.00000000000E+00 -0.00000000000E+00 -0.15449554487E+04  0.15449554487E+04  0.00000000000E+00 0.  1.
         23    2    1    2    0    0 -0.54279339483E+03  0.58302136529E+03 -0.47722184255E+02  0.80320924222E+03  0.91263892468E+02 0.  0.
        254    2    1    2    0    0  0.54279339483E+03 -0.58302136529E+03 -0.79239730071E+03  0.14465821702E+04  0.91113550644E+03 0.  0.
        -24    2    4    4    0    0  0.38527410087E+03 -0.16269396065E+02  0.71423898528E+02  0.39831673645E+03  0.69670820315E+02 0.  0.
         24    2    4    4    0    0  0.15751929396E+03 -0.56675196922E+03 -0.86382119924E+03  0.10482654337E+04  0.81567350976E+02 0.  0.
         11    1    3    3    0    0 -0.18463206977E+03  0.17941848850E+03  0.25280418629E+02  0.25868725282E+03  0.00000000000E+00 0. -1.
        -11    1    3    3    0    0 -0.35816132506E+03  0.40360287679E+03 -0.73002602883E+02  0.54452198941E+03  0.00000000000E+00 0.  1.
          4    1    6    6  502    0  0.74466910818E+02 -0.39164284712E+03 -0.54682116206E+03  0.67671472851E+03  0.00000000000E+00 0. -1.
          1    1    5    5  503    0  0.38434120858E+03 -0.23035188117E+02  0.70150158032E+02  0.39136917249E+03  0.00000000000E+00 0. -1.
         -2    1    5    5    0  503  0.93289229387E+00  0.67657920522E+01  0.12737404962E+01  0.69475639600E+01  0.00000000000E+00 0.  1.
         -3    1    6    6    0  502  0.83052383144E+02 -0.17510912210E+03 -0.31700003718E+03  0.37155070523E+03  0.00000000000E+00 0.  1.
<mgrwt>
<rscale>  0 0.20870459E+04</rscale>
<asrwt>0</asrwt>
<pdfrwt beam="1">  1        1 0.10843630E+00 0.20870459E+04</pdfrwt>
<pdfrwt beam="2">  1       -1 0.23768545E+00 0.20870459E+04</pdfrwt>
<totfact> 0.20840692E+00</totfact>
</mgrwt>
</event>
<event>
12    1  0.2214165E-007  0.1846500E+04  0.7818608E-02  0.8681955E-01
         -1   -1    0    0    0  501 -0.00000000000E+00  0.00000000000E+00  0.38483397945E+03  0.38483397945E+03  0.00000000000E+00 0.  1.
          1   -1    0    0  501    0  0.00000000000E+00 -0.00000000000E+00 -0.22149557305E+04  0.22149557305E+04  0.00000000000E+00 0. -1.
         23    2    1    2    0    0  0.41148456162E+03 -0.54533186421E+03 -0.91417016654E+03  0.11447772993E+04  0.90008805092E+02 0.  0.
        254    2    1    2    0    0 -0.41148456162E+03  0.54533186421E+03 -0.91595158451E+03  0.14550124107E+04  0.90077046101E+03 0.  0.
        -24    2    4    4    0    0 -0.14079168863E+03  0.12767598080E+03  0.16473529473E+03  0.26245985591E+03  0.74993352850E+02 0.  0.
         24    2    4    4    0    0 -0.27069287299E+03  0.41765588340E+03 -0.10806868792E+04  0.11925525548E+04  0.81156616857E+02 0.  0.
         11    1    3    3    0    0  0.19583885213E+03 -0.23999852344E+03 -0.34311014963E+03  0.46225179506E+03  0.00000000000E+00 0.  1.
        -11    1    3    3    0    0  0.21564570950E+03 -0.30533334077E+03 -0.57106001691E+03  0.68252550423E+03  0.00000000000E+00 0. -1.
          4    1    6    6  502    0 -0.49797848145E+02  0.39161372276E+02 -0.18192088772E+03  0.19263605100E+03  0.00000000000E+00 0. -1.
          3    1    5    5  503    0 -0.16590065009E+02  0.25433363072E+02 -0.24265904469E+01  0.30462674790E+02  0.00000000000E+00 0. -1.
         -4    1    5    5    0  503 -0.12420162362E+03  0.10224261773E+03  0.16716188517E+03  0.23199718112E+03  0.00000000000E+00 0.  1.
         -3    1    6    6    0  502 -0.22089502485E+03  0.37849451113E+03 -0.89876599153E+03  0.99991650375E+03  0.00000000000E+00 0.  1.
<mgrwt>
<rscale>  0 0.18464996E+04</rscale>
<asrwt>0</asrwt>
<pdfrwt beam="1">  1        1 0.34076241E+00 0.18464996E+04</pdfrwt>
<pdfrwt beam="2">  1       -1 0.59205229E-01 0.18464996E+04</pdfrwt>
<totfact> 0.57855061E+00</totfact>
</mgrwt>
</event>
<event>
12    1  0.2282003E-007  0.2649583E+04  0.7818608E-02  0.8351551E-01
         -1   -1    0    0    0  501 -0.00000000000E+00  0.00000000000E+00  0.10719844487E+04  0.10719844487E+04  0.00000000000E+00 0.  1.
          1   -1    0    0  501    0  0.00000000000E+00 -0.00000000000E+00 -0.16372187249E+04  0.16372187249E+04  0.00000000000E+00 0. -1.
         23    2    1    2    0    0  0.34505440626E+01 -0.10670461109E+04 -0.73447525815E+03  0.12985471219E+04  0.90395873017E+02 0.  0.
        254    2    1    2    0    0 -0.34505440626E+01  0.10670461109E+04  0.16924098189E+03  0.14106560517E+04  0.90703289752E+03 0.  0.
        -24    2    4    4    0    0  0.13213420396E+03  0.43640590385E+03 -0.34878779378E+03  0.57963836191E+03  0.80113324340E+02 0.  0.
         24    2    4    4    0    0 -0.13558474802E+03  0.63064020708E+03  0.51802877567E+03  0.83101768980E+03  0.78398301368E+02 0.  0.
         13    1    3    3    0    0  0.59836220680E+01 -0.33508525606E+03 -0.28218891612E+03  0.43811929534E+03  0.00000000000E+00 0. -1.
        -13    1    3    3    0    0 -0.25330780054E+01 -0.73196085487E+03 -0.45228634203E+03  0.86042782657E+03  0.00000000000E+00 0.  1.
          4    1    6    6  502    0 -0.14166115839E+03  0.53323878067E+03  0.42858845691E+03  0.69864121436E+03  0.00000000000E+00 0. -1.
          1    1    5    5  503    0  0.13362017270E+03  0.32353511191E+03 -0.26075598485E+03  0.43648940746E+03  0.00000000000E+00 0. -1.
         -2    1    5    5    0  503 -0.14859687400E+01  0.11287079194E+03 -0.88031808930E+02  0.14314895445E+03  0.00000000000E+00 0.  1.
         -3    1    6    6    0  502  0.60764103721E+01  0.97401426409E+02  0.89440318766E+02  0.13237647544E+03  0.00000000000E+00 0.  1.
<mgrwt>
<rscale>  0 0.26495834E+04</rscale>
<asrwt>0</asrwt>
<pdfrwt beam="1">  1        1 0.25187980E+00 0.26495834E+04</pdfrwt>
<pdfrwt beam="2">  1       -1 0.16492069E+00 0.26495834E+04</pdfrwt>
<totfact> 0.12382201E+00</totfact>
</mgrwt>
</event>
<event>
12    1  0.2214165E-007  0.2069499E+04  0.7818608E-02  0.8574800E-01
         -1   -1    0    0    0  501 -0.00000000000E+00  0.00000000000E+00  0.77240646940E+03  0.77240646940E+03  0.00000000000E+00 0.  1.
          1   -1    0    0  501    0  0.00000000000E+00 -0.00000000000E+00 -0.13861952645E+04  0.13861952645E+04  0.00000000000E+00 0. -1.
         23    2    1    2    0    0  0.89840472603E+02  0.82744161492E+03 -0.16389052130E+03  0.85321465333E+03  0.91565304955E+02 0.  0.
        254    2    1    2    0    0 -0.89840472603E+02 -0.82744161492E+03 -0.44989827377E+03  0.13053870805E+04  0.89938647792E+03 0.  0.
        -24    2    4    4    0    0 -0.32480544102E+03 -0.33491732356E+03  0.14352255552E+03  0.49510164981E+03  0.82817459308E+02 0.  0.
         24    2    4    4    0    0  0.23496496842E+03 -0.49252429135E+03 -0.59342082928E+03  0.81028543072E+03  0.81397080116E+02 0.  0.
         13    1    3    3    0    0  0.60052825176E+02  0.47722069528E+03 -0.13987326295E+03  0.50090963607E+03  0.00000000000E+00 0.  1.
        -13    1    3    3    0    0  0.29787647428E+02  0.35022091964E+03 -0.24017258345E+02  0.35230501726E+03  0.00000000000E+00 0. -1.
          2    1    6    6  502    0  0.10380641083E+03 -0.28166086250E+03 -0.28085138208E+03  0.41107920308E+03  0.00000000000E+00 0. -1.
          3    1    5    5  503    0 -0.18664106108E+03 -0.17371236042E+03  0.37255180758E+02  0.25767968166E+03  0.00000000000E+00 0. -1.
         -4    1    5    5    0  503 -0.13816437994E+03 -0.16120496314E+03  0.10626737476E+03  0.23742196815E+03  0.00000000000E+00 0.  1.
         -1    1    6    6    0  502  0.13115855759E+03 -0.21086342886E+03 -0.31256944720E+03  0.39920622764E+03  0.00000000000E+00 0.  1.
<mgrwt>
<rscale>  0 0.20694987E+04</rscale>
<asrwt>0</asrwt>
<pdfrwt beam="1">  1        1 0.21326081E+00 0.20694987E+04</pdfrwt>
<pdfrwt beam="2">  1       -1 0.11883177E+00 0.20694987E+04</pdfrwt>
<totfact> 0.45940265E+00</totfact>
</mgrwt>
</event>
<event>
12    1  0.2214165E-007  0.1701463E+04  0.7818608E-02  0.8760530E-01
          2   -1    0    0  501    0  0.00000000000E+00  0.00000000000E+00  0.30153184145E+04  0.30153184145E+04  0.00000000000E+00 0. -1.
         -2   -1    0    0    0  501 -0.00000000000E+00 -0.00000000000E+00 -0.24002242250E+03  0.24002242250E+03  0.00000000000E+00 0.  1.
         23    2    1    2    0    0 -0.59675099695E+03  0.30088845431E+02  0.77953564689E+03  0.98642060407E+03  0.91283582198E+02 0.  0.
        254    2    1    2    0    0  0.59675099695E+03 -0.30088845431E+02  0.19957603451E+04  0.22689202329E+04  0.89884513535E+03 0.  0.
        -24    2    4    4    0    0 -0.96927289229E+02  0.73700700142E+02 -0.43237370102E+01  0.14793712014E+03  0.83904732968E+02 0.  0.
         24    2    4    4    0    0  0.69367828618E+03 -0.10378954557E+03  0.20000840821E+04  0.21209831128E+04  0.79190875401E+02 0.  0.
         13    1    3    3    0    0 -0.29867509561E+03  0.51895555251E+02  0.43659644643E+03  0.53152273557E+03  0.00000000000E+00 0. -1.
        -13    1    3    3    0    0 -0.29807590134E+03 -0.21806709819E+02  0.34293920046E+03  0.45489786850E+03  0.00000000000E+00 0.  1.
          4    1    6    6  502    0  0.36407937526E+03 -0.76209657179E+02  0.11578562141E+04  0.12161384444E+04  0.00000000000E+00 0. -1.
          3    1    5    5  503    0  0.71384096109E+01  0.33130860739E+02 -0.12065963123E+02  0.35974967563E+02  0.00000000000E+00 0. -1.
         -4    1    5    5    0  503 -0.10406569884E+03  0.40569839404E+02  0.77422261129E+01  0.11196215258E+03  0.00000000000E+00 0.  1.
         -3    1    6    6    0  502  0.32959891091E+03 -0.27579888395E+02  0.84222786800E+03  0.90484466841E+03  0.00000000000E+00 0.  1.
<mgrwt>
<rscale>  0 0.17014629E+04</rscale>
<asrwt>0</asrwt>
<pdfrwt beam="1">  1        2 0.46389512E+00 0.17014629E+04</pdfrwt>
<pdfrwt beam="2">  1       -2 0.36926529E-01 0.17014629E+04</pdfrwt>
<totfact> 0.11252309E+01</totfact>
</mgrwt>
</event>
<event>
12    1  0.2214165E-007  0.5095615E+04  0.7818608E-02  0.7813925E-01
         -1   -1    0    0    0  501 -0.00000000000E+00  0.00000000000E+00  0.22891062753E+04  0.22891062753E+04  0.00000000000E+00 0.  1.
          1   -1    0    0  501    0  0.00000000000E+00 -0.00000000000E+00 -0.28357459622E+04  0.28357459622E+04  0.00000000000E+00 0. -1.
         23    2    1    2    0    0  0.19361867052E+04 -0.15241251006E+04 -0.39669568876E+03  0.24973953361E+04  0.88542169502E+02 0.  0.
        254    2    1    2    0    0 -0.19361867052E+04  0.15241251006E+04 -0.14994399815E+03  0.26274569014E+04  0.89959451222E+03 0.  0.
        -24    2    4    4    0    0 -0.13111802905E+04  0.14886530568E+04 -0.19314167427E+03  0.19947170233E+04  0.79439402291E+02 0.  0.
         24    2    4    4    0    0 -0.62500641464E+03  0.35472043777E+02  0.43197676121E+02  0.63273987812E+03  0.81255337720E+02 0.  0.
         13    1    3    3    0    0  0.93164545821E+03 -0.68268066051E+03 -0.16648100346E+03  0.11669327609E+04  0.00000000000E+00 0.  1.
        -13    1    3    3    0    0  0.10045412470E+04 -0.84144444010E+03 -0.23021468530E+03  0.13304625752E+04  0.00000000000E+00 0. -1.
          2    1    6    6  502    0 -0.26793986229E+01  0.63416453954E+01 -0.39723925464E+01  0.79483045893E+01  0.00000000000E+00 0. -1.
          1    1    5    5  503    0 -0.23532996186E+03  0.23064964668E+03 -0.49217539007E+02  0.33316935124E+03  0.00000000000E+00 0. -1.
         -2    1    5    5    0  503 -0.10758503287E+04  0.12580034102E+04 -0.14392413526E+03  0.16615476720E+04  0.00000000000E+00 0.  1.
         -1    1    6    6    0  502 -0.62232701602E+03  0.29130398381E+02  0.47170068668E+02  0.62479157353E+03  0.00000000000E+00 0.  1.
<mgrwt>
<rscale>  0 0.50956153E+04</rscale>
<asrwt>0</asrwt>
<pdfrwt beam="1">  1        1 0.43626861E+00 0.50956153E+04</pdfrwt>
<pdfrwt beam="2">  1       -1 0.35217020E+00 0.50956153E+04</pdfrwt>
<totfact> 0.84636301E-03</totfact>
</mgrwt>
</event>
<event>
12    1  0.2214165E-007  0.1208509E+04  0.7818608E-02  0.9105441E-01
          1   -1    0    0  501    0  0.00000000000E+00  0.00000000000E+00  0.63853033034E+03  0.63853033034E+03  0.00000000000E+00 0.  1.
         -1   -1    0    0    0  501 -0.00000000000E+00 -0.00000000000E+00 -0.57181871743E+03  0.57181871743E+03  0.00000000000E+00 0. -1.
         23    2    1    2    0    0 -0.15246109651E+03 -0.99826012281E+02  0.19205660640E+03  0.28359311112E+03  0.10163510189E+03 0.  0.
        254    2    1    2    0    0  0.15246109651E+03  0.99826012281E+02 -0.12534499348E+03  0.92675593665E+03  0.89997532191E+03 0.  0.
        -24    2    4    4    0    0  0.78151011728E+02 -0.26049973147E+03  0.26244026037E+03  0.38623793981E+03  0.79606313542E+02 0.  0.
         24    2    4    4    0    0  0.74310084782E+02  0.36032574375E+03 -0.38778525385E+03  0.54051799684E+03  0.80160286283E+02 0.  0.
         13    1    3    3    0    0 -0.15731965767E+02  0.65097828623E+01  0.69127296315E+02  0.71193083341E+02  0.00000000000E+00 0.  1.
        -13    1    3    3    0    0 -0.13672913074E+03 -0.10633579514E+03  0.12292931008E+03  0.21240002778E+03  0.00000000000E+00 0. -1.
          2    1    6    6  502    0  0.39890260115E+01  0.21375571843E+03 -0.21196646977E+03  0.30106013319E+03  0.00000000000E+00 0. -1.
          3    1    5    5  503    0  0.80861939892E+02 -0.26389940670E+03  0.26367830967E+03  0.38171691235E+03  0.00000000000E+00 0. -1.
         -4    1    5    5    0  503 -0.27109281635E+01  0.33996752345E+01 -0.12380493046E+01  0.45210274593E+01  0.00000000000E+00 0.  1.
         -1    1    6    6    0  502  0.70321058770E+02  0.14657002532E+03 -0.17581878409E+03  0.23945786365E+03  0.00000000000E+00 0.  1.
<mgrwt>
<rscale>  0 0.12085092E+04</rscale>
<asrwt>0</asrwt>
<pdfrwt beam="1">  1        1 0.98235435E-01 0.12085092E+04</pdfrwt>
<pdfrwt beam="2">  1       -1 0.87972111E-01 0.12085092E+04</pdfrwt>
<totfact> 0.39306084E+01</totfact>
</mgrwt>
</event>
<event>
12    1  0.2214165E-007  0.3046003E+04  0.7818608E-02  0.8230715E-01
         -1   -1    0    0    0  501 -0.00000000000E+00  0.00000000000E+00  0.67599991279E+03  0.67599991279E+03  0.00000000000E+00 0.  1.
          1   -1    0    0  501    0  0.00000000000E+00 -0.00000000000E+00 -0.34312623993E+04  0.34312623993E+04  0.00000000000E+00 0. -1.
         23    2    1    2    0    0  0.95904794019E+03 -0.86565027354E+03 -0.57450804559E+03  0.14168516697E+04  0.91026435030E+02 0.  0.
        254    2    1    2    0    0 -0.95904794019E+03  0.86565027354E+03 -0.21807544409E+04  0.26904106423E+04  0.90194021163E+03 0.  0.
        -24    2    4    4    0    0 -0.35299822113E+03  0.31670191509E+03 -0.15606898812E+03  0.50548753665E+03  0.79071319177E+02 0.  0.
         24    2    4    4    0    0 -0.60604971906E+03  0.54894835845E+03 -0.20246854528E+04  0.21849231057E+04  0.76793443436E+02 0.  0.
         13    1    3    3    0    0  0.49128112706E+03 -0.39874990768E+03 -0.31508535668E+03  0.70685034956E+03  0.00000000000E+00 0.  1.
        -13    1    3    3    0    0  0.46776681313E+03 -0.46690036585E+03 -0.25942268892E+03  0.71000132016E+03  0.00000000000E+00 0. -1.
          2    1    6    6  502    0 -0.17824373824E+03  0.19917514497E+03 -0.72157369717E+03  0.76948695184E+03  0.00000000000E+00 0. -1.
          3    1    5    5  503    0 -0.22094587307E+02  0.49940772736E+01 -0.21891757088E+02  0.31501755895E+02  0.00000000000E+00 0. -1.
         -4    1    5    5    0  503 -0.33090363382E+03  0.31170783781E+03 -0.13417723103E+03  0.47398578076E+03  0.00000000000E+00 0.  1.
         -1    1    6    6    0  502 -0.42780598082E+03  0.34977321348E+03 -0.13031117556E+04  0.14154361539E+04  0.00000000000E+00 0.  1.
<mgrwt>
<rscale>  0 0.30460027E+04</rscale>
<asrwt>0</asrwt>
<pdfrwt beam="1">  1        1 0.52788653E+00 0.30460027E+04</pdfrwt>
<pdfrwt beam="2">  1       -1 0.10399999E+00 0.30460027E+04</pdfrwt>
<totfact> 0.20858581E-01</totfact>
</mgrwt>
</event>
<event>
12    1  0.2214165E-007  0.3521005E+04  0.7818608E-02  0.8108830E-01
          2   -1    0    0  501    0  0.00000000000E+00  0.00000000000E+00  0.32195174308E+04  0.32195174308E+04  0.00000000000E+00 0. -1.
         -2   -1    0    0    0  501 -0.00000000000E+00 -0.00000000000E+00 -0.96268120526E+03  0.96268120526E+03  0.00000000000E+00 0.  1.
         23    2    1    2    0    0  0.14979962581E+04 -0.58264512613E+03  0.14669690038E+04  0.21779949965E+04  0.90531841095E+02 0.  0.
        254    2    1    2    0    0 -0.14979962581E+04  0.58264512613E+03  0.78986722172E+03  0.20042036395E+04  0.89970765721E+03 0.  0.
        -24    2    4    4    0    0 -0.21746216784E+03  0.19725314524E+03 -0.17716309871E+03  0.35215461420E+03  0.80171759438E+02 0.  0.
         24    2    4    4    0    0 -0.12805340903E+04  0.38539198088E+03  0.96703032043E+03  0.16520490253E+04  0.76313866136E+02 0.  0.
         13    1    3    3    0    0  0.63295191001E+03 -0.23531470320E+03  0.67549686328E+03  0.95514247222E+03  0.00000000000E+00 0. -1.
        -13    1    3    3    0    0  0.86504434811E+03 -0.34733042292E+03  0.79147214050E+03  0.12228525242E+04  0.00000000000E+00 0.  1.
          2    1    6    6  502    0 -0.60545830832E+03  0.22169867963E+03  0.47165664262E+03  0.79886798421E+03  0.00000000000E+00 0. -1.
          3    1    5    5  503    0 -0.73382270775E+02  0.25294171202E+02 -0.26936898094E+02  0.82160509004E+02  0.00000000000E+00 0. -1.
         -4    1    5    5    0  503 -0.14407989706E+03  0.17195897404E+03 -0.15022620062E+03  0.26999410520E+03  0.00000000000E+00 0.  1.
         -1    1    6    6    0  502 -0.67507578197E+03  0.16369330125E+03  0.49537367781E+03  0.85318104113E+03  0.00000000000E+00 0.  1.
<mgrwt>
<rscale>  0 0.35210049E+04</rscale>
<asrwt>0</asrwt>
<pdfrwt beam="1">  1        2 0.49531037E+00 0.35210049E+04</pdfrwt>
<pdfrwt beam="2">  1       -2 0.14810480E+00 0.35210049E+04</pdfrwt>
<totfact> 0.31973299E-01</totfact>
</mgrwt>
</event>
<event>
12    1  0.2214165E-007  0.2553765E+04  0.7818608E-02  0.8384078E-01
         -2   -1    0    0    0  501 -0.00000000000E+00  0.00000000000E+00  0.57029272349E+03  0.57029272349E+03  0.00000000000E+00 0.  1.
          2   -1    0    0  501    0  0.00000000000E+00 -0.00000000000E+00 -0.28589333976E+04  0.28589333976E+04  0.00000000000E+00 0. -1.
         23    2    1    2    0    0  0.91556244077E+03 -0.47038472256E+03 -0.41670278468E+03  0.11140717126E+04  0.89432655561E+02 0.  0.
        254    2    1    2    0    0 -0.91556244077E+03  0.47038472256E+03 -0.18719378894E+04  0.23151544085E+04  0.89234079988E+03 0.  0.
        -24    2    4    4    0    0 -0.48305520281E+03 -0.18167647715E+03 -0.44527079906E+03  0.68603868101E+03  0.77680860142E+02 0.  0.
         24    2    4    4    0    0 -0.43250723795E+03  0.65206119970E+03 -0.14266670904E+04  0.16291157275E+04  0.79954660674E+02 0.  0.
         11    1    3    3    0    0  0.56627534488E+03 -0.31254169385E+03 -0.21956903683E+03  0.68305244202E+03  0.00000000000E+00 0.  1.
        -11    1    3    3    0    0  0.34928709589E+03 -0.15784302870E+03 -0.19713374785E+03  0.43101927057E+03  0.00000000000E+00 0. -1.
          4    1    6    6  502    0 -0.15250703090E+03  0.16665305201E+03 -0.39119366710E+03  0.45173456742E+03  0.00000000000E+00 0. -1.
          3    1    5    5  503    0 -0.52507503477E+02 -0.44462139354E+02 -0.75492231074E+02  0.10214204183E+03  0.00000000000E+00 0. -1.
         -4    1    5    5    0  503 -0.43054769934E+03 -0.13721433779E+03 -0.36977856799E+03  0.58389663918E+03  0.00000000000E+00 0.  1.
         -3    1    6    6    0  502 -0.28000020705E+03  0.48540814769E+03 -0.10354734233E+04  0.11773811601E+04  0.00000000000E+00 0.  1.
<mgrwt>
<rscale>  0 0.25537650E+04</rscale>
<asrwt>0</asrwt>
<pdfrwt beam="1">  1        2 0.43983590E+00 0.25537650E+04</pdfrwt>
<pdfrwt beam="2">  1       -2 0.87737343E-01 0.25537650E+04</pdfrwt>
<totfact> 0.21183750E+00</totfact>
</mgrwt>
</event>
<event>
12    1  0.2214165E-007  0.1357544E+04  0.7818608E-02  0.8985137E-01
         -2   -1    0    0    0  501 -0.00000000000E+00  0.00000000000E+00  0.16991566091E+03  0.16991566091E+03  0.00000000000E+00 0. -1.
          2   -1    0    0  501    0  0.00000000000E+00 -0.00000000000E+00 -0.27115306868E+04  0.27115306868E+04  0.00000000000E+00 0.  1.
         23    2    1    2    0    0  0.31814153921E+03  0.15818185151E+03 -0.47176567247E+03  0.59711605428E+03  0.88029514609E+02 0.  0.
        254    2    1    2    0    0 -0.31814153921E+03 -0.15818185151E+03 -0.20698493534E+04  0.22843302935E+04  0.89869516885E+03 0.  0.
        -24    2    4    4    0    0 -0.35771215913E+03 -0.48746508318E+03 -0.15127376764E+04  0.16310262722E+04  0.79317254456E+02 0.  0.
         24    2    4    4    0    0  0.39570619927E+02  0.32928323166E+03 -0.55711167701E+03  0.65330402123E+03  0.80246139369E+02 0.  0.
         13    1    3    3    0    0  0.13308600340E+02 -0.87960376513E+01 -0.38448456937E+02  0.41626589606E+02  0.00000000000E+00 0.  1.
        -13    1    3    3    0    0  0.30483293887E+03  0.16697788917E+03 -0.43331721553E+03  0.55548946468E+03  0.00000000000E+00 0. -1.
          2    1    6    6  502    0 -0.12554281714E+02  0.20926767620E+03 -0.36355419290E+03  0.41966918098E+03  0.00000000000E+00 0. -1.
          3    1    5    5  503    0 -0.14543587778E+03 -0.26504908533E+03 -0.74240615832E+03  0.80160433887E+03  0.00000000000E+00 0. -1.
         -4    1    5    5    0  503 -0.21227628135E+03 -0.22241599785E+03 -0.77033151813E+03  0.82942193336E+03  0.00000000000E+00 0.  1.
         -1    1    6    6    0  502  0.52124901642E+02  0.12001555546E+03 -0.19355748411E+03  0.23363484025E+03  0.00000000000E+00 0.  1.
<mgrwt>
<rscale>  0 0.13575441E+04</rscale>
<asrwt>0</asrwt>
<pdfrwt beam="1">  1        2 0.41715856E+00 0.13575441E+04</pdfrwt>
<pdfrwt beam="2">  1       -2 0.26140872E-01 0.13575441E+04</pdfrwt>
<totfact> 0.33962448E+01</totfact>
</mgrwt>
</event>
<event>
12    1  0.2214165E-007  0.1465565E+04  0.7818608E-02  0.8907680E-01
          2   -1    0    0  501    0  0.00000000000E+00  0.00000000000E+00  0.41778110909E+03  0.41778110909E+03  0.00000000000E+00 0. -1.
         -2   -1    0    0    0  501 -0.00000000000E+00 -0.00000000000E+00 -0.12852910286E+04  0.12852910286E+04  0.00000000000E+00 0.  1.
         23    2    1    2    0    0 -0.40519912214E+03  0.11661443488E+03 -0.90552556333E+02  0.44171722640E+03  0.95546259163E+02 0.  0.
        254    2    1    2    0    0  0.40519912214E+03 -0.11661443488E+03 -0.77695736321E+03  0.12613549113E+04  0.89976008638E+03 0.  0.
        -24    2    4    4    0    0  0.59434192490E+03  0.88174877014E+02 -0.75803841745E+03  0.97035653274E+03  0.77151964896E+02 0.  0.
         24    2    4    4    0    0 -0.18914280276E+03 -0.20478931189E+03 -0.18918945757E+02  0.29099837857E+03  0.81292482551E+02 0.  0.
         11    1    3    3    0    0 -0.18058444777E+03  0.67426999794E+02  0.47297784428E+01  0.19281990012E+03  0.00000000000E+00 0. -1.
        -11    1    3    3    0    0 -0.22461467436E+03  0.49187435086E+02 -0.95282334776E+02  0.24889732628E+03  0.00000000000E+00 0.  1.
          4    1    6    6  502    0 -0.14201449846E+03 -0.18850975547E+03  0.41637106275E+01  0.23605376965E+03  0.00000000000E+00 0. -1.
          3    1    5    5  503    0  0.42924820903E+03  0.97916898819E+02 -0.55974549611E+03  0.71214939756E+03  0.00000000000E+00 0. -1.
         -4    1    5    5    0  503  0.16509371587E+03 -0.97420218045E+01 -0.19829292133E+03  0.25820713518E+03  0.00000000000E+00 0.  1.
         -3    1    6    6    0  502 -0.47128304296E+02 -0.16279556425E+02 -0.23082656385E+02  0.54944608916E+02  0.00000000000E+00 0.  1.
<mgrwt>
<rscale>  0 0.14655652E+04</rscale>
<asrwt>0</asrwt>
<pdfrwt beam="1">  1        2 0.64274016E-01 0.14655652E+04</pdfrwt>
<pdfrwt beam="2">  1       -2 0.19773708E+00 0.14655652E+04</pdfrwt>
<totfact> 0.10082403E+01</totfact>
</mgrwt>
</event>
<event>
12    1  0.2214165E-007  0.1269091E+04  0.7818608E-02  0.9054442E-01
         -3   -1    0    0    0  501 -0.00000000000E+00  0.00000000000E+00  0.48480521073E+03  0.48480521073E+03  0.00000000000E+00 0.  1.
          3   -1    0    0  501    0  0.00000000000E+00 -0.00000000000E+00 -0.83053608133E+03  0.83053608133E+03  0.00000000000E+00 0. -1.
         23    2    1    2    0    0 -0.82270664588E+02 -0.29190508648E+03 -0.97469099730E+02  0.33051184487E+03  0.88095473385E+02 0.  0.
        254    2    1    2    0    0  0.82270664588E+02  0.29190508648E+03 -0.24826177087E+03  0.98482944719E+03  0.90348109632E+03 0.  0.
        -24    2    4    4    0    0  0.38308095465E+03  0.44048252747E+03 -0.24965846341E+03  0.63995130104E+03  0.80202521905E+02 0.  0.
         24    2    4    4    0    0 -0.30081029007E+03 -0.14857744099E+03  0.13966925417E+01  0.34487814615E+03  0.79855484231E+02 0.  0.
         11    1    3    3    0    0 -0.31501051175E+02 -0.11032631227E+03  0.70223465199E+01  0.11495009680E+03  0.00000000000E+00 0.  1.
        -11    1    3    3    0    0 -0.50769613413E+02 -0.18157877421E+03 -0.10449144625E+03  0.21556174807E+03  0.00000000000E+00 0. -1.
          2    1    6    6  502    0 -0.52106936826E+02 -0.10343837061E+02 -0.25773663048E+02  0.59045825741E+02  0.00000000000E+00 0. -1.
          3    1    5    5  503    0  0.21657334587E+03  0.24099821253E+03 -0.95385444680E+02  0.33776106294E+03  0.00000000000E+00 0. -1.
         -4    1    5    5    0  503  0.16650760879E+03  0.19948431494E+03 -0.15427301873E+03  0.30219023810E+03  0.00000000000E+00 0.  1.
         -1    1    6    6    0  502 -0.24870335324E+03 -0.13823360393E+03  0.27170355590E+02  0.28583232041E+03  0.00000000000E+00 0.  1.
<mgrwt>
<rscale>  0 0.12690914E+04</rscale>
<asrwt>0</asrwt>
<pdfrwt beam="1">  1        3 0.12777478E+00 0.12690914E+04</pdfrwt>
<pdfrwt beam="2">  1       -3 0.74585417E-01 0.12690914E+04</pdfrwt>
<totfact> 0.21229004E+00</totfact>
</mgrwt>
</event>
<event>
12    1  0.2214165E-007  0.1619165E+04  0.7818608E-02  0.8808860E-01
          2   -1    0    0  501    0  0.00000000000E+00  0.00000000000E+00  0.11556327893E+04  0.11556327893E+04  0.00000000000E+00 0. -1.
         -2   -1    0    0    0  501 -0.00000000000E+00 -0.00000000000E+00 -0.56715576689E+03  0.56715576689E+03  0.00000000000E+00 0.  1.
         23    2    1    2    0    0  0.22455303150E+02  0.35306375000E+03 -0.25206412104E+03  0.44229811978E+03  0.83264959278E+02 0.  0.
        254    2    1    2    0    0 -0.22455303150E+02 -0.35306375000E+03  0.84054114347E+03  0.12804904364E+04  0.89888157824E+03 0.  0.
        -24    2    4    4    0    0  0.12342626019E+03 -0.59083662324E+03  0.77094725308E+03  0.98237333940E+03  0.79848317870E+02 0.  0.
         24    2    4    4    0    0 -0.14588156334E+03  0.23777287324E+03  0.69593890385E+02  0.29811709702E+03  0.78823373350E+02 0.  0.
         13    1    3    3    0    0 -0.29797610948E+02  0.18640269069E+03 -0.12899276647E+03  0.22863288153E+03  0.00000000000E+00 0.  1.
        -13    1    3    3    0    0  0.52252914098E+02  0.16666105930E+03 -0.12307135457E+03  0.21366523825E+03  0.00000000000E+00 0. -1.
          4    1    6    6  502    0  0.80135896792E+01  0.15410744989E+02  0.13349219556E+02  0.21906856083E+02  0.00000000000E+00 0. -1.
          1    1    5    5  503    0  0.20172949230E+02 -0.13473194547E+03  0.12482407368E+03  0.18477200649E+03  0.00000000000E+00 0. -1.
         -2    1    5    5    0  503  0.10325331096E+03 -0.45610467777E+03  0.64612317940E+03  0.79760133291E+03  0.00000000000E+00 0.  1.
         -3    1    6    6    0  502 -0.15389515302E+03  0.22236212825E+03  0.56244670829E+02  0.27621024094E+03  0.00000000000E+00 0.  1.
<mgrwt>
<rscale>  0 0.16191650E+04</rscale>
<asrwt>0</asrwt>
<pdfrwt beam="1">  1        2 0.17778966E+00 0.16191650E+04</pdfrwt>
<pdfrwt beam="2">  1       -2 0.87254734E-01 0.16191650E+04</pdfrwt>
<totfact> 0.21893333E+01</totfact>
</mgrwt>
</event>
<event>
12    1  0.2214165E-007  0.1753909E+04  0.7818608E-02  0.8731202E-01
         -1   -1    0    0    0  501 -0.00000000000E+00  0.00000000000E+00  0.25126287707E+03  0.25126287707E+03  0.00000000000E+00 0.  1.
          1   -1    0    0  501    0  0.00000000000E+00 -0.00000000000E+00 -0.30607357664E+04  0.30607357664E+04  0.00000000000E+00 0. -1.
         23    2    1    2    0    0 -0.47557431480E+03  0.19746790250E+03 -0.31123299187E+03  0.60860183483E+03  0.91464292084E+02 0.  0.
        254    2    1    2    0    0  0.47557431480E+03 -0.19746790250E+03 -0.24982398975E+04  0.27033968087E+04  0.89553739075E+03 0.  0.
        -24    2    4    4    0    0  0.52146177588E+03 -0.10574379952E+03 -0.25162293632E+04  0.25731186769E+04  0.80158481901E+02 0.  0.
         24    2    4    4    0    0 -0.45887461086E+02 -0.91724102975E+02  0.17989465691E+02  0.13027813179E+03  0.78293043092E+02 0.  0.
         11    1    3    3    0    0 -0.10142525382E+03  0.13671456607E+02 -0.33448528874E+02  0.10766984221E+03  0.00000000000E+00 0. -1.
        -11    1    3    3    0    0 -0.37414906097E+03  0.18379644589E+03 -0.27778446299E+03  0.50093199262E+03  0.00000000000E+00 0.  1.
          2    1    6    6  502    0  0.72060964415E+01  0.98472731081E+01 -0.53354400693E+01  0.13317790144E+02  0.00000000000E+00 0. -1.
          1    1    5    5  503    0  0.55931167706E+02 -0.22468507423E+01 -0.39468315248E+03  0.39863283196E+03  0.00000000000E+00 0. -1.
         -2    1    5    5    0  503  0.46553060818E+03 -0.10349694878E+03 -0.21215462107E+04  0.21744858449E+04  0.00000000000E+00 0.  1.
         -1    1    6    6    0  502 -0.53093557528E+02 -0.10157137608E+03  0.23324905761E+02  0.11696034165E+03  0.00000000000E+00 0.  1.
<mgrwt>
<rscale>  0 0.17539091E+04</rscale>
<asrwt>0</asrwt>
<pdfrwt beam="1">  1        1 0.47088241E+00 0.17539091E+04</pdfrwt>
<pdfrwt beam="2">  1       -1 0.38655828E-01 0.17539091E+04</pdfrwt>
<totfact> 0.33264448E+00</totfact>
</mgrwt>
</event>
<event>
12    1  0.2214165E-007  0.6611864E+04  0.7818608E-02  0.7618845E-01
          1   -1    0    0  501    0  0.00000000000E+00  0.00000000000E+00  0.44848248161E+04  0.44848248161E+04  0.00000000000E+00 0. -1.
         -1   -1    0    0    0  501 -0.00000000000E+00 -0.00000000000E+00 -0.24369257545E+04  0.24369257545E+04  0.00000000000E+00 0.  1.
         23    2    1    2    0    0 -0.13409163618E+04 -0.60375321419E+03  0.40327196455E+04  0.42934544603E+04  0.91371932790E+02 0.  0.
        254    2    1    2    0    0  0.13409163618E+04  0.60375321419E+03 -0.19848205840E+04  0.26282961104E+04  0.89769318824E+03 0.  0.
        -24    2    4    4    0    0  0.85832059302E+03  0.50799474465E+03 -0.62343317579E+03  0.11785433096E+04  0.74313571204E+02 0.  0.
         24    2    4    4    0    0  0.48259576874E+03  0.95758469536E+02 -0.13613874082E+04  0.14497528008E+04  0.79618764626E+02 0.  0.
         11    1    3    3    0    0 -0.43399463269E+03 -0.15052455410E+03  0.12889328897E+04  0.13683409578E+04  0.00000000000E+00 0. -1.
        -11    1    3    3    0    0 -0.90692172908E+03 -0.45322866008E+03  0.27437867559E+04  0.29251135025E+04  0.00000000000E+00 0.  1.
          2    1    6    6  502    0  0.12896341291E+03  0.44224411108E+02 -0.29263672954E+03  0.32283682547E+03  0.00000000000E+00 0. -1.
          3    1    5    5  503    0  0.11689321436E+02  0.16765173411E+02 -0.61809361969E+01  0.21352171960E+02  0.00000000000E+00 0. -1.
         -4    1    5    5    0  503  0.84663127159E+03  0.49122957124E+03 -0.61725223959E+03  0.11571911376E+04  0.00000000000E+00 0.  1.
         -1    1    6    6    0  502  0.35363235583E+03  0.51534058428E+02 -0.10687506787E+04  0.11269159753E+04  0.00000000000E+00 0.  1.
<mgrwt>
<rscale>  0 0.66118636E+04</rscale>
<asrwt>0</asrwt>
<pdfrwt beam="1">  1        1 0.68997305E+00 0.66118636E+04</pdfrwt>
<pdfrwt beam="2">  1       -1 0.37491165E+00 0.66118636E+04</pdfrwt>
<totfact> 0.22356874E-04</totfact>
</mgrwt>
</event>
<event>
12    1  0.2214165E-007  0.1201606E+04  0.7818608E-02  0.9111452E-01
          2   -1    0    0  501    0  0.00000000000E+00  0.00000000000E+00  0.10965871698E+04  0.10965871698E+04  0.00000000000E+00 0. -1.
         -2   -1    0    0    0  501 -0.00000000000E+00 -0.00000000000E+00 -0.32917034438E+03  0.32917034438E+03  0.00000000000E+00 0.  1.
         23    2    1    2    0    0 -0.22668043159E+03 -0.10551676917E+03  0.12919286014E+03  0.29543847647E+03  0.89862626424E+02 0.  0.
        254    2    1    2    0    0  0.22668043159E+03  0.10551676917E+03  0.63822396530E+03  0.11303190377E+04  0.89876219911E+03 0.  0.
        -24    2    4    4    0    0  0.46434569737E+03  0.34370505704E+03  0.44924006441E+03  0.73629982747E+03  0.81059901098E+02 0.  0.
         24    2    4    4    0    0 -0.23766526578E+03 -0.23818828787E+03  0.18898390089E+03  0.39401921027E+03  0.79484490490E+02 0.  0.
         11    1    3    3    0    0 -0.10208823962E+03 -0.68022374243E+02  0.10834046022E+03  0.16366645162E+03  0.00000000000E+00 0. -1.
        -11    1    3    3    0    0 -0.12459219197E+03 -0.37494394927E+02  0.20852399923E+02  0.13177202485E+03  0.00000000000E+00 0.  1.
          4    1    6    6  502    0 -0.17773157522E+03 -0.19648178599E+03  0.11119203908E+03  0.28732781732E+03  0.00000000000E+00 0. -1.
          3    1    5    5  503    0  0.38758505871E+03  0.30199425048E+03  0.41243399982E+03  0.64150176092E+03  0.00000000000E+00 0. -1.
         -4    1    5    5    0  503  0.76760638658E+02  0.41710806562E+02  0.36806064587E+02  0.94798066550E+02  0.00000000000E+00 0.  1.
         -1    1    6    6    0  502 -0.59933690566E+02 -0.41706501878E+02  0.77791861817E+02  0.10669139295E+03  0.00000000000E+00 0.  1.
<mgrwt>
<rscale>  0 0.12016056E+04</rscale>
<asrwt>0</asrwt>
<pdfrwt beam="1">  1        2 0.16870572E+00 0.12016056E+04</pdfrwt>
<pdfrwt beam="2">  1       -2 0.50641592E-01 0.12016056E+04</pdfrwt>
<totfact> 0.79617830E+01</totfact>
</mgrwt>
</event>
<event>
12    1  0.2214165E-007  0.2631476E+04  0.7818608E-02  0.8357588E-01
         -1   -1    0    0    0  501 -0.00000000000E+00  0.00000000000E+00  0.15468551145E+04  0.15468551145E+04  0.00000000000E+00 0.  1.
          1   -1    0    0  501    0  0.00000000000E+00 -0.00000000000E+00 -0.11191521960E+04  0.11191521960E+04  0.00000000000E+00 0. -1.
         23    2    1    2    0    0  0.11435171719E+03  0.11504454379E+04  0.28978156375E+03  0.11945475043E+04  0.79808298319E+02 0.  0.
        254    2    1    2    0    0 -0.11435171719E+03 -0.11504454379E+04  0.13792135476E+03  0.14714598063E+04  0.89976143538E+03 0.  0.
        -24    2    4    4    0    0  0.10012792718E+03 -0.60836657579E+03 -0.34450809761E+03  0.71139171138E+03  0.85187119684E+02 0.  0.
         24    2    4    4    0    0 -0.21447964437E+03 -0.54207886210E+03  0.48242945237E+03  0.76006809489E+03  0.71514486507E+02 0.  0.
         13    1    3    3    0    0  0.39148555912E+02  0.43904256595E+03  0.70945721122E+02  0.44645747781E+03  0.00000000000E+00 0. -1.
        -13    1    3    3    0    0  0.75203161278E+02  0.71140287194E+03  0.21883584263E+03  0.74809002646E+03  0.00000000000E+00 0.  1.
          2    1    6    6  502    0 -0.20487192634E+03 -0.44967745778E+03  0.39720496002E+03  0.63399850355E+03  0.00000000000E+00 0. -1.
          3    1    5    5  503    0  0.10985483481E+03 -0.44018043758E+03 -0.24202121401E+03  0.51419954335E+03  0.00000000000E+00 0. -1.
         -2    1    5    5    0  503 -0.97269076346E+01 -0.16818613822E+03 -0.10248688360E+03  0.19719216803E+03  0.00000000000E+00 0.  1.
         -1    1    6    6    0  502 -0.96077180279E+01 -0.92401404316E+02  0.85224492348E+02  0.12606959134E+03  0.00000000000E+00 0.  1.
<mgrwt>
<rscale>  0 0.26314759E+04</rscale>
<asrwt>0</asrwt>
<pdfrwt beam="1">  1        1 0.17217726E+00 0.26314759E+04</pdfrwt>
<pdfrwt beam="2">  1       -1 0.23797771E+00 0.26314759E+04</pdfrwt>
<totfact> 0.90056834E-01</totfact>
</mgrwt>
</event>
<event>
12    1  0.2214165E-007  0.2439548E+04  0.7818608E-02  0.8424844E-01
         -1   -1    0    0    0  501 -0.00000000000E+00  0.00000000000E+00  0.88645942900E+03  0.88645942900E+03  0.00000000000E+00 0.  1.
          1   -1    0    0  501    0  0.00000000000E+00 -0.00000000000E+00 -0.16784168030E+04  0.16784168030E+04  0.00000000000E+00 0. -1.
         23    2    1    2    0    0 -0.80911444526E+03 -0.54764154586E+02 -0.10472149661E+04  0.13275315319E+04  0.89529240425E+02 0.  0.
        254    2    1    2    0    0  0.80911444526E+03  0.54764154586E+02  0.25525759209E+03  0.12373447001E+04  0.89899953856E+03 0.  0.
        -24    2    4    4    0    0  0.97790350117E+03  0.12998132911E+03  0.12401659362E+03  0.99735676618E+03  0.78421935889E+02 0.  0.
         24    2    4    4    0    0 -0.16878905591E+03 -0.75217174519E+02  0.13124099847E+03  0.23998793390E+03  0.78883711873E+02 0.  0.
         11    1    3    3    0    0 -0.23747605443E+03  0.18730721078E+02 -0.34151258526E+03  0.41638511288E+03  0.00000000000E+00 0. -1.
        -11    1    3    3    0    0 -0.57163839083E+03 -0.73494875664E+02 -0.70570238082E+03  0.91114641903E+03  0.00000000000E+00 0.  1.
          2    1    6    6  502    0 -0.11818186469E+03 -0.21201676379E+02  0.11035548699E+03  0.16307911494E+03  0.00000000000E+00 0. -1.
          3    1    5    5  503    0  0.70463224666E+03  0.61379796026E+02  0.10387187367E+03  0.71488701801E+03  0.00000000000E+00 0. -1.
         -2    1    5    5    0  503  0.27327125451E+03  0.68601533079E+02  0.20144719958E+02  0.28246974816E+03  0.00000000000E+00 0.  1.
         -1    1    6    6    0  502 -0.50607191223E+02 -0.54015498141E+02  0.20885511479E+02  0.76908818952E+02  0.00000000000E+00 0.  1.
<mgrwt>
<rscale>  0 0.24395478E+04</rscale>
<asrwt>0</asrwt>
<pdfrwt beam="1">  1        1 0.25821797E+00 0.24395478E+04</pdfrwt>
<pdfrwt beam="2">  1       -1 0.13637837E+00 0.24395478E+04</pdfrwt>
<totfact> 0.19759788E+00</totfact>
</mgrwt>
</event>
<event>
12    1  0.2214165E-007  0.1796146E+04  0.7818608E-02  0.8708352E-01
         -2   -1    0    0    0  501 -0.00000000000E+00  0.00000000000E+00  0.38557914731E+03  0.38557914731E+03  0.00000000000E+00 0.  1.
          2   -1    0    0  501    0  0.00000000000E+00 -0.00000000000E+00 -0.20917490177E+04  0.20917490177E+04  0.00000000000E+00 0. -1.
         23    2    1    2    0    0  0.12560928501E+03  0.50001733338E+03 -0.54267409406E+02  0.52697566890E+03  0.94675116738E+02 0.  0.
        254    2    1    2    0    0 -0.12560928501E+03 -0.50001733338E+03 -0.16519024610E+04  0.19503524962E+04  0.89960996679E+03 0.  0.
        -24    2    4    4    0    0  0.80523223759E+02 -0.35927784207E+03 -0.12195596228E+03  0.39814565160E+03  0.89900755204E+02 0.  0.
         24    2    4    4    0    0 -0.20613250877E+03 -0.14073949131E+03 -0.15299464987E+04  0.15522068446E+04  0.79445476080E+02 0.  0.
         13    1    3    3    0    0  0.13044613240E+03  0.48317921789E+03 -0.36163397907E+02  0.50178296245E+03  0.00000000000E+00 0.  1.
        -13    1    3    3    0    0 -0.48368473875E+01  0.16838115488E+02 -0.18104011499E+02  0.25192706448E+02  0.00000000000E+00 0. -1.
          4    1    6    6  502    0 -0.47039490890E+02 -0.31446116100E+02 -0.58619604868E+03  0.58892052045E+03  0.00000000000E+00 0. -1.
          1    1    5    5  503    0  0.39177086704E+02 -0.30237467418E+03 -0.12033335891E+03  0.32778865901E+03  0.00000000000E+00 0. -1.
         -2    1    5    5    0  503  0.41346137054E+02 -0.56903167886E+02 -0.16226033772E+01  0.70356992592E+02  0.00000000000E+00 0.  1.
         -3    1    6    6    0  502 -0.15909301788E+03 -0.10929337521E+03 -0.94375045006E+03  0.96328632410E+03  0.00000000000E+00 0.  1.
<mgrwt>
<rscale>  0 0.17961457E+04</rscale>
<asrwt>0</asrwt>
<pdfrwt beam="1">  1        2 0.32180755E+00 0.17961457E+04</pdfrwt>
<pdfrwt beam="2">  1       -2 0.59319868E-01 0.17961457E+04</pdfrwt>
<totfact> 0.14880950E+01</totfact>
</mgrwt>
</event>
<event>
12    1  0.2214165E-007  0.3194542E+04  0.7818608E-02  0.8190260E-01
          1   -1    0    0  501    0  0.00000000000E+00  0.00000000000E+00  0.99235062299E+03  0.99235062299E+03  0.00000000000E+00 0. -1.
         -1   -1    0    0    0  501 -0.00000000000E+00 -0.00000000000E+00 -0.25709405309E+04  0.25709405309E+04  0.00000000000E+00 0.  1.
         23    2    1    2    0    0 -0.59396873754E+03 -0.13376054225E+04 -0.86495926208E+03  0.17025214293E+04  0.91856216991E+02 0.  0.
        254    2    1    2    0    0  0.59396873754E+03  0.13376054225E+04 -0.71363064584E+03  0.18607697246E+04  0.90067093989E+03 0.  0.
        -24    2    4    4    0    0  0.17684039471E+03 -0.15810703340E+02 -0.34648857753E+03  0.39552903164E+03  0.69759422044E+02 0.  0.
         24    2    4    4    0    0  0.41712834283E+03  0.13534161258E+04 -0.36714206831E+03  0.14652406930E+04  0.80035779674E+02 0.  0.
         13    1    3    3    0    0 -0.18381271902E+03 -0.48833718445E+03 -0.34548750853E+03  0.62579704373E+03  0.00000000000E+00 0.  1.
        -13    1    3    3    0    0 -0.41015601852E+03 -0.84926823803E+03 -0.51947175355E+03  0.10767243855E+04  0.00000000000E+00 0. -1.
          4    1    6    6  502    0  0.45943451095E+02  0.13270753916E+03 -0.61121409535E+02  0.15315978047E+03  0.00000000000E+00 0. -1.
          1    1    5    5  503    0  0.44990078909E+02 -0.35220357129E+02 -0.93233733120E+02  0.10934856994E+03  0.00000000000E+00 0. -1.
         -2    1    5    5    0  503  0.13185031581E+03  0.19409653789E+02 -0.25325484441E+03  0.28618046170E+03  0.00000000000E+00 0.  1.
         -3    1    6    6    0  502  0.37118489174E+03  0.12207085867E+04 -0.30602065877E+03  0.13120809125E+04  0.00000000000E+00 0.  1.
<mgrwt>
<rscale>  0 0.31945419E+04</rscale>
<asrwt>0</asrwt>
<pdfrwt beam="1">  1        1 0.15266933E+00 0.31945419E+04</pdfrwt>
<pdfrwt beam="2">  1       -1 0.39552931E+00 0.31945419E+04</pdfrwt>
<totfact> 0.98478568E-02</totfact>
</mgrwt>
</event>
<event>
12    1  0.2214165E-007  0.1075323E+04  0.7818608E-02  0.9229583E-01
         -2   -1    0    0    0  501 -0.00000000000E+00  0.00000000000E+00  0.33632579552E+03  0.33632579552E+03  0.00000000000E+00 0.  1.
          2   -1    0    0  501    0  0.00000000000E+00 -0.00000000000E+00 -0.85952409211E+03  0.85952409211E+03  0.00000000000E+00 0. -1.
         23    2    1    2    0    0  0.10538607499E+03 -0.73996953080E+02 -0.28610540448E+02  0.15931611251E+03  0.89338047956E+02 0.  0.
        254    2    1    2    0    0 -0.10538607499E+03  0.73996953080E+02 -0.49458775614E+03  0.10365337751E+04  0.90177793529E+03 0.  0.
        -24    2    4    4    0    0 -0.38305650325E+03 -0.36674962957E+02  0.62433885895E+02  0.39980781060E+03  0.88718418109E+02 0.  0.
         24    2    4    4    0    0  0.27767042826E+03  0.11067191604E+03 -0.55702164203E+03  0.63672596452E+03  0.76142658703E+02 0.  0.
         13    1    3    3    0    0  0.26288844088E+01 -0.13290579805E+02 -0.37266849780E+02  0.39653103754E+02  0.00000000000E+00 0. -1.
        -13    1    3    3    0    0  0.10275719058E+03 -0.60706373275E+02  0.86563093324E+01  0.11966300875E+03  0.00000000000E+00 0.  1.
          4    1    6    6  502    0  0.26268632298E+03  0.10193815985E+03 -0.46999513795E+03  0.54798806777E+03  0.00000000000E+00 0. -1.
          1    1    5    5  503    0 -0.31871520295E+03 -0.88253208495E+01  0.77446475612E+02  0.32810855439E+03  0.00000000000E+00 0. -1.
         -2    1    5    5    0  503 -0.64341300306E+02 -0.27849642108E+02 -0.15012589716E+02  0.71699256206E+02  0.00000000000E+00 0.  1.
         -3    1    6    6    0  502  0.14984105276E+02  0.87337561887E+01 -0.87026504079E+02  0.88737896754E+02  0.00000000000E+00 0.  1.
<mgrwt>
<rscale>  0 0.10753234E+04</rscale>
<asrwt>0</asrwt>
<pdfrwt beam="1">  1        2 0.13223447E+00 0.10753234E+04</pdfrwt>
<pdfrwt beam="2">  1       -2 0.51742431E-01 0.10753234E+04</pdfrwt>
<totfact> 0.10963576E+02</totfact>
</mgrwt>
</event>
<event>
12    1  0.2214165E-007  0.2545699E+04  0.7818608E-02  0.8386884E-01
         -2   -1    0    0    0  501 -0.00000000000E+00  0.00000000000E+00  0.63189579725E+03  0.63189579725E+03  0.00000000000E+00 0.  1.
          2   -1    0    0  501    0  0.00000000000E+00 -0.00000000000E+00 -0.25639445077E+04  0.25639445077E+04  0.00000000000E+00 0. -1.
         23    2    1    2    0    0 -0.42724294420E+03  0.10252933526E+04 -0.88054719382E+03  0.14201631144E+04  0.87959755275E+02 0.  0.
        254    2    1    2    0    0  0.42724294420E+03 -0.10252933526E+04 -0.10515015166E+04  0.17756771906E+04  0.90200390982E+03 0.  0.
        -24    2    4    4    0    0  0.20748154820E+03 -0.11039059622E+04 -0.10380081953E+04  0.15315058574E+04  0.79951307265E+02 0.  0.
         24    2    4    4    0    0  0.21976139599E+03  0.78612609520E+02 -0.13493321289E+02  0.24417133317E+03  0.70445416312E+02 0.  0.
         11    1    3    3    0    0 -0.15837889663E+03  0.29019743388E+03 -0.23567523873E+03  0.40600645768E+03  0.00000000000E+00 0. -1.
        -11    1    3    3    0    0 -0.26886404757E+03  0.73509591876E+03 -0.64487195509E+03  0.10141566567E+04  0.00000000000E+00 0.  1.
          2    1    6    6  502    0  0.84054445336E+02  0.45450940703E+02 -0.37072621734E+02  0.10249544904E+03  0.00000000000E+00 0. -1.
          1    1    5    5  503    0  0.10007070803E+03 -0.55461979107E+03 -0.46670922233E+03  0.73173407564E+03  0.00000000000E+00 0. -1.
         -2    1    5    5    0  503  0.10741084017E+03 -0.54928617109E+03 -0.57129897299E+03  0.79977178175E+03  0.00000000000E+00 0.  1.
         -1    1    6    6    0  502  0.13570695066E+03  0.33161668817E+02  0.23579300445E+02  0.14167588413E+03  0.00000000000E+00 0.  1.
<mgrwt>
<rscale>  0 0.25456989E+04</rscale>
<asrwt>0</asrwt>
<pdfrwt beam="1">  1        2 0.39445300E+00 0.25456989E+04</pdfrwt>
<pdfrwt beam="2">  1       -2 0.97214740E-01 0.25456989E+04</pdfrwt>
<totfact> 0.25061375E+00</totfact>
</mgrwt>
</event>
<event>
12    1  0.2214165E-007  0.2718417E+04  0.7818608E-02  0.8329054E-01
          1   -1    0    0  501    0  0.00000000000E+00  0.00000000000E+00  0.83530172583E+03  0.83530172583E+03  0.00000000000E+00 0. -1.
         -1   -1    0    0    0  501 -0.00000000000E+00 -0.00000000000E+00 -0.22117134458E+04  0.22117134458E+04  0.00000000000E+00 0.  1.
         23    2    1    2    0    0 -0.10437342999E+04  0.33970853566E+03 -0.11791329061E+04  0.16138072913E+04  0.96106114163E+02 0.  0.
        254    2    1    2    0    0  0.10437342999E+04 -0.33970853566E+03 -0.19727881391E+03  0.14332078804E+04  0.90021259719E+03 0.  0.
        -24    2    4    4    0    0  0.58057004029E+03  0.19989141075E+03 -0.33557651882E+03  0.70421125735E+03  0.79270090336E+02 0.  0.
         24    2    4    4    0    0  0.46316425957E+03 -0.53959994641E+03  0.13829770490E+03  0.72899662306E+03  0.81366994179E+02 0.  0.
         11    1    3    3    0    0 -0.34762040052E+03  0.16056786160E+03 -0.42112138771E+03  0.56917941304E+03  0.00000000000E+00 0. -1.
        -11    1    3    3    0    0 -0.69611389933E+03  0.17914067406E+03 -0.75801151840E+03  0.10446278782E+04  0.00000000000E+00 0.  1.
          4    1    6    6  502    0  0.66179474951E+02 -0.64004235343E+02  0.45098376885E+02  0.10251891847E+03  0.00000000000E+00 0. -1.
          1    1    5    5  503    0  0.25148488411E+03  0.11841022180E+03 -0.12229637594E+03  0.30368080467E+03  0.00000000000E+00 0. -1.
         -2    1    5    5    0  503  0.32908515618E+03  0.81481188950E+02 -0.21328014288E+03  0.40053045267E+03  0.00000000000E+00 0.  1.
         -3    1    6    6    0  502  0.39698478462E+03 -0.47559571106E+03  0.93199328019E+02  0.62647770459E+03  0.00000000000E+00 0.  1.
<mgrwt>
<rscale>  0 0.27184172E+04</rscale>
<asrwt>0</asrwt>
<pdfrwt beam="1">  1        1 0.12850796E+00 0.27184172E+04</pdfrwt>
<pdfrwt beam="2">  1       -1 0.34026360E+00 0.27184172E+04</pdfrwt>
<totfact> 0.32381770E-01</totfact>
</mgrwt>
</event>
<event>
12    1  0.2214165E-007  0.1955775E+04  0.7818608E-02  0.8627581E-01
         -2   -1    0    0    0  501 -0.00000000000E+00  0.00000000000E+00  0.57636178280E+03  0.57636178280E+03  0.00000000000E+00 0.  1.
          2   -1    0    0  501    0  0.00000000000E+00 -0.00000000000E+00 -0.16591392000E+04  0.16591392000E+04  0.00000000000E+00 0. -1.
         23    2    1    2    0    0  0.56993739101E+03 -0.35138598816E+03  0.21796666063E+02  0.67583605542E+03  0.89322655654E+02 0.  0.
        254    2    1    2    0    0 -0.56993739101E+03  0.35138598816E+03 -0.11045740833E+04  0.15596649274E+04  0.87416819775E+03 0.  0.
        -24    2    4    4    0    0  0.45419356749E+02  0.41937284924E+03 -0.68206488401E+03  0.80592203382E+03  0.79757845775E+02 0.  0.
         24    2    4    4    0    0 -0.61535674776E+03 -0.67986861076E+02 -0.42250919929E+03  0.75374289359E+03  0.79549895382E+02 0.  0.
         13    1    3    3    0    0  0.20683453396E+03 -0.13625799331E+03  0.50632282358E+02  0.25280504979E+03  0.00000000000E+00 0. -1.
        -13    1    3    3    0    0  0.36310285705E+03 -0.21512799485E+03 -0.28835616296E+02  0.42303100564E+03  0.00000000000E+00 0.  1.
          4    1    6    6  502    0 -0.14837478734E+03  0.12318197670E+02 -0.12359931969E+03  0.19350350731E+03  0.00000000000E+00 0. -1.
          1    1    5    5  503    0  0.52206085477E+02  0.13795327256E+03 -0.22042657490E+03  0.26522529233E+03  0.00000000000E+00 0. -1.
         -2    1    5    5    0  503 -0.67867287283E+01  0.28141957668E+03 -0.46163830911E+03  0.54069674149E+03  0.00000000000E+00 0.  1.
         -3    1    6    6    0  502 -0.46698196041E+03 -0.80305058747E+02 -0.29890987961E+03  0.56023938628E+03  0.00000000000E+00 0.  1.
<mgrwt>
<rscale>  0 0.19557755E+04</rscale>
<asrwt>0</asrwt>
<pdfrwt beam="1">  1        2 0.25525218E+00 0.19557755E+04</pdfrwt>
<pdfrwt beam="2">  1       -2 0.88671045E-01 0.19557755E+04</pdfrwt>
<totfact> 0.10538672E+01</totfact>
</mgrwt>
</event>
<event>
12    1  0.2214165E-007  0.4596875E+04  0.7818608E-02  0.7893893E-01
         -2   -1    0    0    0  501 -0.00000000000E+00  0.00000000000E+00  0.14632905412E+04  0.14632905412E+04  0.00000000000E+00 0.  1.
          2   -1    0    0  501    0  0.00000000000E+00 -0.00000000000E+00 -0.36102295780E+04  0.36102295780E+04  0.00000000000E+00 0. -1.
         23    2    1    2    0    0  0.16841553946E+04  0.13960177197E+04 -0.69007296115E+03  0.22955019111E+04  0.88788879708E+02 0.  0.
        254    2    1    2    0    0 -0.16841553946E+04 -0.13960177197E+04 -0.14568660756E+04  0.27780182081E+04  0.89982305763E+03 0.  0.
        -24    2    4    4    0    0 -0.39659152180E+03 -0.81795415639E+03 -0.32963015170E+03  0.97001994344E+03  0.77128572086E+02 0.  0.
         24    2    4    4    0    0 -0.12875638728E+04 -0.57806356330E+03 -0.11272359239E+04  0.18079982646E+04  0.78858651111E+02 0.  0.
         13    1    3    3    0    0  0.90501783264E+03  0.72680250433E+03 -0.40854007605E+03  0.12305300287E+04  0.00000000000E+00 0. -1.
        -13    1    3    3    0    0  0.77913756197E+03  0.66921521536E+03 -0.28153288510E+03  0.10649718824E+04  0.00000000000E+00 0.  1.
          4    1    6    6  502    0 -0.46654544730E+01 -0.89391637999E+01 -0.88972573449E+01  0.13447538925E+02  0.00000000000E+00 0. -1.
          3    1    5    5  503    0 -0.59326017554E+02 -0.87269138328E+02 -0.59405921424E+02  0.12109724342E+03  0.00000000000E+00 0. -1.
         -4    1    5    5    0  503 -0.33726550425E+03 -0.73068501807E+03 -0.27022423027E+03  0.84892270002E+03  0.00000000000E+00 0.  1.
         -3    1    6    6    0  502 -0.12828984183E+04 -0.56912439950E+03 -0.11183386666E+04  0.17945507257E+04  0.00000000000E+00 0.  1.
<mgrwt>
<rscale>  0 0.45968749E+04</rscale>
<asrwt>0</asrwt>
<pdfrwt beam="1">  1        2 0.55541993E+00 0.45968749E+04</pdfrwt>
<pdfrwt beam="2">  1       -2 0.22512162E+00 0.45968749E+04</pdfrwt>
<totfact> 0.46707041E-02</totfact>
</mgrwt>
</event>
<event>
12    1  0.2214165E-007  0.1210125E+04  0.7818608E-02  0.9104040E-01
          1   -1    0    0  501    0  0.00000000000E+00  0.00000000000E+00  0.35203668804E+03  0.35203668804E+03  0.00000000000E+00 0. -1.
         -1   -1    0    0    0  501 -0.00000000000E+00 -0.00000000000E+00 -0.10399494734E+04  0.10399494734E+04  0.00000000000E+00 0.  1.
         23    2    1    2    0    0 -0.23519720212E+03  0.71291234378E+02 -0.23550272104E+03  0.35191198410E+03  0.89332798884E+02 0.  0.
        254    2    1    2    0    0  0.23519720212E+03 -0.71291234378E+02 -0.45241006437E+03  0.10400741774E+04  0.90370308406E+03 0.  0.
        -24    2    4    4    0    0  0.21061456378E+03 -0.37662353748E+03 -0.55669844851E+03  0.70811298024E+03  0.72849480148E+02 0.  0.
         24    2    4    4    0    0  0.24582638333E+02  0.30533230310E+03  0.10428838414E+03  0.33196119715E+03  0.74094857591E+02 0.  0.
         13    1    3    3    0    0 -0.16782412750E+03  0.74231140100E+01 -0.16359667457E+03  0.23448648644E+03  0.00000000000E+00 0.  1.
        -13    1    3    3    0    0 -0.67373074614E+02  0.63868120368E+02 -0.71906046467E+02  0.11742549766E+03  0.00000000000E+00 0. -1.
          4    1    6    6  502    0 -0.88712530406E+01  0.29480595090E+02  0.32914013377E+02  0.45068136127E+02  0.00000000000E+00 0. -1.
          3    1    5    5  503    0  0.34876861514E+02 -0.51462584171E+02 -0.44383208984E+02  0.76384961075E+02  0.00000000000E+00 0. -1.
         -4    1    5    5    0  503  0.17573770227E+03 -0.32516095331E+03 -0.51231523952E+03  0.63172801917E+03  0.00000000000E+00 0.  1.
         -3    1    6    6    0  502  0.33453891374E+02  0.27585170801E+03  0.71374370763E+02  0.28689306102E+03  0.00000000000E+00 0.  1.
<mgrwt>
<rscale>  0 0.12101246E+04</rscale>
<asrwt>0</asrwt>
<pdfrwt beam="1">  1        1 0.54159491E-01 0.12101246E+04</pdfrwt>
<pdfrwt beam="2">  1       -1 0.15999222E+00 0.12101246E+04</pdfrwt>
<totfact> 0.20545112E+01</totfact>
</mgrwt>
</event>
<event>
12    1  0.2692136E-007  0.2525585E+04  0.7818608E-02  0.8393927E-01
          2   -1    0    0  501    0  0.00000000000E+00  0.00000000000E+00  0.21489405283E+04  0.21489405283E+04  0.00000000000E+00 0. -1.
         -2   -1    0    0    0  501 -0.00000000000E+00 -0.00000000000E+00 -0.74206072181E+03  0.74206072181E+03  0.00000000000E+00 0.  1.
         23    2    1    2    0    0  0.90678888741E+03  0.58791025815E+03  0.37413588806E+03  0.11472927441E+04  0.91642893786E+02 0.  0.
        254    2    1    2    0    0 -0.90678888741E+03 -0.58791025815E+03  0.10327439184E+04  0.17437085060E+04  0.89780554401E+03 0.  0.
        -24    2    4    4    0    0 -0.84278484371E+03 -0.27572316290E+03  0.29781651924E+03  0.93863057163E+03  0.77608733599E+02 0.  0.
         24    2    4    4    0    0 -0.64004043702E+02 -0.31218709525E+03  0.73492739919E+03  0.80507793436E+03  0.80466752540E+02 0.  0.
         11    1    3    3    0    0  0.29087783780E+03  0.14141055512E+03  0.97127706815E+02  0.33769905693E+03  0.00000000000E+00 0.  1.
        -11    1    3    3    0    0  0.61591104961E+03  0.44649970303E+03  0.27700818124E+03  0.80959368717E+03  0.00000000000E+00 0. -1.
          2    1    6    6  502    0 -0.45971162689E+02 -0.88083692259E+02  0.16777866059E+03  0.19499170134E+03  0.00000000000E+00 0. -1.
          3    1    5    5  503    0 -0.89749486947E+02 -0.49276652362E+01  0.29694431555E+02  0.94662619641E+02  0.00000000000E+00 0. -1.
         -4    1    5    5    0  503 -0.75303535676E+03 -0.27079549766E+03  0.26812208769E+03  0.84396795199E+03  0.00000000000E+00 0.  1.
         -1    1    6    6    0  502 -0.18032881012E+02 -0.22410340299E+03  0.56714873860E+03  0.61008623302E+03  0.00000000000E+00 0.  1.
<mgrwt>
<rscale>  0 0.25255846E+04</rscale>
<asrwt>0</asrwt>
<pdfrwt beam="1">  1        2 0.33060623E+00 0.25255846E+04</pdfrwt>
<pdfrwt beam="2">  1       -2 0.11416319E+00 0.25255846E+04</pdfrwt>
<totfact> 0.29468433E+00</totfact>
</mgrwt>
</event>
<event>
12    1  0.2214165E-007  0.2684434E+04  0.7818608E-02  0.8340073E-01
         -2   -1    0    0    0  501 -0.00000000000E+00  0.00000000000E+00  0.17317672485E+04  0.17317672485E+04  0.00000000000E+00 0. -1.
          2   -1    0    0  501    0  0.00000000000E+00 -0.00000000000E+00 -0.10402936815E+04  0.10402936815E+04  0.00000000000E+00 0.  1.
         23    2    1    2    0    0  0.79581047210E+03 -0.86515981067E+03  0.49771583151E+03  0.12799106923E+04  0.92922148787E+02 0.  0.
        254    2    1    2    0    0 -0.79581047210E+03  0.86515981067E+03  0.19375773548E+03  0.14921502378E+04  0.89841775721E+03 0.  0.
        -24    2    4    4    0    0 -0.66436940751E+03  0.96606965168E+03  0.37537754622E+03  0.12335644736E+04  0.78075135328E+02 0.  0.
         24    2    4    4    0    0 -0.13144106459E+03 -0.10090984101E+03 -0.18161981074E+03  0.25858576417E+03  0.80132966412E+02 0.  0.
         11    1    3    3    0    0  0.27342694266E+03 -0.32749685453E+03  0.13774840770E+03  0.44832031687E+03  0.00000000000E+00 0. -1.
        -11    1    3    3    0    0  0.52238352945E+03 -0.53766295614E+03  0.35996742382E+03  0.83159037540E+03  0.00000000000E+00 0.  1.
          2    1    6    6  502    0 -0.13428808179E+03 -0.99784913465E+02 -0.14370639301E+03  0.22054896340E+03  0.00000000000E+00 0. -1.
          3    1    5    5  503    0 -0.28443261142E+03  0.42982851931E+03  0.12557077697E+03  0.53049268277E+03  0.00000000000E+00 0. -1.
         -4    1    5    5    0  503 -0.37993679609E+03  0.53624113237E+03  0.24980676925E+03  0.70307179081E+03  0.00000000000E+00 0.  1.
         -1    1    6    6    0  502  0.28470171988E+01 -0.11249275432E+01 -0.37913417725E+02  0.38036800766E+02  0.00000000000E+00 0.  1.
<mgrwt>
<rscale>  0 0.26844340E+04</rscale>
<asrwt>0</asrwt>
<pdfrwt beam="1">  1        2 0.16004518E+00 0.26844340E+04</pdfrwt>
<pdfrwt beam="2">  1       -2 0.26642573E+00 0.26844340E+04</pdfrwt>
<totfact> 0.10628319E+00</totfact>
</mgrwt>
</event>
<event>
12    1  0.2214165E-007  0.1219312E+04  0.7818608E-02  0.9096119E-01
         -2   -1    0    0    0  501 -0.00000000000E+00  0.00000000000E+00  0.11016255200E+04  0.11016255200E+04  0.00000000000E+00 0.  1.
          2   -1    0    0  501    0  0.00000000000E+00 -0.00000000000E+00 -0.33739279116E+03  0.33739279116E+03  0.00000000000E+00 0. -1.
         23    2    1    2    0    0  0.90439463494E+00 -0.11082402085E+03 -0.10786546345E+03  0.18183810679E+03  0.95641817987E+02 0.  0.
        254    2    1    2    0    0 -0.90439463494E+00  0.11082402085E+03  0.87209819230E+03  0.12571802044E+04  0.89870130063E+03 0.  0.
        -24    2    4    4    0    0  0.44016106203E+03  0.46032603000E+02  0.38629379184E+03  0.59294037582E+03  0.80589295758E+02 0.  0.
         24    2    4    4    0    0 -0.44106545667E+03  0.64791417852E+02  0.48580440046E+03  0.66423982856E+03  0.80448551569E+02 0.  0.
         11    1    3    3    0    0 -0.89893812570E+01 -0.12394675711E+03 -0.10908607250E+03  0.16535833450E+03  0.00000000000E+00 0. -1.
        -11    1    3    3    0    0  0.98937758919E+01  0.13122736259E+02  0.12206090534E+01  0.16479772291E+02  0.00000000000E+00 0.  1.
          2    1    6    6  502    0 -0.65613928871E+02  0.38890755357E+01  0.11834898746E+03  0.13537649502E+03  0.00000000000E+00 0. -1.
          3    1    5    5  503    0  0.14606767943E+03  0.72798424898E+01  0.80631462111E+02  0.16700358009E+03  0.00000000000E+00 0. -1.
         -4    1    5    5    0  503  0.29409338260E+03  0.38752760510E+02  0.30566232973E+03  0.42593679572E+03  0.00000000000E+00 0.  1.
         -1    1    6    6    0  502 -0.37545152780E+03  0.60902342316E+02  0.36745541299E+03  0.52886333354E+03  0.00000000000E+00 0.  1.
<mgrwt>
<rscale>  0 0.12193121E+04</rscale>
<asrwt>0</asrwt>
<pdfrwt beam="1">  1        2 0.51906584E-01 0.12193121E+04</pdfrwt>
<pdfrwt beam="2">  1       -2 0.16948085E+00 0.12193121E+04</pdfrwt>
<totfact> 0.20372809E+01</totfact>
</mgrwt>
</event>
<event>
12    1  0.2641697E-007  0.1967464E+04  0.7818608E-02  0.8621985E-01
         -1   -1    0    0    0  501 -0.00000000000E+00  0.00000000000E+00  0.45027630164E+03  0.45027630164E+03  0.00000000000E+00 0.  1.
          1   -1    0    0  501    0  0.00000000000E+00 -0.00000000000E+00 -0.21491879593E+04  0.21491879593E+04  0.00000000000E+00 0. -1.
         23    2    1    2    0    0  0.15896260583E+03 -0.74558012198E+03 -0.84670091543E+03  0.11437247247E+04  0.10022463485E+03 0.  0.
        254    2    1    2    0    0 -0.15896260583E+03  0.74558012198E+03 -0.85221074226E+03  0.14557395362E+04  0.90097481639E+03 0.  0.
        -24    2    4    4    0    0 -0.19539328860E+03  0.44676351249E+03 -0.99649268551E+03  0.11124417298E+04  0.82175158059E+02 0.  0.
         24    2    4    4    0    0  0.36430682772E+02  0.29881660949E+03  0.14428194325E+03  0.34329780643E+03  0.80109574924E+02 0.  0.
         13    1    3    3    0    0  0.65334566530E+02 -0.44616390493E+03 -0.43931582934E+03  0.62954684778E+03  0.00000000000E+00 0.  1.
        -13    1    3    3    0    0  0.93628039297E+02 -0.29941621705E+03 -0.40738508609E+03  0.51417787695E+03  0.00000000000E+00 0. -1.
          2    1    6    6  502    0  0.39659384245E+02  0.21609072052E+03  0.13975881174E+03  0.26038546755E+03  0.00000000000E+00 0. -1.
          3    1    5    5  503    0 -0.12068781768E+03  0.35699148615E+03 -0.73178060392E+03  0.82311075973E+03  0.00000000000E+00 0. -1.
         -4    1    5    5    0  503 -0.74705470917E+02  0.89772026345E+02 -0.26471208159E+03  0.28933097007E+03  0.00000000000E+00 0.  1.
         -1    1    6    6    0  502 -0.32287014725E+01  0.82725888968E+02  0.45231315140E+01  0.82912338874E+02  0.00000000000E+00 0.  1.
<mgrwt>
<rscale>  0 0.19674638E+04</rscale>
<asrwt>0</asrwt>
<pdfrwt beam="1">  1        1 0.33064430E+00 0.19674638E+04</pdfrwt>
<pdfrwt beam="2">  1       -1 0.69273277E-01 0.19674638E+04</pdfrwt>
<totfact> 0.46268368E+00</totfact>
</mgrwt>
</event>
<event>
12    1  0.2214165E-007  0.1416661E+04  0.7818608E-02  0.8941846E-01
         -2   -1    0    0    0  501 -0.00000000000E+00  0.00000000000E+00  0.51693491063E+03  0.51693491063E+03  0.00000000000E+00 0. -1.
          2   -1    0    0  501    0  0.00000000000E+00 -0.00000000000E+00 -0.97059063840E+03  0.97059063840E+03  0.00000000000E+00 0.  1.
         23    2    1    2    0    0 -0.38138554767E+03 -0.41254090439E+02  0.22893149498E+02  0.40027690784E+03  0.11198513611E+03 0.  0.
        254    2    1    2    0    0  0.38138554767E+03  0.41254090439E+02 -0.47654887727E+03  0.10872486412E+04  0.89880695335E+03 0.  0.
        -24    2    4    4    0    0 -0.23416879293E+03 -0.18324277124E+03 -0.22319258461E+03  0.38030993686E+03  0.80048619315E+02 0.  0.
         24    2    4    4    0    0  0.61555434060E+03  0.22449686168E+03 -0.25335629266E+03  0.70693870433E+03  0.79163965993E+02 0.  0.
         11    1    3    3    0    0 -0.15381465806E+02  0.22185967214E+02  0.93462284960E+01  0.28568489961E+02  0.00000000000E+00 0.  1.
        -11    1    3    3    0    0 -0.36600408186E+03 -0.63440057653E+02  0.13546921002E+02  0.37170841788E+03  0.00000000000E+00 0. -1.
          4    1    6    6  502    0  0.59090576616E+03  0.20199899654E+03 -0.22715327986E+03  0.66450871449E+03  0.00000000000E+00 0. -1.
          3    1    5    5  503    0 -0.23429920463E+03 -0.18740045428E+03 -0.20932151352E+03  0.36582857129E+03  0.00000000000E+00 0. -1.
         -2    1    5    5    0  503  0.13041169457E+00  0.41576830367E+01 -0.13871071094E+02  0.14481365569E+02  0.00000000000E+00 0.  1.
         -3    1    6    6    0  502  0.24648574442E+02  0.22497865144E+02 -0.26203012798E+02  0.42429989840E+02  0.00000000000E+00 0.  1.
<mgrwt>
<rscale>  0 0.14166611E+04</rscale>
<asrwt>0</asrwt>
<pdfrwt beam="1">  1        2 0.14932163E+00 0.14166611E+04</pdfrwt>
<pdfrwt beam="2">  1       -2 0.79528449E-01 0.14166611E+04</pdfrwt>
<totfact> 0.35849814E+01</totfact>
</mgrwt>
</event>
<event>
12    1  0.2214165E-007  0.1650192E+04  0.7818608E-02  0.8790293E-01
          2   -1    0    0  501    0  0.00000000000E+00  0.00000000000E+00  0.17259041067E+04  0.17259041067E+04  0.00000000000E+00 0. -1.
         -2   -1    0    0    0  501 -0.00000000000E+00 -0.00000000000E+00 -0.39445041757E+03  0.39445041757E+03  0.00000000000E+00 0.  1.
         23    2    1    2    0    0 -0.54468021214E+03 -0.29444184004E+02  0.23891556074E+03  0.60248330550E+03  0.91443943288E+02 0.  0.
        254    2    1    2    0    0  0.54468021214E+03  0.29444184004E+02  0.10925381284E+04  0.15178712188E+04  0.90152647292E+03 0.  0.
        -24    2    4    4    0    0  0.83354501784E+02 -0.36369381951E+03  0.18518857791E+03  0.42392205014E+03  0.78701511358E+02 0.  0.
         24    2    4    4    0    0  0.46132571036E+03  0.39313800351E+03  0.90734955050E+03  0.10939491687E+04  0.77863187639E+02 0.  0.
         13    1    3    3    0    0 -0.54051191295E+03 -0.18504901062E+02  0.23754368341E+03  0.59069667422E+03  0.00000000000E+00 0. -1.
        -13    1    3    3    0    0 -0.41682991946E+01 -0.10939282942E+02  0.13718773290E+01  0.11786631278E+02  0.00000000000E+00 0.  1.
          2    1    6    6  502    0  0.29114151784E+03  0.20450594926E+03  0.49452798514E+03  0.60921588520E+03  0.00000000000E+00 0. -1.
          1    1    5    5  503    0  0.23137820748E+02 -0.17902734139E+03  0.50138070502E+02  0.18734987011E+03  0.00000000000E+00 0. -1.
         -2    1    5    5    0  503  0.60216681036E+02 -0.18466647811E+03  0.13505050741E+03  0.23657218003E+03  0.00000000000E+00 0.  1.
         -1    1    6    6    0  502  0.17018419252E+03  0.18863205425E+03  0.41282156536E+03  0.48473328347E+03  0.00000000000E+00 0.  1.
<mgrwt>
<rscale>  0 0.16501922E+04</rscale>
<asrwt>0</asrwt>
<pdfrwt beam="1">  1        2 0.26552370E+00 0.16501922E+04</pdfrwt>
<pdfrwt beam="2">  1       -2 0.60684681E-01 0.16501922E+04</pdfrwt>
<totfact> 0.22910232E+01</totfact>
</mgrwt>
</event>
<event>
12    1  0.2214165E-007  0.1820601E+04  0.7818608E-02  0.8695420E-01
          2   -1    0    0  501    0  0.00000000000E+00  0.00000000000E+00  0.58507718370E+03  0.58507718370E+03  0.00000000000E+00 0. -1.
         -2   -1    0    0    0  501 -0.00000000000E+00 -0.00000000000E+00 -0.14163037154E+04  0.14163037154E+04  0.00000000000E+00 0.  1.
         23    2    1    2    0    0 -0.56659981614E+03  0.35829815171E+03 -0.16971197071E+03  0.69882610119E+03  0.10071171498E+03 0.  0.
        254    2    1    2    0    0  0.56659981614E+03 -0.35829815171E+03 -0.66151456100E+03  0.13025547979E+04  0.89979696045E+03 0.  0.
        -24    2    4    4    0    0  0.17486476297E+03  0.20522021745E+03 -0.52995199083E+03  0.59948132397E+03  0.76391898986E+02 0.  0.
         24    2    4    4    0    0  0.39173505316E+03 -0.56351836917E+03 -0.13156257018E+03  0.70307347396E+03  0.77422836742E+02 0.  0.
         11    1    3    3    0    0 -0.35105035637E+03  0.19358258833E+03 -0.56411980081E+02  0.40483685937E+03  0.00000000000E+00 0. -1.
        -11    1    3    3    0    0 -0.21554945977E+03  0.16471556338E+03 -0.11329999063E+03  0.29398924182E+03  0.00000000000E+00 0.  1.
          2    1    6    6  502    0  0.38703156650E+03 -0.53063223173E+03 -0.13167522479E+03  0.66985249394E+03  0.00000000000E+00 0. -1.
          1    1    5    5  503    0  0.15148080832E+03  0.14060333607E+03 -0.44142709092E+03  0.48741523366E+03  0.00000000000E+00 0. -1.
         -2    1    5    5    0  503  0.23383954654E+02  0.64616881388E+02 -0.88524899905E+02  0.11206609032E+03  0.00000000000E+00 0.  1.
         -1    1    6    6    0  502  0.47034866676E+01 -0.32886137437E+02  0.11265461525E+00  0.33220980019E+02  0.00000000000E+00 0.  1.
<mgrwt>
<rscale>  0 0.18206010E+04</rscale>
<asrwt>0</asrwt>
<pdfrwt beam="1">  1        2 0.90011876E-01 0.18206010E+04</pdfrwt>
<pdfrwt beam="2">  1       -2 0.21789288E+00 0.18206010E+04</pdfrwt>
<totfact> 0.49084904E+00</totfact>
</mgrwt>
</event>
<event>
12    1  0.2214165E-007  0.2132808E+04  0.7818608E-02  0.8546927E-01
          2   -1    0    0  501    0  0.00000000000E+00  0.00000000000E+00  0.12809248384E+04  0.12809248384E+04  0.00000000000E+00 0. -1.
         -2   -1    0    0    0  501 -0.00000000000E+00 -0.00000000000E+00 -0.88780975646E+03  0.88780975646E+03  0.00000000000E+00 0.  1.
         23    2    1    2    0    0  0.39313475242E+03  0.69542177542E+03  0.51779407739E+03  0.95622791196E+03  0.89970738310E+02 0.  0.
        254    2    1    2    0    0 -0.39313475242E+03 -0.69542177542E+03 -0.12467899544E+03  0.12125066829E+04  0.90358243947E+03 0.  0.
        -24    2    4    4    0    0 -0.36735836035E+03 -0.43402010599E+03  0.34389680452E+03  0.66947132621E+03  0.81247936232E+02 0.  0.
         24    2    4    4    0    0 -0.25776392065E+02 -0.26140166943E+03 -0.46857579995E+03  0.54303535670E+03  0.79554152331E+02 0.  0.
         13    1    3    3    0    0  0.94850959658E+01  0.34192523359E+02  0.53215844902E+01  0.35880565222E+02  0.00000000000E+00 0.  1.
        -13    1    3    3    0    0  0.38364965645E+03  0.66122925206E+03  0.51247249290E+03  0.92034734674E+03  0.00000000000E+00 0. -1.
          4    1    6    6  502    0 -0.27589645398E+02 -0.24967189155E+02 -0.50448320873E+02  0.62686379273E+02  0.00000000000E+00 0. -1.
          3    1    5    5  503    0 -0.13523199122E+03 -0.12776455263E+03  0.75708663574E+02  0.20085635190E+03  0.00000000000E+00 0. -1.
         -4    1    5    5    0  503 -0.23212636914E+03 -0.30625555336E+03  0.26818814094E+03  0.46861497432E+03  0.00000000000E+00 0.  1.
         -3    1    6    6    0  502  0.18132533326E+01 -0.23643448028E+03 -0.41812747908E+03  0.48034897743E+03  0.00000000000E+00 0.  1.
<mgrwt>
<rscale>  0 0.21328081E+04</rscale>
<asrwt>0</asrwt>
<pdfrwt beam="1">  1        2 0.19706536E+00 0.21328081E+04</pdfrwt>
<pdfrwt beam="2">  1       -2 0.13658612E+00 0.21328081E+04</pdfrwt>
<totfact> 0.59698315E+00</totfact>
</mgrwt>
</event>
<event>
12    1  0.2214165E-007  0.3660497E+04  0.7818608E-02  0.8076773E-01
         -3   -1    0    0    0  501 -0.00000000000E+00  0.00000000000E+00  0.19272919392E+04  0.19272919392E+04  0.00000000000E+00 0.  1.
          3   -1    0    0  501    0  0.00000000000E+00 -0.00000000000E+00 -0.17380910766E+04  0.17380910766E+04  0.00000000000E+00 0. -1.
         23    2    1    2    0    0 -0.13191908682E+04 -0.80997443330E+03 -0.65855224595E+03  0.16846597597E+04  0.89801537142E+02 0.  0.
        254    2    1    2    0    0  0.13191908682E+04  0.80997443330E+03  0.84775310853E+03  0.19807232562E+04  0.89903067532E+03 0.  0.
        -24    2    4    4    0    0  0.92456800539E+02  0.37533715081E+03  0.48889170299E+03  0.62828480589E+03  0.79375457888E+02 0.  0.
         24    2    4    4    0    0  0.12267340676E+04  0.43463728248E+03  0.35886140554E+03  0.13524384503E+04  0.80760221151E+02 0.  0.
         11    1    3    3    0    0 -0.17879336165E+03 -0.13869001649E+03 -0.74803442339E+02  0.23832234858E+03  0.00000000000E+00 0.  1.
        -11    1    3    3    0    0 -0.11403975065E+04 -0.67128441680E+03 -0.58374880361E+03  0.14463374111E+04  0.00000000000E+00 0. -1.
          2    1    6    6  502    0  0.33218324418E+02  0.17872929773E+02 -0.19400155136E+01  0.37771184201E+02  0.00000000000E+00 0. -1.
          1    1    5    5  503    0  0.37636512677E+02  0.44072663489E+02  0.87774902604E+02  0.10518241431E+03  0.00000000000E+00 0. -1.
         -2    1    5    5    0  503  0.54820287862E+02  0.33126448732E+03  0.40111680039E+03  0.52310239158E+03  0.00000000000E+00 0.  1.
         -1    1    6    6    0  502  0.11935157432E+04  0.41676435271E+03  0.36080142105E+03  0.13146672661E+04  0.00000000000E+00 0.  1.
<mgrwt>
<rscale>  0 0.36604966E+04</rscale>
<asrwt>0</asrwt>
<pdfrwt beam="1">  1        3 0.26739863E+00 0.36604966E+04</pdfrwt>
<pdfrwt beam="2">  1       -3 0.29650645E+00 0.36604966E+04</pdfrwt>
<totfact> 0.48891896E-03</totfact>
</mgrwt>
</event>
<event>
12    1  0.2214165E-007  0.2004954E+04  0.7818608E-02  0.8604308E-01
          1   -1    0    0  501    0  0.00000000000E+00  0.00000000000E+00  0.18635493464E+04  0.18635493464E+04  0.00000000000E+00 0. -1.
         -1   -1    0    0    0  501 -0.00000000000E+00 -0.00000000000E+00 -0.53927230773E+03  0.53927230773E+03  0.00000000000E+00 0.  1.
         23    2    1    2    0    0 -0.85656840285E+02  0.79043888156E+03  0.44635128076E+03  0.91635221446E+03  0.91330144759E+02 0.  0.
        254    2    1    2    0    0  0.85656840285E+02 -0.79043888156E+03  0.87792575787E+03  0.14864694396E+04  0.89816871402E+03 0.  0.
        -24    2    4    4    0    0 -0.30952837846E+03 -0.28500939649E+03  0.69152312628E+03  0.81373169635E+03  0.83167699959E+02 0.  0.
         24    2    4    4    0    0  0.39518521875E+03 -0.50542948507E+03  0.18640263159E+03  0.67273774327E+03  0.78738863696E+02 0.  0.
         13    1    3    3    0    0 -0.90804356028E+02  0.75328945801E+03  0.40334219911E+03  0.85928770979E+03  0.00000000000E+00 0.  1.
        -13    1    3    3    0    0  0.51475157431E+01  0.37149423551E+02  0.43009081648E+02  0.57064504665E+02  0.00000000000E+00 0. -1.
          2    1    6    6  502    0  0.38552908282E+03 -0.49063422702E+03  0.16587489221E+03  0.64565400819E+03  0.00000000000E+00 0. -1.
          1    1    5    5  503    0 -0.23061975742E+03 -0.17300768768E+03  0.51587714904E+03  0.59097069759E+03  0.00000000000E+00 0. -1.
         -2    1    5    5    0  503 -0.78908621042E+02 -0.11200170881E+03  0.17564597723E+03  0.22276099876E+03  0.00000000000E+00 0.  1.
         -1    1    6    6    0  502  0.96561359296E+01 -0.14795258053E+02  0.20527739379E+02  0.27083735081E+02  0.00000000000E+00 0.  1.
<mgrwt>
<rscale>  0 0.20049544E+04</rscale>
<asrwt>0</asrwt>
<pdfrwt beam="1">  1        1 0.28669990E+00 0.20049544E+04</pdfrwt>
<pdfrwt beam="2">  1       -1 0.82964971E-01 0.20049544E+04</pdfrwt>
<totfact> 0.49339722E+00</totfact>
</mgrwt>
</event>
<event>
12    1  0.2214165E-007  0.1520039E+04  0.7818608E-02  0.8871236E-01
         -2   -1    0    0    0  501 -0.00000000000E+00  0.00000000000E+00  0.20638279829E+03  0.20638279829E+03  0.00000000000E+00 0.  1.
          2   -1    0    0  501    0  0.00000000000E+00 -0.00000000000E+00 -0.27988264690E+04  0.27988264690E+04  0.00000000000E+00 0. -1.
         23    2    1    2    0    0  0.91020366049E+02 -0.43061958417E+03 -0.42822815073E+03  0.62076232135E+03  0.90821678210E+02 0.  0.
        254    2    1    2    0    0 -0.91020366049E+02  0.43061958417E+03 -0.21642155200E+04  0.23844469459E+04  0.89891072289E+03 0.  0.
        -24    2    4    4    0    0 -0.29196401710E+03  0.63467395216E+03 -0.15032154334E+04  0.16595533172E+04  0.80040993854E+02 0.  0.
         24    2    4    4    0    0  0.20094365105E+03 -0.20405436799E+03 -0.66100008662E+03  0.72489362874E+03  0.80827733338E+02 0.  0.
         13    1    3    3    0    0 -0.62368998351E+01 -0.10838951531E+03 -0.69806522755E+02  0.12907415143E+03  0.00000000000E+00 0.  1.
        -13    1    3    3    0    0  0.97257265884E+02 -0.32223006886E+03 -0.35842162797E+03  0.49168816992E+03  0.00000000000E+00 0. -1.
          2    1    6    6  502    0  0.15025246358E+03 -0.18416449765E+03 -0.58463184655E+03  0.63109964427E+03  0.00000000000E+00 0. -1.
          1    1    5    5  503    0 -0.25005864162E+03  0.48282165802E+03 -0.11121169823E+04  0.12379217504E+04  0.00000000000E+00 0. -1.
         -2    1    5    5    0  503 -0.41905375474E+02  0.15185229414E+03 -0.39109845103E+03  0.42163156680E+03  0.00000000000E+00 0.  1.
         -1    1    6    6    0  502  0.50691187471E+02 -0.19889870340E+02 -0.76368240077E+02  0.93793984465E+02  0.00000000000E+00 0.  1.
<mgrwt>
<rscale>  0 0.15200390E+04</rscale>
<asrwt>0</asrwt>
<pdfrwt beam="1">  1        2 0.43058865E+00 0.15200390E+04</pdfrwt>
<pdfrwt beam="2">  1       -2 0.31751202E-01 0.15200390E+04</pdfrwt>
<totfact> 0.20702988E+01</totfact>
</mgrwt>
</event>
<event>
12    1  0.2214165E-007  0.2648932E+04  0.7818608E-02  0.8351768E-01
          1   -1    0    0  501    0  0.00000000000E+00  0.00000000000E+00  0.14622161520E+04  0.14622161520E+04  0.00000000000E+00 0. -1.
         -1   -1    0    0    0  501 -0.00000000000E+00 -0.00000000000E+00 -0.11996926052E+04  0.11996926052E+04  0.00000000000E+00 0.  1.
         23    2    1    2    0    0  0.75899300347E+03  0.12975154463E+02 -0.77839389756E+03  0.10908346044E+04  0.88228909204E+02 0.  0.
        254    2    1    2    0    0 -0.75899300347E+03 -0.12975154463E+02  0.10409174444E+04  0.15710741528E+04  0.89918081260E+03 0.  0.
        -24    2    4    4    0    0 -0.83207618754E+03 -0.33615420903E+02  0.11468183490E+04  0.14190321353E+04  0.70562716761E+02 0.  0.
         24    2    4    4    0    0  0.73083184077E+02  0.20640266440E+02 -0.10590090465E+03  0.15204201751E+03  0.78323694302E+02 0.  0.
         13    1    3    3    0    0  0.33737594855E+03  0.37028850601E+02 -0.30321262986E+03  0.45511708971E+03  0.00000000000E+00 0. -1.
        -13    1    3    3    0    0  0.42161705492E+03 -0.24053696138E+02 -0.47518126770E+03  0.63571751468E+03  0.00000000000E+00 0.  1.
          2    1    6    6  502    0  0.23880862170E+02  0.36689407216E+02 -0.12945947965E+02  0.45650911804E+02  0.00000000000E+00 0. -1.
          3    1    5    5  503    0 -0.50334674845E+03  0.25596625416E+00  0.64469189535E+03  0.81791543244E+03  0.00000000000E+00 0. -1.
         -4    1    5    5    0  503 -0.32872943910E+03 -0.33871387157E+02  0.50212645369E+03  0.60111670289E+03  0.00000000000E+00 0.  1.
         -3    1    6    6    0  502  0.49202321907E+02 -0.16049140776E+02 -0.92954956688E+02  0.10639110571E+03  0.00000000000E+00 0.  1.
<mgrwt>
<rscale>  0 0.26489318E+04</rscale>
<asrwt>0</asrwt>
<pdfrwt beam="1">  1        1 0.22495633E+00 0.26489318E+04</pdfrwt>
<pdfrwt beam="2">  1       -1 0.18456809E+00 0.26489318E+04</pdfrwt>
<totfact> 0.11765926E+00</totfact>
</mgrwt>
</event>
<event>
12    1  0.2615910E-007  0.1846221E+04  0.7818608E-02  0.8682099E-01
         -2   -1    0    0    0  501 -0.00000000000E+00  0.00000000000E+00  0.60710454550E+03  0.60710454550E+03  0.00000000000E+00 0.  1.
          2   -1    0    0  501    0  0.00000000000E+00 -0.00000000000E+00 -0.14036011410E+04  0.14036011410E+04  0.00000000000E+00 0. -1.
         23    2    1    2    0    0  0.27640558324E+03  0.31971188849E+03  0.30257223617E+03  0.52789970422E+03  0.92262676752E+02 0.  0.
        254    2    1    2    0    0 -0.27640558324E+03 -0.31971188849E+03 -0.10990688317E+04  0.14828059823E+04  0.90119118187E+03 0.  0.
        -24    2    4    4    0    0  0.32384290840E+03 -0.14608350125E+03 -0.44026901777E+03  0.57149417169E+03  0.80957776704E+02 0.  0.
         24    2    4    4    0    0 -0.60024849165E+03 -0.17362838724E+03 -0.65879981395E+03  0.91131181064E+03  0.77633451374E+02 0.  0.
         11    1    3    3    0    0  0.80233320125E+02  0.11740584447E+03  0.53920674104E+02  0.15208207347E+03  0.00000000000E+00 0. -1.
        -11    1    3    3    0    0  0.19617226312E+03  0.20230604401E+03  0.24865156207E+03  0.37581763075E+03  0.00000000000E+00 0.  1.
          4    1    6    6  502    0 -0.17633627380E+03 -0.46103421743E+02 -0.14349558459E+03  0.23197195898E+03  0.00000000000E+00 0. -1.
          1    1    5    5  503    0  0.19637381616E+02 -0.32561829539E+02 -0.64508114597E+02  0.74881214924E+02  0.00000000000E+00 0. -1.
         -2    1    5    5    0  503  0.30420552679E+03 -0.11352167171E+03 -0.37576090317E+03  0.49661295677E+03  0.00000000000E+00 0.  1.
         -3    1    6    6    0  502 -0.42391221785E+03 -0.12752496550E+03 -0.51530422936E+03  0.67933985166E+03  0.00000000000E+00 0.  1.
<mgrwt>
<rscale>  0 0.18462206E+04</rscale>
<asrwt>0</asrwt>
<pdfrwt beam="1">  1        2 0.21593864E+00 0.18462206E+04</pdfrwt>
<pdfrwt beam="2">  1       -2 0.93400699E-01 0.18462206E+04</pdfrwt>
<totfact> 0.13137164E+01</totfact>
</mgrwt>
</event>
<event>
12    1  0.2214165E-007  0.1586494E+04  0.7818608E-02  0.8828888E-01
          1   -1    0    0  501    0  0.00000000000E+00  0.00000000000E+00  0.51253328633E+03  0.51253328633E+03  0.00000000000E+00 0. -1.
         -1   -1    0    0    0  501 -0.00000000000E+00 -0.00000000000E+00 -0.12277075173E+04  0.12277075173E+04  0.00000000000E+00 0.  1.
         23    2    1    2    0    0 -0.51527660271E+03 -0.96544758936E+02 -0.12921409732E+03  0.54811680142E+03  0.94365657280E+02 0.  0.
        254    2    1    2    0    0  0.51527660271E+03  0.96544758936E+02 -0.58596013370E+03  0.11921240023E+04  0.89609122899E+03 0.  0.
        -24    2    4    4    0    0  0.37750997320E+03 -0.37505528014E+03 -0.34219174070E+03  0.63792061376E+03  0.81653407916E+02 0.  0.
         24    2    4    4    0    0  0.13776662951E+03  0.47160003908E+03 -0.24376839300E+03  0.55420338849E+03  0.79574652535E+02 0.  0.
         11    1    3    3    0    0 -0.26622552485E+03 -0.77262053101E+01 -0.88063985120E+02  0.28051914339E+03  0.00000000000E+00 0. -1.
        -11    1    3    3    0    0 -0.24905107786E+03 -0.88818553625E+02 -0.41150112196E+02  0.26759765803E+03  0.00000000000E+00 0.  1.
          4    1    6    6  502    0  0.86106742940E+02  0.21991862518E+03 -0.79255176889E+02  0.24911835730E+03  0.00000000000E+00 0. -1.
          3    1    5    5  503    0  0.38875832306E+02 -0.96064469907E+01 -0.22177140909E+02  0.45775973394E+02  0.00000000000E+00 0. -1.
         -4    1    5    5    0  503  0.33863414090E+03 -0.36544883315E+03 -0.32001459980E+03  0.59214464037E+03  0.00000000000E+00 0.  1.
         -3    1    6    6    0  502  0.51659886572E+02  0.25168141390E+03 -0.16451321611E+03  0.30508503119E+03  0.00000000000E+00 0.  1.
<mgrwt>
<rscale>  0 0.15864942E+04</rscale>
<asrwt>0</asrwt>
<pdfrwt beam="1">  1        1 0.78851275E-01 0.15864942E+04</pdfrwt>
<pdfrwt beam="2">  1       -1 0.18887808E+00 0.15864942E+04</pdfrwt>
<totfact> 0.74010834E+00</totfact>
</mgrwt>
</event>
<event>
12    1  0.2214165E-007  0.1424504E+04  0.7818608E-02  0.8936270E-01
          1   -1    0    0  501    0  0.00000000000E+00  0.00000000000E+00  0.27572293111E+03  0.27572293111E+03  0.00000000000E+00 0. -1.
         -1   -1    0    0    0  501 -0.00000000000E+00 -0.00000000000E+00 -0.18399017390E+04  0.18399017390E+04  0.00000000000E+00 0.  1.
         23    2    1    2    0    0 -0.40270164790E+03  0.11653540631E+03 -0.40604679971E+03  0.59053184650E+03  0.90026329673E+02 0.  0.
        254    2    1    2    0    0  0.40270164790E+03 -0.11653540631E+03 -0.11581320082E+04  0.15250928237E+04  0.89938270726E+03 0.  0.
        -24    2    4    4    0    0  0.22922217873E+03 -0.46858968202E+03 -0.91522524760E+03  0.10565920892E+04  0.81427831681E+02 0.  0.
         24    2    4    4    0    0  0.17347946917E+03  0.35205427571E+03 -0.24290676064E+03  0.46850073447E+03  0.80323748479E+02 0.  0.
         11    1    3    3    0    0  0.28962778120E+01 -0.38391647553E+01 -0.12042696270E+01  0.49576079431E+01  0.00000000000E+00 0.  1.
        -11    1    3    3    0    0 -0.40559792572E+03  0.12037457107E+03 -0.40484253008E+03  0.58557423856E+03  0.00000000000E+00 0. -1.
          2    1    6    6  502    0  0.89508493467E+02  0.15142937462E+03 -0.65049243769E+02  0.18754740738E+03  0.00000000000E+00 0. -1.
          1    1    5    5  503    0  0.57003761340E+01 -0.21252587097E-01 -0.28553470651E+02  0.29116926794E+02  0.00000000000E+00 0. -1.
         -2    1    5    5    0  503  0.22352180260E+03 -0.46856842943E+03 -0.88667177694E+03  0.10274751624E+04  0.00000000000E+00 0.  1.
         -1    1    6    6    0  502  0.83970975705E+02  0.20062490109E+03 -0.17785751687E+03  0.28095332709E+03  0.00000000000E+00 0.  1.
<mgrwt>
<rscale>  0 0.14245043E+04</rscale>
<asrwt>0</asrwt>
<pdfrwt beam="1">  1        1 0.42418912E-01 0.14245043E+04</pdfrwt>
<pdfrwt beam="2">  1       -1 0.28306181E+00 0.14245043E+04</pdfrwt>
<totfact> 0.40600541E+00</totfact>
</mgrwt>
</event>
<event>
12    1  0.2214165E-007  0.1690581E+04  0.7818608E-02  0.8766755E-01
         -2   -1    0    0    0  501 -0.00000000000E+00  0.00000000000E+00  0.86169448839E+03  0.86169448839E+03  0.00000000000E+00 0.  1.
          2   -1    0    0  501    0  0.00000000000E+00 -0.00000000000E+00 -0.82919894932E+03  0.82919894932E+03  0.00000000000E+00 0. -1.
         23    2    1    2    0    0  0.27963108278E+03 -0.52939701833E+03  0.70306369276E+02  0.60974836576E+03  0.91626079887E+02 0.  0.
        254    2    1    2    0    0 -0.27963108278E+03  0.52939701833E+03 -0.37810830209E+02  0.10811450719E+04  0.89943885964E+03 0.  0.
        -24    2    4    4    0    0  0.14953370446E+03  0.25031964570E+03  0.32870175873E+03  0.44662364448E+03  0.80047359877E+02 0.  0.
         24    2    4    4    0    0 -0.42916478724E+03  0.27907737263E+03 -0.36651258893E+03  0.63452142747E+03  0.78862979584E+02 0.  0.
         11    1    3    3    0    0  0.16829118420E+03 -0.33313093403E+03  0.87827860482E+02  0.38342127610E+03  0.00000000000E+00 0.  1.
        -11    1    3    3    0    0  0.11133989858E+03 -0.19626608430E+03 -0.17521491206E+02  0.22632708966E+03  0.00000000000E+00 0. -1.
          4    1    6    6  502    0 -0.80750789474E+02  0.29018823915E+02 -0.89427708276E+02  0.12393585901E+03  0.00000000000E+00 0. -1.
          3    1    5    5  503    0  0.29275735948E+02  0.24302537968E+02  0.13107812808E+02  0.40242972350E+02  0.00000000000E+00 0. -1.
         -4    1    5    5    0  503  0.12025796851E+03  0.22601710773E+03  0.31559394592E+03  0.40638067213E+03  0.00000000000E+00 0.  1.
         -3    1    6    6    0  502 -0.34841399777E+03  0.25005854872E+03 -0.27708488066E+03  0.51058556846E+03  0.00000000000E+00 0.  1.
<mgrwt>
<rscale>  0 0.16905812E+04</rscale>
<asrwt>0</asrwt>
<pdfrwt beam="1">  1        2 0.12756907E+00 0.16905812E+04</pdfrwt>
<pdfrwt beam="2">  1       -2 0.13256838E+00 0.16905812E+04</pdfrwt>
<totfact> 0.12915358E+01</totfact>
</mgrwt>
</event>
<event>
12    1  0.2214165E-007  0.2192783E+04  0.7818608E-02  0.8521438E-01
         -2   -1    0    0    0  501 -0.00000000000E+00  0.00000000000E+00  0.82270476140E+03  0.82270476140E+03  0.00000000000E+00 0.  1.
          2   -1    0    0  501    0  0.00000000000E+00 -0.00000000000E+00 -0.14611244378E+04  0.14611244378E+04  0.00000000000E+00 0. -1.
         23    2    1    2    0    0  0.27206274607E+03  0.38849733827E+03  0.54803484652E+03  0.73041634012E+03  0.90650522708E+02 0.  0.
        254    2    1    2    0    0 -0.27206274607E+03 -0.38849733827E+03 -0.11864545230E+04  0.15534128591E+04  0.88344148433E+03 0.  0.
        -24    2    4    4    0    0 -0.36826247722E+03 -0.54005841725E+03 -0.11865390605E+04  0.13570886125E+04  0.80834485013E+02 0.  0.
         24    2    4    4    0    0  0.96199731148E+02  0.15156107898E+03  0.84537560554E-01  0.19632424660E+03  0.79486185733E+02 0.  0.
         13    1    3    3    0    0  0.11528748169E+03  0.10203298865E+03  0.14286820628E+03  0.21003156566E+03  0.00000000000E+00 0. -1.
        -13    1    3    3    0    0  0.15677526438E+03  0.28646434962E+03  0.40516664023E+03  0.52038477445E+03  0.00000000000E+00 0.  1.
          2    1    6    6  502    0  0.47472150075E+02  0.15663660103E+02  0.12171199536E+02  0.51449911358E+02  0.00000000000E+00 0. -1.
          1    1    5    5  503    0 -0.13820375544E+03 -0.13769429029E+03 -0.34280848899E+03  0.39443333495E+03  0.00000000000E+00 0. -1.
         -2    1    5    5    0  503 -0.23005872178E+03 -0.40236412696E+03 -0.84373057153E+03  0.96265527759E+03  0.00000000000E+00 0.  1.
         -1    1    6    6    0  502  0.48727581073E+02  0.13589741887E+03 -0.12086661975E+02  0.14487433524E+03  0.00000000000E+00 0.  1.
<mgrwt>
<rscale>  0 0.21927827E+04</rscale>
<asrwt>0</asrwt>
<pdfrwt beam="1">  1        2 0.22478837E+00 0.21927827E+04</pdfrwt>
<pdfrwt beam="2">  1       -2 0.12656996E+00 0.21927827E+04</pdfrwt>
<totfact> 0.56761673E+00</totfact>
</mgrwt>
</event>
<event>
12    1  0.2214165E-007  0.2142779E+04  0.7818608E-02  0.8542630E-01
          2   -1    0    0  501    0  0.00000000000E+00  0.00000000000E+00  0.17164380467E+04  0.17164380467E+04  0.00000000000E+00 0. -1.
         -2   -1    0    0    0  501 -0.00000000000E+00 -0.00000000000E+00 -0.66875420967E+03  0.66875420967E+03  0.00000000000E+00 0.  1.
         23    2    1    2    0    0 -0.59580256166E+03  0.39862947120E+02  0.11510155188E+04  0.12998898449E+04  0.91143498390E+02 0.  0.
        254    2    1    2    0    0  0.59580256166E+03 -0.39862947120E+02 -0.10333168178E+03  0.10853024115E+04  0.90035223155E+03 0.  0.
        -24    2    4    4    0    0  0.60785626023E+03  0.31762298152E+03  0.40564373741E+02  0.69169386794E+03  0.80133307869E+02 0.  0.
         24    2    4    4    0    0 -0.12053698572E+02 -0.35748592864E+03 -0.14389605552E+03  0.39360854354E+03  0.79247270785E+02 0.  0.
         11    1    3    3    0    0 -0.63023512529E+02 -0.97803798580E+01  0.18347704413E+03  0.19424583570E+03  0.00000000000E+00 0. -1.
        -11    1    3    3    0    0 -0.53277904913E+03  0.49643326978E+02  0.96753847463E+03  0.11056440092E+04  0.00000000000E+00 0.  1.
          2    1    6    6  502    0  0.30137224780E+02 -0.21015523297E+03 -0.70652576436E+02  0.22375267779E+03  0.00000000000E+00 0. -1.
          1    1    5    5  503    0  0.25422801365E+02  0.32970605877E+02 -0.43960248849E+01  0.41865316384E+02  0.00000000000E+00 0. -1.
         -2    1    5    5    0  503  0.58243345887E+03  0.28465237564E+03  0.44960398626E+02  0.64982855155E+03  0.00000000000E+00 0.  1.
         -1    1    6    6    0  502 -0.42190923352E+02 -0.14733069567E+03 -0.73243479083E+02  0.16985586575E+03  0.00000000000E+00 0.  1.
<mgrwt>
<rscale>  0 0.21427787E+04</rscale>
<asrwt>0</asrwt>
<pdfrwt beam="1">  1        2 0.26406739E+00 0.21427787E+04</pdfrwt>
<pdfrwt beam="2">  1       -2 0.10288526E+00 0.21427787E+04</pdfrwt>
<totfact> 0.68065942E+00</totfact>
</mgrwt>
</event>
<event>
12    1  0.2214165E-007  0.1932035E+04  0.7818608E-02  0.8639073E-01
          1   -1    0    0  501    0  0.00000000000E+00  0.00000000000E+00  0.13782706358E+04  0.13782706358E+04  0.00000000000E+00 0. -1.
         -1   -1    0    0    0  501 -0.00000000000E+00 -0.00000000000E+00 -0.67707279287E+03  0.67707279287E+03  0.00000000000E+00 0.  1.
         23    2    1    2    0    0  0.68832547299E+03  0.25942881882E+03  0.12115233220E+03  0.75104142367E+03  0.91049786747E+02 0.  0.
        254    2    1    2    0    0 -0.68832547299E+03 -0.25942881882E+03  0.58004551073E+03  0.13043020050E+04  0.90755476802E+03 0.  0.
        -24    2    4    4    0    0 -0.15978033503E+03 -0.15392600795E+03  0.70628483433E+03  0.74506979412E+03  0.84069967987E+02 0.  0.
         24    2    4    4    0    0 -0.52854513795E+03 -0.10550281087E+03 -0.12623932360E+03  0.55923221089E+03  0.79457491259E+02 0.  0.
         11    1    3    3    0    0  0.41459117980E+03  0.14886329982E+03  0.27675105031E+02  0.44137516903E+03  0.00000000000E+00 0.  1.
        -11    1    3    3    0    0  0.27373429319E+03  0.11056551900E+03  0.93477227171E+02  0.30966625464E+03  0.00000000000E+00 0. -1.
          4    1    6    6  502    0 -0.23783321716E+03 -0.50569426561E+02 -0.16607773608E+02  0.24371648330E+03  0.00000000000E+00 0. -1.
          1    1    5    5  503    0 -0.95441031234E+00 -0.42732884240E+02  0.14974400870E+03  0.15572500903E+03  0.00000000000E+00 0. -1.
         -2    1    5    5    0  503 -0.15882592472E+03 -0.11119312371E+03  0.55654082563E+03  0.58934478510E+03  0.00000000000E+00 0.  1.
         -3    1    6    6    0  502 -0.29071192079E+03 -0.54933384312E+02 -0.10963154999E+03  0.31551572759E+03  0.00000000000E+00 0.  1.
<mgrwt>
<rscale>  0 0.19320347E+04</rscale>
<asrwt>0</asrwt>
<pdfrwt beam="1">  1        1 0.21204164E+00 0.19320347E+04</pdfrwt>
<pdfrwt beam="2">  1       -1 0.10416505E+00 0.19320347E+04</pdfrwt>
<totfact> 0.64408136E+00</totfact>
</mgrwt>
</event>
<event>
12    1  0.2214165E-007  0.1537921E+04  0.7818608E-02  0.8859620E-01
         -2   -1    0    0    0  501 -0.00000000000E+00  0.00000000000E+00  0.23934853186E+03  0.23934853186E+03  0.00000000000E+00 0.  1.
          2   -1    0    0  501    0  0.00000000000E+00 -0.00000000000E+00 -0.24704561714E+04  0.24704561714E+04  0.00000000000E+00 0. -1.
         23    2    1    2    0    0 -0.24461056598E+03  0.32115341627E+03 -0.12574809511E+04  0.13237783900E+04  0.90316321133E+02 0.  0.
        254    2    1    2    0    0  0.24461056598E+03 -0.32115341627E+03 -0.97362668848E+03  0.13860263132E+04  0.90008120003E+03 0.  0.
        -24    2    4    4    0    0 -0.52775516710E+02 -0.52984790003E+02  0.15325780093E+03  0.18757021250E+03  0.78115222185E+02 0.  0.
         24    2    4    4    0    0  0.29738608269E+03 -0.26816862626E+03 -0.11268844894E+04  0.11984561007E+04  0.77945356426E+02 0.  0.
         11    1    3    3    0    0 -0.54011541392E+02  0.39805301710E+02 -0.13142073517E+03  0.14755716953E+03  0.00000000000E+00 0.  1.
        -11    1    3    3    0    0 -0.19059902459E+03  0.28134811456E+03 -0.11260602159E+04  0.11762212205E+04  0.00000000000E+00 0. -1.
          2    1    6    6  502    0  0.89778358567E+02 -0.10494146048E+03 -0.29645379064E+03  0.32704390192E+03  0.00000000000E+00 0. -1.
          3    1    5    5  503    0 -0.44140938316E+02  0.85375484573E+01  0.51666705896E+02  0.68489128095E+02  0.00000000000E+00 0. -1.
         -4    1    5    5    0  503 -0.86345783941E+01 -0.61522338461E+02  0.10159109503E+03  0.11908108441E+03  0.00000000000E+00 0.  1.
         -1    1    6    6    0  502  0.20760772412E+03 -0.16322716578E+03 -0.83043069876E+03  0.87141219880E+03  0.00000000000E+00 0.  1.
<mgrwt>
<rscale>  0 0.15379207E+04</rscale>
<asrwt>0</asrwt>
<pdfrwt beam="1">  1        2 0.38007018E+00 0.15379207E+04</pdfrwt>
<pdfrwt beam="2">  1       -2 0.36822851E-01 0.15379207E+04</pdfrwt>
<totfact> 0.24295215E+01</totfact>
</mgrwt>
</event>
<event>
12    1  0.2214165E-007  0.1287494E+04  0.7818608E-02  0.9039542E-01
          2   -1    0    0  501    0  0.00000000000E+00  0.00000000000E+00  0.77498952494E+03  0.77498952494E+03  0.00000000000E+00 0.  1.
         -2   -1    0    0    0  501 -0.00000000000E+00 -0.00000000000E+00 -0.53472974760E+03  0.53472974760E+03  0.00000000000E+00 0. -1.
         23    2    1    2    0    0  0.53705181828E+02 -0.32144220762E+02  0.37543421777E+03  0.39115208414E+03  0.90175404445E+02 0.  0.
        254    2    1    2    0    0 -0.53705181828E+02  0.32144220762E+02 -0.13517444043E+03  0.91856718841E+03  0.90640832564E+03 0.  0.
        -24    2    4    4    0    0  0.98086667602E+02  0.25057051129E+03 -0.42963040634E+03  0.51350429147E+03  0.81840062409E+02 0.  0.
         24    2    4    4    0    0 -0.15179184943E+03 -0.21842629053E+03  0.29445596591E+03  0.40506289694E+03  0.81368450082E+02 0.  0.
         13    1    3    3    0    0  0.75741228760E+02 -0.21566346363E+02  0.33296123348E+03  0.34214766407E+03  0.00000000000E+00 0.  1.
        -13    1    3    3    0    0 -0.22036046932E+02 -0.10577874400E+02  0.42472984290E+02  0.49004420063E+02  0.00000000000E+00 0. -1.
          4    1    6    6  502    0 -0.58378283131E+02 -0.54147237536E+02  0.13971886188E+03  0.16081451315E+03  0.00000000000E+00 0. -1.
          1    1    5    5  503    0 -0.69617657535E+01 -0.23023017655E+01 -0.13512932092E+02  0.15374202729E+02  0.00000000000E+00 0. -1.
         -4    1    5    5    0  503  0.10504843336E+03  0.25287281305E+03 -0.41611747425E+03  0.49813008874E+03  0.00000000000E+00 0.  1.
         -3    1    6    6    0  502 -0.93413566299E+02 -0.16427905299E+03  0.15473710403E+03  0.24424838379E+03  0.00000000000E+00 0.  1.
<mgrwt>
<rscale>  0 0.12874936E+04</rscale>
<asrwt>0</asrwt>
<pdfrwt beam="1">  1        2 0.11922916E+00 0.12874936E+04</pdfrwt>
<pdfrwt beam="2">  1       -2 0.82266115E-01 0.12874936E+04</pdfrwt>
<totfact> 0.45759730E+01</totfact>
</mgrwt>
</event>
<event>
12    1  0.2214165E-007  0.2383259E+04  0.7818608E-02  0.8445798E-01
         -1   -1    0    0    0  501 -0.00000000000E+00  0.00000000000E+00  0.82811327473E+03  0.82811327473E+03  0.00000000000E+00 0.  1.
          1   -1    0    0  501    0  0.00000000000E+00 -0.00000000000E+00 -0.17147185675E+04  0.17147185675E+04  0.00000000000E+00 0. -1.
         23    2    1    2    0    0  0.80181018908E+03  0.29218439380E+03 -0.98027036577E+03  0.13036525998E+04  0.10153231881E+03 0.  0.
        254    2    1    2    0    0 -0.80181018908E+03 -0.29218439380E+03  0.93665073025E+02  0.12391792424E+04  0.89359988223E+03 0.  0.
        -24    2    4    4    0    0 -0.99082940613E+03 -0.22858535171E+03  0.82925330297E+02  0.10234862346E+04  0.81567683670E+02 0.  0.
         24    2    4    4    0    0  0.18901921705E+03 -0.63599042097E+02  0.10739742729E+02  0.21569300773E+03  0.81455686972E+02 0.  0.
         13    1    3    3    0    0  0.34906155233E+03  0.14256185536E+03 -0.36030833250E+03  0.52152655195E+03  0.00000000000E+00 0.  1.
        -13    1    3    3    0    0  0.45274863674E+03  0.14962253845E+03 -0.61996203327E+03  0.78212604789E+03  0.00000000000E+00 0. -1.
          4    1    6    6  502    0  0.50243554290E+02  0.18879283904E+02  0.77492682771E+01  0.54230003386E+02  0.00000000000E+00 0. -1.
          1    1    5    5  503    0 -0.20252921887E+03 -0.18708862005E+02  0.34433509665E+02  0.20628565777E+03  0.00000000000E+00 0. -1.
         -2    1    5    5    0  503 -0.78830018726E+03 -0.20987648970E+03  0.48491820632E+02  0.81720057686E+03  0.00000000000E+00 0.  1.
         -3    1    6    6    0  502  0.13877566276E+03 -0.82478326001E+02  0.29904744515E+01  0.16146300435E+03  0.00000000000E+00 0.  1.
<mgrwt>
<rscale>  0 0.23832593E+04</rscale>
<asrwt>0</asrwt>
<pdfrwt beam="1">  1        1 0.26380285E+00 0.23832593E+04</pdfrwt>
<pdfrwt beam="2">  1       -1 0.12740205E+00 0.23832593E+04</pdfrwt>
<totfact> 0.22299691E+00</totfact>
</mgrwt>
</event>
<event>
12    1  0.2214165E-007  0.1851882E+04  0.7818608E-02  0.8679186E-01
         -2   -1    0    0    0  501 -0.00000000000E+00  0.00000000000E+00  0.75605952700E+03  0.75605952700E+03  0.00000000000E+00 0.  1.
          2   -1    0    0  501    0  0.00000000000E+00 -0.00000000000E+00 -0.11339933567E+04  0.11339933567E+04  0.00000000000E+00 0. -1.
         23    2    1    2    0    0  0.58136592934E+03  0.24301318895E+02  0.26046836636E+03  0.64429555333E+03  0.93252840512E+02 0.  0.
        254    2    1    2    0    0 -0.58136592934E+03 -0.24301318895E+02 -0.63840219606E+03  0.12457573304E+04  0.89765085882E+03 0.  0.
        -24    2    4    4    0    0 -0.56242587060E+03 -0.39118687263E+03 -0.45968682148E+03  0.82907002495E+03  0.81823610172E+02 0.  0.
         24    2    4    4    0    0 -0.18940058746E+02  0.36688555374E+03 -0.17871537457E+03  0.41668730543E+03  0.82008475348E+02 0.  0.
         11    1    3    3    0    0  0.13413952026E+03  0.16737562630E+02  0.20579187623E+02  0.13673719268E+03  0.00000000000E+00 0. -1.
        -11    1    3    3    0    0  0.44722640908E+03  0.75637562647E+01  0.23988917874E+03  0.50755836065E+03  0.00000000000E+00 0.  1.
          4    1    6    6  502    0  0.23138729387E+02  0.25729283980E+03 -0.13445958892E+03  0.29122909755E+03  0.00000000000E+00 0. -1.
          1    1    5    5  503    0 -0.36146026097E+03 -0.20262261807E+03 -0.27729669528E+03  0.49860094547E+03  0.00000000000E+00 0. -1.
         -4    1    5    5    0  503 -0.20096560963E+03 -0.18856425456E+03 -0.18239012620E+03  0.33046907947E+03  0.00000000000E+00 0.  1.
         -3    1    6    6    0  502 -0.42078788132E+02  0.10959271394E+03 -0.44255785654E+02  0.12545820787E+03  0.00000000000E+00 0.  1.
<mgrwt>
<rscale>  0 0.18518817E+04</rscale>
<asrwt>0</asrwt>
<pdfrwt beam="1">  1        2 0.17446052E+00 0.18518817E+04</pdfrwt>
<pdfrwt beam="2">  1       -2 0.11631685E+00 0.18518817E+04</pdfrwt>
<totfact> 0.11195993E+01</totfact>
</mgrwt>
</event>
<event>
12    1  0.2214165E-007  0.1493259E+04  0.7818608E-02  0.8888948E-01
         -1   -1    0    0    0  501 -0.00000000000E+00  0.00000000000E+00  0.61515053152E+03  0.61515053152E+03  0.00000000000E+00 0.  1.
          1   -1    0    0  501    0  0.00000000000E+00 -0.00000000000E+00 -0.90621054419E+03  0.90621054419E+03  0.00000000000E+00 0. -1.
         23    2    1    2    0    0 -0.31262172637E+03 -0.35083267121E+03 -0.90771249883E+02  0.48709481924E+03  0.90587174236E+02 0.  0.
        254    2    1    2    0    0  0.31262172637E+03  0.35083267121E+03 -0.20028876279E+03  0.10342662565E+04  0.89931929469E+03 0.  0.
        -24    2    4    4    0    0  0.46259758572E+03 -0.53724028272E+02 -0.33091841684E+03  0.57635899325E+03  0.76157028336E+02 0.  0.
         24    2    4    4    0    0 -0.14997585935E+03  0.40455669948E+03  0.13062965405E+03  0.45790726323E+03  0.80349696416E+02 0.  0.
         13    1    3    3    0    0 -0.17131727420E+03 -0.25701415776E+03 -0.54603765490E+02  0.31366774927E+03  0.00000000000E+00 0. -1.
        -13    1    3    3    0    0 -0.14130445217E+03 -0.93818513450E+02 -0.36167484394E+02  0.17342706996E+03  0.00000000000E+00 0.  1.
          4    1    6    6  502    0 -0.55381528307E+02  0.15260636103E+03  0.90332666291E+02  0.18578429886E+03  0.00000000000E+00 0. -1.
          3    1    5    5  503    0  0.40744058606E+03 -0.45422353630E+02 -0.31867192858E+03  0.51925217327E+03  0.00000000000E+00 0. -1.
         -4    1    5    5    0  503  0.55156999657E+02 -0.83016746418E+01 -0.12246488256E+02  0.57106819974E+02  0.00000000000E+00 0.  1.
         -3    1    6    6    0  502 -0.94594331047E+02  0.25195033846E+03  0.40296987761E+02  0.27212296437E+03  0.00000000000E+00 0.  1.
<mgrwt>
<rscale>  0 0.14932594E+04</rscale>
<asrwt>0</asrwt>
<pdfrwt beam="1">  1        1 0.13941701E+00 0.14932594E+04</pdfrwt>
<pdfrwt beam="2">  1       -1 0.94638544E-01 0.14932594E+04</pdfrwt>
<totfact> 0.18804824E+01</totfact>
</mgrwt>
</event>
<event>
12    1  0.2214165E-007  0.1722557E+04  0.7818608E-02  0.8748603E-01
          2   -1    0    0  501    0  0.00000000000E+00  0.00000000000E+00  0.13477808067E+04  0.13477808067E+04  0.00000000000E+00 0. -1.
         -2   -1    0    0    0  501 -0.00000000000E+00 -0.00000000000E+00 -0.55038652055E+03  0.55038652055E+03  0.00000000000E+00 0.  1.
         23    2    1    2    0    0  0.27908069630E+03 -0.52636883028E+03  0.48369914554E+03  0.77288051255E+03  0.91810907538E+02 0.  0.
        254    2    1    2    0    0 -0.27908069630E+03  0.52636883028E+03  0.31369514056E+03  0.11252868147E+04  0.90161831918E+03 0.  0.
        -24    2    4    4    0    0 -0.33942287303E+03  0.33879159795E+03 -0.23274417082E+03  0.53898168971E+03  0.79647844990E+02 0.  0.
         24    2    4    4    0    0  0.60342176731E+02  0.18757723233E+03  0.54643931138E+03  0.58630512494E+03  0.79569982570E+02 0.  0.
         13    1    3    3    0    0  0.17161531515E+03 -0.40035333307E+03  0.32465237832E+03  0.54326215996E+03  0.00000000000E+00 0.  1.
        -13    1    3    3    0    0  0.10746538115E+03 -0.12601549721E+03  0.15904676722E+03  0.22961835259E+03  0.00000000000E+00 0. -1.
          4    1    6    6  502    0 -0.97226881311E+01  0.23270485980E+02  0.14135622094E+03  0.14358839570E+03  0.00000000000E+00 0. -1.
          3    1    5    5  503    0 -0.10501596954E+02  0.11928801388E+02  0.65234917768E+01  0.17179516469E+02  0.00000000000E+00 0. -1.
         -4    1    5    5    0  503 -0.32892127608E+03  0.32686279656E+03 -0.23926766260E+03  0.52180217324E+03  0.00000000000E+00 0.  1.
         -3    1    6    6    0  502  0.70064864862E+02  0.16430674635E+03  0.40508309045E+03  0.44271672924E+03  0.00000000000E+00 0.  1.
<mgrwt>
<rscale>  0 0.17225567E+04</rscale>
<asrwt>0</asrwt>
<pdfrwt beam="1">  1        2 0.20735089E+00 0.17225567E+04</pdfrwt>
<pdfrwt beam="2">  1       -2 0.84674850E-01 0.17225567E+04</pdfrwt>
<totfact> 0.17905710E+01</totfact>
</mgrwt>
</event>
<event>
12    1  0.2214165E-007  0.1680924E+04  0.7818608E-02  0.8772319E-01
         -1   -1    0    0    0  501 -0.00000000000E+00  0.00000000000E+00  0.49363274658E+03  0.49363274658E+03  0.00000000000E+00 0.  1.
          1   -1    0    0  501    0  0.00000000000E+00 -0.00000000000E+00 -0.14309761338E+04  0.14309761338E+04  0.00000000000E+00 0. -1.
         23    2    1    2    0    0  0.20847582226E+03 -0.55256897289E+03 -0.41155286792E+03  0.72556841055E+03  0.90989653432E+02 0.  0.
        254    2    1    2    0    0 -0.20847582226E+03  0.55256897289E+03 -0.52579051932E+03  0.11990404698E+04  0.90135882968E+03 0.  0.
        -24    2    4    4    0    0 -0.50453785756E+03  0.47810582589E+03 -0.54158815431E+03  0.88490916145E+03  0.81258012891E+02 0.  0.
         24    2    4    4    0    0  0.29606203530E+03  0.74463146996E+02  0.15797634994E+02  0.31413130839E+03  0.72328587917E+02 0.  0.
         13    1    3    3    0    0  0.20619813933E+03 -0.51077513114E+03 -0.40384726331E+03  0.68300916490E+03  0.00000000000E+00 0. -1.
        -13    1    3    3    0    0  0.22776829270E+01 -0.41793841753E+02 -0.77056046016E+01  0.42559245650E+02  0.00000000000E+00 0.  1.
          2    1    6    6  502    0  0.21402995600E+03  0.59802251592E+02 -0.20634315965E+02  0.22318357098E+03  0.00000000000E+00 0. -1.
          3    1    5    5  503    0 -0.50574321668E+03  0.47318212514E+03 -0.52951909497E+03  0.87181878662E+03  0.00000000000E+00 0. -1.
         -4    1    5    5    0  503  0.12053591177E+01  0.49237007513E+01 -0.12069059340E+02  0.13090374825E+02  0.00000000000E+00 0.  1.
         -1    1    6    6    0  502  0.82032079309E+02  0.14660895405E+02  0.36431950958E+02  0.90947737413E+02  0.00000000000E+00 0.  1.
<mgrwt>
<rscale>  0 0.16809244E+04</rscale>
<asrwt>0</asrwt>
<pdfrwt beam="1">  1        1 0.22015017E+00 0.16809244E+04</pdfrwt>
<pdfrwt beam="2">  1       -1 0.75943501E-01 0.16809244E+04</pdfrwt>
<totfact> 0.12130620E+01</totfact>
</mgrwt>
</event>
<event>
12    1  0.2214165E-007  0.2461879E+04  0.7818608E-02  0.8416694E-01
         -2   -1    0    0    0  501 -0.00000000000E+00  0.00000000000E+00  0.14509596952E+04  0.14509596952E+04  0.00000000000E+00 0. -1.
          2   -1    0    0  501    0  0.00000000000E+00 -0.00000000000E+00 -0.10442824556E+04  0.10442824556E+04  0.00000000000E+00 0.  1.
         23    2    1    2    0    0 -0.79921105674E+03 -0.22512855529E+03 -0.49866545868E+03  0.97284745798E+03  0.91344168993E+02 0.  0.
        254    2    1    2    0    0  0.79921105674E+03  0.22512855529E+03  0.90534269823E+03  0.15223946928E+04  0.89923246152E+03 0.  0.
        -24    2    4    4    0    0  0.98172334153E+03  0.25609775286E+03  0.69967066905E+03  0.12350165211E+04  0.79749506736E+02 0.  0.
         24    2    4    4    0    0 -0.18251228479E+03 -0.30969197568E+02  0.20567202918E+03  0.28737817176E+03  0.77559040220E+02 0.  0.
         11    1    3    3    0    0 -0.69308333052E+03 -0.19848255385E+03 -0.46682936314E+03  0.85888851519E+03  0.00000000000E+00 0.  1.
        -11    1    3    3    0    0 -0.10612772621E+03 -0.26646001442E+02 -0.31836095539E+02  0.11395894280E+03  0.00000000000E+00 0. -1.
          2    1    6    6  502    0 -0.99288851207E+01  0.13699330563E+02  0.25317703788E+01  0.17107433439E+02  0.00000000000E+00 0. -1.
          1    1    5    5  503    0  0.21118272100E+03  0.88113050425E+02  0.16864298594E+03  0.28425781961E+03  0.00000000000E+00 0. -1.
         -2    1    5    5    0  503  0.77054062053E+03  0.16798470243E+03  0.53102768312E+03  0.95075870144E+03  0.00000000000E+00 0.  1.
         -1    1    6    6    0  502 -0.17258339967E+03 -0.44668528131E+02  0.20314025880E+03  0.27027073832E+03  0.00000000000E+00 0.  1.
<mgrwt>
<rscale>  0 0.24618788E+04</rscale>
<asrwt>0</asrwt>
<pdfrwt beam="1">  1        2 0.16065884E+00 0.24618788E+04</pdfrwt>
<pdfrwt beam="2">  1       -2 0.22322457E+00 0.24618788E+04</pdfrwt>
<totfact> 0.19911188E+00</totfact>
</mgrwt>
</event>
<event>
12    1  0.2214165E-007  0.2432704E+04  0.7818608E-02  0.8427360E-01
         -1   -1    0    0    0  501 -0.00000000000E+00  0.00000000000E+00  0.70002288697E+03  0.70002288697E+03  0.00000000000E+00 0. -1.
          1   -1    0    0  501    0  0.00000000000E+00 -0.00000000000E+00 -0.21135193834E+04  0.21135193834E+04  0.00000000000E+00 0.  1.
         23    2    1    2    0    0 -0.38573509472E+03 -0.78838481810E+03  0.43724520444E+02  0.88353035745E+03  0.91497946096E+02 0.  0.
        254    2    1    2    0    0  0.38573509472E+03  0.78838481810E+03 -0.14572210169E+04  0.19300119129E+04  0.91165273395E+03 0.  0.
        -24    2    4    4    0    0  0.52440464168E+03  0.11649345963E+03 -0.43180177363E+03  0.69373934294E+03  0.79060419207E+02 0.  0.
         24    2    4    4    0    0 -0.13866954695E+03  0.67189135847E+03 -0.10254192433E+04  0.12362725700E+04  0.78854308994E+02 0.  0.
         11    1    3    3    0    0 -0.98055641096E+02 -0.20442996768E+03  0.51533792168E+02  0.23251290754E+03  0.00000000000E+00 0. -1.
        -11    1    3    3    0    0 -0.28767945363E+03 -0.58395485041E+03 -0.78092717243E+01  0.65101744991E+03  0.00000000000E+00 0.  1.
          4    1    6    6  502    0 -0.14804461082E+02  0.16322819565E+02 -0.48537780283E+02  0.53305934204E+02  0.00000000000E+00 0. -1.
          3    1    5    5  503    0  0.28794601910E+03  0.88200057781E+02 -0.20075134709E+03  0.36192991513E+03  0.00000000000E+00 0. -1.
         -4    1    5    5    0  503  0.23645862257E+03  0.28293401847E+02 -0.23105042654E+03  0.33180942780E+03  0.00000000000E+00 0.  1.
         -3    1    6    6    0  502 -0.12386508587E+03  0.65556853890E+03 -0.97688146299E+03  0.11829666358E+04  0.00000000000E+00 0.  1.
<mgrwt>
<rscale>  0 0.24327038E+04</rscale>
<asrwt>0</asrwt>
<pdfrwt beam="1">  1        1 0.32515683E+00 0.24327038E+04</pdfrwt>
<pdfrwt beam="2">  1       -1 0.10769583E+00 0.24327038E+04</pdfrwt>
<totfact> 0.17883102E+00</totfact>
</mgrwt>
</event>
<event>
12    1  0.2214165E-007  0.1629270E+04  0.7818608E-02  0.8802765E-01
          1   -1    0    0  501    0  0.00000000000E+00  0.00000000000E+00  0.65202001857E+03  0.65202001857E+03  0.00000000000E+00 0. -1.
         -1   -1    0    0    0  501 -0.00000000000E+00 -0.00000000000E+00 -0.10178066646E+04  0.10178066646E+04  0.00000000000E+00 0.  1.
         23    2    1    2    0    0 -0.46728962125E+03 -0.20315685752E+03 -0.36827220103E+03  0.63547104806E+03  0.92556685286E+02 0.  0.
        254    2    1    2    0    0  0.46728962125E+03  0.20315685752E+03  0.24855550261E+01  0.10343556351E+04  0.90014060176E+03 0.  0.
        -24    2    4    4    0    0  0.90508458706E+02 -0.14593241597E+03 -0.35496051014E+03  0.40281252178E+03  0.82297708461E+02 0.  0.
         24    2    4    4    0    0  0.37678116254E+03  0.34908927349E+03  0.35744606517E+03  0.63154311329E+03  0.85156615289E+02 0.  0.
         13    1    3    3    0    0 -0.40868828478E+03 -0.18204966586E+03 -0.28126806045E+03  0.52846940951E+03  0.00000000000E+00 0. -1.
        -13    1    3    3    0    0 -0.58601336469E+02 -0.21107191657E+02 -0.87004140575E+02  0.10700163855E+03  0.00000000000E+00 0.  1.
          2    1    6    6  502    0  0.28370080736E+03  0.30357731501E+03  0.26606886987E+03  0.49339434310E+03  0.00000000000E+00 0. -1.
          3    1    5    5  503    0  0.85853876073E+02 -0.15648042080E+03 -0.33909546061E+03  0.38320065440E+03  0.00000000000E+00 0. -1.
         -4    1    5    5    0  503  0.46545826326E+01  0.10548004832E+02 -0.15865049534E+02  0.19611867380E+02  0.00000000000E+00 0.  1.
         -1    1    6    6    0  502  0.93080355182E+02  0.45511958480E+02  0.91377195298E+02  0.13814877019E+03  0.00000000000E+00 0.  1.
<mgrwt>
<rscale>  0 0.16292702E+04</rscale>
<asrwt>0</asrwt>
<pdfrwt beam="1">  1        1 0.10031077E+00 0.16292702E+04</pdfrwt>
<pdfrwt beam="2">  1       -1 0.15658564E+00 0.16292702E+04</pdfrwt>
<totfact> 0.90048707E+00</totfact>
</mgrwt>
</event>
<event>
12    1  0.2214165E-007  0.1951743E+04  0.7818608E-02  0.8629521E-01
          1   -1    0    0  501    0  0.00000000000E+00  0.00000000000E+00  0.30966864039E+04  0.30966864039E+04  0.00000000000E+00 0. -1.
         -1   -1    0    0    0  501 -0.00000000000E+00 -0.00000000000E+00 -0.30753048653E+03  0.30753048653E+03  0.00000000000E+00 0.  1.
         23    2    1    2    0    0 -0.10352658456E+02 -0.64437159843E+03  0.18244609893E+04  0.19370524414E+04  0.90511462996E+02 0.  0.
        254    2    1    2    0    0  0.10352658456E+02  0.64437159843E+03  0.96469492812E+03  0.14671644491E+04  0.89811651908E+03 0.  0.
        -24    2    4    4    0    0 -0.31506803295E+03  0.53664578247E+03  0.25943739181E+03  0.67890949447E+03  0.79710602681E+02 0.  0.
         24    2    4    4    0    0  0.32542069141E+03  0.10772581596E+03  0.70525753630E+03  0.78825495458E+03  0.80338055097E+02 0.  0.
         11    1    3    3    0    0  0.18392573790E+02 -0.53994773920E+03  0.14560024801E+04  0.15530051738E+04  0.00000000000E+00 0. -1.
        -11    1    3    3    0    0 -0.28745232246E+02 -0.10442385923E+03  0.36845850919E+03  0.38404726759E+03  0.00000000000E+00 0.  1.
          2    1    6    6  502    0  0.26697197986E+03  0.11076906410E+03  0.53302065165E+03  0.60634547799E+03  0.00000000000E+00 0. -1.
          1    1    5    5  503    0 -0.26923118737E+03  0.40763852648E+03  0.18003009372E+03  0.52063944834E+03  0.00000000000E+00 0. -1.
         -2    1    5    5    0  503 -0.45836845578E+02  0.12900725599E+03  0.79407298096E+02  0.15827004613E+03  0.00000000000E+00 0.  1.
         -1    1    6    6    0  502  0.58448711551E+02 -0.30432481429E+01  0.17223688465E+03  0.18190947660E+03  0.00000000000E+00 0.  1.
<mgrwt>
<rscale>  0 0.19517433E+04</rscale>
<asrwt>0</asrwt>
<pdfrwt beam="1">  1        1 0.47641327E+00 0.19517433E+04</pdfrwt>
<pdfrwt beam="2">  1       -1 0.47312385E-01 0.19517433E+04</pdfrwt>
<totfact> 0.21127115E+00</totfact>
</mgrwt>
</event>
<event>
12    1  0.2214165E-007  0.2660097E+04  0.7818608E-02  0.8348070E-01
         -2   -1    0    0    0  501 -0.00000000000E+00  0.00000000000E+00  0.75623324992E+03  0.75623324992E+03  0.00000000000E+00 0.  1.
          2   -1    0    0  501    0  0.00000000000E+00 -0.00000000000E+00 -0.23392629368E+04  0.23392629368E+04  0.00000000000E+00 0. -1.
         23    2    1    2    0    0 -0.50379958312E+03  0.10494548199E+04 -0.89412403862E+03  0.14707892707E+04  0.92702984699E+02 0.  0.
        254    2    1    2    0    0  0.50379958312E+03 -0.10494548199E+04 -0.68890564825E+03  0.16247069160E+04  0.89995118306E+03 0.  0.
        -24    2    4    4    0    0  0.38955736825E+03 -0.77657957187E+03 -0.89749059770E+03  0.12516948240E+04  0.80123560570E+02 0.  0.
         24    2    4    4    0    0  0.11424221487E+03 -0.27287524800E+03  0.20858494945E+03  0.37301209199E+03  0.90100804671E+02 0.  0.
         11    1    3    3    0    0 -0.43454139552E+03  0.85810579870E+03 -0.77295546808E+03  0.12339497323E+04  0.00000000000E+00 0. -1.
        -11    1    3    3    0    0 -0.69258187604E+02  0.19134902118E+03 -0.12116857054E+03  0.23683953839E+03  0.00000000000E+00 0.  1.
          4    1    6    6  502    0  0.17117713436E+02 -0.28588831573E+01 -0.14341521748E+01  0.17413963324E+02  0.00000000000E+00 0. -1.
          3    1    5    5  503    0  0.11603718050E+03 -0.25035862427E+03 -0.23417542032E+03  0.36191462458E+03  0.00000000000E+00 0. -1.
         -4    1    5    5    0  503  0.27352018775E+03 -0.52622094760E+03 -0.66331517738E+03  0.88978019946E+03  0.00000000000E+00 0.  1.
         -3    1    6    6    0  502  0.97124501436E+02 -0.27001636485E+03  0.21001910163E+03  0.35559812867E+03  0.00000000000E+00 0.  1.
<mgrwt>
<rscale>  0 0.26600965E+04</rscale>
<asrwt>0</asrwt>
<pdfrwt beam="1">  1        2 0.35988660E+00 0.26600965E+04</pdfrwt>
<pdfrwt beam="2">  1       -2 0.11634358E+00 0.26600965E+04</pdfrwt>
<totfact> 0.21720182E+00</totfact>
</mgrwt>
</event>
<event>
12    1  0.2214165E-007  0.1683800E+04  0.7818608E-02  0.8770658E-01
          2   -1    0    0  501    0  0.00000000000E+00  0.00000000000E+00  0.15101217350E+04  0.15101217350E+04  0.00000000000E+00 0. -1.
         -2   -1    0    0    0  501 -0.00000000000E+00 -0.00000000000E+00 -0.46936329134E+03  0.46936329134E+03  0.00000000000E+00 0.  1.
         23    2    1    2    0    0  0.47130250191E+03 -0.28821658869E+03  0.63910434265E+03  0.84939279978E+03  0.88424641467E+02 0.  0.
        254    2    1    2    0    0 -0.47130250191E+03  0.28821658869E+03  0.40165410098E+03  0.11300922265E+04  0.90032637044E+03 0.  0.
        -24    2    4    4    0    0  0.81730852946E+02  0.30965778040E+03 -0.13369795890E+03  0.35580464989E+03  0.78446997269E+02 0.  0.
         24    2    4    4    0    0 -0.55303335486E+03 -0.21441191707E+02  0.53535205988E+03  0.77428757664E+03  0.81325316047E+02 0.  0.
         11    1    3    3    0    0  0.20303469382E+03 -0.14178093646E+03  0.34953477348E+03  0.42836839136E+03  0.00000000000E+00 0. -1.
        -11    1    3    3    0    0  0.26826780809E+03 -0.14643565224E+03  0.28956956917E+03  0.42102440842E+03  0.00000000000E+00 0.  1.
          4    1    6    6  502    0 -0.90650012534E+02 -0.22640174927E+01  0.49519551757E+02  0.10331861669E+03  0.00000000000E+00 0. -1.
          3    1    5    5  503    0  0.53349033045E+02  0.18017852208E+03 -0.36472981812E+02  0.19141759989E+03  0.00000000000E+00 0. -1.
         -4    1    5    5    0  503  0.28381819901E+02  0.12947925832E+03 -0.97224977092E+02  0.16438705000E+03  0.00000000000E+00 0.  1.
         -3    1    6    6    0  502 -0.46238334232E+03 -0.19177174214E+02  0.48583250813E+03  0.67096895995E+03  0.00000000000E+00 0.  1.
<mgrwt>
<rscale>  0 0.16838001E+04</rscale>
<asrwt>0</asrwt>
<pdfrwt beam="1">  1        2 0.23232642E+00 0.16838001E+04</pdfrwt>
<pdfrwt beam="2">  1       -2 0.72209738E-01 0.16838001E+04</pdfrwt>
<totfact> 0.20724185E+01</totfact>
</mgrwt>
</event>
<event>
12    1  0.2214165E-007  0.2921057E+04  0.7818608E-02  0.8266640E-01
          1   -1    0    0  501    0  0.00000000000E+00  0.00000000000E+00  0.18823084210E+04  0.18823084210E+04  0.00000000000E+00 0. -1.
         -1   -1    0    0    0  501 -0.00000000000E+00 -0.00000000000E+00 -0.11332592741E+04  0.11332592741E+04  0.00000000000E+00 0.  1.
         23    2    1    2    0    0  0.10799181331E+04 -0.47841313476E+02 -0.44598335044E+03  0.11729195929E+04  0.91253804954E+02 0.  0.
        254    2    1    2    0    0 -0.10799181331E+04  0.47841313476E+02  0.11950324974E+04  0.18426481022E+04  0.89372109370E+03 0.  0.
        -24    2    4    4    0    0 -0.61216099881E+03  0.41860005448E+03  0.40316245660E+03  0.84776852113E+03  0.78768045125E+02 0.  0.
         24    2    4    4    0    0 -0.46775713433E+03 -0.37075874101E+03  0.79187004079E+03  0.99487958111E+03  0.80426604250E+02 0.  0.
         11    1    3    3    0    0  0.31433841600E+03  0.25492930754E+02 -0.11589056526E+03  0.33598980997E+03  0.00000000000E+00 0. -1.
        -11    1    3    3    0    0  0.76557971714E+03 -0.73334244230E+02 -0.33009278518E+03  0.83692978290E+03  0.00000000000E+00 0.  1.
          2    1    6    6  502    0 -0.40689473590E+03 -0.35268220526E+03  0.69821544784E+03  0.88173288223E+03  0.00000000000E+00 0. -1.
          1    1    5    5  503    0 -0.29023141086E+03  0.21998065691E+03  0.23773876756E+03  0.43490859139E+03  0.00000000000E+00 0. -1.
         -2    1    5    5    0  503 -0.32192958795E+03  0.19861939757E+03  0.16542368904E+03  0.41285992974E+03  0.00000000000E+00 0.  1.
         -1    1    6    6    0  502 -0.60862398431E+02 -0.18076535747E+02  0.93654592948E+02  0.11314669888E+03  0.00000000000E+00 0.  1.
<mgrwt>
<rscale>  0 0.29210570E+04</rscale>
<asrwt>0</asrwt>
<pdfrwt beam="1">  1        1 0.28958591E+00 0.29210570E+04</pdfrwt>
<pdfrwt beam="2">  1       -1 0.17434758E+00 0.29210570E+04</pdfrwt>
<totfact> 0.70180548E-01</totfact>
</mgrwt>
</event>
<event>
12    1  0.2214165E-007  0.4050605E+04  0.7818608E-02  0.7994415E-01
         -1   -1    0    0    0  501 -0.00000000000E+00  0.00000000000E+00  0.14207150721E+04  0.14207150721E+04  0.00000000000E+00 0.  1.
          1   -1    0    0  501    0  0.00000000000E+00 -0.00000000000E+00 -0.28871736717E+04  0.28871736717E+04  0.00000000000E+00 0. -1.
         23    2    1    2    0    0  0.17265009911E+04  0.84735830570E+03 -0.61607996312E+03  0.20214349923E+04  0.88448497127E+02 0.  0.
        254    2    1    2    0    0 -0.17265009911E+04 -0.84735830570E+03 -0.85037863645E+03  0.22864537515E+04  0.89772220759E+03 0.  0.
        -24    2    4    4    0    0 -0.65095217574E+03 -0.69599015436E+02  0.78526335651E+02  0.66425717532E+03  0.80550924992E+02 0.  0.
         24    2    4    4    0    0 -0.10755488154E+04 -0.77775929026E+03 -0.92890497211E+03  0.16221965762E+04  0.83321766925E+02 0.  0.
         11    1    3    3    0    0  0.10284991002E+04  0.45645140977E+03 -0.35569363570E+03  0.11801170497E+04  0.00000000000E+00 0. -1.
        -11    1    3    3    0    0  0.69800189092E+03  0.39090689592E+03 -0.26038632742E+03  0.84131794259E+03  0.00000000000E+00 0.  1.
          2    1    6    6  502    0 -0.27138125540E+03 -0.22996993312E+03 -0.27928416964E+03  0.45225391467E+03  0.00000000000E+00 0. -1.
          1    1    5    5  503    0 -0.55882682767E+03 -0.39176915309E+02  0.46655125004E+02  0.56213784315E+03  0.00000000000E+00 0. -1.
         -2    1    5    5    0  503 -0.92125348078E+02 -0.30422100126E+02  0.31871210647E+02  0.10211933217E+03  0.00000000000E+00 0.  1.
         -1    1    6    6    0  502 -0.80416755998E+03 -0.54778935715E+03 -0.64962080246E+03  0.11699426616E+04  0.00000000000E+00 0.  1.
<mgrwt>
<rscale>  0 0.40506055E+04</rscale>
<asrwt>0</asrwt>
<pdfrwt beam="1">  1        1 0.44418056E+00 0.40506055E+04</pdfrwt>
<pdfrwt beam="2">  1       -1 0.21857155E+00 0.40506055E+04</pdfrwt>
<totfact> 0.63264546E-02</totfact>
</mgrwt>
</event>
<event>
12    1  0.2214165E-007  0.2142929E+04  0.7818608E-02  0.8542565E-01
         -2   -1    0    0    0  501 -0.00000000000E+00  0.00000000000E+00  0.11144253489E+04  0.11144253489E+04  0.00000000000E+00 0.  1.
          2   -1    0    0  501    0  0.00000000000E+00 -0.00000000000E+00 -0.10301593533E+04  0.10301593533E+04  0.00000000000E+00 0. -1.
         23    2    1    2    0    0  0.70267752958E+03 -0.47943608291E+03 -0.19247673046E+03  0.87693939638E+03  0.91437109434E+02 0.  0.
        254    2    1    2    0    0 -0.70267752958E+03  0.47943608291E+03  0.27674272606E+03  0.12676453058E+04  0.89817783136E+03 0.  0.
        -24    2    4    4    0    0 -0.22465994818E+02  0.15605639664E+03  0.45598000767E+03  0.48941994779E+03  0.82193661841E+02 0.  0.
         24    2    4    4    0    0 -0.68021153476E+03  0.32337968627E+03 -0.17923728161E+03  0.77822535802E+03  0.79035126561E+02 0.  0.
         11    1    3    3    0    0  0.58596908818E+02 -0.52072073980E+02  0.68352544807E+01  0.78688114194E+02  0.00000000000E+00 0. -1.
        -11    1    3    3    0    0  0.64408062076E+03 -0.42736400893E+03 -0.19931198494E+03  0.79825128218E+03  0.00000000000E+00 0.  1.
          4    1    6    6  502    0 -0.61553967027E+03  0.30627627243E+03 -0.14335437283E+03  0.70231383080E+03  0.00000000000E+00 0. -1.
          1    1    5    5  503    0 -0.27910660170E+02  0.14766112816E+03  0.32503249209E+03  0.35809067934E+03  0.00000000000E+00 0. -1.
         -2    1    5    5    0  503  0.54446653523E+01  0.83952684773E+01  0.13094751559E+03  0.13132926845E+03  0.00000000000E+00 0.  1.
         -3    1    6    6    0  502 -0.64671864495E+02  0.17103413843E+02 -0.35882908777E+02  0.75911527219E+02  0.00000000000E+00 0.  1.
<mgrwt>
<rscale>  0 0.21429286E+04</rscale>
<asrwt>0</asrwt>
<pdfrwt beam="1">  1        2 0.15848605E+00 0.21429286E+04</pdfrwt>
<pdfrwt beam="2">  1       -2 0.17145005E+00 0.21429286E+04</pdfrwt>
<totfact> 0.46047287E+00</totfact>
</mgrwt>
</event>
<event>
12    1  0.2214165E-007  0.1696919E+04  0.7818608E-02  0.8763123E-01
          1   -1    0    0  501    0  0.00000000000E+00  0.00000000000E+00  0.21796461704E+04  0.21796461704E+04  0.00000000000E+00 0. -1.
         -1   -1    0    0    0  501 -0.00000000000E+00 -0.00000000000E+00 -0.33027552514E+03  0.33027552514E+03  0.00000000000E+00 0.  1.
         23    2    1    2    0    0 -0.53503894054E+03 -0.14481777153E+03  0.30700142075E+03  0.64013784456E+03  0.91036986119E+02 0.  0.
        254    2    1    2    0    0  0.53503894054E+03  0.14481777153E+03  0.15423692245E+04  0.18697838510E+04  0.89997220502E+03 0.  0.
        -24    2    4    4    0    0 -0.49688414603E+02 -0.23317370284E+03  0.84270569021E+03  0.87947980661E+03  0.80578754591E+02 0.  0.
         24    2    4    4    0    0  0.58472735515E+03  0.37799147437E+03  0.69966353433E+03  0.99030404439E+03  0.79933750746E+02 0.  0.
         11    1    3    3    0    0 -0.70180335392E+02 -0.47014466813E+02  0.26809909905E+02  0.88625114017E+02  0.00000000000E+00 0.  1.
        -11    1    3    3    0    0 -0.46485860515E+03 -0.97803304716E+02  0.28019151084E+03  0.55151273054E+03  0.00000000000E+00 0. -1.
          2    1    6    6  502    0  0.47183995940E+03  0.32254586326E+03  0.53299040215E+03  0.78150339089E+03  0.00000000000E+00 0. -1.
          1    1    5    5  503    0 -0.51152311648E+02 -0.22218314603E+03  0.83597761955E+03  0.86651052489E+03  0.00000000000E+00 0. -1.
         -2    1    5    5    0  503  0.14638970446E+01 -0.10990556808E+02  0.67280706583E+01  0.12969281718E+02  0.00000000000E+00 0.  1.
         -1    1    6    6    0  502  0.11288739575E+03  0.55445611110E+02  0.16667313218E+03  0.20880065350E+03  0.00000000000E+00 0.  1.
<mgrwt>
<rscale>  0 0.16969193E+04</rscale>
<asrwt>0</asrwt>
<pdfrwt beam="1">  1        1 0.33533017E+00 0.16969193E+04</pdfrwt>
<pdfrwt beam="2">  1       -1 0.50811621E-01 0.16969193E+04</pdfrwt>
<totfact> 0.83385883E+00</totfact>
</mgrwt>
</event>
<event>
12    1  0.2214165E-007  0.1757899E+04  0.7818608E-02  0.8729014E-01
          2   -1    0    0  501    0  0.00000000000E+00  0.00000000000E+00  0.15207506505E+04  0.15207506505E+04  0.00000000000E+00 0. -1.
         -2   -1    0    0    0  501 -0.00000000000E+00 -0.00000000000E+00 -0.50800705302E+03  0.50800705302E+03  0.00000000000E+00 0.  1.
         23    2    1    2    0    0  0.51075006564E+03  0.35531485560E+03  0.56086080096E+03  0.84266201930E+03  0.91652411604E+02 0.  0.
        254    2    1    2    0    0 -0.51075006564E+03 -0.35531485560E+03  0.45188279654E+03  0.11860956842E+04  0.90305627410E+03 0.  0.
        -24    2    4    4    0    0 -0.69794772637E+03 -0.33574996252E+03  0.10731361462E+03  0.78553641569E+03  0.75446553364E+02 0.  0.
         24    2    4    4    0    0  0.18719766074E+03 -0.19564893088E+02  0.34456918192E+03  0.40055926854E+03  0.79335094767E+02 0.  0.
         13    1    3    3    0    0  0.17143390106E+03  0.12388681393E+03  0.13452418544E+03  0.25066767157E+03  0.00000000000E+00 0.  1.
        -13    1    3    3    0    0  0.33931616457E+03  0.23142804167E+03  0.42633661552E+03  0.59199434773E+03  0.00000000000E+00 0. -1.
          4    1    6    6  502    0  0.23810747490E+02  0.86868459088E+01  0.11262972700E+03  0.11544638752E+03  0.00000000000E+00 0. -1.
          1    1    5    5  503    0 -0.43152355126E+03 -0.22088187245E+03  0.32192949941E+02  0.48583717735E+03  0.00000000000E+00 0. -1.
         -2    1    5    5    0  503 -0.26642417511E+03 -0.11486809006E+03  0.75120664683E+02  0.29969923834E+03  0.00000000000E+00 0.  1.
         -3    1    6    6    0  502  0.16338691325E+03 -0.28251738997E+02  0.23193945492E+03  0.28511288102E+03  0.00000000000E+00 0.  1.
<mgrwt>
<rscale>  0 0.17578988E+04</rscale>
<asrwt>0</asrwt>
<pdfrwt beam="1">  1        2 0.23396164E+00 0.17578988E+04</pdfrwt>
<pdfrwt beam="2">  1       -2 0.78154932E-01 0.17578988E+04</pdfrwt>
<totfact> 0.17048016E+01</totfact>
</mgrwt>
</event>
<event>
12    1  0.2670623E-007  0.2646346E+04  0.7818608E-02  0.8352627E-01
          2   -1    0    0  501    0  0.00000000000E+00  0.00000000000E+00  0.20988398991E+04  0.20988398991E+04  0.00000000000E+00 0. -1.
         -2   -1    0    0    0  501 -0.00000000000E+00 -0.00000000000E+00 -0.83416896030E+03  0.83416896030E+03  0.00000000000E+00 0.  1.
         23    2    1    2    0    0 -0.32263120400E+03  0.11163961349E+04  0.68336717649E+03  0.13512870970E+04  0.92492685637E+02 0.  0.
        254    2    1    2    0    0  0.32263120400E+03 -0.11163961349E+04  0.58130376235E+03  0.15817217624E+04  0.90194148695E+03 0.  0.
        -24    2    4    4    0    0  0.65121373498E+02 -0.87512237795E+03  0.77284570292E+03  0.11721902976E+04  0.81606640109E+02 0.  0.
         24    2    4    4    0    0  0.25750983051E+03 -0.24127375692E+03 -0.19154194057E+03  0.40953146478E+03  0.80643456420E+02 0.  0.
         13    1    3    3    0    0 -0.11777388557E+03  0.49345147864E+03  0.34368595416E+03  0.61276837792E+03  0.00000000000E+00 0. -1.
        -13    1    3    3    0    0 -0.20485731843E+03  0.62294465623E+03  0.33968122233E+03  0.73851871909E+03  0.00000000000E+00 0.  1.
          4    1    6    6  502    0  0.22548689318E+03 -0.23898724248E+03 -0.18388135864E+03  0.37652568986E+03  0.00000000000E+00 0. -1.
          1    1    5    5  503    0  0.82476656906E+02 -0.71115119340E+03  0.64364256485E+03  0.96271188322E+03  0.00000000000E+00 0. -1.
         -2    1    5    5    0  503 -0.17355283409E+02 -0.16397118455E+03  0.12920313808E+03  0.20947841443E+03  0.00000000000E+00 0.  1.
         -3    1    6    6    0  502  0.32022937323E+02 -0.22865144408E+01 -0.76605819322E+01  0.33005774928E+02  0.00000000000E+00 0.  1.
<mgrwt>
<rscale>  0 0.26463462E+04</rscale>
<asrwt>0</asrwt>
<pdfrwt beam="1">  1        2 0.32289844E+00 0.26463462E+04</pdfrwt>
<pdfrwt beam="2">  1       -2 0.12833369E+00 0.26463462E+04</pdfrwt>
<totfact> 0.23267378E+00</totfact>
</mgrwt>
</event>
<event>
12    1  0.2214165E-007  0.3941073E+04  0.7818608E-02  0.8016541E-01
          2   -1    0    0  501    0  0.00000000000E+00  0.00000000000E+00  0.31627930232E+04  0.31627930232E+04  0.00000000000E+00 0. -1.
         -2   -1    0    0    0  501 -0.00000000000E+00 -0.00000000000E+00 -0.12277170364E+04  0.12277170364E+04  0.00000000000E+00 0.  1.
         23    2    1    2    0    0 -0.16845651828E+04  0.12408644065E+03  0.18025508118E+04  0.24719670009E+04  0.90962214988E+02 0.  0.
        254    2    1    2    0    0  0.16845651828E+04 -0.12408644065E+03  0.13252517502E+03  0.19185430588E+04  0.90004846889E+03 0.  0.
        -24    2    4    4    0    0  0.15008894633E+04 -0.38919717648E+03  0.23610708498E+03  0.15705000080E+04  0.81117793506E+02 0.  0.
         24    2    4    4    0    0  0.18367571958E+03  0.26511073583E+03 -0.10358190997E+03  0.34804305078E+03  0.79901695265E+02 0.  0.
         13    1    3    3    0    0 -0.12928731891E+04  0.10408096486E+03  0.14373755518E+04  0.19360791325E+04  0.00000000000E+00 0. -1.
        -13    1    3    3    0    0 -0.39169199373E+03  0.20005475784E+02  0.36517525996E+03  0.53588786841E+03  0.00000000000E+00 0.  1.
          4    1    6    6  502    0  0.16478507738E+03  0.18064395201E+03 -0.89355903098E+02  0.26032832451E+03  0.00000000000E+00 0. -1.
          1    1    5    5  503    0  0.12889423083E+04 -0.33774635680E+03  0.23102739281E+03  0.13523381722E+04  0.00000000000E+00 0. -1.
         -2    1    5    5    0  503  0.21194715492E+03 -0.51450819677E+02  0.50796921771E+01  0.21816183579E+03  0.00000000000E+00 0.  1.
         -3    1    6    6    0  502  0.18890642192E+02  0.84466783823E+02 -0.14226006870E+02  0.87714726263E+02  0.00000000000E+00 0.  1.
<mgrwt>
<rscale>  0 0.39410734E+04</rscale>
<asrwt>0</asrwt>
<pdfrwt beam="1">  1        2 0.48658354E+00 0.39410734E+04</pdfrwt>
<pdfrwt beam="2">  1       -2 0.18887955E+00 0.39410734E+04</pdfrwt>
<totfact> 0.17123947E-01</totfact>
</mgrwt>
</event>
<event>
12    1  0.2214165E-007  0.1624491E+04  0.7818608E-02  0.8805642E-01
         -2   -1    0    0    0  501 -0.00000000000E+00  0.00000000000E+00  0.15165459425E+04  0.15165459425E+04  0.00000000000E+00 0.  1.
          2   -1    0    0  501    0  0.00000000000E+00 -0.00000000000E+00 -0.43503001683E+03  0.43503001683E+03  0.00000000000E+00 0. -1.
         23    2    1    2    0    0  0.19550736983E+03 -0.47713659352E+03  0.62654840903E+03  0.81660082023E+03  0.91605295699E+02 0.  0.
        254    2    1    2    0    0 -0.19550736983E+03  0.47713659352E+03  0.45496751668E+03  0.11349751391E+04  0.90293447420E+03 0.  0.
        -24    2    4    4    0    0  0.26352828030E+03 -0.96531184672E+02  0.70933619201E+02  0.30196542932E+03  0.85942527552E+02 0.  0.
         24    2    4    4    0    0 -0.45903565013E+03  0.57366777819E+03  0.38403389748E+03  0.83300970981E+03  0.81330771599E+02 0.  0.
         13    1    3    3    0    0  0.67418113295E+02 -0.26169060314E+03  0.36728421341E+03  0.45598779281E+03  0.00000000000E+00 0.  1.
        -13    1    3    3    0    0  0.12808925653E+03 -0.21544599039E+03  0.25926419562E+03  0.36061302742E+03  0.00000000000E+00 0. -1.
          2    1    6    6  502    0 -0.21386649067E+03  0.32545662447E+03  0.18215442467E+03  0.42993153487E+03  0.00000000000E+00 0. -1.
          1    1    5    5  503    0  0.46601616038E+02  0.13498575308E+02 -0.28324704777E+00  0.48518062426E+02  0.00000000000E+00 0. -1.
         -2    1    5    5    0  503  0.21692666426E+03 -0.11002975998E+03  0.71216866248E+02  0.25344736690E+03  0.00000000000E+00 0.  1.
         -3    1    6    6    0  502 -0.24516915945E+03  0.24821115372E+03  0.20187947280E+03  0.40307817495E+03  0.00000000000E+00 0.  1.
<mgrwt>
<rscale>  0 0.16244913E+04</rscale>
<asrwt>0</asrwt>
<pdfrwt beam="1">  1        2 0.66927696E-01 0.16244913E+04</pdfrwt>
<pdfrwt beam="2">  1       -2 0.23331476E+00 0.16244913E+04</pdfrwt>
<totfact> 0.56382079E+00</totfact>
</mgrwt>
</event>
<event>
12    1  0.2214165E-007  0.1804176E+04  0.7818608E-02  0.8704082E-01
         -2   -1    0    0    0  501 -0.00000000000E+00  0.00000000000E+00  0.86610620879E+03  0.86610620879E+03  0.00000000000E+00 0.  1.
          2   -1    0    0  501    0  0.00000000000E+00 -0.00000000000E+00 -0.93956441237E+03  0.93956441237E+03  0.00000000000E+00 0. -1.
         23    2    1    2    0    0 -0.53949127471E+03  0.33871755177E+03  0.18979095556E+03  0.67084413376E+03  0.90723919814E+02 0.  0.
        254    2    1    2    0    0  0.53949127471E+03 -0.33871755177E+03 -0.26324915914E+03  0.11348264874E+04  0.90152682786E+03 0.  0.
        -24    2    4    4    0    0  0.33905016130E+03  0.79649304990E+02 -0.49458609384E+03  0.61018879160E+03  0.80099522588E+02 0.  0.
         24    2    4    4    0    0  0.20044111341E+03 -0.41836685676E+03  0.23133693469E+03  0.52463769580E+03  0.80749413147E+02 0.  0.
         13    1    3    3    0    0 -0.39783647105E+03  0.29377348843E+03  0.13760512875E+03  0.51333409361E+03  0.00000000000E+00 0.  1.
        -13    1    3    3    0    0 -0.14165480365E+03  0.44944063333E+02  0.52185826808E+02  0.15751004015E+03  0.00000000000E+00 0. -1.
          4    1    6    6  502    0  0.18520665566E+03 -0.40337092211E+03  0.20032004454E+03  0.48696789047E+03  0.00000000000E+00 0. -1.
          3    1    5    5  503    0  0.23612306716E+03  0.92557570702E+02 -0.35414845061E+03  0.43559399882E+03  0.00000000000E+00 0. -1.
         -4    1    5    5    0  503  0.10292709414E+03 -0.12908265712E+02 -0.14043764323E+03  0.17459479278E+03  0.00000000000E+00 0.  1.
         -3    1    6    6    0  502  0.15234457742E+02 -0.14995934649E+02  0.31016890154E+02  0.37669805329E+02  0.00000000000E+00 0.  1.
<mgrwt>
<rscale>  0 0.18041758E+04</rscale>
<asrwt>0</asrwt>
<pdfrwt beam="1">  1        2 0.14454837E+00 0.18041758E+04</pdfrwt>
<pdfrwt beam="2">  1       -2 0.13324711E+00 0.18041758E+04</pdfrwt>
<totfact> 0.10618241E+01</totfact>
</mgrwt>
</event>
<event>
12    1  0.2214165E-007  0.3273729E+04  0.7818608E-02  0.8169612E-01
         -2   -1    0    0    0  501 -0.00000000000E+00  0.00000000000E+00  0.10257622165E+04  0.10257622165E+04  0.00000000000E+00 0.  1.
          2   -1    0    0  501    0  0.00000000000E+00 -0.00000000000E+00 -0.26120335804E+04  0.26120335804E+04  0.00000000000E+00 0. -1.
         23    2    1    2    0    0  0.63888117234E+03  0.86115031599E+03  0.45241183159E+03  0.11675567615E+04  0.93612536056E+02 0.  0.
        254    2    1    2    0    0 -0.63888117234E+03 -0.86115031599E+03 -0.20386831955E+04  0.24702390354E+04  0.89224587481E+03 0.  0.
        -24    2    4    4    0    0 -0.22302465704E+03 -0.36655117628E+02 -0.98520288385E+01  0.23971990697E+03  0.79277840702E+02 0.  0.
         24    2    4    4    0    0 -0.41585651530E+03 -0.82449519837E+03 -0.20288311667E+04  0.22305191284E+04  0.79565733067E+02 0.  0.
         11    1    3    3    0    0  0.36205976328E+03  0.48219983988E+03  0.30443864903E+03  0.67549008045E+03  0.00000000000E+00 0.  1.
        -11    1    3    3    0    0  0.27682140907E+03  0.37895047612E+03  0.14797318255E+03  0.49206668107E+03  0.00000000000E+00 0. -1.
          2    1    6    6  502    0 -0.36064553654E+03 -0.69043428636E+03 -0.16415715454E+04  0.18170090384E+04  0.00000000000E+00 0. -1.
          3    1    5    5  503    0 -0.10474417671E+03 -0.11875845529E+02  0.34610898389E+02  0.11095175776E+03  0.00000000000E+00 0. -1.
         -4    1    5    5    0  503 -0.11828048033E+03 -0.24779272099E+02 -0.44462927228E+02  0.12876814921E+03  0.00000000000E+00 0.  1.
         -1    1    6    6    0  502 -0.55210978763E+02 -0.13406091201E+03 -0.38725962129E+03  0.41351009007E+03  0.00000000000E+00 0.  1.
<mgrwt>
<rscale>  0 0.32737290E+04</rscale>
<asrwt>0</asrwt>
<pdfrwt beam="1">  1        2 0.40185132E+00 0.32737290E+04</pdfrwt>
<pdfrwt beam="2">  1       -2 0.15780957E+00 0.32737290E+04</pdfrwt>
<totfact> 0.65516687E-01</totfact>
</mgrwt>
</event>
<event>
12    1  0.2214165E-007  0.1417017E+04  0.7818608E-02  0.8941592E-01
          1   -1    0    0  501    0  0.00000000000E+00  0.00000000000E+00  0.14061336205E+04  0.14061336205E+04  0.00000000000E+00 0. -1.
         -1   -1    0    0    0  501 -0.00000000000E+00 -0.00000000000E+00 -0.35699634302E+03  0.35699634302E+03  0.00000000000E+00 0.  1.
         23    2    1    2    0    0  0.51118401637E+02  0.32826552190E+03  0.26846900727E+01  0.34354270866E+03  0.87424488903E+02 0.  0.
        254    2    1    2    0    0 -0.51118401637E+02 -0.32826552190E+03  0.10464525874E+04  0.14195872548E+04  0.89988533304E+03 0.  0.
        -24    2    4    4    0    0  0.20678057206E+03 -0.87000774838E+01 -0.65324069228E+02  0.23166862175E+03  0.81050724565E+02 0.  0.
         24    2    4    4    0    0 -0.25789897370E+03 -0.31956544442E+03  0.11117766566E+04  0.11879186331E+04  0.80432523033E+02 0.  0.
         13    1    3    3    0    0 -0.77495592231E+01  0.11650265770E+03  0.33810204220E+02  0.12155679672E+03  0.00000000000E+00 0. -1.
        -13    1    3    3    0    0  0.58867960860E+02  0.21176286419E+03 -0.31125514148E+02  0.22198591194E+03  0.00000000000E+00 0.  1.
          4    1    6    6  502    0 -0.19025961479E+03 -0.23050939850E+03  0.90147885319E+03  0.94973545083E+03  0.00000000000E+00 0. -1.
          3    1    5    5  503    0  0.13873860782E+03  0.47336194167E+00 -0.81804405507E+02  0.16106081501E+03  0.00000000000E+00 0. -1.
         -4    1    5    5    0  503  0.68041964239E+02 -0.91734394255E+01  0.16480336279E+02  0.70607806737E+02  0.00000000000E+00 0.  1.
         -3    1    6    6    0  502 -0.67639358914E+02 -0.89056045913E+02  0.21029780341E+03  0.23818318225E+03  0.00000000000E+00 0.  1.
<mgrwt>
<rscale>  0 0.14170174E+04</rscale>
<asrwt>0</asrwt>
<pdfrwt beam="1">  1        1 0.21632825E+00 0.14170174E+04</pdfrwt>
<pdfrwt beam="2">  1       -1 0.54922515E-01 0.14170174E+04</pdfrwt>
<totfact> 0.24814315E+01</totfact>
</mgrwt>
</event>
<event>
12    1  0.2214165E-007  0.1048070E+04  0.7818608E-02  0.9257339E-01
          1   -1    0    0  501    0  0.00000000000E+00  0.00000000000E+00  0.57782423605E+03  0.57782423605E+03  0.00000000000E+00 0. -1.
         -1   -1    0    0    0  501 -0.00000000000E+00 -0.00000000000E+00 -0.47525291671E+03  0.47525291671E+03  0.00000000000E+00 0.  1.
         23    2    1    2    0    0  0.41145611427E+02 -0.58088104547E+02 -0.38821033742E+00  0.14189097323E+03  0.12274244722E+03 0.  0.
        254    2    1    2    0    0 -0.41145611427E+02  0.58088104547E+02  0.10295952968E+03  0.91118617952E+03  0.90254772714E+03 0.  0.
        -24    2    4    4    0    0 -0.29902736198E+03 -0.29339407328E+03  0.17549249052E+03  0.46198210644E+03  0.84453578919E+02 0.  0.
         24    2    4    4    0    0  0.25788175055E+03  0.35148217782E+03 -0.72532960842E+02  0.44920407309E+03  0.80501865027E+02 0.  0.
         13    1    3    3    0    0 -0.12457682098E+02  0.49366066872E+01  0.45394876172E+02  0.47331371326E+02  0.00000000000E+00 0. -1.
        -13    1    3    3    0    0  0.53603293525E+02 -0.63024711235E+02 -0.45783086510E+02  0.94559601909E+02  0.00000000000E+00 0.  1.
          2    1    6    6  502    0  0.68304676556E+02  0.14028101008E+03 -0.52781409117E+02  0.16471237894E+03  0.00000000000E+00 0. -1.
          1    1    5    5  503    0 -0.15898961439E+03 -0.14046795185E+03  0.13275822255E+03  0.25026723444E+03  0.00000000000E+00 0. -1.
         -2    1    5    5    0  503 -0.14003774759E+03 -0.15292612143E+03  0.42734267974E+02  0.21171487200E+03  0.00000000000E+00 0.  1.
         -1    1    6    6    0  502  0.18957707400E+03  0.21120116775E+03 -0.19751551725E+02  0.28449169415E+03  0.00000000000E+00 0.  1.
<mgrwt>
<rscale>  0 0.10480699E+04</rscale>
<asrwt>0</asrwt>
<pdfrwt beam="1">  1        1 0.88896037E-01 0.10480699E+04</pdfrwt>
<pdfrwt beam="2">  1       -1 0.73115833E-01 0.10480699E+04</pdfrwt>
<totfact> 0.68191035E+01</totfact>
</mgrwt>
</event>
<event>
12    1  0.2214165E-007  0.1528979E+04  0.7818608E-02  0.8865407E-01
         -1   -1    0    0    0  501 -0.00000000000E+00  0.00000000000E+00  0.14078950613E+04  0.14078950613E+04  0.00000000000E+00 0.  1.
          1   -1    0    0  501    0  0.00000000000E+00 -0.00000000000E+00 -0.41511940567E+03  0.41511940567E+03  0.00000000000E+00 0. -1.
         23    2    1    2    0    0 -0.69761449753E+02 -0.13948449169E+03 -0.23211288533E+03  0.29413099980E+03  0.91181523416E+02 0.  0.
        254    2    1    2    0    0  0.69761449753E+02  0.13948449169E+03  0.12248885409E+04  0.15288834671E+04  0.90155983445E+03 0.  0.
        -24    2    4    4    0    0 -0.25169558876E+03  0.40632720962E+03  0.55980460241E+03  0.73940767214E+03  0.69928835724E+02 0.  0.
         24    2    4    4    0    0  0.32145703852E+03 -0.26684271792E+03  0.66508393850E+03  0.78947579499E+03  0.79973257343E+02 0.  0.
         13    1    3    3    0    0 -0.54895230254E+02 -0.23150217038E+02 -0.51337217369E+02  0.78644317918E+02  0.00000000000E+00 0.  1.
        -13    1    3    3    0    0 -0.14866219499E+02 -0.11633427466E+03 -0.18077566796E+03  0.21548668189E+03  0.00000000000E+00 0. -1.
          2    1    6    6  502    0  0.10555497101E+03 -0.65543994785E+02  0.14062586801E+03  0.18765260966E+03  0.00000000000E+00 0. -1.
          3    1    5    5  503    0 -0.12123615631E+03  0.13612653003E+03  0.19218172735E+03  0.26488196259E+03  0.00000000000E+00 0. -1.
         -4    1    5    5    0  503 -0.13045943245E+03  0.27020067959E+03  0.36762287505E+03  0.47452570955E+03  0.00000000000E+00 0.  1.
         -1    1    6    6    0  502  0.21590206750E+03 -0.20129872314E+03  0.52445807050E+03  0.60182318533E+03  0.00000000000E+00 0.  1.
<mgrwt>
<rscale>  0 0.15289795E+04</rscale>
<asrwt>0</asrwt>
<pdfrwt beam="1">  1        1 0.63864525E-01 0.15289795E+04</pdfrwt>
<pdfrwt beam="2">  1       -1 0.21659924E+00 0.15289795E+04</pdfrwt>
<totfact> 0.63907256E+00</totfact>
</mgrwt>
</event>
<event>
12    1  0.2214165E-007  0.1994130E+04  0.7818608E-02  0.8609370E-01
         -2   -1    0    0    0  501 -0.00000000000E+00  0.00000000000E+00  0.60925120532E+03  0.60925120532E+03  0.00000000000E+00 0.  1.
          2   -1    0    0  501    0  0.00000000000E+00 -0.00000000000E+00 -0.16317381242E+04  0.16317381242E+04  0.00000000000E+00 0. -1.
         23    2    1    2    0    0  0.17573088508E+03  0.51378295467E+03 -0.10552978311E+04  0.11903650356E+04  0.91984439970E+02 0.  0.
        254    2    1    2    0    0 -0.17573088508E+03 -0.51378295467E+03  0.32810912191E+02  0.10506242939E+04  0.89882177463E+03 0.  0.
        -24    2    4    4    0    0 -0.34473129449E+03 -0.27306380522E+03  0.38169500104E+03  0.58783993983E+03  0.80381676541E+02 0.  0.
         24    2    4    4    0    0  0.16900040941E+03 -0.24071914945E+03 -0.34888408884E+03  0.46278435409E+03  0.77086987574E+02 0.  0.
         11    1    3    3    0    0  0.96523334863E+02  0.38012160015E+03 -0.81095422879E+03  0.90080849589E+03  0.00000000000E+00 0. -1.
        -11    1    3    3    0    0  0.79207550219E+02  0.13366135452E+03 -0.24434360226E+03  0.28955653968E+03  0.00000000000E+00 0.  1.
          4    1    6    6  502    0  0.46454174682E+02 -0.12529651264E+03 -0.18149875549E+03  0.22538634535E+03  0.00000000000E+00 0. -1.
          3    1    5    5  503    0 -0.43314802137E+02 -0.62445644750E+02  0.94478241065E+02  0.12125085017E+03  0.00000000000E+00 0. -1.
         -4    1    5    5    0  503 -0.30141649235E+03 -0.21061816047E+03  0.28721675997E+03  0.46658908966E+03  0.00000000000E+00 0.  1.
         -3    1    6    6    0  502  0.12254623473E+03 -0.11542263681E+03 -0.16738533335E+03  0.23739800874E+03  0.00000000000E+00 0.  1.
<mgrwt>
<rscale>  0 0.19941298E+04</rscale>
<asrwt>0</asrwt>
<pdfrwt beam="1">  1        2 0.25103664E+00 0.19941298E+04</pdfrwt>
<pdfrwt beam="2">  1       -2 0.93730954E-01 0.19941298E+04</pdfrwt>
<totfact> 0.95702325E+00</totfact>
</mgrwt>
</event>
<event>
12    1  0.2214165E-007  0.2133663E+04  0.7818608E-02  0.8546558E-01
         -2   -1    0    0    0  501 -0.00000000000E+00  0.00000000000E+00  0.63241506920E+03  0.63241506920E+03  0.00000000000E+00 0.  1.
          2   -1    0    0  501    0  0.00000000000E+00 -0.00000000000E+00 -0.17996561647E+04  0.17996561647E+04  0.00000000000E+00 0. -1.
         23    2    1    2    0    0  0.45133573902E+03 -0.19972624252E+03 -0.13037336728E+04  0.13970742846E+04  0.92198404236E+02 0.  0.
        254    2    1    2    0    0 -0.45133573902E+03  0.19972624252E+03  0.13649257726E+03  0.10349969494E+04  0.89944090428E+03 0.  0.
        -24    2    4    4    0    0  0.20875394218E+03  0.62694132597E+02 -0.17223726618E+03  0.28904132547E+03  0.79815094637E+02 0.  0.
         24    2    4    4    0    0 -0.66008968120E+03  0.13703210992E+03  0.30872984344E+03  0.74595562389E+03  0.81483067069E+02 0.  0.
         11    1    3    3    0    0  0.43880135032E+03 -0.18824982260E+03 -0.12889616067E+04  0.13745568901E+04  0.00000000000E+00 0. -1.
        -11    1    3    3    0    0  0.12534388699E+02 -0.11476419913E+02 -0.14772066117E+02  0.22517394419E+02  0.00000000000E+00 0.  1.
          2    1    6    6  502    0 -0.38387733093E+02  0.28419949696E+02  0.17294520716E+02  0.50797756245E+02  0.00000000000E+00 0. -1.
          3    1    5    5  503    0  0.47375772209E+02  0.44979081843E+02 -0.76381692311E+02  0.10050743513E+03  0.00000000000E+00 0. -1.
         -4    1    5    5    0  503  0.16137816997E+03  0.17715050755E+02 -0.95855573868E+02  0.18853389034E+03  0.00000000000E+00 0.  1.
         -3    1    6    6    0  502 -0.62170194810E+03  0.10861216022E+03  0.29143532272E+03  0.69515786765E+03  0.00000000000E+00 0.  1.
<mgrwt>
<rscale>  0 0.21336632E+04</rscale>
<asrwt>0</asrwt>
<pdfrwt beam="1">  1        2 0.27687018E+00 0.21336632E+04</pdfrwt>
<pdfrwt beam="2">  1       -2 0.97294627E-01 0.21336632E+04</pdfrwt>
<totfact> 0.69914806E+00</totfact>
</mgrwt>
</event>
<event>
12    1  0.2214165E-007  0.1780364E+04  0.7818608E-02  0.8716812E-01
         -2   -1    0    0    0  501 -0.00000000000E+00  0.00000000000E+00  0.41412889508E+03  0.41412889508E+03  0.00000000000E+00 0.  1.
          2   -1    0    0  501    0  0.00000000000E+00 -0.00000000000E+00 -0.19134720341E+04  0.19134720341E+04  0.00000000000E+00 0. -1.
         23    2    1    2    0    0 -0.58158895697E+03  0.29492364963E+03 -0.43417946432E+03  0.78868016590E+03  0.90988586448E+02 0.  0.
        254    2    1    2    0    0  0.58158895697E+03 -0.29492364963E+03 -0.10651636747E+04  0.15389207632E+04  0.89915392883E+03 0.  0.
        -24    2    4    4    0    0  0.32701219393E+02 -0.50777978002E+03 -0.45744938181E+03  0.68898450915E+03  0.80808676396E+02 0.  0.
         24    2    4    4    0    0  0.54888773757E+03  0.21285613039E+03 -0.60771429284E+03  0.84993625409E+03  0.80557393081E+02 0.  0.
         11    1    3    3    0    0 -0.18147716467E+03  0.80877552886E+02 -0.18254718915E+03  0.26981218675E+03  0.00000000000E+00 0. -1.
        -11    1    3    3    0    0 -0.40011179230E+03  0.21404609674E+03 -0.25163227517E+03  0.51886797914E+03  0.00000000000E+00 0.  1.
          4    1    6    6  502    0  0.29309345682E+03  0.13815328250E+03 -0.38022803096E+03  0.49956326869E+03  0.00000000000E+00 0. -1.
          3    1    5    5  503    0  0.12156204968E+01 -0.43860811739E+03 -0.37772713536E+03  0.57884051962E+03  0.00000000000E+00 0. -1.
         -4    1    5    5    0  503  0.31485598896E+02 -0.69171662634E+02 -0.79722246455E+02  0.11014398953E+03  0.00000000000E+00 0.  1.
         -3    1    6    6    0  502  0.25579428076E+03  0.74702847893E+02 -0.22748626188E+03  0.35037298539E+03  0.00000000000E+00 0.  1.
<mgrwt>
<rscale>  0 0.17803641E+04</rscale>
<asrwt>0</asrwt>
<pdfrwt beam="1">  1        2 0.29438032E+00 0.17803641E+04</pdfrwt>
<pdfrwt beam="2">  1       -2 0.63712137E-01 0.17803641E+04</pdfrwt>
<totfact> 0.16082994E+01</totfact>
</mgrwt>
</event>
<event>
12    1  0.2214165E-007  0.4680918E+04  0.7818608E-02  0.7879707E-01
          2   -1    0    0  501    0  0.00000000000E+00  0.00000000000E+00  0.27588038669E+04  0.27588038669E+04  0.00000000000E+00 0. -1.
         -2   -1    0    0    0  501 -0.00000000000E+00 -0.00000000000E+00 -0.19855522698E+04  0.19855522698E+04  0.00000000000E+00 0.  1.
         23    2    1    2    0    0 -0.45439733534E+02 -0.16939990541E+04  0.18779088730E+04  0.25308963831E+04  0.84836327317E+02 0.  0.
        254    2    1    2    0    0  0.45439733534E+02  0.16939990541E+04 -0.11046572759E+04  0.22134597536E+04  0.89857599522E+03 0.  0.
        -24    2    4    4    0    0 -0.74360141787E+02 -0.72833805391E+02 -0.13376887007E+02  0.13159744053E+03  0.79402464408E+02 0.  0.
         24    2    4    4    0    0  0.11979987532E+03  0.17668328595E+04 -0.10912803889E+04  0.20818623131E+04  0.84896643817E+02 0.  0.
         13    1    3    3    0    0 -0.29222234935E+02 -0.18483705877E+03  0.22353724114E+03  0.29152628609E+03  0.00000000000E+00 0. -1.
        -13    1    3    3    0    0 -0.16217498599E+02 -0.15091619953E+04  0.16543716318E+04  0.22393700970E+04  0.00000000000E+00 0.  1.
          2    1    6    6  502    0  0.11333101716E+03  0.13534747482E+04 -0.80243141601E+03  0.15775404879E+04  0.00000000000E+00 0. -1.
          1    1    5    5  503    0 -0.71276436767E+01 -0.60520617397E+02 -0.16636595694E+02  0.63169017333E+02  0.00000000000E+00 0. -1.
         -2    1    5    5    0  503 -0.67232498110E+02 -0.12313187994E+02  0.32597086873E+01  0.68428423199E+02  0.00000000000E+00 0.  1.
         -1    1    6    6    0  502  0.64688581626E+01  0.41335811124E+03 -0.28884897285E+03  0.50432182520E+03  0.00000000000E+00 0.  1.
<mgrwt>
<rscale>  0 0.46809184E+04</rscale>
<asrwt>0</asrwt>
<pdfrwt beam="1">  1        2 0.42443136E+00 0.46809184E+04</pdfrwt>
<pdfrwt beam="2">  1       -2 0.30546958E+00 0.46809184E+04</pdfrwt>
<totfact> 0.53788910E-02</totfact>
</mgrwt>
</event>
<event>
12    1  0.2214165E-007  0.1800669E+04  0.7818608E-02  0.8705944E-01
          1   -1    0    0  501    0  0.00000000000E+00  0.00000000000E+00  0.25433603108E+04  0.25433603108E+04  0.00000000000E+00 0. -1.
         -1   -1    0    0    0  501 -0.00000000000E+00 -0.00000000000E+00 -0.31871311780E+03  0.31871311780E+03  0.00000000000E+00 0.  1.
         23    2    1    2    0    0  0.21687330862E+03  0.57143599701E+03  0.39290438018E+03  0.73249284844E+03  0.92729662942E+02 0.  0.
        254    2    1    2    0    0 -0.21687330862E+03 -0.57143599701E+03  0.18317428128E+04  0.21295805801E+04  0.89791902993E+03 0.  0.
        -24    2    4    4    0    0 -0.37275557115E+03  0.86488641044E+02  0.84005185228E+03  0.92666423664E+03  0.81194162979E+02 0.  0.
         24    2    4    4    0    0  0.15588226252E+03 -0.65792463805E+03  0.99169096050E+03  0.12029163435E+04  0.79954106260E+02 0.  0.
         11    1    3    3    0    0  0.45850014474E+02  0.16296748377E+03  0.15633216436E+03  0.23043517572E+03  0.00000000000E+00 0. -1.
        -11    1    3    3    0    0  0.17102329415E+03  0.40846851324E+03  0.23657221582E+03  0.50205767273E+03  0.00000000000E+00 0.  1.
          2    1    6    6  502    0  0.74118183432E+02 -0.45079666195E+03  0.63091960000E+03  0.77895486211E+03  0.00000000000E+00 0. -1.
          1    1    5    5  503    0 -0.22623848861E+03  0.36936776827E+02  0.41129682759E+03  0.47086437494E+03  0.00000000000E+00 0. -1.
         -2    1    5    5    0  503 -0.14651708254E+03  0.49551864216E+02  0.42875502469E+03  0.45579986170E+03  0.00000000000E+00 0.  1.
         -1    1    6    6    0  502  0.81764079091E+02 -0.20712797610E+03  0.36077136050E+03  0.42396148135E+03  0.00000000000E+00 0.  1.
<mgrwt>
<rscale>  0 0.18006691E+04</rscale>
<asrwt>0</asrwt>
<pdfrwt beam="1">  1        1 0.39128619E+00 0.18006691E+04</pdfrwt>
<pdfrwt beam="2">  1       -1 0.49032789E-01 0.18006691E+04</pdfrwt>
<totfact> 0.49740541E+00</totfact>
</mgrwt>
</event>
<event>
12    1  0.2214165E-007  0.1807435E+04  0.7818608E-02  0.8702356E-01
          2   -1    0    0  501    0  0.00000000000E+00  0.00000000000E+00  0.73017079905E+03  0.73017079905E+03  0.00000000000E+00 0. -1.
         -2   -1    0    0    0  501 -0.00000000000E+00 -0.00000000000E+00 -0.11185122215E+04  0.11185122215E+04  0.00000000000E+00 0.  1.
         23    2    1    2    0    0  0.12819066009E+02  0.67271006339E+03 -0.21635770939E+03  0.71226127400E+03  0.88330663955E+02 0.  0.
        254    2    1    2    0    0 -0.12819066009E+02 -0.67271006339E+03 -0.17198371305E+03  0.11364217466E+04  0.89954034409E+03 0.  0.
        -24    2    4    4    0    0 -0.19206812321E+03  0.61282432433E+02 -0.29546437974E+03  0.36653862779E+03  0.80035401467E+02 0.  0.
         24    2    4    4    0    0  0.17924905720E+03 -0.73399249582E+03  0.12348066669E+03  0.76988311876E+03  0.81223968599E+02 0.  0.
         11    1    3    3    0    0 -0.20181061976E+02  0.39173377181E+03 -0.16089094512E+03  0.42396759247E+03  0.00000000000E+00 0.  1.
        -11    1    3    3    0    0  0.33000127985E+02  0.28097629158E+03 -0.55466764269E+02  0.28829368154E+03  0.00000000000E+00 0. -1.
          2    1    6    6  502    0  0.79826213458E+02 -0.46589012922E+03  0.98644403934E+02  0.48286287421E+03  0.00000000000E+00 0. -1.
          1    1    5    5  503    0 -0.15939116782E+03  0.76183082294E+02 -0.26942157559E+03  0.32217602611E+03  0.00000000000E+00 0. -1.
         -2    1    5    5    0  503 -0.32676955389E+02 -0.14900649861E+02 -0.26042804155E+02  0.44362601683E+02  0.00000000000E+00 0.  1.
         -1    1    6    6    0  502  0.99422843745E+02 -0.26810236660E+03  0.24836262756E+02  0.28702024455E+03  0.00000000000E+00 0.  1.
<mgrwt>
<rscale>  0 0.18074346E+04</rscale>
<asrwt>0</asrwt>
<pdfrwt beam="1">  1        2 0.11233397E+00 0.18074346E+04</pdfrwt>
<pdfrwt beam="2">  1       -2 0.17207880E+00 0.18074346E+04</pdfrwt>
<totfact> 0.75413919E+00</totfact>
</mgrwt>
</event>
<event>
12    1  0.2598616E-007  0.2795401E+04  0.7818608E-02  0.8304698E-01
          2   -1    0    0  501    0  0.00000000000E+00  0.00000000000E+00  0.21254404266E+04  0.21254404266E+04  0.00000000000E+00 0. -1.
         -2   -1    0    0    0  501 -0.00000000000E+00 -0.00000000000E+00 -0.91913513803E+03  0.91913513803E+03  0.00000000000E+00 0.  1.
         23    2    1    2    0    0  0.11742536426E+04  0.25638819661E+03  0.16739501832E+03  0.12168690408E+04  0.90236610069E+02 0.  0.
        254    2    1    2    0    0 -0.11742536426E+04 -0.25638819661E+03  0.10389102703E+04  0.18277065239E+04  0.90364266349E+03 0.  0.
        -24    2    4    4    0    0 -0.83551331732E+03 -0.55550327591E+03  0.89609186849E+03  0.13473310378E+04  0.75192390535E+02 0.  0.
         24    2    4    4    0    0 -0.33874032525E+03  0.29911507930E+03  0.14281840178E+03  0.48037548610E+03  0.78413475529E+02 0.  0.
         11    1    3    3    0    0  0.80592887262E+03  0.21842748431E+03  0.11269163695E+03  0.84257422146E+03  0.00000000000E+00 0. -1.
        -11    1    3    3    0    0  0.36832476995E+03  0.37960712292E+02  0.54703381378E+02  0.37429481932E+03  0.00000000000E+00 0.  1.
          4    1    6    6  502    0 -0.33622166535E+03  0.28754431395E+03  0.12636365283E+03  0.46010272059E+03  0.00000000000E+00 0. -1.
          1    1    5    5  503    0 -0.62508128430E+03 -0.44882426475E+03  0.70661006629E+03  0.10447332762E+04  0.00000000000E+00 0. -1.
         -2    1    5    5    0  503 -0.21043203302E+03 -0.10667901116E+03  0.18948180220E+03  0.30259776157E+03  0.00000000000E+00 0.  1.
         -3    1    6    6    0  502 -0.25186598949E+01  0.11570765351E+02  0.16454748948E+02  0.20272765509E+02  0.00000000000E+00 0.  1.
<mgrwt>
<rscale>  0 0.27954012E+04</rscale>
<asrwt>0</asrwt>
<pdfrwt beam="1">  1        2 0.32699083E+00 0.27954012E+04</pdfrwt>
<pdfrwt beam="2">  1       -2 0.14140541E+00 0.27954012E+04</pdfrwt>
<totfact> 0.17321407E+00</totfact>
</mgrwt>
</event>
<event>
12    1  0.2214165E-007  0.3715081E+04  0.7818608E-02  0.8064628E-01
         -1   -1    0    0    0  501 -0.00000000000E+00  0.00000000000E+00  0.15741651250E+04  0.15741651250E+04  0.00000000000E+00 0.  1.
          1   -1    0    0  501    0  0.00000000000E+00 -0.00000000000E+00 -0.21919283970E+04  0.21919283970E+04  0.00000000000E+00 0. -1.
         23    2    1    2    0    0  0.16263440016E+04 -0.14915754128E+03 -0.91942827064E+03  0.18764553145E+04  0.92159746801E+02 0.  0.
        254    2    1    2    0    0 -0.16263440016E+04  0.14915754128E+03  0.30166499869E+03  0.18896382075E+04  0.90138116265E+03 0.  0.
        -24    2    4    4    0    0 -0.99372919982E+03 -0.34805796574E+03  0.14208695949E+03  0.10653918488E+04  0.78924124461E+02 0.  0.
         24    2    4    4    0    0 -0.63261480176E+03  0.49721550702E+03  0.15957803920E+03  0.82424635870E+03  0.80573950044E+02 0.  0.
         11    1    3    3    0    0  0.12045128539E+04 -0.15001199324E+03 -0.69211555805E+03  0.13972754771E+04  0.00000000000E+00 0.  1.
        -11    1    3    3    0    0  0.42183114772E+03  0.85445196246E+00 -0.22731271260E+03  0.47917983742E+03  0.00000000000E+00 0. -1.
          2    1    6    6  502    0 -0.91843454555E+02  0.40515212040E+02  0.28948797083E+02  0.10447361104E+03  0.00000000000E+00 0. -1.
          1    1    5    5  503    0 -0.23897538894E+03 -0.11987606624E+03  0.32752594709E+02  0.26935523057E+03  0.00000000000E+00 0. -1.
         -2    1    5    5    0  503 -0.75475381088E+03 -0.22818189950E+03  0.10933436478E+03  0.79603661827E+03  0.00000000000E+00 0.  1.
         -1    1    6    6    0  502 -0.54077134720E+03  0.45670029498E+03  0.13062924211E+03  0.71977274766E+03  0.00000000000E+00 0.  1.
<mgrwt>
<rscale>  0 0.37150813E+04</rscale>
<asrwt>0</asrwt>
<pdfrwt beam="1">  1        1 0.33721975E+00 0.37150813E+04</pdfrwt>
<pdfrwt beam="2">  1       -1 0.24217925E+00 0.37150813E+04</pdfrwt>
<totfact> 0.13869959E-01</totfact>
</mgrwt>
</event>
<event>
12    1  0.2214165E-007  0.2129227E+04  0.7818608E-02  0.8548477E-01
         -2   -1    0    0    0  501 -0.00000000000E+00  0.00000000000E+00  0.64579814387E+03  0.64579814387E+03  0.00000000000E+00 0.  1.
          2   -1    0    0  501    0  0.00000000000E+00 -0.00000000000E+00 -0.17550412338E+04  0.17550412338E+04  0.00000000000E+00 0. -1.
         23    2    1    2    0    0 -0.10841514830E+03  0.70195552123E+03  0.11374599641E+03  0.72508781341E+03  0.91207386197E+02 0.  0.
        254    2    1    2    0    0  0.10841514830E+03 -0.70195552123E+03 -0.12229890863E+04  0.16757515642E+04  0.89885794295E+03 0.  0.
        -24    2    4    4    0    0  0.28889057410E+03  0.89170085626E+02 -0.47949042206E+03  0.57220236962E+03  0.78073164236E+02 0.  0.
         24    2    4    4    0    0 -0.18047542581E+03 -0.79112560686E+03 -0.74349866425E+03  0.11035491946E+04  0.81113846112E+02 0.  0.
         13    1    3    3    0    0 -0.12239834739E+02  0.36433485896E+03  0.44156127100E+02  0.36720493810E+03  0.00000000000E+00 0. -1.
        -13    1    3    3    0    0 -0.96175313557E+02  0.33762066227E+03  0.69589869307E+02  0.35788287531E+03  0.00000000000E+00 0.  1.
          2    1    6    6  502    0 -0.23622437976E+02 -0.66992481066E+02 -0.96953808155E+02  0.12019173437E+03  0.00000000000E+00 0. -1.
          3    1    5    5  503    0  0.56619492478E+02  0.30832311823E+02 -0.54672498072E+02  0.84530943602E+02  0.00000000000E+00 0. -1.
         -4    1    5    5    0  503  0.23227108163E+03  0.58337773803E+02 -0.42481792399E+03  0.48767142602E+03  0.00000000000E+00 0.  1.
         -1    1    6    6    0  502 -0.15685298783E+03 -0.72413312579E+03 -0.64654485610E+03  0.98335746024E+03  0.00000000000E+00 0.  1.
<mgrwt>
<rscale>  0 0.21292274E+04</rscale>
<asrwt>0</asrwt>
<pdfrwt beam="1">  1        2 0.27000634E+00 0.21292274E+04</pdfrwt>
<pdfrwt beam="2">  1       -2 0.99353561E-01 0.21292274E+04</pdfrwt>
<totfact> 0.70480290E+00</totfact>
</mgrwt>
</event>
<event>
12    1  0.2214165E-007  0.2453215E+04  0.7818608E-02  0.8419845E-01
         -1   -1    0    0    0  501 -0.00000000000E+00  0.00000000000E+00  0.16957948236E+04  0.16957948236E+04  0.00000000000E+00 0.  1.
          1   -1    0    0  501    0  0.00000000000E+00 -0.00000000000E+00 -0.88723351199E+03  0.88723351199E+03  0.00000000000E+00 0. -1.
         23    2    1    2    0    0 -0.58836697440E+03 -0.86480402578E+03  0.16772085215E+03  0.10629945453E+04  0.88121618229E+02 0.  0.
        254    2    1    2    0    0  0.58836697440E+03  0.86480402578E+03  0.64084045947E+03  0.15200337903E+04  0.89764387676E+03 0.  0.
        -24    2    4    4    0    0 -0.85887174202E+02 -0.11307729656E+03  0.18074840912E+03  0.24372663468E+03  0.81053089782E+02 0.  0.
         24    2    4    4    0    0  0.67425414861E+03  0.97788132233E+03  0.46009205035E+03  0.12763071556E+04  0.80029514091E+02 0.  0.
         13    1    3    3    0    0 -0.30029284053E+03 -0.51385942979E+03  0.11094675649E+03  0.60542256849E+03  0.00000000000E+00 0.  1.
        -13    1    3    3    0    0 -0.28807413387E+03 -0.35094459599E+03  0.56774095660E+02  0.45757197685E+03  0.00000000000E+00 0. -1.
          4    1    6    6  502    0  0.96438857862E+02  0.16170722711E+03  0.10189734277E+03  0.21408584509E+03  0.00000000000E+00 0. -1.
          3    1    5    5  503    0 -0.50021144715E+02 -0.50300084738E+02  0.30955885734E+02  0.77398193162E+02  0.00000000000E+00 0. -1.
         -4    1    5    5    0  503 -0.35866029488E+02 -0.62777211819E+02  0.14979252338E+03  0.16632844151E+03  0.00000000000E+00 0.  1.
         -3    1    6    6    0  502  0.57781529074E+03  0.81617409522E+03  0.35819470759E+03  0.10622213105E+04  0.00000000000E+00 0.  1.
<mgrwt>
<rscale>  0 0.24532150E+04</rscale>
<asrwt>0</asrwt>
<pdfrwt beam="1">  1        1 0.13649746E+00 0.24532150E+04</pdfrwt>
<pdfrwt beam="2">  1       -1 0.26089151E+00 0.24532150E+04</pdfrwt>
<totfact> 0.98454626E-01</totfact>
</mgrwt>
</event>
<event>
12    1  0.2214165E-007  0.2022450E+04  0.7818608E-02  0.8596196E-01
          1   -1    0    0  501    0  0.00000000000E+00  0.00000000000E+00  0.24528378364E+04  0.24528378364E+04  0.00000000000E+00 0. -1.
         -1   -1    0    0    0  501 -0.00000000000E+00 -0.00000000000E+00 -0.41689501619E+03  0.41689501619E+03  0.00000000000E+00 0.  1.
         23    2    1    2    0    0  0.41812384791E+03  0.77164359691E+01  0.17998137020E+04  0.18500743743E+04  0.92513420428E+02 0.  0.
        254    2    1    2    0    0 -0.41812384791E+03 -0.77164359691E+01  0.23612911821E+03  0.10196584783E+04  0.89947726836E+03 0.  0.
        -24    2    4    4    0    0 -0.24600596627E+03  0.12749544614E+03 -0.31148718233E+03  0.42460871587E+03  0.80587049884E+02 0.  0.
         24    2    4    4    0    0 -0.17211788163E+03 -0.13521188211E+03  0.54761630054E+03  0.59504976242E+03  0.79333403388E+02 0.  0.
         13    1    3    3    0    0  0.16373011161E+03 -0.16673411456E+02  0.53669185060E+03  0.56135879310E+03  0.00000000000E+00 0.  1.
        -13    1    3    3    0    0  0.25439373630E+03  0.24389847425E+02  0.12631218514E+04  0.12887155812E+04  0.00000000000E+00 0. -1.
          2    1    6    6  502    0 -0.94603275599E+02 -0.12160550162E+03  0.36766347131E+03  0.39864032148E+03  0.00000000000E+00 0. -1.
          3    1    5    5  503    0 -0.20419309130E+03  0.13665192562E+03 -0.26827124875E+03  0.36378294382E+03  0.00000000000E+00 0. -1.
         -4    1    5    5    0  503 -0.41812874977E+02 -0.91564794804E+01 -0.43215933576E+02  0.60825772048E+02  0.00000000000E+00 0.  1.
         -1    1    6    6    0  502 -0.77514606034E+02 -0.13606380485E+02  0.17995282923E+03  0.19640944093E+03  0.00000000000E+00 0.  1.
<mgrwt>
<rscale>  0 0.20224499E+04</rscale>
<asrwt>0</asrwt>
<pdfrwt beam="1">  1        1 0.37735966E+00 0.20224499E+04</pdfrwt>
<pdfrwt beam="2">  1       -1 0.64137697E-01 0.20224499E+04</pdfrwt>
<totfact> 0.33349730E+00</totfact>
</mgrwt>
</event>
<event>
12    1  0.2214165E-007  0.1479326E+04  0.7818608E-02  0.8898318E-01
         -1   -1    0    0    0  501 -0.00000000000E+00  0.00000000000E+00  0.67298813944E+03  0.67298813944E+03  0.00000000000E+00 0.  1.
          1   -1    0    0  501    0  0.00000000000E+00 -0.00000000000E+00 -0.81294376433E+03  0.81294376433E+03  0.00000000000E+00 0. -1.
         23    2    1    2    0    0 -0.34809173392E+03 -0.91080604396E+01  0.25731138477E+03  0.44172264491E+03  0.87515337552E+02 0.  0.
        254    2    1    2    0    0  0.34809173392E+03  0.91080604396E+01 -0.39726700965E+03  0.10442092589E+04  0.90072253627E+03 0.  0.
        -24    2    4    4    0    0  0.10947339752E+03 -0.38060885714E+03  0.40799912772E+02  0.40617563277E+03  0.80414456873E+02 0.  0.
         24    2    4    4    0    0  0.23861833640E+03  0.38971691758E+03 -0.43806692243E+03  0.63803362610E+03  0.79789054376E+02 0.  0.
         13    1    3    3    0    0 -0.78432862738E+02 -0.16397359463E+02  0.20358721412E+02  0.82674451266E+02  0.00000000000E+00 0. -1.
        -13    1    3    3    0    0 -0.26965887118E+03  0.72892990234E+01  0.23695266336E+03  0.35904819364E+03  0.00000000000E+00 0.  1.
          2    1    6    6  502    0  0.22363311164E+03  0.37247132986E+03 -0.38592673665E+03  0.58110765461E+03  0.00000000000E+00 0. -1.
          1    1    5    5  503    0  0.12032900006E+03 -0.31381910915E+03  0.27552939815E+02  0.33722494869E+03  0.00000000000E+00 0. -1.
         -2    1    5    5    0  503 -0.10855602539E+02 -0.66789747982E+02  0.13246972957E+02  0.68950684075E+02  0.00000000000E+00 0.  1.
         -1    1    6    6    0  502  0.14985224757E+02  0.17245587716E+02 -0.52140185775E+02  0.56925971483E+02  0.00000000000E+00 0.  1.
<mgrwt>
<rscale>  0 0.14793262E+04</rscale>
<asrwt>0</asrwt>
<pdfrwt beam="1">  1        1 0.12506827E+00 0.14793262E+04</pdfrwt>
<pdfrwt beam="2">  1       -1 0.10353664E+00 0.14793262E+04</pdfrwt>
<totfact> 0.18369201E+01</totfact>
</mgrwt>
</event>
<event>
12    1  0.2214165E-007  0.2139820E+04  0.7818608E-02  0.8543902E-01
          2   -1    0    0  501    0  0.00000000000E+00  0.00000000000E+00  0.13604128528E+04  0.13604128528E+04  0.00000000000E+00 0. -1.
         -2   -1    0    0    0  501 -0.00000000000E+00 -0.00000000000E+00 -0.84144155987E+03  0.84144155987E+03  0.00000000000E+00 0.  1.
         23    2    1    2    0    0 -0.69161716012E+03 -0.40901041878E+03  0.57743435686E+03  0.99372782701E+03  0.91873493721E+02 0.  0.
        254    2    1    2    0    0  0.69161716012E+03  0.40901041878E+03 -0.58463063927E+02  0.12081265857E+04  0.90029334012E+03 0.  0.
        -24    2    4    4    0    0 -0.20229755502E+03  0.16884023465E+03 -0.45537163905E+02  0.27887808491E+03  0.79170874340E+02 0.  0.
         24    2    4    4    0    0  0.89391471514E+03  0.24017018413E+03 -0.12925900022E+02  0.92924850074E+03  0.81058386059E+02 0.  0.
         11    1    3    3    0    0 -0.36770396405E+03 -0.19579053527E+03  0.24739401841E+03  0.48450380723E+03  0.00000000000E+00 0.  1.
        -11    1    3    3    0    0 -0.32391319607E+03 -0.21321988351E+03  0.33004033845E+03  0.50922401978E+03  0.00000000000E+00 0. -1.
          4    1    6    6  502    0  0.14364968953E+02  0.70172208184E+01 -0.10845059141E+02  0.19318618708E+02  0.00000000000E+00 0. -1.
          1    1    5    5  503    0 -0.72478003284E+02  0.41268149846E+02  0.19401240666E+02  0.85630189134E+02  0.00000000000E+00 0. -1.
         -2    1    5    5    0  503 -0.12981955173E+03  0.12757208480E+03 -0.64938404571E+02  0.19324789578E+03  0.00000000000E+00 0.  1.
         -3    1    6    6    0  502  0.87954974619E+03  0.23315296331E+03 -0.20808408815E+01  0.90992988203E+03  0.00000000000E+00 0.  1.
<mgrwt>
<rscale>  0 0.21398205E+04</rscale>
<asrwt>0</asrwt>
<pdfrwt beam="1">  1        2 0.20929428E+00 0.21398205E+04</pdfrwt>
<pdfrwt beam="2">  1       -2 0.12945255E+00 0.21398205E+04</pdfrwt>
<totfact> 0.61499019E+00</totfact>
</mgrwt>
</event>
<event>
12    1  0.2214165E-007  0.2256594E+04  0.7818608E-02  0.8495235E-01
         -1   -1    0    0    0  501 -0.00000000000E+00  0.00000000000E+00  0.10199496592E+04  0.10199496592E+04  0.00000000000E+00 0.  1.
          1   -1    0    0  501    0  0.00000000000E+00 -0.00000000000E+00 -0.12481535598E+04  0.12481535598E+04  0.00000000000E+00 0. -1.
         23    2    1    2    0    0 -0.24641310177E+03  0.89806711150E+03  0.71079280863E+02  0.93870119919E+03  0.94147351037E+02 0.  0.
        254    2    1    2    0    0  0.24641310177E+03 -0.89806711150E+03 -0.29928318154E+03  0.13294020198E+04  0.90027515467E+03 0.  0.
        -24    2    4    4    0    0  0.70460308328E+02  0.14619208506E+03 -0.19000809648E+03  0.26185120688E+03  0.78270026397E+02 0.  0.
         24    2    4    4    0    0  0.17595279345E+03 -0.10442591966E+04 -0.10927508505E+03  0.10675508130E+04  0.79290850118E+02 0.  0.
         13    1    3    3    0    0 -0.19415282045E+03  0.68153846993E+03  0.14148389395E+02  0.70879487907E+03  0.00000000000E+00 0.  1.
        -13    1    3    3    0    0 -0.52260281324E+02  0.21652864157E+03  0.56930891468E+02  0.22990632011E+03  0.00000000000E+00 0. -1.
          4    1    6    6  502    0  0.42793460362E+02 -0.49035595369E+03 -0.46069806104E+02  0.49437098276E+03  0.00000000000E+00 0. -1.
          3    1    5    5  503    0  0.84043491864E+02  0.14200365395E+03 -0.18144765537E+03  0.24525822697E+03  0.00000000000E+00 0. -1.
         -4    1    5    5    0  503 -0.13583183536E+02  0.41884311103E+01 -0.85604411164E+01  0.16592979909E+02  0.00000000000E+00 0.  1.
         -3    1    6    6    0  502  0.13315933308E+03 -0.55390324287E+03 -0.63205278950E+02  0.57317983019E+03  0.00000000000E+00 0.  1.
<mgrwt>
<rscale>  0 0.22565937E+04</rscale>
<asrwt>0</asrwt>
<pdfrwt beam="1">  1        1 0.19202362E+00 0.22565937E+04</pdfrwt>
<pdfrwt beam="2">  1       -1 0.15691533E+00 0.22565937E+04</pdfrwt>
<totfact> 0.27591143E+00</totfact>
</mgrwt>
</event>
<event>
12    1  0.2214165E-007  0.3814141E+04  0.7818608E-02  0.8043127E-01
          2   -1    0    0  501    0  0.00000000000E+00  0.00000000000E+00  0.28751096203E+04  0.28751096203E+04  0.00000000000E+00 0. -1.
         -2   -1    0    0    0  501 -0.00000000000E+00 -0.00000000000E+00 -0.12649667311E+04  0.12649667311E+04  0.00000000000E+00 0.  1.
         23    2    1    2    0    0 -0.90550220665E+03  0.14854446113E+04  0.12668274655E+04  0.21539418816E+04  0.90187927669E+02 0.  0.
        254    2    1    2    0    0  0.90550220665E+03 -0.14854446113E+04  0.34331542362E+03  0.19861344698E+04  0.89464222607E+03 0.  0.
        -24    2    4    4    0    0  0.10130856816E+04 -0.91028240401E+03  0.27631027970E+03  0.13918589237E+04  0.77247909784E+02 0.  0.
         24    2    4    4    0    0 -0.10758347496E+03 -0.57516220725E+03  0.67005143920E+02  0.59427554607E+03  0.79296699849E+02 0.  0.
         13    1    3    3    0    0 -0.63489705104E+03  0.97555238853E+03  0.81578048585E+03  0.14213706516E+04  0.00000000000E+00 0. -1.
        -13    1    3    3    0    0 -0.27060515561E+03  0.50989222274E+03  0.45104697970E+03  0.73257122995E+03  0.00000000000E+00 0.  1.
          2    1    6    6  502    0  0.72154279184E+01 -0.12515709356E+03  0.26163050802E+02  0.12806586468E+03  0.00000000000E+00 0. -1.
          3    1    5    5  503    0  0.17652519374E+03 -0.12168945142E+03  0.37481872318E+02  0.21765651234E+03  0.00000000000E+00 0. -1.
         -2    1    5    5    0  503  0.83656048787E+03 -0.78859295259E+03  0.23882840738E+03  0.11742024114E+04  0.00000000000E+00 0.  1.
         -1    1    6    6    0  502 -0.11479890288E+03 -0.45000511370E+03  0.40842093117E+02  0.46620968139E+03  0.00000000000E+00 0.  1.
<mgrwt>
<rscale>  0 0.38141411E+04</rscale>
<asrwt>0</asrwt>
<pdfrwt beam="1">  1        2 0.44232455E+00 0.38141411E+04</pdfrwt>
<pdfrwt beam="2">  1       -2 0.19461027E+00 0.38141411E+04</pdfrwt>
<totfact> 0.24053265E-01</totfact>
</mgrwt>
</event>
<event>
12    1  0.2214165E-007  0.1224760E+04  0.7818608E-02  0.9091456E-01
          1   -1    0    0  501    0  0.00000000000E+00  0.00000000000E+00  0.81652222390E+03  0.81652222390E+03  0.00000000000E+00 0. -1.
         -1   -1    0    0    0  501 -0.00000000000E+00 -0.00000000000E+00 -0.45927644520E+03  0.45927644520E+03  0.00000000000E+00 0.  1.
         23    2    1    2    0    0  0.18975493981E+03 -0.18451097658E+03  0.13227335796E+03  0.30954939933E+03  0.90957966884E+02 0.  0.
        254    2    1    2    0    0 -0.18975493981E+03  0.18451097658E+03  0.22497242073E+03  0.96624926977E+03  0.90165061059E+03 0.  0.
        -24    2    4    4    0    0 -0.15942632967E+03 -0.90261592368E+02 -0.30421256771E+03  0.36427513057E+03  0.81161411708E+02 0.  0.
         24    2    4    4    0    0 -0.30328610138E+02  0.27477256895E+03  0.52918498844E+03  0.60197413920E+03  0.76917637947E+02 0.  0.
         11    1    3    3    0    0  0.92930988882E+02 -0.92575556294E+02  0.15342290809E+02  0.13206736238E+03  0.00000000000E+00 0.  1.
        -11    1    3    3    0    0  0.96823950928E+02 -0.91935420286E+02  0.11693106715E+03  0.17748203696E+03  0.00000000000E+00 0. -1.
          4    1    6    6  502    0 -0.10877517501E+02  0.38261922709E+02  0.14542899200E+03  0.15077097476E+03  0.00000000000E+00 0. -1.
          3    1    5    5  503    0 -0.79048077245E+01  0.88095066422E+01 -0.54933316556E+02  0.56193973523E+02  0.00000000000E+00 0. -1.
         -4    1    5    5    0  503 -0.15152152195E+03 -0.99071099010E+02 -0.24927925115E+03  0.30808115705E+03  0.00000000000E+00 0.  1.
         -3    1    6    6    0  502 -0.19451092637E+02  0.23651064624E+03  0.38375599645E+03  0.45120316444E+03  0.00000000000E+00 0.  1.
<mgrwt>
<rscale>  0 0.12247603E+04</rscale>
<asrwt>0</asrwt>
<pdfrwt beam="1">  1        1 0.12561880E+00 0.12247603E+04</pdfrwt>
<pdfrwt beam="2">  1       -1 0.70657915E-01 0.12247603E+04</pdfrwt>
<totfact> 0.42784365E+01</totfact>
</mgrwt>
</event>
<event>
12    1  0.2214165E-007  0.1870830E+04  0.7818608E-02  0.8669514E-01
          2   -1    0    0  501    0  0.00000000000E+00  0.00000000000E+00  0.21224909538E+04  0.21224909538E+04  0.00000000000E+00 0. -1.
         -2   -1    0    0    0  501 -0.00000000000E+00 -0.00000000000E+00 -0.41225204292E+03  0.41225204292E+03  0.00000000000E+00 0.  1.
         23    2    1    2    0    0  0.56482653026E+03  0.13977164215E+03  0.12259688344E+04  0.13601346324E+04  0.91659773208E+02 0.  0.
        254    2    1    2    0    0 -0.56482653026E+03 -0.13977164215E+03  0.48427007655E+03  0.11746083644E+04  0.89812147367E+03 0.  0.
        -24    2    4    4    0    0 -0.50929036281E+02  0.25293130735E+03 -0.11025516557E+03  0.29229926709E+03  0.81942949838E+02 0.  0.
         24    2    4    4    0    0 -0.51389749398E+03 -0.39270294950E+03  0.59452524212E+03  0.88230909732E+03  0.81870866868E+02 0.  0.
         11    1    3    3    0    0  0.36396793238E+03  0.75833506420E+02  0.87534050758E+03  0.95102280767E+03  0.00000000000E+00 0. -1.
        -11    1    3    3    0    0  0.20085859788E+03  0.63938135726E+02  0.35062832679E+03  0.40911182468E+03  0.00000000000E+00 0.  1.
          4    1    6    6  502    0 -0.37406185833E+03 -0.30717811349E+03  0.48476278391E+03  0.68503695078E+03  0.00000000000E+00 0. -1.
          1    1    5    5  503    0 -0.67538627024E+02  0.17261548137E+03 -0.97049635530E+02  0.20922763275E+03  0.00000000000E+00 0. -1.
         -2    1    5    5    0  503  0.16609590743E+02  0.80315825979E+02 -0.13205530041E+02  0.83071634334E+02  0.00000000000E+00 0.  1.
         -3    1    6    6    0  502 -0.13983563565E+03 -0.85524836004E+02  0.10976245821E+03  0.19727214655E+03  0.00000000000E+00 0.  1.
<mgrwt>
<rscale>  0 0.18708300E+04</rscale>
<asrwt>0</asrwt>
<pdfrwt beam="1">  1        2 0.32653706E+00 0.18708300E+04</pdfrwt>
<pdfrwt beam="2">  1       -2 0.63423392E-01 0.18708300E+04</pdfrwt>
<totfact> 0.12332204E+01</totfact>
</mgrwt>
</event>
<event>
12    1  0.2214165E-007  0.2503262E+04  0.7818608E-02  0.8401824E-01
          1   -1    0    0  501    0  0.00000000000E+00  0.00000000000E+00  0.11990349957E+04  0.11990349957E+04  0.00000000000E+00 0.  1.
         -1   -1    0    0    0  501 -0.00000000000E+00 -0.00000000000E+00 -0.13065340932E+04  0.13065340932E+04  0.00000000000E+00 0. -1.
         23    2    1    2    0    0 -0.97734059153E+03  0.32502158895E+03 -0.39747759675E+03  0.11077196995E+04  0.90668779241E+02 0.  0.
        254    2    1    2    0    0  0.97734059153E+03 -0.32502158895E+03  0.28997849926E+03  0.13978493895E+04  0.89947858256E+03 0.  0.
        -24    2    4    4    0    0  0.81618809518E+03  0.43818363652E+02  0.47385182647E+03  0.94832685797E+03  0.81885410211E+02 0.  0.
         24    2    4    4    0    0  0.16115249636E+03 -0.36883995260E+03 -0.18387332721E+03  0.44952253150E+03  0.79044722476E+02 0.  0.
         11    1    3    3    0    0 -0.89589005218E+03  0.32318989789E+03 -0.36977811303E+03  0.10216685121E+04  0.00000000000E+00 0.  1.
        -11    1    3    3    0    0 -0.81450539358E+02  0.18316910611E+01 -0.27699483722E+02  0.86051187396E+02  0.00000000000E+00 0. -1.
          2    1    6    6  502    0  0.85333997482E+02 -0.26867550185E+03 -0.10305800141E+03  0.30014890983E+03  0.00000000000E+00 0. -1.
          3    1    5    5  503    0  0.47549776287E+03  0.22669949118E+02  0.22907156384E+03  0.52828574697E+03  0.00000000000E+00 0. -1.
         -4    1    5    5    0  503  0.34069033231E+03  0.21148414534E+02  0.24478026263E+03  0.42004111101E+03  0.00000000000E+00 0.  1.
         -1    1    6    6    0  502  0.75818498875E+02 -0.10016445076E+03 -0.80815325797E+02  0.14937362167E+03  0.00000000000E+00 0.  1.
<mgrwt>
<rscale>  0 0.25032620E+04</rscale>
<asrwt>0</asrwt>
<pdfrwt beam="1">  1        1 0.18446692E+00 0.25032620E+04</pdfrwt>
<pdfrwt beam="2">  1       -1 0.20100524E+00 0.25032620E+04</pdfrwt>
<totfact> 0.14080547E+00</totfact>
</mgrwt>
</event>
<event>
12    1  0.2214165E-007  0.3354500E+04  0.7818608E-02  0.8149165E-01
         -2   -1    0    0    0  501 -0.00000000000E+00  0.00000000000E+00  0.11285011664E+04  0.11285011664E+04  0.00000000000E+00 0.  1.
          2   -1    0    0  501    0  0.00000000000E+00 -0.00000000000E+00 -0.24928360548E+04  0.24928360548E+04  0.00000000000E+00 0. -1.
         23    2    1    2    0    0  0.10117178681E+04  0.17311489023E+03  0.62600092563E+03  0.12057757280E+04  0.92065940604E+02 0.  0.
        254    2    1    2    0    0 -0.10117178681E+04 -0.17311489023E+03 -0.19903358141E+04  0.24155614932E+04  0.90551580047E+03 0.  0.
        -24    2    4    4    0    0 -0.64168160550E+03 -0.26390502952E+03 -0.18880525515E+04  0.20129987362E+04  0.77590767562E+02 0.  0.
         24    2    4    4    0    0 -0.37003626263E+03  0.90790139291E+02 -0.10228326253E+03  0.40256275701E+03  0.80157485508E+02 0.  0.
         11    1    3    3    0    0  0.59678211114E+03  0.14182411422E+03  0.39925857292E+03  0.73189505778E+03  0.00000000000E+00 0.  1.
        -11    1    3    3    0    0  0.41493575698E+03  0.31290776006E+02  0.22674235271E+03  0.47388067021E+03  0.00000000000E+00 0. -1.
          2    1    6    6  502    0 -0.14896350374E+03  0.60757688385E+01 -0.13433647634E+02  0.14969136015E+03  0.00000000000E+00 0. -1.
          1    1    5    5  503    0 -0.41648665013E+03 -0.16146356604E+03 -0.13158805211E+04  0.13896305835E+04  0.00000000000E+00 0. -1.
         -2    1    5    5    0  503 -0.22519495536E+03 -0.10244146348E+03 -0.57217203048E+03  0.62336815272E+03  0.00000000000E+00 0.  1.
         -1    1    6    6    0  502 -0.22107275889E+03  0.84714370453E+02 -0.88849614894E+02  0.25287139686E+03  0.00000000000E+00 0.  1.
<mgrwt>
<rscale>  0 0.33545005E+04</rscale>
<asrwt>0</asrwt>
<pdfrwt beam="1">  1        2 0.38351324E+00 0.33545005E+04</pdfrwt>
<pdfrwt beam="2">  1       -2 0.17361556E+00 0.33545005E+04</pdfrwt>
<totfact> 0.58714088E-01</totfact>
</mgrwt>
</event>
<event>
12    1  0.2214165E-007  0.3165460E+04  0.7818608E-02  0.8197999E-01
         -1   -1    0    0    0  501 -0.00000000000E+00  0.00000000000E+00  0.13254459028E+04  0.13254459028E+04  0.00000000000E+00 0.  1.
          1   -1    0    0  501    0  0.00000000000E+00 -0.00000000000E+00 -0.18899563072E+04  0.18899563072E+04  0.00000000000E+00 0. -1.
         23    2    1    2    0    0  0.10993834147E+04  0.56858867876E+03  0.51435966204E+03  0.13434440246E+04  0.91318163649E+02 0.  0.
        254    2    1    2    0    0 -0.10993834147E+04 -0.56858867876E+03 -0.10788700665E+04  0.18719581854E+04  0.89907165973E+03 0.  0.
        -24    2    4    4    0    0 -0.69930460362E+03 -0.16739654681E+03 -0.89557311436E+02  0.72901841272E+03  0.79992509133E+02 0.  0.
         24    2    4    4    0    0 -0.40007881112E+03 -0.40119213195E+03 -0.98931275505E+03  0.11429397727E+04  0.80953164513E+02 0.  0.
         13    1    3    3    0    0  0.77638015292E+03  0.39054908182E+03  0.40455863391E+03  0.95862527373E+03  0.00000000000E+00 0.  1.
        -13    1    3    3    0    0  0.32300326182E+03  0.17803959694E+03  0.10980102813E+03  0.38481875085E+03  0.00000000000E+00 0. -1.
          2    1    6    6  502    0 -0.72601805645E+02 -0.61579215422E+02 -0.23097449386E+03  0.24982441588E+03  0.00000000000E+00 0. -1.
          1    1    5    5  503    0 -0.33847942069E+02  0.90059647136E+01 -0.57754127109E+01  0.35498534824E+02  0.00000000000E+00 0. -1.
         -2    1    5    5    0  503 -0.66545666155E+03 -0.17640251152E+03 -0.83781898725E+02  0.69351987789E+03  0.00000000000E+00 0.  1.
         -1    1    6    6    0  502 -0.32747700548E+03 -0.33961291653E+03 -0.75833826119E+03  0.89311535681E+03  0.00000000000E+00 0.  1.
<mgrwt>
<rscale>  0 0.31654604E+04</rscale>
<asrwt>0</asrwt>
<pdfrwt beam="1">  1        1 0.29076251E+00 0.31654604E+04</pdfrwt>
<pdfrwt beam="2">  1       -1 0.20391475E+00 0.31654604E+04</pdfrwt>
<totfact> 0.42011999E-01</totfact>
</mgrwt>
</event>
<event>
12    1  0.2214165E-007  0.1419776E+04  0.7818608E-02  0.8939626E-01
         -1   -1    0    0    0  501 -0.00000000000E+00  0.00000000000E+00  0.30420139613E+03  0.30420139613E+03  0.00000000000E+00 0.  1.
          1   -1    0    0  501    0  0.00000000000E+00 -0.00000000000E+00 -0.16566041601E+04  0.16566041601E+04  0.00000000000E+00 0. -1.
         23    2    1    2    0    0 -0.25476099617E+03 -0.32838505521E+03 -0.41300057534E+03  0.59318548179E+03  0.92518273482E+02 0.  0.
        254    2    1    2    0    0  0.25476099617E+03  0.32838505521E+03 -0.93940218859E+03  0.13676200744E+04  0.90286670461E+03 0.  0.
        -24    2    4    4    0    0 -0.77094406373E+02 -0.47914279218E+02  0.13353788484E+03  0.18048251869E+03  0.80636512929E+02 0.  0.
         24    2    4    4    0    0  0.33185540254E+03  0.37629933443E+03 -0.10729400734E+04  0.11871375557E+04  0.79787077203E+02 0.  0.
         13    1    3    3    0    0 -0.70579491289E+02 -0.10335093936E+03 -0.69610904462E+02  0.14320809781E+03  0.00000000000E+00 0.  1.
        -13    1    3    3    0    0 -0.18418150488E+03 -0.22503411585E+03 -0.34338967087E+03  0.44997738398E+03  0.00000000000E+00 0. -1.
          2    1    6    6  502    0  0.11486446925E+03  0.17222535869E+03 -0.37631219353E+03  0.42949538702E+03  0.00000000000E+00 0. -1.
          3    1    5    5  503    0 -0.77192549098E+01 -0.50443192390E+02  0.67949318921E+02  0.84977717648E+02  0.00000000000E+00 0. -1.
         -4    1    5    5    0  503 -0.69375151463E+02  0.25289131718E+01  0.65588565921E+02  0.95504801042E+02  0.00000000000E+00 0.  1.
         -1    1    6    6    0  502  0.21699093329E+03  0.20407397574E+03 -0.69662787990E+03  0.75764216868E+03  0.00000000000E+00 0.  1.
<mgrwt>
<rscale>  0 0.14197765E+04</rscale>
<asrwt>0</asrwt>
<pdfrwt beam="1">  1        1 0.25486218E+00 0.14197765E+04</pdfrwt>
<pdfrwt beam="2">  1       -1 0.46800214E-01 0.14197765E+04</pdfrwt>
<totfact> 0.22604862E+01</totfact>
</mgrwt>
</event>
<event>
12    1  0.2214165E-007  0.2788222E+04  0.7818608E-02  0.8306934E-01
         -3   -1    0    0    0  501 -0.00000000000E+00  0.00000000000E+00  0.13287260877E+04  0.13287260877E+04  0.00000000000E+00 0.  1.
          3   -1    0    0  501    0  0.00000000000E+00 -0.00000000000E+00 -0.14627135151E+04  0.14627135151E+04  0.00000000000E+00 0. -1.
         23    2    1    2    0    0  0.11045314407E+04 -0.48621707483E+03  0.25466771929E+03  0.12367198726E+04  0.90684335363E+02 0.  0.
        254    2    1    2    0    0 -0.11045314407E+04  0.48621707483E+03 -0.38865514669E+03  0.15547197303E+04  0.89983546788E+03 0.  0.
        -24    2    4    4    0    0 -0.59263495364E+03 -0.18499784472E+03 -0.32189498367E+03  0.70378966531E+03  0.79139886590E+02 0.  0.
         24    2    4    4    0    0 -0.51189648708E+03  0.67121491955E+03 -0.66760163020E+02  0.85093006496E+03  0.84009370815E+02 0.  0.
         13    1    3    3    0    0  0.12886614847E+03 -0.26787311956E+02  0.34186641655E+02  0.13598812732E+03  0.00000000000E+00 0.  1.
        -13    1    3    3    0    0  0.97566529225E+03 -0.45942976287E+03  0.22048107763E+03  0.11007317453E+04  0.00000000000E+00 0. -1.
          4    1    6    6  502    0 -0.50691599425E+02  0.56863309394E+02 -0.29919650846E+02  0.81842896541E+02  0.00000000000E+00 0. -1.
          1    1    5    5  503    0 -0.25920370550E+03 -0.11037798780E+03 -0.11458543771E+03  0.30413760647E+03  0.00000000000E+00 0. -1.
         -2    1    5    5    0  503 -0.33343124814E+03 -0.74619856926E+02 -0.20730954596E+03  0.39965205883E+03  0.00000000000E+00 0.  1.
         -3    1    6    6    0  502 -0.46120488766E+03  0.61435161015E+03 -0.36840512174E+02  0.76908716842E+03  0.00000000000E+00 0.  1.
<mgrwt>
<rscale>  0 0.27882221E+04</rscale>
<asrwt>0</asrwt>
<pdfrwt beam="1">  1        3 0.22503285E+00 0.27882221E+04</pdfrwt>
<pdfrwt beam="2">  1       -3 0.20441940E+00 0.27882221E+04</pdfrwt>
<totfact> 0.32151300E-02</totfact>
</mgrwt>
</event>
<event>
12    1  0.2214165E-007  0.2094918E+04  0.7818608E-02  0.8563485E-01
          2   -1    0    0  501    0  0.00000000000E+00  0.00000000000E+00  0.16194962661E+04  0.16194962661E+04  0.00000000000E+00 0.  1.
         -2   -1    0    0    0  501 -0.00000000000E+00 -0.00000000000E+00 -0.67747611947E+03  0.67747611947E+03  0.00000000000E+00 0. -1.
         23    2    1    2    0    0 -0.55871363294E+00 -0.23572662697E+03 -0.51173195209E+03  0.57069654356E+03  0.90871333346E+02 0.  0.
        254    2    1    2    0    0  0.55871363294E+00  0.23572662697E+03  0.14537520987E+04  0.17262758420E+04  0.90059189610E+03 0.  0.
        -24    2    4    4    0    0  0.41643791181E+03  0.21221670162E+03  0.99128773440E+03  0.10988597132E+04  0.79905157314E+02 0.  0.
         24    2    4    4    0    0 -0.41587919817E+03  0.23509925355E+02  0.46246436429E+03  0.62741612874E+03  0.79180087790E+02 0.  0.
         11    1    3    3    0    0 -0.73459813694E+01 -0.56737618053E+01  0.33179048591E+00  0.92879007439E+01  0.00000000000E+00 0.  1.
        -11    1    3    3    0    0  0.67872677365E+01 -0.23005286517E+03 -0.51206374257E+03  0.56140864282E+03  0.00000000000E+00 0. -1.
          2    1    6    6  502    0 -0.28451123150E+03  0.33619497586E+02  0.36243038912E+03  0.46198776870E+03  0.00000000000E+00 0. -1.
          1    1    5    5  503    0  0.35424645601E+03  0.19003842911E+03  0.90449623680E+03  0.98980735425E+03  0.00000000000E+00 0. -1.
         -2    1    5    5    0  503  0.62191455797E+02  0.22178272514E+02  0.86791497600E+02  0.10905235899E+03  0.00000000000E+00 0.  1.
         -1    1    6    6    0  502 -0.13136796667E+03 -0.10109572231E+02  0.10003397517E+03  0.16542836004E+03  0.00000000000E+00 0.  1.
<mgrwt>
<rscale>  0 0.20949177E+04</rscale>
<asrwt>0</asrwt>
<pdfrwt beam="1">  1        2 0.24915327E+00 0.20949177E+04</pdfrwt>
<pdfrwt beam="2">  1       -2 0.10422710E+00 0.20949177E+04</pdfrwt>
<totfact> 0.75026868E+00</totfact>
</mgrwt>
</event>
<event>
12    1  0.2214165E-007  0.2369192E+04  0.7818608E-02  0.8451128E-01
          2   -1    0    0  501    0  0.00000000000E+00  0.00000000000E+00  0.15112475963E+04  0.15112475963E+04  0.00000000000E+00 0. -1.
         -2   -1    0    0    0  501 -0.00000000000E+00 -0.00000000000E+00 -0.92854951612E+03  0.92854951612E+03  0.00000000000E+00 0.  1.
         23    2    1    2    0    0  0.16277965913E+02 -0.45606177030E+03 -0.67931295804E+03  0.82346117656E+03  0.91459848172E+02 0.  0.
        254    2    1    2    0    0 -0.16277965913E+02  0.45606177030E+03  0.12620110382E+04  0.16163359359E+04  0.90089549143E+03 0.  0.
        -24    2    4    4    0    0  0.38621651175E+03  0.10242316346E+03  0.82768387234E+03  0.92256706386E+03  0.80098042639E+02 0.  0.
         24    2    4    4    0    0 -0.40249447766E+03  0.35363860685E+03  0.43432716589E+03  0.69376887201E+03  0.74920570873E+02 0.  0.
         11    1    3    3    0    0 -0.39680652806E+01 -0.26619943224E+03 -0.46983016911E+03  0.54001691740E+03  0.00000000000E+00 0.  1.
        -11    1    3    3    0    0  0.20246031194E+02 -0.18986233806E+03 -0.20948278893E+03  0.28344425916E+03  0.00000000000E+00 0. -1.
          4    1    6    6  502    0 -0.35348361717E+02  0.94011427313E+01  0.41557784473E+02  0.55361878680E+02  0.00000000000E+00 0. -1.
          1    1    5    5  503    0  0.59520668506E+02 -0.10679570850E+02  0.15164927189E+03  0.16326133920E+03  0.00000000000E+00 0. -1.
         -2    1    5    5    0  503  0.32669584324E+03  0.11310273431E+03  0.67603460045E+03  0.75930572466E+03  0.00000000000E+00 0.  1.
         -3    1    6    6    0  502 -0.36714611595E+03  0.34423746411E+03  0.39276938141E+03  0.63840699333E+03  0.00000000000E+00 0.  1.
<mgrwt>
<rscale>  0 0.23691925E+04</rscale>
<asrwt>0</asrwt>
<pdfrwt beam="1">  1        2 0.23249963E+00 0.23691925E+04</pdfrwt>
<pdfrwt beam="2">  1       -2 0.14285377E+00 0.23691925E+04</pdfrwt>
<totfact> 0.38433292E+00</totfact>
</mgrwt>
</event>
<event>
12    1  0.2214165E-007  0.1901956E+04  0.7818608E-02  0.8653883E-01
         -2   -1    0    0    0  501 -0.00000000000E+00  0.00000000000E+00  0.10926618306E+04  0.10926618306E+04  0.00000000000E+00 0.  1.
          2   -1    0    0  501    0  0.00000000000E+00 -0.00000000000E+00 -0.82766611526E+03  0.82766611526E+03  0.00000000000E+00 0. -1.
         23    2    1    2    0    0 -0.60267387448E+03 -0.35798728304E+03 -0.11834130218E+03  0.71676771397E+03  0.91545607125E+02 0.  0.
        254    2    1    2    0    0  0.60267387448E+03  0.35798728304E+03  0.38333701751E+03  0.12035602319E+04  0.90013291741E+03 0.  0.
        -24    2    4    4    0    0 -0.60375687882E+02 -0.15348623731E+03 -0.12382798807E+03  0.22119953755E+03  0.79953836992E+02 0.  0.
         24    2    4    4    0    0  0.66304956236E+03  0.51147352036E+03  0.50716500558E+03  0.98236069434E+03  0.81094430945E+02 0.  0.
         13    1    3    3    0    0 -0.31876937352E+03 -0.15664463019E+03 -0.96382149744E+02  0.36802305967E+03  0.00000000000E+00 0.  1.
        -13    1    3    3    0    0 -0.28390450096E+03 -0.20134265285E+03 -0.21959152432E+02  0.34874465429E+03  0.00000000000E+00 0. -1.
          2    1    6    6  502    0  0.21104763466E+03  0.15460262747E+03  0.11602425109E+03  0.28618997773E+03  0.00000000000E+00 0. -1.
          1    1    5    5  503    0 -0.57749883557E+02 -0.76524273810E+02 -0.31367442740E+02  0.10087085802E+03  0.00000000000E+00 0. -1.
         -2    1    5    5    0  503 -0.26258043249E+01 -0.76961963503E+02 -0.92460545333E+02  0.12032867953E+03  0.00000000000E+00 0.  1.
         -1    1    6    6    0  502  0.45200192770E+03  0.35687089289E+03  0.39114075449E+03  0.69617071661E+03  0.00000000000E+00 0.  1.
<mgrwt>
<rscale>  0 0.19019560E+04</rscale>
<asrwt>0</asrwt>
<pdfrwt beam="1">  1        2 0.12733325E+00 0.19019560E+04</pdfrwt>
<pdfrwt beam="2">  1       -2 0.16810182E+00 0.19019560E+04</pdfrwt>
<totfact> 0.67734270E+00</totfact>
</mgrwt>
</event>
<event>
12    1  0.2214165E-007  0.4535206E+04  0.7818608E-02  0.7904502E-01
          2   -1    0    0  501    0  0.00000000000E+00  0.00000000000E+00  0.31131619513E+04  0.31131619513E+04  0.00000000000E+00 0. -1.
         -2   -1    0    0    0  501 -0.00000000000E+00 -0.00000000000E+00 -0.16517043107E+04  0.16517043107E+04  0.00000000000E+00 0.  1.
         23    2    1    2    0    0 -0.12566590764E+03  0.12756943498E+04 -0.11463630611E+04  0.17225877361E+04  0.99861134616E+02 0.  0.
        254    2    1    2    0    0  0.12566590764E+03 -0.12756943498E+04  0.26078207017E+04  0.30422785259E+04  0.90085616077E+03 0.  0.
        -24    2    4    4    0    0  0.11752132641E+03 -0.13707830122E+04  0.20474927390E+04  0.24680795484E+04  0.79578969436E+02 0.  0.
         24    2    4    4    0    0  0.81445812295E+01  0.95088662357E+02  0.56032796267E+03  0.57419897746E+03  0.81417762555E+02 0.  0.
         13    1    3    3    0    0 -0.68968544448E+02  0.75943856984E+03 -0.61605434218E+03  0.98031961829E+03  0.00000000000E+00 0. -1.
        -13    1    3    3    0    0 -0.56697363189E+02  0.51625577996E+03 -0.53030871893E+03  0.74226811781E+03  0.00000000000E+00 0.  1.
          2    1    6    6  502    0 -0.84453261821E+01  0.48561524170E+02  0.10273343817E+03  0.11394605953E+03  0.00000000000E+00 0. -1.
          1    1    5    5  503    0 -0.29190295221E+01 -0.37607688030E+03  0.54929347792E+03  0.66570689159E+03  0.00000000000E+00 0. -1.
         -2    1    5    5    0  503  0.12044035593E+03 -0.99470613186E+03  0.14981992611E+04  0.18023726568E+04  0.00000000000E+00 0.  1.
         -1    1    6    6    0  502  0.16589907412E+02  0.46527138187E+02  0.45759452450E+03  0.46025291793E+03  0.00000000000E+00 0.  1.
<mgrwt>
<rscale>  0 0.45352058E+04</rscale>
<asrwt>0</asrwt>
<pdfrwt beam="1">  1        2 0.47894799E+00 0.45352058E+04</pdfrwt>
<pdfrwt beam="2">  1       -2 0.25410836E+00 0.45352058E+04</pdfrwt>
<totfact> 0.67560415E-02</totfact>
</mgrwt>
</event>
<event>
12    1  0.2214165E-007  0.2168898E+04  0.7818608E-02  0.8531486E-01
         -1   -1    0    0    0  501 -0.00000000000E+00  0.00000000000E+00  0.52655249621E+03  0.52655249621E+03  0.00000000000E+00 0.  1.
          1   -1    0    0  501    0  0.00000000000E+00 -0.00000000000E+00 -0.22334517119E+04  0.22334517119E+04  0.00000000000E+00 0. -1.
         23    2    1    2    0    0 -0.79599992011E+03  0.33266580444E+03 -0.10007822311E+04  0.13242829342E+04  0.88757002466E+02 0.  0.
        254    2    1    2    0    0  0.79599992011E+03 -0.33266580444E+03 -0.70611698453E+03  0.14357212738E+04  0.90466124603E+03 0.  0.
        -24    2    4    4    0    0  0.18172653613E+03 -0.66210534523E+02 -0.73130095011E+03  0.76081759210E+03  0.81449125225E+02 0.  0.
         24    2    4    4    0    0  0.61427338398E+03 -0.26645526992E+03  0.25183965581E+02  0.67490368175E+03  0.80811796011E+02 0.  0.
         11    1    3    3    0    0 -0.56864535971E+03  0.20960661795E+03 -0.74813749220E+03  0.96280952771E+03  0.00000000000E+00 0. -1.
        -11    1    3    3    0    0 -0.22735456040E+03  0.12305918648E+03 -0.25264473893E+03  0.36147340652E+03  0.00000000000E+00 0.  1.
          2    1    6    6  502    0  0.58605585210E+03 -0.26622987288E+03  0.12116281182E+02  0.64380634609E+03  0.00000000000E+00 0. -1.
          1    1    5    5  503    0  0.14069397304E+03 -0.73715956813E+02 -0.65365207005E+03  0.67267366904E+03  0.00000000000E+00 0. -1.
         -2    1    5    5    0  503  0.41032563094E+02  0.75054222904E+01 -0.77648880057E+02  0.88143923057E+02  0.00000000000E+00 0.  1.
         -1    1    6    6    0  502  0.28217531881E+02 -0.22539703722E+00  0.13067684399E+02  0.31097335655E+02  0.00000000000E+00 0.  1.
<mgrwt>
<rscale>  0 0.21688979E+04</rscale>
<asrwt>0</asrwt>
<pdfrwt beam="1">  1        1 0.34360796E+00 0.21688979E+04</pdfrwt>
<pdfrwt beam="2">  1       -1 0.81008076E-01 0.21688979E+04</pdfrwt>
<totfact> 0.28693934E+00</totfact>
</mgrwt>
</event>
<event>
12    1  0.2214165E-007  0.1511661E+04  0.7818608E-02  0.8876735E-01
         -2   -1    0    0    0  501 -0.00000000000E+00  0.00000000000E+00  0.34849302402E+03  0.34849302402E+03  0.00000000000E+00 0. -1.
          2   -1    0    0  501    0  0.00000000000E+00 -0.00000000000E+00 -0.16392866341E+04  0.16392866341E+04  0.00000000000E+00 0.  1.
         23    2    1    2    0    0  0.26153985153E+00 -0.34338215214E+03  0.27482945719E+02  0.35597886208E+03  0.89745568899E+02 0.  0.
        254    2    1    2    0    0 -0.26153985153E+00  0.34338215214E+03 -0.13182765558E+04  0.16318007960E+04  0.89833701334E+03 0.  0.
        -24    2    4    4    0    0 -0.61425912509E+02  0.19670913407E+02  0.11784835903E+03  0.15613583015E+03  0.79561763241E+02 0.  0.
         24    2    4    4    0    0  0.61164372657E+02  0.32371123873E+03 -0.14361249148E+04  0.14756649659E+04  0.81254378214E+02 0.  0.
         13    1    3    3    0    0 -0.41407999660E+02 -0.22293534003E+03  0.28434526115E+02  0.22852420122E+03  0.00000000000E+00 0.  1.
        -13    1    3    3    0    0  0.41669539512E+02 -0.12044681211E+03 -0.95158039640E+00  0.12745466086E+03  0.00000000000E+00 0. -1.
          4    1    6    6  502    0  0.34968394373E+02  0.23938484010E+03 -0.88324983501E+03  0.91578281340E+03  0.00000000000E+00 0. -1.
          1    1    5    5  503    0 -0.37269185113E+02 -0.29547123631E+02  0.56754189348E+02  0.74047705450E+02  0.00000000000E+00 0. -1.
         -2    1    5    5    0  503 -0.24156727396E+02  0.49218037037E+02  0.61094169679E+02  0.82088124702E+02  0.00000000000E+00 0.  1.
         -3    1    6    6    0  502  0.26195978284E+02  0.84326398632E+02 -0.55287507979E+03  0.55988215246E+03  0.00000000000E+00 0.  1.
<mgrwt>
<rscale>  0 0.15116613E+04</rscale>
<asrwt>0</asrwt>
<pdfrwt beam="1">  1        2 0.25219795E+00 0.15116613E+04</pdfrwt>
<pdfrwt beam="2">  1       -2 0.53614310E-01 0.15116613E+04</pdfrwt>
<totfact> 0.33544953E+01</totfact>
</mgrwt>
</event>
<event>
12    1  0.2214165E-007  0.1163788E+04  0.7818608E-02  0.9145157E-01
         -2   -1    0    0    0  501 -0.00000000000E+00  0.00000000000E+00  0.41278804605E+03  0.41278804605E+03  0.00000000000E+00 0.  1.
          2   -1    0    0  501    0  0.00000000000E+00 -0.00000000000E+00 -0.82027665056E+03  0.82027665056E+03  0.00000000000E+00 0. -1.
         23    2    1    2    0    0 -0.19636723638E+03 -0.89534834860E+02 -0.28531250019E+02  0.23435192871E+03  0.86776817677E+02 0.  0.
        254    2    1    2    0    0  0.19636723638E+03  0.89534834860E+02 -0.37895735449E+03  0.99871276790E+03  0.89846643681E+03 0.  0.
        -24    2    4    4    0    0  0.39390607842E+03  0.98514140693E+02  0.13954883119E+03  0.43662403659E+03  0.79370262093E+02 0.  0.
         24    2    4    4    0    0 -0.19753884204E+03 -0.89793058335E+01 -0.51850618568E+03  0.56208873131E+03  0.89402769720E+02 0.  0.
         11    1    3    3    0    0 -0.87243504189E+02 -0.32680275429E+02 -0.55420920168E+02  0.10840160431E+03  0.00000000000E+00 0. -1.
        -11    1    3    3    0    0 -0.10912373219E+03 -0.56854559430E+02  0.26889670149E+02  0.12595032440E+03  0.00000000000E+00 0.  1.
          2    1    6    6  502    0 -0.89975959548E+02 -0.48610986572E+02 -0.25360134086E+03  0.27344531702E+03  0.00000000000E+00 0. -1.
          1    1    5    5  503    0  0.32802102353E+03  0.95027700148E+02  0.87370682709E+02  0.35250771888E+03  0.00000000000E+00 0. -1.
         -2    1    5    5    0  503  0.65885054892E+02  0.34864405455E+01  0.52178148479E+02  0.84116317706E+02  0.00000000000E+00 0.  1.
         -1    1    6    6    0  502 -0.10756288249E+03  0.39631680738E+02 -0.26490484481E+03  0.28864341429E+03  0.00000000000E+00 0.  1.
<mgrwt>
<rscale>  0 0.11637876E+04</rscale>
<asrwt>0</asrwt>
<pdfrwt beam="1">  1        2 0.12619641E+00 0.11637876E+04</pdfrwt>
<pdfrwt beam="2">  1       -2 0.63505854E-01 0.11637876E+04</pdfrwt>
<totfact> 0.75632439E+01</totfact>
</mgrwt>
</event>
<event>
12    1  0.2214165E-007  0.2420599E+04  0.7818608E-02  0.8431832E-01
         -2   -1    0    0    0  501 -0.00000000000E+00  0.00000000000E+00  0.16702953464E+04  0.16702953464E+04  0.00000000000E+00 0.  1.
          2   -1    0    0  501    0  0.00000000000E+00 -0.00000000000E+00 -0.87698565189E+03  0.87698565189E+03  0.00000000000E+00 0. -1.
         23    2    1    2    0    0  0.43533870996E+02  0.36705951567E+03  0.13663348456E+04  0.14183239076E+04  0.90243618042E+02 0.  0.
        254    2    1    2    0    0 -0.43533870996E+02 -0.36705951567E+03 -0.57302515114E+03  0.11289570906E+04  0.89975463473E+03 0.  0.
        -24    2    4    4    0    0 -0.44539888461E+03 -0.90267591662E+02 -0.17093713310E+03  0.49211214908E+03  0.80165199953E+02 0.  0.
         24    2    4    4    0    0  0.40186501362E+03 -0.27679192401E+03 -0.40208801804E+03  0.63684494157E+03  0.76075271793E+02 0.  0.
         13    1    3    3    0    0  0.11776369157E+02  0.22195050617E+03  0.96811670803E+03  0.99330290971E+03  0.00000000000E+00 0.  1.
        -13    1    3    3    0    0  0.31757501840E+02  0.14510900950E+03  0.39821813757E+03  0.42502099789E+03  0.00000000000E+00 0. -1.
          2    1    6    6  502    0  0.35180411685E+02 -0.54582554480E+01 -0.15189966513E+02  0.38706446511E+02  0.00000000000E+00 0. -1.
          1    1    5    5  503    0 -0.79043693081E+02 -0.48392967444E+02 -0.37208579275E+02  0.99871232523E+02  0.00000000000E+00 0. -1.
         -2    1    5    5    0  503 -0.36635519153E+03 -0.41874624218E+02 -0.13372855382E+03  0.39224091656E+03  0.00000000000E+00 0.  1.
         -1    1    6    6    0  502  0.36668460193E+03 -0.27133366856E+03 -0.38689805153E+03  0.59813849505E+03  0.00000000000E+00 0.  1.
<mgrwt>
<rscale>  0 0.24205991E+04</rscale>
<asrwt>0</asrwt>
<pdfrwt beam="1">  1        2 0.13492087E+00 0.24205991E+04</pdfrwt>
<pdfrwt beam="2">  1       -2 0.25696851E+00 0.24205991E+04</pdfrwt>
<totfact> 0.15890142E+00</totfact>
</mgrwt>
</event>
<event>
12    1  0.2214165E-007  0.1675829E+04  0.7818608E-02  0.8775272E-01
         -1   -1    0    0    0  501 -0.00000000000E+00  0.00000000000E+00  0.36274792850E+03  0.36274792850E+03  0.00000000000E+00 0.  1.
          1   -1    0    0  501    0  0.00000000000E+00 -0.00000000000E+00 -0.19355046398E+04  0.19355046398E+04  0.00000000000E+00 0. -1.
         23    2    1    2    0    0  0.51206565358E+03 -0.28434670725E+03 -0.49717435425E+03  0.77328601553E+03  0.87889929910E+02 0.  0.
        254    2    1    2    0    0 -0.51206565358E+03  0.28434670725E+03 -0.10755823570E+04  0.15249665528E+04  0.90861504322E+03 0.  0.
        -24    2    4    4    0    0 -0.75262189064E+03  0.31491593560E+03 -0.88658393179E+03  0.12073106927E+04  0.77176964343E+02 0.  0.
         24    2    4    4    0    0  0.24055623706E+03 -0.30569228344E+02 -0.18899842525E+03  0.31765586007E+03  0.79894053461E+02 0.  0.
         11    1    3    3    0    0  0.37880563520E+03 -0.22627671978E+03 -0.41781525604E+03  0.60767133498E+03  0.00000000000E+00 0. -1.
        -11    1    3    3    0    0  0.13326001838E+03 -0.58069987475E+02 -0.79359098210E+02  0.16561468055E+03  0.00000000000E+00 0.  1.
          2    1    6    6  502    0  0.16371699888E+03 -0.59287036802E+01 -0.16717418531E+03  0.23406326812E+03  0.00000000000E+00 0. -1.
          3    1    5    5  503    0 -0.47930808122E+03  0.19911019057E+03 -0.50825979428E+03  0.72643590440E+03  0.00000000000E+00 0. -1.
         -4    1    5    5    0  503 -0.27331380942E+03  0.11580574503E+03 -0.37832413751E+03  0.48087478830E+03  0.00000000000E+00 0.  1.
         -1    1    6    6    0  502  0.76839238175E+02 -0.24640524664E+02 -0.21824239945E+02  0.83592591946E+02  0.00000000000E+00 0.  1.
<mgrwt>
<rscale>  0 0.16758285E+04</rscale>
<asrwt>0</asrwt>
<pdfrwt beam="1">  1        1 0.29776994E+00 0.16758285E+04</pdfrwt>
<pdfrwt beam="2">  1       -1 0.55807375E-01 0.16758285E+04</pdfrwt>
<totfact> 0.10209082E+01</totfact>
</mgrwt>
</event>
<event>
12    1  0.2214165E-007  0.1494088E+04  0.7818608E-02  0.8888394E-01
         -2   -1    0    0    0  501 -0.00000000000E+00  0.00000000000E+00  0.51259698006E+03  0.51259698006E+03  0.00000000000E+00 0. -1.
          2   -1    0    0  501    0  0.00000000000E+00 -0.00000000000E+00 -0.10887196858E+04  0.10887196858E+04  0.00000000000E+00 0.  1.
         23    2    1    2    0    0 -0.42982977869E+03  0.19015996342E+03 -0.16730785090E+03  0.50705788639E+03  0.90561210470E+02 0.  0.
        254    2    1    2    0    0  0.42982977869E+03 -0.19015996342E+03 -0.40881485486E+03  0.10942587795E+04  0.89964339636E+03 0.  0.
        -24    2    4    4    0    0  0.64868015175E+03 -0.20480527788E+03 -0.49549446440E+03  0.84529860480E+03  0.79270586590E+02 0.  0.
         24    2    4    4    0    0 -0.21885037307E+03  0.14645314457E+02  0.86679609544E+02  0.24896017470E+03  0.79736082469E+02 0.  0.
         11    1    3    3    0    0 -0.18710320855E+03  0.10317882387E+03 -0.32569987985E+02  0.21613487562E+03  0.00000000000E+00 0. -1.
        -11    1    3    3    0    0 -0.24272657014E+03  0.86981139551E+02 -0.13473786291E+03  0.29092301077E+03  0.00000000000E+00 0.  1.
          4    1    6    6  502    0 -0.71940298900E+02 -0.31312930063E+02  0.18530380705E+02  0.80618119577E+02  0.00000000000E+00 0. -1.
          1    1    5    5  503    0  0.46319669952E+03 -0.12852853470E+03 -0.30910141697E+03  0.57150192708E+03  0.00000000000E+00 0. -1.
         -2    1    5    5    0  503  0.18548345223E+03 -0.76276743171E+02 -0.18639304743E+03  0.27379667772E+03  0.00000000000E+00 0.  1.
         -1    1    6    6    0  502 -0.14691007417E+03  0.45958244519E+02  0.68149228839E+02  0.16834205512E+03  0.00000000000E+00 0.  1.
<mgrwt>
<rscale>  0 0.14940876E+04</rscale>
<asrwt>0</asrwt>
<pdfrwt beam="1">  1        2 0.16749534E+00 0.14940876E+04</pdfrwt>
<pdfrwt beam="2">  1       -2 0.78861074E-01 0.14940876E+04</pdfrwt>
<totfact> 0.30556589E+01</totfact>
</mgrwt>
</event>
<event>
12    1  0.2214165E-007  0.1840038E+04  0.7818608E-02  0.8685293E-01
         -2   -1    0    0    0  501 -0.00000000000E+00  0.00000000000E+00  0.28154478249E+03  0.28154478249E+03  0.00000000000E+00 0.  1.
          2   -1    0    0  501    0  0.00000000000E+00 -0.00000000000E+00 -0.30063954934E+04  0.30063954934E+04  0.00000000000E+00 0. -1.
         23    2    1    2    0    0  0.25176497969E+03  0.50321327823E+03 -0.17737930193E+04  0.18631227834E+04  0.90970448423E+02 0.  0.
        254    2    1    2    0    0 -0.25176497969E+03 -0.50321327823E+03 -0.95105769157E+03  0.14248174924E+04  0.89943590411E+03 0.  0.
        -24    2    4    4    0    0  0.12034473881E+03 -0.44098867618E+03 -0.92906005413E+03  0.10386852077E+04  0.82222307462E+02 0.  0.
         24    2    4    4    0    0 -0.37210971850E+03 -0.62224602042E+02 -0.21997637440E+02  0.38613228470E+03  0.79225636852E+02 0.  0.
         13    1    3    3    0    0  0.17937625442E+03  0.30121518860E+03 -0.12142376091E+04  0.12638351957E+04  0.00000000000E+00 0. -1.
        -13    1    3    3    0    0  0.72388725275E+02  0.20199808963E+03 -0.55955541017E+03  0.59928758774E+03  0.00000000000E+00 0.  1.
          4    1    6    6  502    0 -0.13139291269E+03  0.75954845756E+01  0.16180665594E+02  0.13260317806E+03  0.00000000000E+00 0. -1.
          3    1    5    5  503    0  0.49351776424E+01 -0.31346286376E+02 -0.28612213978E+02  0.42727092537E+02  0.00000000000E+00 0. -1.
         -4    1    5    5    0  503  0.11540956117E+03 -0.40964238981E+03 -0.90044784015E+03  0.99595811516E+03  0.00000000000E+00 0.  1.
         -3    1    6    6    0  502 -0.24071680581E+03 -0.69820086618E+02 -0.38178303034E+02  0.25352910665E+03  0.00000000000E+00 0.  1.
<mgrwt>
<rscale>  0 0.18400380E+04</rscale>
<asrwt>0</asrwt>
<pdfrwt beam="1">  1        2 0.46252237E+00 0.18400380E+04</pdfrwt>
<pdfrwt beam="2">  1       -2 0.43314584E-01 0.18400380E+04</pdfrwt>
<totfact> 0.82338558E+00</totfact>
</mgrwt>
</event>
<event>
12    1  0.2214165E-007  0.4288745E+04  0.7818608E-02  0.7948703E-01
          1   -1    0    0  501    0  0.00000000000E+00  0.00000000000E+00  0.90847162375E+03  0.90847162375E+03  0.00000000000E+00 0. -1.
         -1   -1    0    0    0  501 -0.00000000000E+00 -0.00000000000E+00 -0.50616137499E+04  0.50616137499E+04  0.00000000000E+00 0.  1.
         23    2    1    2    0    0 -0.12719136593E+03  0.20437588926E+04 -0.18793039327E+04  0.27808368431E+04  0.90234260219E+02 0.  0.
        254    2    1    2    0    0  0.12719136593E+03 -0.20437588926E+04 -0.22738381934E+04  0.31892485306E+04  0.89879808935E+03 0.  0.
        -24    2    4    4    0    0 -0.34671816733E+03 -0.87171518165E+03 -0.72481645675E+03  0.11882744382E+04  0.80848000131E+02 0.  0.
         24    2    4    4    0    0  0.47390953325E+03 -0.11720437109E+04 -0.15490217366E+04  0.20009740923E+04  0.78436417111E+02 0.  0.
         13    1    3    3    0    0 -0.42722958091E+02  0.44193668150E+03 -0.45433474070E+03  0.63525848142E+03  0.00000000000E+00 0.  1.
        -13    1    3    3    0    0 -0.84468407836E+02  0.16018222111E+04 -0.14249691920E+04  0.21455783617E+04  0.00000000000E+00 0. -1.
          4    1    6    6  502    0  0.44814561226E+01 -0.29208056236E+01 -0.14977662646E+02  0.15904242604E+02  0.00000000000E+00 0. -1.
          1    1    5    5  503    0 -0.71303318003E+02 -0.18470950358E+03 -0.11287787961E+03  0.22791046395E+03  0.00000000000E+00 0. -1.
         -4    1    5    5    0  503 -0.27541484932E+03 -0.68700567807E+03 -0.61193857714E+03  0.96036397429E+03  0.00000000000E+00 0.  1.
         -3    1    6    6    0  502  0.46942807713E+03 -0.11691229053E+04 -0.15340440740E+04  0.19850698497E+04  0.00000000000E+00 0.  1.
<mgrwt>
<rscale>  0 0.42887446E+04</rscale>
<asrwt>0</asrwt>
<pdfrwt beam="1">  1        1 0.13976486E+00 0.42887446E+04</pdfrwt>
<pdfrwt beam="2">  1       -1 0.77870982E+00 0.42887446E+04</pdfrwt>
<totfact> 0.12674485E-03</totfact>
</mgrwt>
</event>
<event>
12    1  0.2214165E-007  0.3624471E+04  0.7818608E-02  0.8084909E-01
         -1   -1    0    0    0  501 -0.00000000000E+00  0.00000000000E+00  0.11521826237E+04  0.11521826237E+04  0.00000000000E+00 0.  1.
          1   -1    0    0  501    0  0.00000000000E+00 -0.00000000000E+00 -0.28504135142E+04  0.28504135142E+04  0.00000000000E+00 0. -1.
         23    2    1    2    0    0 -0.10508136301E+04 -0.79120486317E+03  0.39075215928E+03  0.13752188247E+04  0.91242232977E+02 0.  0.
        254    2    1    2    0    0  0.10508136301E+04  0.79120486317E+03 -0.20889830497E+04  0.26273773133E+04  0.89947036834E+03 0.  0.
        -24    2    4    4    0    0  0.92511440497E+03  0.98113750017E+03 -0.17322142059E+04  0.21966861168E+04  0.79977396518E+02 0.  0.
         24    2    4    4    0    0  0.12569922510E+03 -0.18993263700E+03 -0.35676884385E+03  0.43069119651E+03  0.79600232528E+02 0.  0.
         11    1    3    3    0    0 -0.65945028031E+03 -0.48202999423E+03  0.28697186601E+03  0.86578313648E+03  0.00000000000E+00 0.  1.
        -11    1    3    3    0    0 -0.39136334975E+03 -0.30917486894E+03  0.10378029328E+03  0.50943568818E+03  0.00000000000E+00 0. -1.
          4    1    6    6  502    0  0.77664758042E+02 -0.12293926167E+03 -0.29072141256E+03  0.32506125026E+03  0.00000000000E+00 0. -1.
          3    1    5    5  503    0  0.78513449926E+03  0.82050423898E+03 -0.14111437267E+04  0.18113503265E+04  0.00000000000E+00 0. -1.
         -4    1    5    5    0  503  0.13997990570E+03  0.16063326119E+03 -0.32107047920E+03  0.38533579021E+03  0.00000000000E+00 0.  1.
         -3    1    6    6    0  502  0.48034467058E+02 -0.66993375335E+02 -0.66047431296E+02  0.10562994625E+03  0.00000000000E+00 0.  1.
<mgrwt>
<rscale>  0 0.36244707E+04</rscale>
<asrwt>0</asrwt>
<pdfrwt beam="1">  1        1 0.43852516E+00 0.36244707E+04</pdfrwt>
<pdfrwt beam="2">  1       -1 0.17725886E+00 0.36244707E+04</pdfrwt>
<totfact> 0.13481098E-01</totfact>
</mgrwt>
</event>
<event>
12    1  0.2214165E-007  0.1816241E+04  0.7818608E-02  0.8697710E-01
         -2   -1    0    0    0  501 -0.00000000000E+00  0.00000000000E+00  0.10797904377E+04  0.10797904377E+04  0.00000000000E+00 0.  1.
          2   -1    0    0  501    0  0.00000000000E+00 -0.00000000000E+00 -0.76374351086E+03  0.76374351086E+03  0.00000000000E+00 0. -1.
         23    2    1    2    0    0  0.21923044627E+03 -0.64234065276E+03  0.59535166982E+02  0.68748259220E+03  0.91784397909E+02 0.  0.
        254    2    1    2    0    0 -0.21923044627E+03  0.64234065276E+03  0.25651175982E+03  0.11560513563E+04  0.89999608486E+03 0.  0.
        -24    2    4    4    0    0  0.27206153156E+03  0.16526864738E+03  0.32765861221E+03  0.46287594975E+03  0.74584019322E+02 0.  0.
         24    2    4    4    0    0 -0.49129197783E+03  0.47707200538E+03 -0.71146852391E+02  0.69317540658E+03  0.80403755395E+02 0.  0.
         13    1    3    3    0    0  0.18789723948E+03 -0.55061689431E+03  0.18116336595E+02  0.58207605908E+03  0.00000000000E+00 0. -1.
        -13    1    3    3    0    0  0.31333206790E+02 -0.91723758457E+02  0.41418830387E+02  0.10540653312E+03  0.00000000000E+00 0.  1.
          2    1    6    6  502    0 -0.30837794535E+02  0.83445558698E+01 -0.89765416182E+01  0.33184024528E+02  0.00000000000E+00 0. -1.
          3    1    5    5  503    0  0.98717221209E+02  0.10285296654E+03  0.14981196223E+03  0.20680291709E+03  0.00000000000E+00 0. -1.
         -4    1    5    5    0  503  0.17334431035E+03  0.62415680836E+02  0.17784664998E+03  0.25607303266E+03  0.00000000000E+00 0.  1.
         -1    1    6    6    0  502 -0.46045418329E+03  0.46872744952E+03 -0.62170310773E+02  0.65999138205E+03  0.00000000000E+00 0.  1.
<mgrwt>
<rscale>  0 0.18162411E+04</rscale>
<asrwt>0</asrwt>
<pdfrwt beam="1">  1        2 0.11749900E+00 0.18162411E+04</pdfrwt>
<pdfrwt beam="2">  1       -2 0.16612161E+00 0.18162411E+04</pdfrwt>
<totfact> 0.78417569E+00</totfact>
</mgrwt>
</event>
<event>
12    1  0.2214165E-007  0.2184100E+04  0.7818608E-02  0.8525075E-01
          2   -1    0    0  501    0  0.00000000000E+00  0.00000000000E+00  0.20680538992E+04  0.20680538992E+04  0.00000000000E+00 0.  1.
         -2   -1    0    0    0  501 -0.00000000000E+00 -0.00000000000E+00 -0.57666468691E+03  0.57666468691E+03  0.00000000000E+00 0. -1.
         23    2    1    2    0    0  0.22061837182E+03 -0.70039116108E+03 -0.15687779270E+02  0.74013067065E+03  0.91252718963E+02 0.  0.
        254    2    1    2    0    0 -0.22061837182E+03  0.70039116108E+03  0.15070769916E+04  0.19045879155E+04  0.90385497992E+03 0.  0.
        -24    2    4    4    0    0 -0.14051104236E+03  0.64077793250E+03  0.36365336451E+03  0.75406463603E+03  0.77653035866E+02 0.  0.
         24    2    4    4    0    0 -0.80107329454E+02  0.59613228576E+02  0.11434236271E+04  0.11505232794E+04  0.79468889283E+02 0.  0.
         11    1    3    3    0    0  0.17741549094E+03 -0.56101604145E+03 -0.49070726597E+02  0.59044321607E+03  0.00000000000E+00 0. -1.
        -11    1    3    3    0    0  0.43202880874E+02 -0.13937511963E+03  0.33382947327E+02  0.14968745458E+03  0.00000000000E+00 0.  1.
          2    1    6    6  502    0  0.63777632101E+01  0.37901892760E+02  0.33661475023E+03  0.33880188814E+03  0.00000000000E+00 0. -1.
          1    1    5    5  503    0 -0.95426827078E+02  0.39021197282E+03  0.26384413391E+03  0.48060939447E+03  0.00000000000E+00 0. -1.
         -2    1    5    5    0  503 -0.45084215285E+02  0.25056595968E+03  0.99809230598E+02  0.27345524155E+03  0.00000000000E+00 0.  1.
         -1    1    6    6    0  502 -0.86485092664E+02  0.21711335817E+02  0.80680887683E+03  0.81172139129E+03  0.00000000000E+00 0.  1.
<mgrwt>
<rscale>  0 0.21841004E+04</rscale>
<asrwt>0</asrwt>
<pdfrwt beam="1">  1        2 0.31816213E+00 0.21841004E+04</pdfrwt>
<pdfrwt beam="2">  1       -2 0.88717645E-01 0.21841004E+04</pdfrwt>
<totfact> 0.61203318E+00</totfact>
</mgrwt>
</event>
<event>
12    1  0.2214165E-007  0.1286716E+04  0.7818608E-02  0.9040166E-01
         -1   -1    0    0    0  501 -0.00000000000E+00  0.00000000000E+00  0.32777596417E+03  0.32777596417E+03  0.00000000000E+00 0.  1.
          1   -1    0    0  501    0  0.00000000000E+00 -0.00000000000E+00 -0.12627817703E+04  0.12627817703E+04  0.00000000000E+00 0. -1.
         23    2    1    2    0    0 -0.14880833247E+03  0.23769445466E+03 -0.56300940274E+02  0.30059202875E+03  0.92429423246E+02 0.  0.
        254    2    1    2    0    0  0.14880833247E+03 -0.23769445466E+03 -0.87870486584E+03  0.12899657057E+04  0.90180192229E+03 0.  0.
        -24    2    4    4    0    0 -0.27275985405E+03 -0.18498373691E+03 -0.31386369644E+02  0.33882666645E+03  0.72121319963E+02 0.  0.
         24    2    4    4    0    0  0.42156818652E+03 -0.52710717751E+02 -0.84731849620E+03  0.95113903926E+03  0.78858622558E+02 0.  0.
         11    1    3    3    0    0 -0.12910916216E+03  0.13042802390E+03 -0.54769013267E+02  0.19152099098E+03  0.00000000000E+00 0. -1.
        -11    1    3    3    0    0 -0.19699170310E+02  0.10726643076E+03 -0.15319270074E+01  0.10907103777E+03  0.00000000000E+00 0.  1.
          4    1    6    6  502    0  0.11463418609E+02  0.49103371670E+00 -0.67358817412E+02  0.68329066754E+02  0.00000000000E+00 0. -1.
          3    1    5    5  503    0 -0.19860020529E+03 -0.15710403748E+03  0.10186663344E+01  0.25322866705E+03  0.00000000000E+00 0. -1.
         -4    1    5    5    0  503 -0.74159648755E+02 -0.27879699434E+02 -0.32405035978E+02  0.85597999397E+02  0.00000000000E+00 0.  1.
         -3    1    6    6    0  502  0.41010476791E+03 -0.53201751468E+02 -0.77995967879E+03  0.88280997250E+03  0.00000000000E+00 0.  1.
<mgrwt>
<rscale>  0 0.12867160E+04</rscale>
<asrwt>0</asrwt>
<pdfrwt beam="1">  1        1 0.19427412E+00 0.12867160E+04</pdfrwt>
<pdfrwt beam="2">  1       -1 0.50427071E-01 0.12867160E+04</pdfrwt>
<totfact> 0.37357083E+01</totfact>
</mgrwt>
</event>
<event>
12    1  0.2214165E-007  0.2342653E+04  0.7818608E-02  0.8461291E-01
          2   -1    0    0  501    0  0.00000000000E+00  0.00000000000E+00  0.26018252061E+04  0.26018252061E+04  0.00000000000E+00 0. -1.
         -2   -1    0    0    0  501 -0.00000000000E+00 -0.00000000000E+00 -0.52732433596E+03  0.52732433596E+03  0.00000000000E+00 0.  1.
         23    2    1    2    0    0  0.24223400233E+03  0.91309430723E+03  0.47559356742E+03  0.10615821175E+04  0.91371905184E+02 0.  0.
        254    2    1    2    0    0 -0.24223400233E+03 -0.91309430723E+03  0.15989073027E+04  0.20675674246E+04  0.90879698867E+03 0.  0.
        -24    2    4    4    0    0 -0.58083125908E+03 -0.60948368039E+03  0.96269366129E+03  0.12814080500E+04  0.79951215229E+02 0.  0.
         24    2    4    4    0    0  0.33859725675E+03 -0.30361062684E+03  0.63621364143E+03  0.78615937460E+03  0.80319672070E+02 0.  0.
         13    1    3    3    0    0  0.15785821568E+03  0.45945897179E+03  0.27702649791E+03  0.55925436391E+03  0.00000000000E+00 0.  1.
        -13    1    3    3    0    0  0.84375786654E+02  0.45363533544E+03  0.19856706951E+03  0.50232775359E+03  0.00000000000E+00 0. -1.
          2    1    6    6  502    0  0.59923798773E+02 -0.21520946314E+02  0.11246430150E+03  0.12923711503E+03  0.00000000000E+00 0. -1.
          1    1    5    5  503    0 -0.93878185716E+02 -0.63924035434E+02  0.14991086963E+03  0.18807622097E+03  0.00000000000E+00 0. -1.
         -2    1    5    5    0  503 -0.48695307337E+03 -0.54555964496E+03  0.81278279166E+03  0.10933318290E+04  0.00000000000E+00 0.  1.
         -1    1    6    6    0  502  0.27867345798E+03 -0.28208968053E+03  0.52374933993E+03  0.65692225957E+03  0.00000000000E+00 0.  1.
<mgrwt>
<rscale>  0 0.23426530E+04</rscale>
<asrwt>0</asrwt>
<pdfrwt beam="1">  1        2 0.40028079E+00 0.23426530E+04</pdfrwt>
<pdfrwt beam="2">  1       -2 0.81126822E-01 0.23426530E+04</pdfrwt>
<totfact> 0.36735364E+00</totfact>
</mgrwt>
</event>
<event>
12    1  0.2214165E-007  0.1710564E+04  0.7818608E-02  0.8755362E-01
         -2   -1    0    0    0  501 -0.00000000000E+00  0.00000000000E+00  0.59641731891E+03  0.59641731891E+03  0.00000000000E+00 0.  1.
          2   -1    0    0  501    0  0.00000000000E+00 -0.00000000000E+00 -0.12265024014E+04  0.12265024014E+04  0.00000000000E+00 0. -1.
         23    2    1    2    0    0  0.29678046951E+03 -0.49599033885E+03 -0.94117511898E+01  0.58518778373E+03  0.90945576337E+02 0.  0.
        254    2    1    2    0    0 -0.29678046951E+03  0.49599033885E+03 -0.62067333131E+03  0.12377319366E+04  0.90147651070E+03 0.  0.
        -24    2    4    4    0    0 -0.10820532677E+03  0.68677384139E+03 -0.19149510524E+03  0.72550551666E+03  0.79505832594E+02 0.  0.
         24    2    4    4    0    0 -0.18857514274E+03 -0.19078350254E+03 -0.42917822607E+03  0.51222641993E+03  0.78886160001E+02 0.  0.
         11    1    3    3    0    0  0.21635824314E+03 -0.42556137920E+03 -0.19576240022E+02  0.47780394098E+03  0.00000000000E+00 0. -1.
        -11    1    3    3    0    0  0.80422226368E+02 -0.70428959649E+02  0.10164488833E+02  0.10738384275E+03  0.00000000000E+00 0.  1.
          4    1    6    6  502    0 -0.64900470206E+02 -0.62540623449E+02 -0.21822655259E+03  0.23610639312E+03  0.00000000000E+00 0. -1.
          1    1    5    5  503    0  0.56965086531E+01  0.84676569518E+02 -0.51594234658E+01  0.85024651053E+02  0.00000000000E+00 0. -1.
         -2    1    5    5    0  503 -0.11390183542E+03  0.60209727187E+03 -0.18633568177E+03  0.64048086561E+03  0.00000000000E+00 0.  1.
         -1    1    6    6    0  502 -0.12367467253E+03 -0.12824287909E+03 -0.21095167348E+03  0.27612002682E+03  0.00000000000E+00 0.  1.
<mgrwt>
<rscale>  0 0.17105640E+04</rscale>
<asrwt>0</asrwt>
<pdfrwt beam="1">  1        2 0.18869267E+00 0.17105640E+04</pdfrwt>
<pdfrwt beam="2">  1       -2 0.91756512E-01 0.17105640E+04</pdfrwt>
<totfact> 0.17550852E+01</totfact>
</mgrwt>
</event>
<event>
12    1  0.2214165E-007  0.3534783E+04  0.7818608E-02  0.8105596E-01
          2   -1    0    0  501    0  0.00000000000E+00  0.00000000000E+00  0.22345790172E+04  0.22345790172E+04  0.00000000000E+00 0. -1.
         -2   -1    0    0    0  501 -0.00000000000E+00 -0.00000000000E+00 -0.13978796058E+04  0.13978796058E+04  0.00000000000E+00 0.  1.
         23    2    1    2    0    0 -0.10197120514E+04  0.30215715386E+03  0.16911978384E+04  0.19998756653E+04  0.90779593387E+02 0.  0.
        254    2    1    2    0    0  0.10197120514E+04 -0.30215715386E+03 -0.85449842691E+03  0.16325829577E+04  0.89668720236E+03 0.  0.
        -24    2    4    4    0    0  0.10085153090E+04 -0.25804894665E+03 -0.32237149901E+03  0.10926788546E+04  0.79569520105E+02 0.  0.
         24    2    4    4    0    0  0.11196742397E+02 -0.44108207209E+02 -0.53212692790E+03  0.53990410313E+03  0.79161052263E+02 0.  0.
         13    1    3    3    0    0 -0.45187517533E+03  0.12367816861E+03  0.66312913469E+03  0.81192839139E+03  0.00000000000E+00 0. -1.
        -13    1    3    3    0    0 -0.56783687610E+03  0.17847898525E+03  0.10280687037E+04  0.11879472739E+04  0.00000000000E+00 0.  1.
          2    1    6    6  502    0  0.61667433786E+01 -0.93139056170E+01 -0.61459114385E+01  0.12749501526E+02  0.00000000000E+00 0. -1.
          3    1    5    5  503    0  0.15433294136E+03 -0.69520088676E+02 -0.49045887544E+02  0.17623052687E+03  0.00000000000E+00 0. -1.
         -4    1    5    5    0  503  0.85418236768E+03 -0.18852885798E+03 -0.27332561146E+03  0.91644832774E+03  0.00000000000E+00 0.  1.
         -1    1    6    6    0  502  0.50299990182E+01 -0.34794301592E+02 -0.52598101647E+03  0.52715460161E+03  0.00000000000E+00 0.  1.
<mgrwt>
<rscale>  0 0.35347828E+04</rscale>
<asrwt>0</asrwt>
<pdfrwt beam="1">  1        2 0.34378139E+00 0.35347828E+04</pdfrwt>
<pdfrwt beam="2">  1       -2 0.21505840E+00 0.35347828E+04</pdfrwt>
<totfact> 0.42987686E-01</totfact>
</mgrwt>
</event>
<event>
12    1  0.2214165E-007  0.3964692E+04  0.7818608E-02  0.8011707E-01
         -3   -1    0    0    0  501 -0.00000000000E+00  0.00000000000E+00  0.17171637787E+04  0.17171637787E+04  0.00000000000E+00 0. -1.
          3   -1    0    0  501    0  0.00000000000E+00 -0.00000000000E+00 -0.22884805211E+04  0.22884805211E+04  0.00000000000E+00 0.  1.
         23    2    1    2    0    0  0.15372336282E+03  0.13322819263E+04  0.10687886427E+04  0.17173430730E+04  0.91389628569E+02 0.  0.
        254    2    1    2    0    0 -0.15372336282E+03 -0.13322819263E+04 -0.16401053851E+04  0.22883012268E+04  0.86473743234E+03 0.  0.
        -24    2    4    4    0    0 -0.25306861814E+03 -0.49030145679E+03 -0.15841416693E+03  0.57936042093E+03  0.78257300277E+02 0.  0.
         24    2    4    4    0    0  0.99345255325E+02 -0.84198046956E+03 -0.14816912182E+04  0.17089408059E+04  0.79178413286E+02 0.  0.
         11    1    3    3    0    0  0.14923702164E+03  0.11314687704E+04  0.87338313613E+03  0.14371121631E+04  0.00000000000E+00 0. -1.
        -11    1    3    3    0    0  0.44863411770E+01  0.20081315598E+03  0.19540550654E+03  0.28023090989E+03  0.00000000000E+00 0.  1.
          4    1    6    6  502    0  0.43370069473E+02 -0.49431211959E+03 -0.79331086446E+03  0.93571767225E+03  0.00000000000E+00 0. -1.
          1    1    5    5  503    0 -0.16476731263E+03 -0.33663808125E+03 -0.69906551764E+02  0.38126157824E+03  0.00000000000E+00 0. -1.
         -2    1    5    5    0  503 -0.88301305508E+02 -0.15366337553E+03 -0.88507615166E+02  0.19809884269E+03  0.00000000000E+00 0.  1.
         -3    1    6    6    0  502  0.55975185852E+02 -0.34766834997E+03 -0.68838035373E+03  0.77322313364E+03  0.00000000000E+00 0.  1.
<mgrwt>
<rscale>  0 0.39646921E+04</rscale>
<asrwt>0</asrwt>
<pdfrwt beam="1">  1        3 0.35207393E+00 0.39646921E+04</pdfrwt>
<pdfrwt beam="2">  1       -3 0.26417904E+00 0.39646921E+04</pdfrwt>
<totfact> 0.24804129E-03</totfact>
</mgrwt>
</event>
<event>
12    1  0.2214165E-007  0.2858337E+04  0.7818608E-02  0.8285383E-01
          2   -1    0    0  501    0  0.00000000000E+00  0.00000000000E+00  0.13757049591E+04  0.13757049591E+04  0.00000000000E+00 0.  1.
         -2   -1    0    0    0  501 -0.00000000000E+00 -0.00000000000E+00 -0.14847092819E+04  0.14847092819E+04  0.00000000000E+00 0. -1.
         23    2    1    2    0    0  0.82620363629E+03  0.57905805437E+02 -0.10325371689E+04  0.13268148437E+04  0.91318637132E+02 0.  0.
        254    2    1    2    0    0 -0.82620363629E+03 -0.57905805437E+02  0.92353284611E+03  0.15335993973E+04  0.90169211083E+03 0.  0.
        -24    2    4    4    0    0 -0.80164188756E+03  0.28377733900E+03  0.77104219789E+03  0.11507100603E+04  0.80425604325E+02 0.  0.
         24    2    4    4    0    0 -0.24561748726E+02 -0.34168314443E+03  0.15249064822E+03  0.38288933707E+03  0.77460931816E+02 0.  0.
         11    1    3    3    0    0  0.49663256630E+03 -0.40949681725E+01 -0.58045210118E+03  0.76392755967E+03  0.00000000000E+00 0.  1.
        -11    1    3    3    0    0  0.32957106999E+03  0.62000773610E+02 -0.45208506770E+03  0.56288728405E+03  0.00000000000E+00 0. -1.
          2    1    6    6  502    0  0.17639426826E+02 -0.23427850035E+03  0.11482272537E+03  0.26149918425E+03  0.00000000000E+00 0. -1.
          1    1    5    5  503    0 -0.75384457722E+03  0.27295639420E+03  0.69952068816E+03  0.10640094139E+04  0.00000000000E+00 0. -1.
         -2    1    5    5    0  503 -0.47797310346E+02  0.10820944793E+02  0.71521509727E+02  0.86700646342E+02  0.00000000000E+00 0.  1.
         -1    1    6    6    0  502 -0.42201175552E+02 -0.10740464409E+03  0.37667922848E+02  0.12139015282E+03  0.00000000000E+00 0.  1.
<mgrwt>
<rscale>  0 0.28583365E+04</rscale>
<asrwt>0</asrwt>
<pdfrwt beam="1">  1        2 0.21164692E+00 0.28583365E+04</pdfrwt>
<pdfrwt beam="2">  1       -2 0.22841681E+00 0.28583365E+04</pdfrwt>
<totfact> 0.11320433E+00</totfact>
</mgrwt>
</event>
<event>
12    1  0.2214165E-007  0.1601260E+04  0.7818608E-02  0.8819774E-01
          2   -1    0    0  501    0  0.00000000000E+00  0.00000000000E+00  0.16045249694E+04  0.16045249694E+04  0.00000000000E+00 0. -1.
         -2   -1    0    0    0  501 -0.00000000000E+00 -0.00000000000E+00 -0.39950045680E+03  0.39950045680E+03  0.00000000000E+00 0.  1.
         23    2    1    2    0    0 -0.21007119249E+03 -0.36142827693E+03  0.84967703609E+03  0.95115190169E+03  0.89322836673E+02 0.  0.
        254    2    1    2    0    0  0.21007119249E+03  0.36142827693E+03  0.35534747651E+03  0.10528735245E+04  0.89861589363E+03 0.  0.
        -24    2    4    4    0    0 -0.96987360391E+02  0.53585381797E+03  0.40982322675E+03  0.68622138137E+03  0.79992779443E+02 0.  0.
         24    2    4    4    0    0  0.30705855288E+03 -0.17442554104E+03 -0.54475750235E+02  0.36665214314E+03  0.82200744788E+02 0.  0.
         13    1    3    3    0    0 -0.19834215502E+02 -0.35978855976E+02  0.36955639953E+02  0.55259329586E+02  0.00000000000E+00 0.  1.
        -13    1    3    3    0    0 -0.19023697699E+03 -0.32544942095E+03  0.81272139613E+03  0.89589257210E+03  0.00000000000E+00 0. -1.
          2    1    6    6  502    0  0.46394229994E+02 -0.36485544589E+02  0.20285945326E+02  0.62411049650E+02  0.00000000000E+00 0. -1.
          3    1    5    5  503    0 -0.13977419078E+02  0.81486709519E+01  0.10843926178E+02  0.19477161428E+02  0.00000000000E+00 0. -1.
         -4    1    5    5    0  503 -0.83009941313E+02  0.52770514702E+03  0.39897930057E+03  0.66674421995E+03  0.00000000000E+00 0.  1.
         -1    1    6    6    0  502  0.26066432289E+03 -0.13793999645E+03 -0.74761695560E+02  0.30424109349E+03  0.00000000000E+00 0.  1.
<mgrwt>
<rscale>  0 0.16012601E+04</rscale>
<asrwt>0</asrwt>
<pdfrwt beam="1">  1        2 0.24684999E+00 0.16012601E+04</pdfrwt>
<pdfrwt beam="2">  1       -2 0.61461609E-01 0.16012601E+04</pdfrwt>
<totfact> 0.26158483E+01</totfact>
</mgrwt>
</event>
<event>
12    1  0.3461647E-007  0.2927659E+04  0.7818608E-02  0.8264695E-01
         -2   -1    0    0    0  501 -0.00000000000E+00  0.00000000000E+00  0.11532499598E+04  0.11532499598E+04  0.00000000000E+00 0.  1.
          2   -1    0    0  501    0  0.00000000000E+00 -0.00000000000E+00 -0.18580504612E+04  0.18580504612E+04  0.00000000000E+00 0. -1.
         23    2    1    2    0    0  0.68111702339E+03  0.10971729209E+04 -0.62635287700E+03  0.14380619865E+04  0.89417742423E+02 0.  0.
        254    2    1    2    0    0 -0.68111702339E+03 -0.10971729209E+04 -0.78447624483E+02  0.15732384345E+04  0.89510687860E+03 0.  0.
        -24    2    4    4    0    0  0.11049011687E+03 -0.63874638231E+03 -0.36759643908E+02  0.65414573700E+03  0.79689189791E+02 0.  0.
         24    2    4    4    0    0 -0.79160714027E+03 -0.45842653855E+03 -0.41687980574E+02  0.91909269749E+03  0.78719394563E+02 0.  0.
         11    1    3    3    0    0  0.46231976032E+03  0.81989914775E+03 -0.45153457547E+03  0.10439624735E+04  0.00000000000E+00 0.  1.
        -11    1    3    3    0    0  0.21879726308E+03  0.27727377311E+03 -0.17481830154E+03  0.39409951299E+03  0.00000000000E+00 0. -1.
          4    1    6    6  502    0 -0.66495213210E+03 -0.36298071991E+03 -0.11539253223E+02  0.75766054099E+03  0.00000000000E+00 0. -1.
          1    1    5    5  503    0  0.11046528607E+03 -0.63535706582E+03 -0.43756389793E+02  0.64637125722E+03  0.00000000000E+00 0. -1.
         -2    1    5    5    0  503  0.24830807538E-01 -0.33893164937E+01  0.69967458851E+01  0.77744797796E+01  0.00000000000E+00 0.  1.
         -1    1    6    6    0  502 -0.12665500817E+03 -0.95445818643E+02 -0.30148727352E+02  0.16143215650E+03  0.00000000000E+00 0.  1.
<mgrwt>
<rscale>  0 0.29276589E+04</rscale>
<asrwt>0</asrwt>
<pdfrwt beam="1">  1        2 0.28585392E+00 0.29276589E+04</pdfrwt>
<pdfrwt beam="2">  1       -2 0.17742307E+00 0.29276589E+04</pdfrwt>
<totfact> 0.13037536E+00</totfact>
</mgrwt>
</event>
<event>
12    1  0.2214165E-007  0.1964313E+04  0.7818608E-02  0.8623490E-01
         -1   -1    0    0    0  501 -0.00000000000E+00  0.00000000000E+00  0.17132355220E+04  0.17132355220E+04  0.00000000000E+00 0.  1.
          1   -1    0    0  501    0  0.00000000000E+00 -0.00000000000E+00 -0.56304653795E+03  0.56304653795E+03  0.00000000000E+00 0. -1.
         23    2    1    2    0    0  0.24359099710E+02  0.42917821585E+03  0.12000072337E+04  0.12782311468E+04  0.95237581620E+02 0.  0.
        254    2    1    2    0    0 -0.24359099710E+02 -0.42917821585E+03 -0.49818249736E+02  0.99805091310E+03  0.89935335682E+03 0.  0.
        -24    2    4    4    0    0 -0.39223859095E+03 -0.29155313925E+03 -0.24545540775E+03  0.55284289957E+03  0.80824310551E+02 0.  0.
         24    2    4    4    0    0  0.36787949124E+03 -0.13762507660E+03  0.19563715801E+03  0.44520801353E+03  0.75234938218E+02 0.  0.
         13    1    3    3    0    0 -0.15801371629E+02  0.23493618387E+03  0.75865832671E+03  0.79435958515E+03  0.00000000000E+00 0.  1.
        -13    1    3    3    0    0  0.40160471338E+02  0.19424203199E+03  0.44134890703E+03  0.48387156166E+03  0.00000000000E+00 0. -1.
          2    1    6    6  502    0  0.23536040874E+03 -0.12116079034E+03  0.11059224026E+03  0.28688865911E+03  0.00000000000E+00 0. -1.
          3    1    5    5  503    0 -0.25477132705E+03 -0.14010584431E+03 -0.14893601825E+03  0.32668029361E+03  0.00000000000E+00 0. -1.
         -4    1    5    5    0  503 -0.13746726390E+03 -0.15144729494E+03 -0.96519389501E+02  0.22616260597E+03  0.00000000000E+00 0.  1.
         -1    1    6    6    0  502  0.13251908250E+03 -0.16464286264E+02  0.85044917756E+02  0.15831935442E+03  0.00000000000E+00 0.  1.
<mgrwt>
<rscale>  0 0.19643129E+04</rscale>
<asrwt>0</asrwt>
<pdfrwt beam="1">  1        1 0.86622545E-01 0.19643129E+04</pdfrwt>
<pdfrwt beam="2">  1       -1 0.26357469E+00 0.19643129E+04</pdfrwt>
<totfact> 0.19860893E+00</totfact>
</mgrwt>
</event>
<event>
12    1  0.2214165E-007  0.4305482E+04  0.7818608E-02  0.7945605E-01
          2   -1    0    0  501    0  0.00000000000E+00  0.00000000000E+00  0.20426914509E+04  0.20426914509E+04  0.00000000000E+00 0. -1.
         -2   -1    0    0    0  501 -0.00000000000E+00 -0.00000000000E+00 -0.22687194572E+04  0.22687194572E+04  0.00000000000E+00 0.  1.
         23    2    1    2    0    0  0.16725253426E+04 -0.69673983500E+03 -0.10856855374E+04  0.21141568664E+04  0.90325799878E+02 0.  0.
        254    2    1    2    0    0 -0.16725253426E+04  0.69673983500E+03  0.85965753109E+03  0.21972540417E+04  0.89784566258E+03 0.  0.
        -24    2    4    4    0    0 -0.15038456074E+04  0.24350361683E+03  0.57438706461E+03  0.16300715289E+04  0.79793904415E+02 0.  0.
         24    2    4    4    0    0 -0.16867973523E+03  0.45323621817E+03  0.28527046647E+03  0.56718251281E+03  0.80254851910E+02 0.  0.
         11    1    3    3    0    0  0.63976931989E+03 -0.25402122839E+03 -0.46203332944E+03  0.82903942286E+03  0.00000000000E+00 0.  1.
        -11    1    3    3    0    0  0.10327560227E+04 -0.44271860661E+03 -0.62365220800E+03  0.12851174435E+04  0.00000000000E+00 0. -1.
          4    1    6    6  502    0 -0.63208638424E+02  0.22161800768E+03  0.17711010863E+03  0.29065075930E+03  0.00000000000E+00 0. -1.
          3    1    5    5  503    0 -0.14816645601E+04  0.24566551712E+03  0.57381982087E+03  0.16077781569E+04  0.00000000000E+00 0. -1.
         -4    1    5    5    0  503 -0.22181047227E+02 -0.21619002939E+01  0.56724373823E+00  0.22293371984E+02  0.00000000000E+00 0.  1.
         -3    1    6    6    0  502 -0.10547109681E+03  0.23161821049E+03  0.10816035784E+03  0.27653175352E+03  0.00000000000E+00 0.  1.
<mgrwt>
<rscale>  0 0.43054820E+04</rscale>
<asrwt>0</asrwt>
<pdfrwt beam="1">  1        2 0.31426022E+00 0.43054820E+04</pdfrwt>
<pdfrwt beam="2">  1       -2 0.34903376E+00 0.43054820E+04</pdfrwt>
<totfact> 0.76806342E-02</totfact>
</mgrwt>
</event>
<event>
12    1  0.2214165E-007  0.2502221E+04  0.7818608E-02  0.8402195E-01
         -1   -1    0    0    0  501 -0.00000000000E+00  0.00000000000E+00  0.22522259398E+04  0.22522259398E+04  0.00000000000E+00 0.  1.
          1   -1    0    0  501    0  0.00000000000E+00 -0.00000000000E+00 -0.69499106146E+03  0.69499106146E+03  0.00000000000E+00 0. -1.
         23    2    1    2    0    0 -0.55841261137E+03 -0.49501475192E+02 -0.41855360165E+03  0.70504352529E+03  0.87316748195E+02 0.  0.
        254    2    1    2    0    0  0.55841261137E+03  0.49501475192E+02  0.19757884800E+04  0.22421734760E+04  0.89962588788E+03 0.  0.
        -24    2    4    4    0    0  0.52079140052E+03  0.33096484818E+03  0.17862091660E+04  0.18914039865E+04  0.78130926887E+02 0.  0.
         24    2    4    4    0    0  0.37621210847E+02 -0.28146337299E+03  0.18957931401E+03  0.35076948953E+03  0.80386147096E+02 0.  0.
         13    1    3    3    0    0 -0.18142422680E+03  0.23857791998E+02 -0.14614736655E+03  0.23418581737E+03  0.00000000000E+00 0. -1.
        -13    1    3    3    0    0 -0.37698838458E+03 -0.73359267190E+02 -0.27240623510E+03  0.47085770792E+03  0.00000000000E+00 0.  1.
          4    1    6    6  502    0  0.51633036526E+02 -0.15392914223E+03  0.75371407410E+02  0.17900000096E+03  0.00000000000E+00 0. -1.
          3    1    5    5  503    0  0.36786647482E+03  0.24354233663E+03  0.13753073071E+04  0.14443368035E+04  0.00000000000E+00 0. -1.
         -4    1    5    5    0  503  0.15292492570E+03  0.87422511549E+02  0.41090185894E+03  0.44706718299E+03  0.00000000000E+00 0.  1.
         -3    1    6    6    0  502 -0.14011825678E+02 -0.12753423076E+03  0.11420790660E+03  0.17176948857E+03  0.00000000000E+00 0.  1.
<mgrwt>
<rscale>  0 0.25022205E+04</rscale>
<asrwt>0</asrwt>
<pdfrwt beam="1">  1        1 0.10692170E+00 0.25022205E+04</pdfrwt>
<pdfrwt beam="2">  1       -1 0.34649629E+00 0.25022205E+04</pdfrwt>
<totfact> 0.40111165E-01</totfact>
</mgrwt>
</event>
<event>
12    1  0.2404534E-007  0.2374379E+04  0.7818608E-02  0.8449158E-01
          2   -1    0    0  501    0  0.00000000000E+00  0.00000000000E+00  0.14877088258E+04  0.14877088258E+04  0.00000000000E+00 0. -1.
         -2   -1    0    0    0  501 -0.00000000000E+00 -0.00000000000E+00 -0.94737555111E+03  0.94737555111E+03  0.00000000000E+00 0.  1.
         23    2    1    2    0    0  0.56764860998E+03 -0.50301901939E+03 -0.45924486304E+03  0.89138404050E+03  0.91687431802E+02 0.  0.
        254    2    1    2    0    0 -0.56764860998E+03  0.50301901939E+03  0.99957813773E+03  0.15437003364E+04  0.89922255138E+03 0.  0.
        -24    2    4    4    0    0 -0.17720775514E+03  0.61488841330E+03  0.25937596198E+03  0.69550732885E+03  0.83451815689E+02 0.  0.
         24    2    4    4    0    0 -0.39044085484E+03 -0.11186939391E+03  0.74020217576E+03  0.84819300756E+03  0.81075857422E+02 0.  0.
         13    1    3    3    0    0  0.19897482312E+03 -0.23594125040E+03 -0.19216654462E+03  0.36357562452E+03  0.00000000000E+00 0.  1.
        -13    1    3    3    0    0  0.36867378687E+03 -0.26707776899E+03 -0.26707831842E+03  0.52780841598E+03  0.00000000000E+00 0. -1.
          2    1    6    6  502    0 -0.28089005475E+02 -0.19829771357E+02  0.30142812479E+02  0.45725279713E+02  0.00000000000E+00 0. -1.
          3    1    5    5  503    0 -0.75117428007E+02  0.13378424668E+03  0.66525988414E+02  0.16723205370E+03  0.00000000000E+00 0. -1.
         -4    1    5    5    0  503 -0.10209032713E+03  0.48110416662E+03  0.19284997356E+03  0.52827527515E+03  0.00000000000E+00 0.  1.
         -1    1    6    6    0  502 -0.36235184937E+03 -0.92039622552E+02  0.71005936328E+03  0.80246772785E+03  0.00000000000E+00 0.  1.
<mgrwt>
<rscale>  0 0.23743791E+04</rscale>
<asrwt>0</asrwt>
<pdfrwt beam="1">  1        2 0.22887828E+00 0.23743791E+04</pdfrwt>
<pdfrwt beam="2">  1       -2 0.14575009E+00 0.23743791E+04</pdfrwt>
<totfact> 0.37579927E+00</totfact>
</mgrwt>
</event>
<event>
12    1  0.2214165E-007  0.1525071E+04  0.7818608E-02  0.8867950E-01
         -1   -1    0    0    0  501 -0.00000000000E+00  0.00000000000E+00  0.45063894617E+03  0.45063894617E+03  0.00000000000E+00 0.  1.
          1   -1    0    0  501    0  0.00000000000E+00 -0.00000000000E+00 -0.12903024487E+04  0.12903024487E+04  0.00000000000E+00 0. -1.
         23    2    1    2    0    0  0.13048854158E+03  0.24476031759E+03  0.18216482766E+03  0.34405230774E+03  0.90846538034E+02 0.  0.
        254    2    1    2    0    0 -0.13048854158E+03 -0.24476031759E+03 -0.10218283302E+04  0.13968890872E+04  0.91117018874E+03 0.  0.
        -24    2    4    4    0    0  0.11417449933E+03 -0.44668784185E+03 -0.95375837952E+03  0.10622367805E+04  0.78269322943E+02 0.  0.
         24    2    4    4    0    0 -0.24466304091E+03  0.20192752426E+03 -0.68069950700E+02  0.33465230670E+03  0.81999509433E+02 0.  0.
         11    1    3    3    0    0  0.89533184955E+02  0.13474482998E+03  0.54723355870E+02  0.17078350650E+03  0.00000000000E+00 0. -1.
        -11    1    3    3    0    0  0.40955356628E+02  0.11001548761E+03  0.12744147179E+03  0.17326880124E+03  0.00000000000E+00 0.  1.
          2    1    6    6  502    0 -0.18641273855E+03  0.19082957503E+03 -0.68221754368E+02  0.27535403315E+03  0.00000000000E+00 0. -1.
          1    1    5    5  503    0  0.89027669727E+02 -0.37164239021E+03 -0.84807852534E+03  0.93020491147E+03  0.00000000000E+00 0. -1.
         -2    1    5    5    0  503  0.25146829599E+02 -0.75045451648E+02 -0.10567985418E+03  0.13203186900E+03  0.00000000000E+00 0.  1.
         -1    1    6    6    0  502 -0.58250302356E+02  0.11097949234E+02  0.15180366758E+00  0.59298273550E+02  0.00000000000E+00 0.  1.
<mgrwt>
<rscale>  0 0.15250712E+04</rscale>
<asrwt>0</asrwt>
<pdfrwt beam="1">  1        1 0.19850807E+00 0.15250712E+04</pdfrwt>
<pdfrwt beam="2">  1       -1 0.69329069E-01 0.15250712E+04</pdfrwt>
<totfact> 0.18673797E+01</totfact>
</mgrwt>
</event>
<event>
12    1  0.2214165E-007  0.3493736E+04  0.7818608E-02  0.8115276E-01
         -1   -1    0    0    0  501 -0.00000000000E+00  0.00000000000E+00  0.10301377032E+04  0.10301377032E+04  0.00000000000E+00 0.  1.
          1   -1    0    0  501    0  0.00000000000E+00 -0.00000000000E+00 -0.29622722561E+04  0.29622722561E+04  0.00000000000E+00 0. -1.
         23    2    1    2    0    0 -0.12162133944E+04 -0.34114269894E+02 -0.21420564741E+04  0.24651520285E+04  0.90718141282E+02 0.  0.
        254    2    1    2    0    0  0.12162133944E+04  0.34114269894E+02  0.20992192118E+03  0.15272579308E+04  0.89894981519E+03 0.  0.
        -24    2    4    4    0    0 -0.32795573533E+02 -0.15011065857E+03 -0.12758829007E+03  0.21838386342E+03  0.88340141383E+02 0.  0.
         24    2    4    4    0    0  0.12490089679E+04  0.18422492847E+03  0.33751021125E+03  0.13088740674E+04  0.72635772584E+02 0.  0.
         11    1    3    3    0    0 -0.75885143179E+03 -0.34384362955E+02 -0.12509461780E+04  0.14635245540E+04  0.00000000000E+00 0.  1.
        -11    1    3    3    0    0 -0.45736196261E+03  0.27009306133E+00 -0.89111029610E+03  0.10016274745E+04  0.00000000000E+00 0. -1.
          4    1    6    6  502    0  0.56700804814E+03  0.61808300041E+02  0.12241559170E+03  0.58335578312E+03  0.00000000000E+00 0. -1.
          1    1    5    5  503    0 -0.58824140180E+02 -0.64469294099E+02 -0.70801576025E+02  0.11238074798E+03  0.00000000000E+00 0. -1.
         -2    1    5    5    0  503  0.26028566647E+02 -0.85641364476E+02 -0.56786714042E+02  0.10600311544E+03  0.00000000000E+00 0.  1.
         -3    1    6    6    0  502  0.68200091978E+03  0.12241662843E+03  0.21509461955E+03  0.72551828430E+03  0.00000000000E+00 0.  1.
<mgrwt>
<rscale>  0 0.34937363E+04</rscale>
<asrwt>0</asrwt>
<pdfrwt beam="1">  1        1 0.45573419E+00 0.34937363E+04</pdfrwt>
<pdfrwt beam="2">  1       -1 0.15848272E+00 0.34937363E+04</pdfrwt>
<totfact> 0.15588489E-01</totfact>
</mgrwt>
</event>
<event>
12    1  0.2214165E-007  0.2703520E+04  0.7818608E-02  0.8333864E-01
          1   -1    0    0  501    0  0.00000000000E+00  0.00000000000E+00  0.22545861947E+04  0.22545861947E+04  0.00000000000E+00 0. -1.
         -1   -1    0    0    0  501 -0.00000000000E+00 -0.00000000000E+00 -0.81046160320E+03  0.81046160320E+03  0.00000000000E+00 0.  1.
         23    2    1    2    0    0 -0.50448117637E+03 -0.84310590922E+02 -0.58852896329E+03  0.78391696566E+03  0.80931670907E+02 0.  0.
        254    2    1    2    0    0  0.50448117637E+03  0.84310590922E+02  0.20326535548E+04  0.22811308322E+04  0.90014880267E+03 0.  0.
        -24    2    4    4    0    0  0.50063304595E+03  0.20430071197E+03  0.20626978834E+04  0.21338848872E+04  0.79811815990E+02 0.  0.
         24    2    4    4    0    0  0.38481304159E+01 -0.11999012104E+03 -0.30044328602E+02  0.14724594506E+03  0.79788905249E+02 0.  0.
         13    1    3    3    0    0 -0.22796004794E+02 -0.67735463871E+01 -0.69112798069E+01  0.24764986449E+02  0.00000000000E+00 0. -1.
        -13    1    3    3    0    0 -0.48168517157E+03 -0.77537044535E+02 -0.58161768349E+03  0.75915197921E+03  0.00000000000E+00 0.  1.
          4    1    6    6  502    0  0.27867995914E+02 -0.10535819318E+03 -0.41853240592E+02  0.11674188543E+03  0.00000000000E+00 0. -1.
          3    1    5    5  503    0  0.47632814079E+03  0.20034233893E+03  0.20150121165E+04  0.20802161859E+04  0.00000000000E+00 0. -1.
         -4    1    5    5    0  503  0.24304905164E+02  0.39583730319E+01  0.47685766912E+02  0.53668701290E+02  0.00000000000E+00 0.  1.
         -3    1    6    6    0  502 -0.24019865498E+02 -0.14631927862E+02  0.11808911989E+02  0.30504059629E+02  0.00000000000E+00 0.  1.
<mgrwt>
<rscale>  0 0.27035203E+04</rscale>
<asrwt>0</asrwt>
<pdfrwt beam="1">  1        1 0.34685941E+00 0.27035203E+04</pdfrwt>
<pdfrwt beam="2">  1       -1 0.12468640E+00 0.27035203E+04</pdfrwt>
<totfact> 0.98248579E-01</totfact>
</mgrwt>
</event>
<event>
12    1  0.2214165E-007  0.2328225E+04  0.7818608E-02  0.8466875E-01
         -4   -1    0    0    0  501 -0.00000000000E+00  0.00000000000E+00  0.87719313884E+03  0.87719313884E+03  0.00000000000E+00 0.  1.
          4   -1    0    0  501    0  0.00000000000E+00 -0.00000000000E+00 -0.15448803253E+04  0.15448803253E+04  0.00000000000E+00 0. -1.
         23    2    1    2    0    0 -0.75137191846E+03  0.38878377078E+03  0.25127875550E+03  0.88732800882E+03  0.92181353802E+02 0.  0.
        254    2    1    2    0    0  0.75137191846E+03 -0.38878377078E+03 -0.91896594195E+03  0.15347454553E+04  0.89175816782E+03 0.  0.
        -24    2    4    4    0    0  0.88693682842E+03 -0.51386942463E+03 -0.76940179633E+03  0.12842313263E+04  0.80945981989E+02 0.  0.
         24    2    4    4    0    0 -0.13556490995E+03  0.12508565385E+03 -0.14956414562E+03  0.25051412905E+03  0.79772361060E+02 0.  0.
         11    1    3    3    0    0 -0.43382729882E+03  0.18753893015E+03  0.10656296712E+03  0.48449214801E+03  0.00000000000E+00 0. -1.
        -11    1    3    3    0    0 -0.31754461964E+03  0.20124484063E+03  0.14471578838E+03  0.40283586081E+03  0.00000000000E+00 0.  1.
          4    1    6    6  502    0 -0.30791282481E+02  0.94270777124E+01 -0.66125442762E+02  0.73549623054E+02  0.00000000000E+00 0. -1.
          1    1    5    5  503    0  0.37885552687E+03 -0.17429157370E+03 -0.30333043994E+03  0.51567278258E+03  0.00000000000E+00 0. -1.
         -2    1    5    5    0  503  0.50808130155E+03 -0.33957785093E+03 -0.46607135639E+03  0.76855854368E+03  0.00000000000E+00 0.  1.
         -3    1    6    6    0  502 -0.10477362747E+03  0.11565857614E+03 -0.83438702860E+02  0.17696450600E+03  0.00000000000E+00 0.  1.
<mgrwt>
<rscale>  0 0.23282254E+04</rscale>
<asrwt>0</asrwt>
<pdfrwt beam="1">  1        4 0.23767389E+00 0.23282254E+04</pdfrwt>
<pdfrwt beam="2">  1       -4 0.13495279E+00 0.23282254E+04</pdfrwt>
<totfact> 0.53547344E-02</totfact>
</mgrwt>
</event>
<event>
12    1  0.2214165E-007  0.2786775E+04  0.7818608E-02  0.8307386E-01
         -2   -1    0    0    0  501 -0.00000000000E+00  0.00000000000E+00  0.10845708263E+04  0.10845708263E+04  0.00000000000E+00 0.  1.
          2   -1    0    0  501    0  0.00000000000E+00 -0.00000000000E+00 -0.17901354103E+04  0.17901354103E+04  0.00000000000E+00 0. -1.
         23    2    1    2    0    0 -0.10752126842E+04 -0.60673457465E+03 -0.48739097911E+03  0.13304417426E+04  0.91192672196E+02 0.  0.
        254    2    1    2    0    0  0.10752126842E+04  0.60673457465E+03 -0.21817360483E+03  0.15442644940E+04  0.90163404172E+03 0.  0.
        -24    2    4    4    0    0 -0.78508297544E+02 -0.16529609634E+02 -0.20068165103E+03  0.23046762551E+03  0.80033871410E+02 0.  0.
         24    2    4    4    0    0  0.11537209818E+04  0.62326418429E+03 -0.17491953799E+02  0.13137968685E+04  0.78904347175E+02 0.  0.
         11    1    3    3    0    0 -0.38682642565E+03 -0.22006120588E+03 -0.12902360072E+03  0.46336670949E+03  0.00000000000E+00 0.  1.
        -11    1    3    3    0    0 -0.68838625859E+03 -0.38667336877E+03 -0.35836737838E+03  0.86707503310E+03  0.00000000000E+00 0. -1.
          4    1    6    6  502    0  0.28832872586E+03  0.19532542216E+03 -0.46744434223E+01  0.34829201128E+03  0.00000000000E+00 0. -1.
          1    1    5    5  503    0 -0.32313610232E+02 -0.24013230233E+02 -0.16954348243E+03  0.17425784650E+03  0.00000000000E+00 0. -1.
         -2    1    5    5    0  503 -0.46194687312E+02  0.74836205981E+01 -0.31138168597E+02  0.56209779013E+02  0.00000000000E+00 0.  1.
         -3    1    6    6    0  502  0.86539225593E+03  0.42793876213E+03 -0.12817510377E+02  0.96550485722E+03  0.00000000000E+00 0.  1.
<mgrwt>
<rscale>  0 0.27867749E+04</rscale>
<asrwt>0</asrwt>
<pdfrwt beam="1">  1        2 0.27540544E+00 0.27867749E+04</pdfrwt>
<pdfrwt beam="2">  1       -2 0.16685705E+00 0.27867749E+04</pdfrwt>
<totfact> 0.17089050E+00</totfact>
</mgrwt>
</event>
<event>
12    1  0.2214165E-007  0.2777628E+04  0.7818608E-02  0.8310248E-01
         -2   -1    0    0    0  501 -0.00000000000E+00  0.00000000000E+00  0.24112139344E+04  0.24112139344E+04  0.00000000000E+00 0.  1.
          2   -1    0    0  501    0  0.00000000000E+00 -0.00000000000E+00 -0.79993084109E+03  0.79993084109E+03  0.00000000000E+00 0. -1.
         23    2    1    2    0    0  0.45748153885E+03  0.11290538666E+04  0.10116583405E+04  0.15861300277E+04  0.91125599112E+02 0.  0.
        254    2    1    2    0    0 -0.45748153885E+03 -0.11290538666E+04  0.59962475282E+03  0.16250147478E+04  0.89278838162E+03 0.  0.
        -24    2    4    4    0    0  0.16574573551E+02  0.13350262152E+03  0.82119935223E+02  0.17828123039E+03  0.83323747545E+02 0.  0.
         24    2    4    4    0    0 -0.47405611240E+03 -0.12625564881E+04  0.51750481759E+03  0.14467335174E+04  0.80302869388E+02 0.  0.
         13    1    3    3    0    0  0.18740439619E+03  0.39131147180E+03  0.40519765090E+03  0.59365832932E+03  0.00000000000E+00 0.  1.
        -13    1    3    3    0    0  0.27007714267E+03  0.73774239478E+03  0.60646068961E+03  0.99247169838E+03  0.00000000000E+00 0. -1.
          2    1    6    6  502    0 -0.11655637549E+03 -0.41344688725E+03  0.15462603020E+03  0.45654455036E+03  0.00000000000E+00 0. -1.
          3    1    5    5  503    0 -0.75500206921E+01  0.93990796380E+02  0.13137388500E+02  0.95204325496E+02  0.00000000000E+00 0. -1.
         -4    1    5    5    0  503  0.24124594243E+02  0.39511825143E+02  0.68982546724E+02  0.83076904889E+02  0.00000000000E+00 0.  1.
         -1    1    6    6    0  502 -0.35749973691E+03 -0.84910960085E+03  0.36287878739E+03  0.99018896706E+03  0.00000000000E+00 0.  1.
<mgrwt>
<rscale>  0 0.27776280E+04</rscale>
<asrwt>0</asrwt>
<pdfrwt beam="1">  1        2 0.12306628E+00 0.27776280E+04</pdfrwt>
<pdfrwt beam="2">  1       -2 0.37095599E+00 0.27776280E+04</pdfrwt>
<totfact> 0.34374534E-01</totfact>
</mgrwt>
</event>
<event>
12    1  0.2214165E-007  0.2359958E+04  0.7818608E-02  0.8454648E-01
          2   -1    0    0  501    0  0.00000000000E+00  0.00000000000E+00  0.19761831543E+04  0.19761831543E+04  0.00000000000E+00 0. -1.
         -2   -1    0    0    0  501 -0.00000000000E+00 -0.00000000000E+00 -0.70456572068E+03  0.70456572068E+03  0.00000000000E+00 0.  1.
         23    2    1    2    0    0 -0.72932107618E+03 -0.52071190248E+02 -0.24107892965E+03  0.77491744127E+03  0.88075816430E+02 0.  0.
        254    2    1    2    0    0  0.72932107618E+03  0.52071190248E+02  0.15126963632E+04  0.19058314337E+04  0.89962354640E+03 0.  0.
        -24    2    4    4    0    0  0.56246429743E+03  0.43357358651E+03  0.76612969953E+03  0.10472975425E+04  0.74332262121E+02 0.  0.
         24    2    4    4    0    0  0.16685677875E+03 -0.38150239627E+03  0.74656666372E+03  0.85853389120E+03  0.79582636235E+02 0.  0.
         11    1    3    3    0    0 -0.28239342645E+03  0.22117938140E+02 -0.84862014525E+02  0.29569716265E+03  0.00000000000E+00 0.  1.
        -11    1    3    3    0    0 -0.44692764973E+03 -0.74189128388E+02 -0.15621691513E+03  0.47922027862E+03  0.00000000000E+00 0. -1.
          4    1    6    6  502    0  0.17532608218E+03 -0.36683490561E+03  0.72352410437E+03  0.82993627025E+03  0.00000000000E+00 0. -1.
          1    1    5    5  503    0  0.19485652590E+03  0.19544459838E+03  0.30358610808E+03  0.41028305076E+03  0.00000000000E+00 0. -1.
         -2    1    5    5    0  503  0.36760777153E+03  0.23812898813E+03  0.46254359145E+03  0.63701449172E+03  0.00000000000E+00 0.  1.
         -3    1    6    6    0  502 -0.84693034317E+01 -0.14667490660E+02  0.23042559346E+02  0.28597620952E+02  0.00000000000E+00 0.  1.
<mgrwt>
<rscale>  0 0.23599584E+04</rscale>
<asrwt>0</asrwt>
<pdfrwt beam="1">  1        2 0.30402818E+00 0.23599584E+04</pdfrwt>
<pdfrwt beam="2">  1       -2 0.10839473E+00 0.23599584E+04</pdfrwt>
<totfact> 0.42307797E+00</totfact>
</mgrwt>
</event>
<event>
12    1  0.2214165E-007  0.3909590E+04  0.7818608E-02  0.8023038E-01
          1   -1    0    0  501    0  0.00000000000E+00  0.00000000000E+00  0.37183846552E+04  0.37183846552E+04  0.00000000000E+00 0. -1.
         -1   -1    0    0    0  501 -0.00000000000E+00 -0.00000000000E+00 -0.10276568098E+04  0.10276568098E+04  0.00000000000E+00 0.  1.
         23    2    1    2    0    0  0.16758003806E+04 -0.45540906437E+03  0.50065376769E+03  0.18095860270E+04  0.90791313493E+02 0.  0.
        254    2    1    2    0    0 -0.16758003806E+04  0.45540906437E+03  0.21900740777E+04  0.29364554379E+04  0.90035645253E+03 0.  0.
        -24    2    4    4    0    0 -0.13772666139E+04  0.70767704103E+03  0.16383411611E+04  0.22556796598E+04  0.79112877935E+02 0.  0.
         24    2    4    4    0    0 -0.29853376671E+03 -0.25226797666E+03  0.55173291663E+03  0.68077577813E+03  0.79277404618E+02 0.  0.
         11    1    3    3    0    0  0.35619434713E+03 -0.60257485662E+02  0.93048270036E+02  0.37304605354E+03  0.00000000000E+00 0.  1.
        -11    1    3    3    0    0  0.13196060334E+04 -0.39515157871E+03  0.40760549766E+03  0.14365399735E+04  0.00000000000E+00 0. -1.
          4    1    6    6  502    0 -0.23288624025E+03 -0.21127470067E+03  0.38601857093E+03  0.49787883782E+03  0.00000000000E+00 0. -1.
          3    1    5    5  503    0 -0.83032316426E+03  0.40782959591E+03  0.10291383578E+04  0.13837945280E+04  0.00000000000E+00 0. -1.
         -4    1    5    5    0  503 -0.54694344960E+03  0.29984744512E+03  0.60920280331E+03  0.87188513175E+03  0.00000000000E+00 0.  1.
         -3    1    6    6    0  502 -0.65647526461E+02 -0.40993275993E+02  0.16571434569E+03  0.18289694031E+03  0.00000000000E+00 0.  1.
<mgrwt>
<rscale>  0 0.39095899E+04</rscale>
<asrwt>0</asrwt>
<pdfrwt beam="1">  1        1 0.57205917E+00 0.39095899E+04</pdfrwt>
<pdfrwt beam="2">  1       -1 0.15810105E+00 0.39095899E+04</pdfrwt>
<totfact> 0.39603600E-02</totfact>
</mgrwt>
</event>
<event>
12    1  0.2615180E-007  0.2887028E+04  0.7818608E-02  0.8276747E-01
          2   -1    0    0  501    0  0.00000000000E+00  0.00000000000E+00  0.14811581144E+04  0.14811581144E+04  0.00000000000E+00 0.  1.
         -2   -1    0    0    0  501 -0.00000000000E+00 -0.00000000000E+00 -0.14068268098E+04  0.14068268098E+04  0.00000000000E+00 0. -1.
         23    2    1    2    0    0  0.56496034776E+03  0.11576138485E+04  0.21720682169E+03  0.13095632135E+04  0.92341701481E+02 0.  0.
        254    2    1    2    0    0 -0.56496034776E+03 -0.11576138485E+04 -0.14287551711E+03  0.15784217107E+04  0.90097262259E+03 0.  0.
        -24    2    4    4    0    0 -0.69848746785E+03 -0.73542510110E+03 -0.35953514101E+03  0.10790177448E+04  0.79239851064E+02 0.  0.
         24    2    4    4    0    0  0.13352712010E+03 -0.42218874745E+03  0.21665962390E+03  0.49940396589E+03  0.79938090072E+02 0.  0.
         11    1    3    3    0    0  0.26387883069E+03  0.62022195752E+03  0.14408095789E+03  0.68925077896E+03  0.00000000000E+00 0. -1.
        -11    1    3    3    0    0  0.30108151707E+03  0.53739189102E+03  0.73125863801E+02  0.62031243452E+03  0.00000000000E+00 0.  1.
          2    1    6    6  502    0  0.42511364770E+02 -0.18804001679E+03  0.54293800733E+02  0.20028499905E+03  0.00000000000E+00 0. -1.
          3    1    5    5  503    0 -0.53990579430E+01 -0.19930179178E+02 -0.23976007605E+01  0.20787264325E+02  0.00000000000E+00 0. -1.
         -2    1    5    5    0  503 -0.69308840991E+03 -0.71549492192E+03 -0.35713754025E+03  0.10582304805E+04  0.00000000000E+00 0.  1.
         -1    1    6    6    0  502  0.91015755325E+02 -0.23414873066E+03  0.16236582317E+03  0.29911896684E+03  0.00000000000E+00 0.  1.
<mgrwt>
<rscale>  0 0.28870282E+04</rscale>
<asrwt>0</asrwt>
<pdfrwt beam="1">  1        2 0.22787048E+00 0.28870282E+04</pdfrwt>
<pdfrwt beam="2">  1       -2 0.21643489E+00 0.28870282E+04</pdfrwt>
<totfact> 0.11704970E+00</totfact>
</mgrwt>
</event>
<event>
12    1  0.2214165E-007  0.2700846E+04  0.7818608E-02  0.8334731E-01
         -1   -1    0    0    0  501 -0.00000000000E+00  0.00000000000E+00  0.77532854031E+03  0.77532854031E+03  0.00000000000E+00 0. -1.
          1   -1    0    0  501    0  0.00000000000E+00 -0.00000000000E+00 -0.23520893354E+04  0.23520893354E+04  0.00000000000E+00 0.  1.
         23    2    1    2    0    0 -0.10060769547E+03  0.11535009101E+04 -0.10599445882E+04  0.15732870587E+04  0.10518260858E+03 0.  0.
        254    2    1    2    0    0  0.10060769547E+03 -0.11535009101E+04 -0.51681620690E+03  0.15541308170E+04  0.89863081769E+03 0.  0.
        -24    2    4    4    0    0  0.22986012389E+03  0.49050044668E+02 -0.35171940088E+02  0.24984119705E+03  0.77084206801E+02 0.  0.
         24    2    4    4    0    0 -0.12925242841E+03 -0.12025509548E+04 -0.48164426681E+03  0.13042896199E+04  0.79719657394E+02 0.  0.
         11    1    3    3    0    0 -0.15032398981E+02  0.49512553767E+03 -0.51267019527E+03  0.71288568522E+03  0.00000000000E+00 0.  1.
        -11    1    3    3    0    0 -0.85575296493E+02  0.65837537244E+03 -0.54727439289E+03  0.86040137350E+03  0.00000000000E+00 0. -1.
          4    1    6    6  502    0 -0.72857525729E+02 -0.34655424657E+03 -0.14906852870E+03  0.38422583349E+03  0.00000000000E+00 0. -1.
          3    1    5    5  503    0  0.19083926865E+03  0.34103408834E+02  0.20618885059E+01  0.19387346475E+03  0.00000000000E+00 0. -1.
         -4    1    5    5    0  503  0.39020855240E+02  0.14946635834E+02 -0.37233828594E+02  0.55967732295E+02  0.00000000000E+00 0.  1.
         -3    1    6    6    0  502 -0.56394902683E+02 -0.85599670821E+03 -0.33257573812E+03  0.92006378643E+03  0.00000000000E+00 0.  1.
<mgrwt>
<rscale>  0 0.27008458E+04</rscale>
<asrwt>0</asrwt>
<pdfrwt beam="1">  1        1 0.36185989E+00 0.27008458E+04</pdfrwt>
<pdfrwt beam="2">  1       -1 0.11928132E+00 0.27008458E+04</pdfrwt>
<totfact> 0.93988862E-01</totfact>
</mgrwt>
</event>
<event>
12    1  0.2214165E-007  0.2645126E+04  0.7818608E-02  0.8353033E-01
         -2   -1    0    0    0  501 -0.00000000000E+00  0.00000000000E+00  0.82864072291E+03  0.82864072291E+03  0.00000000000E+00 0.  1.
          2   -1    0    0  501    0  0.00000000000E+00 -0.00000000000E+00 -0.21108937775E+04  0.21108937775E+04  0.00000000000E+00 0. -1.
         23    2    1    2    0    0  0.52668131711E+03  0.10321364685E+04 -0.40775241413E+03  0.12316504293E+04  0.89453057246E+02 0.  0.
        254    2    1    2    0    0 -0.52668131711E+03 -0.10321364685E+04 -0.87450064051E+03  0.17078840711E+04  0.89967645894E+03 0.  0.
        -24    2    4    4    0    0 -0.17511144958E+03 -0.10840606960E+04 -0.68644495716E+03  0.12974891387E+04  0.80123488532E+02 0.  0.
         24    2    4    4    0    0 -0.35156986753E+03  0.51924227481E+02 -0.18805568335E+03  0.41039493246E+03  0.82228726102E+02 0.  0.
         13    1    3    3    0    0  0.23411191792E+03  0.39217758840E+03 -0.19402572811E+03  0.49624352300E+03  0.00000000000E+00 0. -1.
        -13    1    3    3    0    0  0.29256939919E+03  0.63995888009E+03 -0.21372668603E+03  0.73540690633E+03  0.00000000000E+00 0.  1.
          2    1    6    6  502    0 -0.17920467562E+03  0.79552542951E+01 -0.52991602457E+02  0.18704467853E+03  0.00000000000E+00 0. -1.
          1    1    5    5  503    0 -0.52054889693E+02 -0.54680394311E+03 -0.36380312124E+03  0.65883000445E+03  0.00000000000E+00 0. -1.
         -2    1    5    5    0  503 -0.12305655988E+03 -0.53725675286E+03 -0.32264183592E+03  0.63865913421E+03  0.00000000000E+00 0.  1.
         -1    1    6    6    0  502 -0.17236519191E+03  0.43968973185E+02 -0.13506408089E+03  0.22335025394E+03  0.00000000000E+00 0.  1.
<mgrwt>
<rscale>  0 0.26451257E+04</rscale>
<asrwt>0</asrwt>
<pdfrwt beam="1">  1        2 0.32475288E+00 0.26451257E+04</pdfrwt>
<pdfrwt beam="2">  1       -2 0.12748319E+00 0.26451257E+04</pdfrwt>
<totfact> 0.23298999E+00</totfact>
</mgrwt>
</event>
<event>
12    1  0.2214165E-007  0.2135091E+04  0.7818608E-02  0.8545941E-01
         -1   -1    0    0    0  501 -0.00000000000E+00  0.00000000000E+00  0.14860485264E+04  0.14860485264E+04  0.00000000000E+00 0.  1.
          1   -1    0    0  501    0  0.00000000000E+00 -0.00000000000E+00 -0.76690176384E+03  0.76690176384E+03  0.00000000000E+00 0. -1.
         23    2    1    2    0    0  0.53768812109E+03 -0.32233353774E+03 -0.34583047420E+03  0.72183213314E+03  0.91844904176E+02 0.  0.
        254    2    1    2    0    0 -0.53768812109E+03  0.32233353774E+03  0.10649772367E+04  0.15311181571E+04  0.90395733919E+03 0.  0.
        -24    2    4    4    0    0 -0.37838976846E+03  0.52939492680E+03  0.10737853066E+04  0.12581541045E+04  0.80616750665E+02 0.  0.
         24    2    4    4    0    0 -0.15929835264E+03 -0.20706138906E+03 -0.88080699038E+01  0.27296405259E+03  0.78621930290E+02 0.  0.
         11    1    3    3    0    0  0.36738971054E+03 -0.18277085828E+03 -0.19069251104E+03  0.45248648578E+03  0.00000000000E+00 0.  1.
        -11    1    3    3    0    0  0.17029841055E+03 -0.13956267946E+03 -0.15513796316E+03  0.26934564736E+03  0.00000000000E+00 0. -1.
          4    1    6    6  502    0 -0.12823674468E+03 -0.18022642945E+03 -0.35467917831E+02  0.22401830674E+03  0.00000000000E+00 0. -1.
          1    1    5    5  503    0 -0.30224283843E+03  0.40149607661E+03  0.88517906933E+03  0.10178859552E+04  0.00000000000E+00 0. -1.
         -2    1    5    5    0  503 -0.76146930031E+02  0.12789885020E+03  0.18860623731E+03  0.24026814934E+03  0.00000000000E+00 0.  1.
         -3    1    6    6    0  502 -0.31061607959E+02 -0.26834959608E+02  0.26659847927E+02  0.48945745859E+02  0.00000000000E+00 0.  1.
<mgrwt>
<rscale>  0 0.21350909E+04</rscale>
<asrwt>0</asrwt>
<pdfrwt beam="1">  1        1 0.11798489E+00 0.21350909E+04</pdfrwt>
<pdfrwt beam="2">  1       -1 0.22862285E+00 0.21350909E+04</pdfrwt>
<totfact> 0.20901825E+00</totfact>
</mgrwt>
</event>
<event>
12    1  0.2214165E-007  0.1541640E+04  0.7818608E-02  0.8857225E-01
         -2   -1    0    0    0  501 -0.00000000000E+00  0.00000000000E+00  0.17011570558E+03  0.17011570558E+03  0.00000000000E+00 0.  1.
          2   -1    0    0  501    0  0.00000000000E+00 -0.00000000000E+00 -0.34927036153E+04  0.34927036153E+04  0.00000000000E+00 0. -1.
         23    2    1    2    0    0 -0.47861976827E+03 -0.11466789967E+03 -0.13300709701E+04  0.14210521367E+04  0.89859778787E+02 0.  0.
        254    2    1    2    0    0  0.47861976827E+03  0.11466789967E+03 -0.19925169396E+04  0.22417671841E+04  0.90175980376E+03 0.  0.
        -24    2    4    4    0    0  0.49979508389E+02 -0.51636107215E+02  0.68919513659E+02  0.12830932661E+03  0.80926788545E+02 0.  0.
         24    2    4    4    0    0  0.42864025989E+03  0.16630400688E+03 -0.20614364532E+04  0.21134578575E+04  0.76120758152E+02 0.  0.
         11    1    3    3    0    0 -0.22935002749E+03 -0.69501291647E+02 -0.76818957652E+03  0.80470310682E+03  0.00000000000E+00 0. -1.
        -11    1    3    3    0    0 -0.24926974079E+03 -0.45166608019E+02 -0.56188139359E+03  0.61634902987E+03  0.00000000000E+00 0.  1.
          4    1    6    6  502    0  0.40615056551E+03  0.15420112069E+03 -0.18418938119E+04  0.18924346969E+04  0.00000000000E+00 0. -1.
          1    1    5    5  503    0 -0.18335539075E+02 -0.32388619803E+02  0.22161025994E+02  0.43316576031E+02  0.00000000000E+00 0. -1.
         -2    1    5    5    0  503  0.68315047464E+02 -0.19247487412E+02  0.46758487665E+02  0.84992750576E+02  0.00000000000E+00 0.  1.
         -3    1    6    6    0  502  0.22489694373E+02  0.12102886194E+02 -0.21954264128E+03  0.22102316066E+03  0.00000000000E+00 0.  1.
<mgrwt>
<rscale>  0 0.15416403E+04</rscale>
<asrwt>0</asrwt>
<pdfrwt beam="1">  1        2 0.53733907E+00 0.15416403E+04</pdfrwt>
<pdfrwt beam="2">  1       -2 0.26171645E-01 0.15416403E+04</pdfrwt>
<totfact> 0.10593783E+01</totfact>
</mgrwt>
</event>
<event>
12    1  0.2214165E-007  0.2016631E+04  0.7818608E-02  0.8598884E-01
          1   -1    0    0  501    0  0.00000000000E+00  0.00000000000E+00  0.99680504855E+03  0.99680504855E+03  0.00000000000E+00 0. -1.
         -1   -1    0    0    0  501 -0.00000000000E+00 -0.00000000000E+00 -0.10199593281E+04  0.10199593281E+04  0.00000000000E+00 0.  1.
         23    2    1    2    0    0 -0.46191059308E+03  0.64939354327E+03 -0.12339902695E+03  0.81130888287E+03  0.89002323261E+02 0.  0.
        254    2    1    2    0    0  0.46191059308E+03 -0.64939354327E+03  0.10024474740E+03  0.12054554938E+04  0.89888851813E+03 0.  0.
        -24    2    4    4    0    0  0.50091324866E+03 -0.17937518932E+03  0.37325166475E+03  0.65475459096E+03  0.79355074971E+02 0.  0.
         24    2    4    4    0    0 -0.39002655579E+02 -0.47001835395E+03 -0.27300691735E+03  0.55070090281E+03  0.79374096780E+02 0.  0.
         13    1    3    3    0    0 -0.48294671204E+02  0.30120333043E+02 -0.14027548235E+02  0.58620660511E+02  0.00000000000E+00 0. -1.
        -13    1    3    3    0    0 -0.41361592187E+03  0.61927321022E+03 -0.10937147871E+03  0.75268822236E+03  0.00000000000E+00 0.  1.
          2    1    6    6  502    0 -0.65949787489E+01 -0.40715982461E+03 -0.23976757585E+03  0.47255804612E+03  0.00000000000E+00 0. -1.
          1    1    5    5  503    0  0.30492713801E+03 -0.12934028211E+03  0.27179045236E+03  0.42846180468E+03  0.00000000000E+00 0. -1.
         -2    1    5    5    0  503  0.19598611064E+03 -0.50034907205E+02  0.10146121239E+03  0.22629278628E+03  0.00000000000E+00 0.  1.
         -1    1    6    6    0  502 -0.32407676830E+02 -0.62858529335E+02 -0.33239341500E+02  0.78142856686E+02  0.00000000000E+00 0.  1.
<mgrwt>
<rscale>  0 0.20166315E+04</rscale>
<asrwt>0</asrwt>
<pdfrwt beam="1">  1        1 0.15335462E+00 0.20166315E+04</pdfrwt>
<pdfrwt beam="2">  1       -1 0.15691682E+00 0.20166315E+04</pdfrwt>
<totfact> 0.43490913E+00</totfact>
</mgrwt>
</event>
<event>
12    1  0.2214165E-007  0.2131500E+04  0.7818608E-02  0.8547493E-01
          2   -1    0    0  501    0  0.00000000000E+00  0.00000000000E+00  0.17285781613E+04  0.17285781613E+04  0.00000000000E+00 0.  1.
         -2   -1    0    0    0  501 -0.00000000000E+00 -0.00000000000E+00 -0.65708520898E+03  0.65708520898E+03  0.00000000000E+00 0. -1.
         23    2    1    2    0    0 -0.45256163597E+02  0.49228416274E+03 -0.36379414385E+03  0.62064174718E+03  0.91968375146E+02 0.  0.
        254    2    1    2    0    0  0.45256163597E+02 -0.49228416274E+03  0.14352870961E+04  0.17650216231E+04  0.90047790886E+03 0.  0.
        -24    2    4    4    0    0  0.17524000576E+03 -0.63974580324E+03  0.13992835042E+04  0.15505696593E+04  0.79298113681E+02 0.  0.
         24    2    4    4    0    0 -0.12998384216E+03  0.14746164050E+03  0.36003591956E+02  0.21445196379E+03  0.77798788536E+02 0.  0.
         13    1    3    3    0    0  0.28157852016E+02  0.10865078759E+03 -0.82579166557E+02  0.13934553105E+03  0.00000000000E+00 0.  1.
        -13    1    3    3    0    0 -0.73414015613E+02  0.38363337515E+03 -0.28121497729E+03  0.48129621614E+03  0.00000000000E+00 0. -1.
          4    1    6    6  502    0 -0.85673847625E+02  0.85918945116E+02  0.59394762213E+02  0.13509186162E+03  0.00000000000E+00 0. -1.
          1    1    5    5  503    0  0.14340258827E+03 -0.41853716741E+03  0.86982301322E+03  0.97587383260E+03  0.00000000000E+00 0. -1.
         -2    1    5    5    0  503  0.31837417485E+02 -0.22120863583E+03  0.52946049094E+03  0.57469582667E+03  0.00000000000E+00 0.  1.
         -3    1    6    6    0  502 -0.44309994535E+02  0.61542695385E+02 -0.23391170257E+02  0.79360102173E+02  0.00000000000E+00 0.  1.
<mgrwt>
<rscale>  0 0.21315001E+04</rscale>
<asrwt>0</asrwt>
<pdfrwt beam="1">  1        2 0.26593510E+00 0.21315001E+04</pdfrwt>
<pdfrwt beam="2">  1       -2 0.10109003E+00 0.21315001E+04</pdfrwt>
<totfact> 0.69956823E+00</totfact>
</mgrwt>
</event>
<event>
12    1  0.2214165E-007  0.2220270E+04  0.7818608E-02  0.8510038E-01
          1   -1    0    0  501    0  0.00000000000E+00  0.00000000000E+00  0.56879840747E+03  0.56879840747E+03  0.00000000000E+00 0. -1.
         -1   -1    0    0    0  501 -0.00000000000E+00 -0.00000000000E+00 -0.21666726060E+04  0.21666726060E+04  0.00000000000E+00 0.  1.
         23    2    1    2    0    0  0.86587902837E+02 -0.59939704120E+03  0.19226923161E+03  0.64227025521E+03  0.93644782996E+02 0.  0.
        254    2    1    2    0    0 -0.86587902837E+02  0.59939704120E+03 -0.17901434301E+04  0.20932007583E+04  0.90005646269E+03 0.  0.
        -24    2    4    4    0    0 -0.37958608964E+03  0.31636107136E+03 -0.15148312387E+04  0.15950773183E+04  0.73403286174E+02 0.  0.
         24    2    4    4    0    0  0.29299818680E+03  0.28303596984E+03 -0.27531219139E+03  0.49812344001E+03  0.79830201454E+02 0.  0.
         11    1    3    3    0    0 -0.62744423323E+01 -0.27562170383E+03  0.96442983804E+02  0.29207523238E+03  0.00000000000E+00 0.  1.
        -11    1    3    3    0    0  0.92862345169E+02 -0.32377533737E+03  0.95826247803E+02  0.35019502282E+03  0.00000000000E+00 0. -1.
          2    1    6    6  502    0  0.15152364653E+03  0.11434916038E+03 -0.16668197818E+03  0.25262230263E+03  0.00000000000E+00 0. -1.
          1    1    5    5  503    0 -0.38269028298E+03  0.31006861245E+03 -0.14929458837E+04  0.15720947200E+04  0.00000000000E+00 0. -1.
         -4    1    5    5    0  503  0.31041933426E+01  0.62924589106E+01 -0.21885355072E+02  0.22982598244E+02  0.00000000000E+00 0.  1.
         -1    1    6    6    0  502  0.14147454027E+03  0.16868680946E+03 -0.10863021321E+03  0.24550113738E+03  0.00000000000E+00 0.  1.
<mgrwt>
<rscale>  0 0.22202702E+04</rscale>
<asrwt>0</asrwt>
<pdfrwt beam="1">  1        1 0.87507449E-01 0.22202702E+04</pdfrwt>
<pdfrwt beam="2">  1       -1 0.33333424E+00 0.22202702E+04</pdfrwt>
<totfact> 0.67418613E-01</totfact>
</mgrwt>
</event>
<event>
12    1  0.2214165E-007  0.2989432E+04  0.7818608E-02  0.8246755E-01
         -2   -1    0    0    0  501 -0.00000000000E+00  0.00000000000E+00  0.10227148392E+04  0.10227148392E+04  0.00000000000E+00 0.  1.
          2   -1    0    0  501    0  0.00000000000E+00 -0.00000000000E+00 -0.21845544246E+04  0.21845544246E+04  0.00000000000E+00 0. -1.
         23    2    1    2    0    0  0.82612192043E+03  0.10358963826E+04 -0.84548215491E+03  0.15743294931E+04  0.90080717882E+02 0.  0.
        254    2    1    2    0    0 -0.82612192043E+03 -0.10358963826E+04 -0.31635743053E+03  0.16329397707E+04  0.90047294695E+03 0.  0.
        -24    2    4    4    0    0 -0.38951357079E+03 -0.86391266473E+03 -0.55433546789E+03  0.11009333883E+04  0.81857195820E+02 0.  0.
         24    2    4    4    0    0 -0.43660834964E+03 -0.17198371785E+03  0.23797803736E+03  0.53200638240E+03  0.78689227121E+02 0.  0.
         13    1    3    3    0    0  0.25464960136E+03  0.37486532483E+03 -0.25932035884E+03  0.52212783851E+03  0.00000000000E+00 0.  1.
        -13    1    3    3    0    0  0.57147231907E+03  0.66103105774E+03 -0.58616179606E+03  0.10522016546E+04  0.00000000000E+00 0. -1.
          4    1    6    6  502    0 -0.87793504846E+02 -0.68700223357E+02  0.45133574177E+02  0.12026828219E+03  0.00000000000E+00 0. -1.
          3    1    5    5  503    0 -0.11050608078E+03 -0.28596005524E+03 -0.13994721297E+03  0.33700143843E+03  0.00000000000E+00 0. -1.
         -4    1    5    5    0  503 -0.27900749001E+03 -0.57795260949E+03 -0.41438825492E+03  0.76393194992E+03  0.00000000000E+00 0.  1.
         -3    1    6    6    0  502 -0.34881484480E+03 -0.10328349449E+03  0.19284446319E+03  0.41173810021E+03  0.00000000000E+00 0.  1.
<mgrwt>
<rscale>  0 0.29894322E+04</rscale>
<asrwt>0</asrwt>
<pdfrwt beam="1">  1        2 0.33608529E+00 0.29894322E+04</pdfrwt>
<pdfrwt beam="2">  1       -2 0.15734075E+00 0.29894322E+04</pdfrwt>
<totfact> 0.11899021E+00</totfact>
</mgrwt>
</event>
<event>
12    1  0.2543221E-007  0.2428716E+04  0.7818608E-02  0.8428830E-01
          2   -1    0    0  501    0  0.00000000000E+00  0.00000000000E+00  0.15676226569E+04  0.15676226569E+04  0.00000000000E+00 0. -1.
         -2   -1    0    0    0  501 -0.00000000000E+00 -0.00000000000E+00 -0.94070163727E+03  0.94070163727E+03  0.00000000000E+00 0.  1.
         23    2    1    2    0    0  0.10197804823E+04 -0.22175038149E+03  0.32691339313E+03  0.10973914586E+04  0.90940546947E+02 0.  0.
        254    2    1    2    0    0 -0.10197804823E+04  0.22175038149E+03  0.30000762648E+03  0.14109328356E+04  0.90088924227E+03 0.  0.
        -24    2    4    4    0    0 -0.21925524070E+02 -0.44627467929E+02 -0.22962554535E+03  0.24745586163E+03  0.77679938708E+02 0.  0.
         24    2    4    4    0    0 -0.99785495819E+03  0.26637784942E+03  0.52963317183E+03  0.11634769739E+04  0.80595880344E+02 0.  0.
         13    1    3    3    0    0  0.56485478369E+03 -0.12634697663E+03  0.22838935057E+03  0.62224286305E+03  0.00000000000E+00 0. -1.
        -13    1    3    3    0    0  0.45492569857E+03 -0.95403404857E+02  0.98524042560E+02  0.47514859554E+03  0.00000000000E+00 0.  1.
          4    1    6    6  502    0 -0.18183387387E+03  0.34014834222E+02  0.12658389322E+03  0.22415184286E+03  0.00000000000E+00 0. -1.
          3    1    5    5  503    0 -0.35108671848E+02  0.40482268758E+00 -0.45649681078E+02  0.57590590402E+02  0.00000000000E+00 0. -1.
         -4    1    5    5    0  503  0.13183147777E+02 -0.45032290617E+02 -0.18397586427E+03  0.18986527123E+03  0.00000000000E+00 0.  1.
         -3    1    6    6    0  502 -0.81602108432E+03  0.23236301519E+03  0.40304927862E+03  0.93932513108E+03  0.00000000000E+00 0.  1.
<mgrwt>
<rscale>  0 0.24287159E+04</rscale>
<asrwt>0</asrwt>
<pdfrwt beam="1">  1        2 0.24117272E+00 0.24287159E+04</pdfrwt>
<pdfrwt beam="2">  1       -2 0.14472333E+00 0.24287159E+04</pdfrwt>
<totfact> 0.34359829E+00</totfact>
</mgrwt>
</event>
<event>
12    1  0.2214165E-007  0.1875406E+04  0.7818608E-02  0.8667196E-01
          2   -1    0    0  501    0  0.00000000000E+00  0.00000000000E+00  0.18465400745E+04  0.18465400745E+04  0.00000000000E+00 0. -1.
         -2   -1    0    0    0  501 -0.00000000000E+00 -0.00000000000E+00 -0.47618067584E+03  0.47618067584E+03  0.00000000000E+00 0.  1.
         23    2    1    2    0    0  0.38051799542E+03 -0.53556213083E+03  0.16950953157E+03  0.68455257480E+03  0.90873569078E+02 0.  0.
        254    2    1    2    0    0 -0.38051799542E+03  0.53556213083E+03  0.12008498671E+04  0.16381681756E+04  0.89996323663E+03 0.  0.
        -24    2    4    4    0    0 -0.37583633788E+03  0.74919753144E+03  0.72772019745E+03  0.11129323355E+04  0.80571730419E+02 0.  0.
         24    2    4    4    0    0 -0.46816575317E+01 -0.21363540061E+03  0.47312966966E+03  0.52523584002E+03  0.79743344653E+02 0.  0.
         13    1    3    3    0    0  0.18333658044E+03 -0.22587549740E+03  0.11752386802E+03  0.31375771163E+03  0.00000000000E+00 0.  1.
        -13    1    3    3    0    0  0.19718141497E+03 -0.30968663343E+03  0.51985663545E+02  0.37079486317E+03  0.00000000000E+00 0. -1.
          2    1    6    6  502    0  0.32142806963E+02 -0.10814352780E+03  0.28368097385E+03  0.30529179087E+03  0.00000000000E+00 0. -1.
          1    1    5    5  503    0 -0.14563580752E+03  0.21060986421E+03  0.20858235129E+03  0.33026186671E+03  0.00000000000E+00 0. -1.
         -2    1    5    5    0  503 -0.23020053036E+03  0.53858766723E+03  0.51913784616E+03  0.78267046883E+03  0.00000000000E+00 0.  1.
         -1    1    6    6    0  502 -0.36824464495E+02 -0.10549187281E+03  0.18944869581E+03  0.21994404915E+03  0.00000000000E+00 0.  1.
<mgrwt>
<rscale>  0 0.18754058E+04</rscale>
<asrwt>0</asrwt>
<pdfrwt beam="1">  1        2 0.28408308E+00 0.18754058E+04</pdfrwt>
<pdfrwt beam="2">  1       -2 0.73258567E-01 0.18754058E+04</pdfrwt>
<totfact> 0.12832215E+01</totfact>
</mgrwt>
</event>
<event>
12    1  0.2214165E-007  0.1807984E+04  0.7818608E-02  0.8702065E-01
         -2   -1    0    0    0  501 -0.00000000000E+00  0.00000000000E+00  0.46227270938E+03  0.46227270938E+03  0.00000000000E+00 0.  1.
          2   -1    0    0  501    0  0.00000000000E+00 -0.00000000000E+00 -0.17677912300E+04  0.17677912300E+04  0.00000000000E+00 0. -1.
         23    2    1    2    0    0  0.61475553964E+03  0.18939043492E+03 -0.74832581230E+03  0.99087014265E+03  0.89660514676E+02 0.  0.
        254    2    1    2    0    0 -0.61475553964E+03 -0.18939043492E+03 -0.55719270830E+03  0.12391937967E+04  0.90074660215E+03 0.  0.
        -24    2    4    4    0    0 -0.71922841136E+03  0.11269238853E+03 -0.53587550885E+03  0.90745102432E+03  0.79471494278E+02 0.  0.
         24    2    4    4    0    0  0.10447287173E+03 -0.30208282345E+03 -0.21317199445E+02  0.33174277240E+03  0.86198787099E+02 0.  0.
         13    1    3    3    0    0  0.34397270541E+03  0.14380656884E+03 -0.39150892318E+03  0.54062629259E+03  0.00000000000E+00 0.  1.
        -13    1    3    3    0    0  0.27078283422E+03  0.45583866080E+02 -0.35681688912E+03  0.45024385006E+03  0.00000000000E+00 0. -1.
          2    1    6    6  502    0  0.87041142941E+00 -0.35501188325E+02 -0.28673135616E+02  0.45642531641E+02  0.00000000000E+00 0. -1.
          1    1    5    5  503    0 -0.28175125783E+03  0.24841656002E+02 -0.16666222410E+03  0.32829434370E+03  0.00000000000E+00 0. -1.
         -2    1    5    5    0  503 -0.43747715353E+03  0.87850732523E+02 -0.36921328476E+03  0.57915668062E+03  0.00000000000E+00 0.  1.
         -1    1    6    6    0  502  0.10360246030E+03 -0.26658163512E+03  0.73559361713E+01  0.28610024076E+03  0.00000000000E+00 0.  1.
<mgrwt>
<rscale>  0 0.18079841E+04</rscale>
<asrwt>0</asrwt>
<pdfrwt beam="1">  1        2 0.27196789E+00 0.18079841E+04</pdfrwt>
<pdfrwt beam="2">  1       -2 0.71118877E-01 0.18079841E+04</pdfrwt>
<totfact> 0.15229806E+01</totfact>
</mgrwt>
</event>
<event>
12    1  0.2214165E-007  0.2649588E+04  0.7818608E-02  0.8351550E-01
          2   -1    0    0  501    0  0.00000000000E+00  0.00000000000E+00  0.75495074512E+03  0.75495074512E+03  0.00000000000E+00 0. -1.
         -2   -1    0    0    0  501 -0.00000000000E+00 -0.00000000000E+00 -0.23247601004E+04  0.23247601004E+04  0.00000000000E+00 0.  1.
         23    2    1    2    0    0 -0.24587177573E+03  0.11155610097E+04 -0.40215417917E+03  0.12142698136E+04  0.88283067555E+02 0.  0.
        254    2    1    2    0    0  0.24587177573E+03 -0.11155610097E+04 -0.11676551761E+04  0.18654410318E+04  0.90084534556E+03 0.  0.
        -24    2    4    4    0    0  0.49716758336E+03 -0.62087609698E+03 -0.34570825268E+03  0.87073280082E+03  0.77451150505E+02 0.  0.
         24    2    4    4    0    0 -0.25129580763E+03 -0.49468491272E+03 -0.82194692339E+03  0.99470823102E+03  0.77362614892E+02 0.  0.
         13    1    3    3    0    0 -0.81031370884E+02  0.44715093141E+03 -0.11806152727E+03  0.46951950199E+03  0.00000000000E+00 0. -1.
        -13    1    3    3    0    0 -0.16484040484E+03  0.66841007830E+03 -0.28409265191E+03  0.74475031165E+03  0.00000000000E+00 0.  1.
          4    1    6    6  502    0 -0.24537158070E+03 -0.49609641319E+03 -0.81721902761E+03  0.98699838039E+03  0.00000000000E+00 0. -1.
          1    1    5    5  503    0  0.17578973729E+03 -0.16975657802E+03 -0.86950048648E+02  0.25938318850E+03  0.00000000000E+00 0. -1.
         -2    1    5    5    0  503  0.32137784606E+03 -0.45111951897E+03 -0.25875820403E+03  0.61134961232E+03  0.00000000000E+00 0.  1.
         -3    1    6    6    0  502 -0.59242269365E+01  0.14115004654E+01 -0.47278957796E+01  0.77098506381E+01  0.00000000000E+00 0.  1.
<mgrwt>
<rscale>  0 0.26495882E+04</rscale>
<asrwt>0</asrwt>
<pdfrwt beam="1">  1        2 0.11614627E+00 0.26495882E+04</pdfrwt>
<pdfrwt beam="2">  1       -2 0.35765540E+00 0.26495882E+04</pdfrwt>
<totfact> 0.45590050E-01</totfact>
</mgrwt>
</event>
<event>
12    1  0.2214165E-007  0.1897879E+04  0.7818608E-02  0.8655913E-01
         -2   -1    0    0    0  501 -0.00000000000E+00  0.00000000000E+00  0.44220497806E+03  0.44220497806E+03  0.00000000000E+00 0.  1.
          2   -1    0    0  501    0  0.00000000000E+00 -0.00000000000E+00 -0.20363539852E+04  0.20363539852E+04  0.00000000000E+00 0. -1.
         23    2    1    2    0    0  0.17068905355E+03 -0.18171490537E+03  0.27700616885E+03  0.38400281737E+03  0.92578001356E+02 0.  0.
        254    2    1    2    0    0 -0.17068905355E+03  0.18171490537E+03 -0.18711551760E+04  0.20945561459E+04  0.90762806027E+03 0.  0.
        -24    2    4    4    0    0 -0.24962450994E+03  0.50644874747E+03 -0.91062316873E+03  0.10744393409E+04  0.79891251954E+02 0.  0.
         24    2    4    4    0    0  0.78935456388E+02 -0.32473384211E+03 -0.96053200726E+03  0.10201168049E+04  0.79584447493E+02 0.  0.
         11    1    3    3    0    0  0.87915148276E+02 -0.89238745028E+02  0.72371025147E+02  0.14467270714E+03  0.00000000000E+00 0. -1.
        -11    1    3    3    0    0  0.82773905275E+02 -0.92476160337E+02  0.20463514371E+03  0.23933011023E+03  0.00000000000E+00 0.  1.
          4    1    6    6  502    0  0.58790236976E+02 -0.21038133018E+03 -0.50897754187E+03  0.55387248910E+03  0.00000000000E+00 0. -1.
          3    1    5    5  503    0 -0.20424890311E+03  0.39616049735E+03 -0.77334876709E+03  0.89259681247E+03  0.00000000000E+00 0. -1.
         -4    1    5    5    0  503 -0.45375606829E+02  0.11028825013E+03 -0.13727440165E+03  0.18184252847E+03  0.00000000000E+00 0.  1.
         -3    1    6    6    0  502  0.20145219412E+02 -0.11435251193E+03 -0.45155446539E+03  0.46624431585E+03  0.00000000000E+00 0.  1.
<mgrwt>
<rscale>  0 0.18978787E+04</rscale>
<asrwt>0</asrwt>
<pdfrwt beam="1">  1        2 0.31328523E+00 0.18978787E+04</pdfrwt>
<pdfrwt beam="2">  1       -2 0.68031535E-01 0.18978787E+04</pdfrwt>
<totfact> 0.11815868E+01</totfact>
</mgrwt>
</event>
<event>
12    1  0.2214165E-007  0.2188082E+04  0.7818608E-02  0.8523405E-01
         -1   -1    0    0    0  501 -0.00000000000E+00  0.00000000000E+00  0.17725409091E+04  0.17725409091E+04  0.00000000000E+00 0.  1.
          1   -1    0    0  501    0  0.00000000000E+00 -0.00000000000E+00 -0.67526008864E+03  0.67526008864E+03  0.00000000000E+00 0. -1.
         23    2    1    2    0    0  0.25824113526E+03  0.86811810162E+03  0.51294032639E+03  0.10448302152E+04  0.90801309326E+02 0.  0.
        254    2    1    2    0    0 -0.25824113526E+03 -0.86811810162E+03  0.58434049405E+03  0.14029707826E+04  0.89808445116E+03 0.  0.
        -24    2    4    4    0    0 -0.31411852516E+03 -0.85772831881E+03  0.11565291393E+03  0.92419108602E+03  0.79907760856E+02 0.  0.
         24    2    4    4    0    0  0.55877389896E+02 -0.10389782806E+02  0.46868758012E+03  0.47877969653E+03  0.79572104192E+02 0.  0.
         13    1    3    3    0    0  0.56032664498E+02  0.22409161698E+03  0.17590161365E+03  0.29034133357E+03  0.00000000000E+00 0.  1.
        -13    1    3    3    0    0  0.20220847076E+03  0.64402648463E+03  0.33703871273E+03  0.75448888159E+03  0.00000000000E+00 0. -1.
          2    1    6    6  502    0  0.74395351949E+02 -0.11349512652E+02  0.30960365609E+03  0.31861874348E+03  0.00000000000E+00 0. -1.
          3    1    5    5  503    0 -0.20418606752E+03 -0.52835176706E+03  0.33831104174E+02  0.56744346285E+03  0.00000000000E+00 0. -1.
         -4    1    5    5    0  503 -0.10993245764E+03 -0.32937655175E+03  0.81821809754E+02  0.35674762317E+03  0.00000000000E+00 0.  1.
         -1    1    6    6    0  502 -0.18517962053E+02  0.95972984606E+00  0.15908392403E+03  0.16016095306E+03  0.00000000000E+00 0.  1.
<mgrwt>
<rscale>  0 0.21880824E+04</rscale>
<asrwt>0</asrwt>
<pdfrwt beam="1">  1        1 0.10388617E+00 0.21880824E+04</pdfrwt>
<pdfrwt beam="2">  1       -1 0.27269860E+00 0.21880824E+04</pdfrwt>
<totfact> 0.13032108E+00</totfact>
</mgrwt>
</event>
<event>
12    1  0.2214165E-007  0.1537983E+04  0.7818608E-02  0.8859580E-01
         -2   -1    0    0    0  501 -0.00000000000E+00  0.00000000000E+00  0.10007111890E+04  0.10007111890E+04  0.00000000000E+00 0.  1.
          2   -1    0    0  501    0  0.00000000000E+00 -0.00000000000E+00 -0.59092762843E+03  0.59092762843E+03  0.00000000000E+00 0. -1.
         23    2    1    2    0    0 -0.28305081632E+03 -0.31428933637E+03 -0.14002373568E+03  0.45476626335E+03  0.91160057898E+02 0.  0.
        254    2    1    2    0    0  0.28305081632E+03  0.31428933637E+03  0.54980729625E+03  0.11368725541E+04  0.90071948444E+03 0.  0.
        -24    2    4    4    0    0 -0.27558247506E+03  0.60928512346E+02  0.40733909377E+03  0.50198610886E+03  0.80043313235E+02 0.  0.
         24    2    4    4    0    0  0.55863329138E+03  0.25336082402E+03  0.14246820248E+03  0.63488644523E+03  0.80751150019E+02 0.  0.
         13    1    3    3    0    0 -0.26490237198E+03 -0.28982916489E+03 -0.15333358339E+03  0.42152745972E+03  0.00000000000E+00 0. -1.
        -13    1    3    3    0    0 -0.18148444340E+02 -0.24460171477E+02  0.13309847716E+02  0.33238803632E+02  0.00000000000E+00 0.  1.
          2    1    6    6  502    0  0.21600036575E+02  0.30165481951E+02  0.99319742924E+01  0.38407837673E+02  0.00000000000E+00 0. -1.
          1    1    5    5  503    0 -0.95998170924E+02  0.10277017371E+02  0.80802430518E+02  0.12589796934E+03  0.00000000000E+00 0. -1.
         -2    1    5    5    0  503 -0.17958430414E+03  0.50651494975E+02  0.32653666325E+03  0.37608813952E+03  0.00000000000E+00 0.  1.
         -3    1    6    6    0  502  0.53703325480E+03  0.22319534207E+03  0.13253622819E+03  0.59647860756E+03  0.00000000000E+00 0.  1.
<mgrwt>
<rscale>  0 0.15379830E+04</rscale>
<asrwt>0</asrwt>
<pdfrwt beam="1">  1        2 0.90911943E-01 0.15379830E+04</pdfrwt>
<pdfrwt beam="2">  1       -2 0.15395557E+00 0.15379830E+04</pdfrwt>
<totfact> 0.13595179E+01</totfact>
</mgrwt>
</event>
<event>
12    1  0.2214165E-007  0.3569713E+04  0.7818608E-02  0.8097465E-01
          2   -1    0    0  501    0  0.00000000000E+00  0.00000000000E+00  0.18252103331E+04  0.18252103331E+04  0.00000000000E+00 0. -1.
         -2   -1    0    0    0  501 -0.00000000000E+00 -0.00000000000E+00 -0.17453950305E+04  0.17453950305E+04  0.00000000000E+00 0.  1.
         23    2    1    2    0    0  0.91861392828E+03  0.63487826033E+03 -0.12050183817E+04  0.16450559474E+04  0.84957726362E+02 0.  0.
        254    2    1    2    0    0 -0.91861392828E+03 -0.63487826033E+03  0.12848336844E+04  0.19255494162E+04  0.90001166824E+03 0.  0.
        -24    2    4    4    0    0  0.13848389272E+03 -0.61751290051E+02  0.38548769100E+03  0.42195241886E+03  0.80324800074E+02 0.  0.
         24    2    4    4    0    0 -0.10570978210E+04 -0.57312697028E+03  0.89934599336E+03  0.15035969973E+04  0.77784235663E+02 0.  0.
         13    1    3    3    0    0  0.58472483623E+03  0.43727765496E+03 -0.83016926906E+03  0.11055749169E+04  0.00000000000E+00 0.  1.
        -13    1    3    3    0    0  0.33388909205E+03  0.19760060536E+03 -0.37484911264E+03  0.53948103051E+03  0.00000000000E+00 0. -1.
          2    1    6    6  502    0 -0.32502589125E+03 -0.19435009872E+03  0.32414385119E+03  0.49848071890E+03  0.00000000000E+00 0. -1.
          1    1    5    5  503    0  0.32825421044E+02  0.14837588620E+02  0.47264308470E+02  0.59427074284E+02  0.00000000000E+00 0. -1.
         -2    1    5    5    0  503  0.10565847167E+03 -0.76588878671E+02  0.33822338253E+03  0.36252534458E+03  0.00000000000E+00 0.  1.
         -1    1    6    6    0  502 -0.73207192975E+03 -0.37877687156E+03  0.57520214218E+03  0.10051162784E+04  0.00000000000E+00 0.  1.
<mgrwt>
<rscale>  0 0.35697132E+04</rscale>
<asrwt>0</asrwt>
<pdfrwt beam="1">  1        2 0.28080159E+00 0.35697132E+04</pdfrwt>
<pdfrwt beam="2">  1       -2 0.26852231E+00 0.35697132E+04</pdfrwt>
<totfact> 0.33782484E-01</totfact>
</mgrwt>
</event>
<event>
12    1  0.2214165E-007  0.1991071E+04  0.7818608E-02  0.8610807E-01
          1   -1    0    0  501    0  0.00000000000E+00  0.00000000000E+00  0.99284840969E+03  0.99284840969E+03  0.00000000000E+00 0. -1.
         -1   -1    0    0    0  501 -0.00000000000E+00 -0.00000000000E+00 -0.99822948009E+03  0.99822948009E+03  0.00000000000E+00 0.  1.
         23    2    1    2    0    0 -0.64634182040E+03  0.16684767414E+03 -0.41820455893E+03  0.79301840223E+03  0.91581864982E+02 0.  0.
        254    2    1    2    0    0  0.64634182040E+03 -0.16684767414E+03  0.41282348853E+03  0.11980594875E+04  0.90516706075E+03 0.  0.
        -24    2    4    4    0    0  0.55249808617E+03 -0.10746525432E+03  0.68689948587E+03  0.89189412493E+03  0.82712213585E+02 0.  0.
         24    2    4    4    0    0  0.93843734229E+02 -0.59382419812E+02 -0.27407599734E+03  0.30616536262E+03  0.79288452605E+02 0.  0.
         13    1    3    3    0    0 -0.29721976630E+03  0.67986376298E+02 -0.24404108880E+03  0.39053526071E+03  0.00000000000E+00 0.  1.
        -13    1    3    3    0    0 -0.34912205410E+03  0.98861297838E+02 -0.17416347014E+03  0.40248314151E+03  0.00000000000E+00 0. -1.
          4    1    6    6  502    0  0.54077724896E+01 -0.44269543822E+02 -0.11790314809E+03  0.12605629236E+03  0.00000000000E+00 0. -1.
          1    1    5    5  503    0  0.51396129141E+03 -0.11117180085E+03  0.60691315140E+03  0.80303110259E+03  0.00000000000E+00 0. -1.
         -2    1    5    5    0  503  0.38536794757E+02  0.37065465278E+01  0.79986334470E+02  0.88863022339E+02  0.00000000000E+00 0.  1.
         -3    1    6    6    0  502  0.88435961739E+02 -0.15112875989E+02 -0.15617284925E+03  0.18010907027E+03  0.00000000000E+00 0.  1.
<mgrwt>
<rscale>  0 0.19910706E+04</rscale>
<asrwt>0</asrwt>
<pdfrwt beam="1">  1        1 0.15274591E+00 0.19910706E+04</pdfrwt>
<pdfrwt beam="2">  1       -1 0.15357376E+00 0.19910706E+04</pdfrwt>
<totfact> 0.46576479E+00</totfact>
</mgrwt>
</event>
<event>
12    1  0.2214165E-007  0.1501969E+04  0.7818608E-02  0.8883145E-01
          1   -1    0    0  501    0  0.00000000000E+00  0.00000000000E+00  0.12416441021E+04  0.12416441021E+04  0.00000000000E+00 0. -1.
         -1   -1    0    0    0  501 -0.00000000000E+00 -0.00000000000E+00 -0.45421823959E+03  0.45421823959E+03  0.00000000000E+00 0.  1.
         23    2    1    2    0    0  0.95612855667E+02  0.25828560489E+03  0.69067479498E+03  0.74918689917E+03  0.91630047430E+02 0.  0.
        254    2    1    2    0    0 -0.95612855667E+02 -0.25828560489E+03  0.96751067542E+02  0.94667544253E+03  0.90054447561E+03 0.  0.
        -24    2    4    4    0    0 -0.39821088484E+03 -0.37308381515E+03 -0.98404665203E+02  0.56029303252E+03  0.80506907892E+02 0.  0.
         24    2    4    4    0    0  0.30259802917E+03  0.11479821026E+03  0.19515573274E+03  0.38638241001E+03  0.80382898723E+02 0.  0.
         13    1    3    3    0    0  0.77658278980E+02  0.18511432813E+03  0.59152227075E+03  0.62465728169E+03  0.00000000000E+00 0. -1.
        -13    1    3    3    0    0  0.17954576687E+02  0.73171276763E+02  0.99152524234E+02  0.12452961748E+03  0.00000000000E+00 0.  1.
          2    1    6    6  502    0  0.29405698680E+03  0.10146718207E+03  0.20000935643E+03  0.36982271859E+03  0.00000000000E+00 0. -1.
          1    1    5    5  503    0 -0.25714177495E+03 -0.26121935840E+03 -0.30282258300E+02  0.36779676561E+03  0.00000000000E+00 0. -1.
         -2    1    5    5    0  503 -0.14106910989E+03 -0.11186445676E+03 -0.68122406903E+02  0.19249626691E+03  0.00000000000E+00 0.  1.
         -3    1    6    6    0  502  0.85410423712E+01  0.13331028185E+02 -0.48536236838E+01  0.16559691426E+02  0.00000000000E+00 0.  1.
<mgrwt>
<rscale>  0 0.15019686E+04</rscale>
<asrwt>0</asrwt>
<pdfrwt beam="1">  1        1 0.19102217E+00 0.15019686E+04</pdfrwt>
<pdfrwt beam="2">  1       -1 0.69879730E-01 0.15019686E+04</pdfrwt>
<totfact> 0.19956111E+01</totfact>
</mgrwt>
</event>
<event>
12    1  0.2214165E-007  0.3055057E+04  0.7818608E-02  0.8228181E-01
          1   -1    0    0  501    0  0.00000000000E+00  0.00000000000E+00  0.95067230903E+03  0.95067230903E+03  0.00000000000E+00 0. -1.
         -1   -1    0    0    0  501 -0.00000000000E+00 -0.00000000000E+00 -0.24544141686E+04  0.24544141686E+04  0.00000000000E+00 0.  1.
         23    2    1    2    0    0  0.84842425181E+03  0.10189187054E+04 -0.21566379503E+03  0.13464778932E+04  0.92047841536E+02 0.  0.
        254    2    1    2    0    0 -0.84842425181E+03 -0.10189187054E+04 -0.12880780645E+04  0.20586085844E+04  0.90592779207E+03 0.  0.
        -24    2    4    4    0    0 -0.28897610563E+03  0.11166789379E+03 -0.40998707623E+03  0.51961618262E+03  0.77036786282E+02 0.  0.
         24    2    4    4    0    0 -0.55944814618E+03 -0.11305865991E+04 -0.87809098828E+03  0.15389924018E+04  0.79028745947E+02 0.  0.
         13    1    3    3    0    0  0.33010852067E+03  0.32809081831E+03 -0.79318618058E+02  0.47212992243E+03  0.00000000000E+00 0.  1.
        -13    1    3    3    0    0  0.51831573114E+03  0.69082788704E+03 -0.13634517697E+03  0.87434797074E+03  0.00000000000E+00 0. -1.
          4    1    6    6  502    0 -0.25708638313E+02 -0.27834646856E+02 -0.17045188879E+02  0.41548045844E+02  0.00000000000E+00 0. -1.
          3    1    5    5  503    0 -0.10028040766E+03  0.17906767333E+02 -0.18620184064E+03  0.21224499508E+03  0.00000000000E+00 0. -1.
         -4    1    5    5    0  503 -0.18869569797E+03  0.93761126458E+02 -0.22378523559E+03  0.30737118755E+03  0.00000000000E+00 0.  1.
         -3    1    6    6    0  502 -0.53373950786E+03 -0.11027519523E+04 -0.86104579940E+03  0.14974443560E+04  0.00000000000E+00 0.  1.
<mgrwt>
<rscale>  0 0.30550572E+04</rscale>
<asrwt>0</asrwt>
<pdfrwt beam="1">  1        1 0.14625728E+00 0.30550572E+04</pdfrwt>
<pdfrwt beam="2">  1       -1 0.37760218E+00 0.30550572E+04</pdfrwt>
<totfact> 0.14233732E-01</totfact>
</mgrwt>
</event>
<event>
12    1  0.2214165E-007  0.1438687E+04  0.7818608E-02  0.8926282E-01
          1   -1    0    0  501    0  0.00000000000E+00  0.00000000000E+00  0.22778151774E+04  0.22778151774E+04  0.00000000000E+00 0. -1.
         -1   -1    0    0    0  501 -0.00000000000E+00 -0.00000000000E+00 -0.22717156747E+03  0.22717156747E+03  0.00000000000E+00 0.  1.
         23    2    1    2    0    0 -0.29633737888E+03 -0.51142366938E+02  0.10267157529E+03  0.33841480754E+03  0.11641196578E+03 0.  0.
        254    2    1    2    0    0  0.29633737888E+03  0.51142366938E+02  0.19479720346E+04  0.21665719373E+04  0.89944845772E+03 0.  0.
        -24    2    4    4    0    0 -0.20956718212E+03 -0.26383481154E+03  0.67871645768E+03  0.76218071307E+03  0.82074343420E+02 0.  0.
         24    2    4    4    0    0  0.50590456099E+03  0.31497717847E+03  0.12692555770E+04  0.14043912243E+04  0.78453447097E+02 0.  0.
         11    1    3    3    0    0 -0.18846229165E+03 -0.67405670293E+02  0.19243783326E+02  0.20107680860E+03  0.00000000000E+00 0.  1.
        -11    1    3    3    0    0 -0.10787508723E+03  0.16263303355E+02  0.83427791966E+02  0.13733799894E+03  0.00000000000E+00 0. -1.
          2    1    6    6  502    0  0.26328320368E+02  0.28567465218E+02  0.12800579949E+03  0.13377131690E+03  0.00000000000E+00 0. -1.
          1    1    5    5  503    0 -0.27153864254E+02 -0.61477103944E+02  0.20469140390E+03  0.21544219059E+03  0.00000000000E+00 0. -1.
         -2    1    5    5    0  503 -0.18241331786E+03 -0.20235770759E+03  0.47402505378E+03  0.54673852248E+03  0.00000000000E+00 0.  1.
         -1    1    6    6    0  502  0.47957624063E+03  0.28640971326E+03  0.11412497775E+04  0.12706199074E+04  0.00000000000E+00 0.  1.
<mgrwt>
<rscale>  0 0.14386867E+04</rscale>
<asrwt>0</asrwt>
<pdfrwt beam="1">  1        1 0.35043309E+00 0.14386867E+04</pdfrwt>
<pdfrwt beam="2">  1       -1 0.34949473E-01 0.14386867E+04</pdfrwt>
<totfact> 0.14605032E+01</totfact>
</mgrwt>
</event>
<event>
12    1  0.2214165E-007  0.2586056E+04  0.7818608E-02  0.8372953E-01
         -1   -1    0    0    0  501 -0.00000000000E+00  0.00000000000E+00  0.11915100449E+04  0.11915100449E+04  0.00000000000E+00 0.  1.
          1   -1    0    0  501    0  0.00000000000E+00 -0.00000000000E+00 -0.14031950421E+04  0.14031950421E+04  0.00000000000E+00 0. -1.
         23    2    1    2    0    0 -0.10994884995E+04  0.17810560583E+03  0.12639020893E+03  0.11245269108E+04  0.89385239108E+02 0.  0.
        254    2    1    2    0    0  0.10994884995E+04 -0.17810560583E+03 -0.33807520610E+03  0.14701781762E+04  0.89807152134E+03 0.  0.
        -24    2    4    4    0    0  0.59742684097E+03  0.29373586329E+03 -0.38921263321E+03  0.77469022380E+03  0.73884242567E+02 0.  0.
         24    2    4    4    0    0  0.50206165848E+03 -0.47184146913E+03  0.51137427110E+02  0.69548795237E+03  0.79926056650E+02 0.  0.
         13    1    3    3    0    0 -0.93319567997E+03  0.14382125411E+03  0.13844617251E+03  0.95430921243E+03  0.00000000000E+00 0.  1.
        -13    1    3    3    0    0 -0.16629281948E+03  0.34284351722E+02 -0.12055963577E+02  0.17021769838E+03  0.00000000000E+00 0. -1.
          2    1    6    6  502    0  0.59811324556E+02 -0.92607744044E+02  0.20238260602E+02  0.11208557443E+03  0.00000000000E+00 0. -1.
          1    1    5    5  503    0  0.48563669898E+03  0.22401307644E+03 -0.28067472522E+03  0.60398937340E+03  0.00000000000E+00 0. -1.
         -2    1    5    5    0  503  0.11179014199E+03  0.69722786859E+02 -0.10853790799E+03  0.17070085039E+03  0.00000000000E+00 0.  1.
         -1    1    6    6    0  502  0.44225033393E+03 -0.37923372508E+03  0.30899166508E+02  0.58340237794E+03  0.00000000000E+00 0.  1.
<mgrwt>
<rscale>  0 0.25860557E+04</rscale>
<asrwt>0</asrwt>
<pdfrwt beam="1">  1        1 0.21587616E+00 0.25860557E+04</pdfrwt>
<pdfrwt beam="2">  1       -1 0.18330924E+00 0.25860557E+04</pdfrwt>
<totfact> 0.13282190E+00</totfact>
</mgrwt>
</event>
<event>
12    1  0.2214165E-007  0.1303778E+04  0.7818608E-02  0.9026575E-01
          1   -1    0    0  501    0  0.00000000000E+00  0.00000000000E+00  0.70563494663E+03  0.70563494663E+03  0.00000000000E+00 0. -1.
         -1   -1    0    0    0  501 -0.00000000000E+00 -0.00000000000E+00 -0.60223632631E+03  0.60223632631E+03  0.00000000000E+00 0.  1.
         23    2    1    2    0    0 -0.28722698105E+03  0.11754628707E+02  0.19593583216E+03  0.35956938652E+03  0.90894353288E+02 0.  0.
        254    2    1    2    0    0  0.28722698105E+03 -0.11754628707E+02 -0.92537211840E+02  0.94830188642E+03  0.89893037676E+03 0.  0.
        -24    2    4    4    0    0 -0.31265435203E+03 -0.20378518417E+01 -0.11601875273E+03  0.34256087037E+03  0.78298801023E+02 0.  0.
         24    2    4    4    0    0  0.59988133308E+03 -0.97167768654E+01  0.23481540888E+02  0.60574101604E+03  0.80117203024E+02 0.  0.
         11    1    3    3    0    0 -0.22550689068E+03  0.21969364907E+02  0.10632559282E+03  0.25028212567E+03  0.00000000000E+00 0.  1.
        -11    1    3    3    0    0 -0.61720090369E+02 -0.10214736200E+02  0.89610239340E+02  0.10928726086E+03  0.00000000000E+00 0. -1.
          2    1    6    6  502    0  0.24369919687E+03  0.26312463748E+02  0.34734843537E+02  0.24756444345E+03  0.00000000000E+00 0. -1.
          1    1    5    5  503    0 -0.80903440837E+01 -0.13256643956E+02 -0.14716287037E+02  0.21395358854E+02  0.00000000000E+00 0. -1.
         -2    1    5    5    0  503 -0.30456400795E+03  0.11218792114E+02 -0.10130246569E+03  0.32116551152E+03  0.00000000000E+00 0.  1.
         -1    1    6    6    0  502  0.35618213621E+03 -0.36029240613E+02 -0.11253302649E+02  0.35817657259E+03  0.00000000000E+00 0.  1.
<mgrwt>
<rscale>  0 0.13037776E+04</rscale>
<asrwt>0</asrwt>
<pdfrwt beam="1">  1        1 0.10855922E+00 0.13037776E+04</pdfrwt>
<pdfrwt beam="2">  1       -1 0.92651743E-01 0.13037776E+04</pdfrwt>
<totfact> 0.29953033E+01</totfact>
</mgrwt>
</event>
<event>
12    1  0.2214165E-007  0.4014479E+04  0.7818608E-02  0.8001632E-01
          1   -1    0    0  501    0  0.00000000000E+00  0.00000000000E+00  0.31591896174E+04  0.31591896174E+04  0.00000000000E+00 0. -1.
         -1   -1    0    0    0  501 -0.00000000000E+00 -0.00000000000E+00 -0.12753305878E+04  0.12753305878E+04  0.00000000000E+00 0.  1.
         23    2    1    2    0    0  0.12582473567E+04  0.98015878387E+03 -0.25635545018E+03  0.16180305660E+04  0.91690477203E+02 0.  0.
        254    2    1    2    0    0 -0.12582473567E+04 -0.98015878387E+03  0.21402144797E+04  0.28164896392E+04  0.89899845168E+03 0.  0.
        -24    2    4    4    0    0 -0.12852746903E+04 -0.10177666712E+04  0.16891135351E+04  0.23552859377E+04  0.80543698436E+02 0.  0.
         24    2    4    4    0    0  0.27027333647E+02  0.37607887307E+02  0.45110094462E+03  0.46120370145E+03  0.84094958514E+02 0.  0.
         13    1    3    3    0    0  0.10010318307E+04  0.76801914491E+03 -0.23913941188E+03  0.12841751404E+04  0.00000000000E+00 0. -1.
        -13    1    3    3    0    0  0.25721552601E+03  0.21213963896E+03 -0.17216038293E+02  0.33385542562E+03  0.00000000000E+00 0.  1.
          4    1    6    6  502    0  0.30149944478E+02 -0.19169735807E+01  0.52005722543E+02  0.60143903406E+02  0.00000000000E+00 0. -1.
          1    1    5    5  503    0 -0.40605357710E+03 -0.29825757560E+03  0.56597885087E+03  0.75773949910E+03  0.00000000000E+00 0. -1.
         -2    1    5    5    0  503 -0.87922111322E+03 -0.71950909558E+03  0.11231346842E+04  0.15975464386E+04  0.00000000000E+00 0.  1.
         -3    1    6    6    0  502 -0.31226108309E+01  0.39524860888E+02  0.39909522207E+03  0.40105979805E+03  0.00000000000E+00 0.  1.
<mgrwt>
<rscale>  0 0.40144794E+04</rscale>
<asrwt>0</asrwt>
<pdfrwt beam="1">  1        1 0.48602917E+00 0.40144794E+04</pdfrwt>
<pdfrwt beam="2">  1       -1 0.19620471E+00 0.40144794E+04</pdfrwt>
<totfact> 0.56960200E-02</totfact>
</mgrwt>
</event>
<event>
12    1  0.2214165E-007  0.1449136E+04  0.7818608E-02  0.8919000E-01
         -1   -1    0    0    0  501 -0.00000000000E+00  0.00000000000E+00  0.86782949155E+03  0.86782949155E+03  0.00000000000E+00 0.  1.
          1   -1    0    0  501    0  0.00000000000E+00 -0.00000000000E+00 -0.60495612876E+03  0.60495612876E+03  0.00000000000E+00 0. -1.
         23    2    1    2    0    0 -0.25660091196E+03  0.63419495353E+02 -0.27378303470E+03  0.39161707702E+03  0.92416040360E+02 0.  0.
        254    2    1    2    0    0  0.25660091196E+03 -0.63419495353E+02  0.53665639749E+03  0.10811685433E+04  0.90058829086E+03 0.  0.
        -24    2    4    4    0    0  0.61477879686E+02 -0.24213608030E+03 -0.17675316740E+03  0.31637183987E+03  0.80249908435E+02 0.  0.
         24    2    4    4    0    0  0.19512303227E+03  0.17871658495E+03  0.71340956489E+03  0.76479670342E+03  0.77124411370E+02 0.  0.
         13    1    3    3    0    0 -0.15867109968E+03  0.25430412517E+02 -0.22320568109E+03  0.27503454297E+03  0.00000000000E+00 0. -1.
        -13    1    3    3    0    0 -0.97929812276E+02  0.37989082836E+02 -0.50577353602E+02  0.11658253405E+03  0.00000000000E+00 0.  1.
          4    1    6    6  502    0  0.37736907690E+02  0.44417088873E+01  0.14252544516E+03  0.14750357791E+03  0.00000000000E+00 0. -1.
          3    1    5    5  503    0  0.35090828830E+02 -0.26847776973E+02 -0.18613548051E+02  0.47944067072E+02  0.00000000000E+00 0. -1.
         -4    1    5    5    0  503  0.26387050857E+02 -0.21528830333E+03 -0.15813961934E+03  0.26842777280E+03  0.00000000000E+00 0.  1.
         -3    1    6    6    0  502  0.15738612458E+03  0.17427487606E+03  0.57088411974E+03  0.61729312551E+03  0.00000000000E+00 0.  1.
<mgrwt>
<rscale>  0 0.14491360E+04</rscale>
<asrwt>0</asrwt>
<pdfrwt beam="1">  1        1 0.93070173E-01 0.14491360E+04</pdfrwt>
<pdfrwt beam="2">  1       -1 0.13351223E+00 0.14491360E+04</pdfrwt>
<totfact> 0.15581326E+01</totfact>
</mgrwt>
</event>
<event>
12    1  0.2214165E-007  0.2121989E+04  0.7818608E-02  0.8551618E-01
          1   -1    0    0  501    0  0.00000000000E+00  0.00000000000E+00  0.15750903355E+04  0.15750903355E+04  0.00000000000E+00 0. -1.
         -1   -1    0    0    0  501 -0.00000000000E+00 -0.00000000000E+00 -0.71469515422E+03  0.71469515422E+03  0.00000000000E+00 0.  1.
         23    2    1    2    0    0  0.33327377608E+03  0.79744748467E+03  0.27678097463E+03  0.91205930001E+03  0.90832583284E+02 0.  0.
        254    2    1    2    0    0 -0.33327377608E+03 -0.79744748467E+03  0.58361420662E+03  0.13777261897E+04  0.90029440237E+03 0.  0.
        -24    2    4    4    0    0 -0.14532079505E+03  0.14361771676E+03  0.30413299506E+03  0.37490474290E+03  0.79451277658E+02 0.  0.
         24    2    4    4    0    0 -0.18795298103E+03 -0.94106520143E+03  0.27948121156E+03  0.10028214468E+04  0.81308487271E+02 0.  0.
         13    1    3    3    0    0  0.23723061656E+03  0.51411677643E+03  0.14089043397E+03  0.58347625455E+03  0.00000000000E+00 0.  1.
        -13    1    3    3    0    0  0.96043159521E+02  0.28333070824E+03  0.13589054065E+03  0.32858304546E+03  0.00000000000E+00 0. -1.
          2    1    6    6  502    0 -0.91240576325E+02 -0.65011085329E+03  0.19087688712E+03  0.68366874315E+03  0.00000000000E+00 0. -1.
          1    1    5    5  503    0 -0.81163963889E+02  0.60513595353E+02  0.86059230485E+02  0.13287466052E+03  0.00000000000E+00 0. -1.
         -2    1    5    5    0  503 -0.64156831162E+02  0.83104121403E+02  0.21807376458E+03  0.24203008238E+03  0.00000000000E+00 0.  1.
         -1    1    6    6    0  502 -0.96712404704E+02 -0.29095434814E+03  0.88604324438E+02  0.31915270363E+03  0.00000000000E+00 0.  1.
<mgrwt>
<rscale>  0 0.21219891E+04</rscale>
<asrwt>0</asrwt>
<pdfrwt beam="1">  1        1 0.24232159E+00 0.21219891E+04</pdfrwt>
<pdfrwt beam="2">  1       -1 0.10995310E+00 0.21219891E+04</pdfrwt>
<totfact> 0.40703716E+00</totfact>
</mgrwt>
</event>
<event>
12    1  0.2214165E-007  0.1687892E+04  0.7818608E-02  0.8768300E-01
         -1   -1    0    0    0  501 -0.00000000000E+00  0.00000000000E+00  0.23275199639E+03  0.23275199639E+03  0.00000000000E+00 0.  1.
          1   -1    0    0  501    0  0.00000000000E+00 -0.00000000000E+00 -0.30601028218E+04  0.30601028218E+04  0.00000000000E+00 0. -1.
         23    2    1    2    0    0  0.17241978802E+03  0.55352346333E+03 -0.72206791013E+03  0.93058728831E+03  0.92161958410E+02 0.  0.
        254    2    1    2    0    0 -0.17241978802E+03 -0.55352346333E+03 -0.21052829153E+04  0.23622675299E+04  0.90109651070E+03 0.  0.
        -24    2    4    4    0    0 -0.22300395345E+03 -0.23729860069E+03 -0.13020575856E+03  0.35970414184E+03  0.79950865838E+02 0.  0.
         24    2    4    4    0    0  0.50584165427E+02 -0.31622486264E+03 -0.19750771567E+04  0.20025633881E+04  0.82300829820E+02 0.  0.
         11    1    3    3    0    0  0.36116766375E+02  0.25531748514E+03 -0.34874685787E+03  0.43372319503E+03  0.00000000000E+00 0.  1.
        -11    1    3    3    0    0  0.13630302165E+03  0.29820597819E+03 -0.37332105226E+03  0.49686409329E+03  0.00000000000E+00 0. -1.
          2    1    6    6  502    0  0.31487902671E+02 -0.11990032815E+03 -0.54333708098E+03  0.55729952473E+03  0.00000000000E+00 0. -1.
          1    1    5    5  503    0 -0.39762989574E+01 -0.12671658488E+02 -0.25859679302E+02  0.29070687915E+02  0.00000000000E+00 0. -1.
         -2    1    5    5    0  503 -0.21902765449E+03 -0.22462694220E+03 -0.10434607926E+03  0.33063345392E+03  0.00000000000E+00 0.  1.
         -3    1    6    6    0  502  0.19096262756E+02 -0.19632453448E+03 -0.14317400758E+04  0.14452638633E+04  0.00000000000E+00 0.  1.
<mgrwt>
<rscale>  0 0.16878922E+04</rscale>
<asrwt>0</asrwt>
<pdfrwt beam="1">  1        1 0.47078502E+00 0.16878922E+04</pdfrwt>
<pdfrwt beam="2">  1       -1 0.35808002E-01 0.16878922E+04</pdfrwt>
<totfact> 0.38489024E+00</totfact>
</mgrwt>
</event>
<event>
12    1  0.2214165E-007  0.1109840E+04  0.7818608E-02  0.9195653E-01
         -2   -1    0    0    0  501 -0.00000000000E+00  0.00000000000E+00  0.19577305743E+04  0.19577305743E+04  0.00000000000E+00 0.  1.
          2   -1    0    0  501    0  0.00000000000E+00 -0.00000000000E+00 -0.15729256649E+03  0.15729256649E+03  0.00000000000E+00 0. -1.
         23    2    1    2    0    0 -0.12430521973E+03 -0.87619143538E+02  0.45475612875E+03  0.48821210916E+03  0.91755244721E+02 0.  0.
        254    2    1    2    0    0  0.12430521973E+03  0.87619143538E+02  0.13456818791E+04  0.16268110317E+04  0.90140196972E+03 0.  0.
        -24    2    4    4    0    0  0.24802068163E+03 -0.35485285732E+03  0.74656449212E+03  0.86682264528E+03  0.81167410936E+02 0.  0.
         24    2    4    4    0    0 -0.12371546191E+03  0.44247200086E+03  0.59911738698E+03  0.75998838638E+03  0.86912122248E+02 0.  0.
         13    1    3    3    0    0 -0.57019006330E+02  0.76513861625E+01  0.10802434142E+03  0.12238859887E+03  0.00000000000E+00 0.  1.
        -13    1    3    3    0    0 -0.67286213396E+02 -0.95270529700E+02  0.34673178733E+03  0.36582351030E+03  0.00000000000E+00 0. -1.
          4    1    6    6  502    0 -0.12822136598E+02  0.65148894814E+02  0.43918458832E+02  0.79609149654E+02  0.00000000000E+00 0. -1.
          1    1    5    5  503    0  0.50230270343E+02 -0.26285834128E+02  0.10688713389E+03  0.12099125805E+03  0.00000000000E+00 0. -1.
         -2    1    5    5    0  503  0.19779041129E+03 -0.32856702320E+03  0.63967735824E+03  0.74583138723E+03  0.00000000000E+00 0.  1.
         -3    1    6    6    0  502 -0.11089332531E+03  0.37732310605E+03  0.55519892815E+03  0.68037923673E+03  0.00000000000E+00 0.  1.
<mgrwt>
<rscale>  0 0.11098405E+04</rscale>
<asrwt>0</asrwt>
<pdfrwt beam="1">  1        2 0.24198858E-01 0.11098405E+04</pdfrwt>
<pdfrwt beam="2">  1       -2 0.30118930E+00 0.11098405E+04</pdfrwt>
<totfact> 0.71434401E+00</totfact>
</mgrwt>
</event>
<event>
12    1  0.2214165E-007  0.1574133E+04  0.7818608E-02  0.8836598E-01
         -1   -1    0    0    0  501 -0.00000000000E+00  0.00000000000E+00  0.20645782775E+03  0.20645782775E+03  0.00000000000E+00 0.  1.
          1   -1    0    0  501    0  0.00000000000E+00 -0.00000000000E+00 -0.30004870573E+04  0.30004870573E+04  0.00000000000E+00 0. -1.
         23    2    1    2    0    0  0.46978122071E+03  0.28245107317E+02 -0.14260182257E+04  0.15030597547E+04  0.64563648688E+02 0.  0.
        254    2    1    2    0    0 -0.46978122071E+03 -0.28245107317E+02 -0.13680110038E+04  0.17038851303E+04  0.90015456968E+03 0.  0.
        -24    2    4    4    0    0 -0.14321677232E+02  0.46082709683E+02  0.11532518778E+03  0.14850293442E+03  0.80152953934E+02 0.  0.
         24    2    4    4    0    0 -0.45545954348E+03 -0.74327816999E+02 -0.14833361916E+04  0.15553821959E+04  0.77197784281E+02 0.  0.
         11    1    3    3    0    0  0.46158692871E+03  0.19023708596E+02 -0.13735085585E+04  0.14491204762E+04  0.00000000000E+00 0.  1.
        -11    1    3    3    0    0  0.81942919970E+01  0.92213987209E+01 -0.52509667227E+02  0.53939278526E+02  0.00000000000E+00 0. -1.
          2    1    6    6  502    0 -0.37167101223E+03 -0.38919298985E+02 -0.12594381781E+04  0.13137117559E+04  0.00000000000E+00 0. -1.
          1    1    5    5  503    0 -0.38791609025E+02  0.13490025280E+02  0.93832201232E+02  0.10242681144E+03  0.00000000000E+00 0. -1.
         -2    1    5    5    0  503  0.24469931792E+02  0.32592684402E+02  0.21492986546E+02  0.46076122983E+02  0.00000000000E+00 0.  1.
         -1    1    6    6    0  502 -0.83788531245E+02 -0.35408518015E+02 -0.22389801351E+03  0.24167044000E+03  0.00000000000E+00 0.  1.
<mgrwt>
<rscale>  0 0.15741335E+04</rscale>
<asrwt>0</asrwt>
<pdfrwt beam="1">  1        1 0.46161341E+00 0.15741335E+04</pdfrwt>
<pdfrwt beam="2">  1       -1 0.31762742E-01 0.15741335E+04</pdfrwt>
<totfact> 0.53264851E+00</totfact>
</mgrwt>
</event>
<event>
12    1  0.2214165E-007  0.1494434E+04  0.7818608E-02  0.8888163E-01
          1   -1    0    0  501    0  0.00000000000E+00  0.00000000000E+00  0.15971523499E+04  0.15971523499E+04  0.00000000000E+00 0. -1.
         -1   -1    0    0    0  501 -0.00000000000E+00 -0.00000000000E+00 -0.34958052530E+03  0.34958052530E+03  0.00000000000E+00 0.  1.
         23    2    1    2    0    0  0.38612607457E+03  0.26241276632E+03  0.32815030435E+03  0.57797783293E+03  0.91771170416E+02 0.  0.
        254    2    1    2    0    0 -0.38612607457E+03 -0.26241276632E+03  0.91942152024E+03  0.13687550423E+04  0.90011145335E+03 0.  0.
        -24    2    4    4    0    0  0.16209473917E+03  0.93391157500E+02  0.60706776748E+03  0.64015742882E+03  0.79206354543E+02 0.  0.
         24    2    4    4    0    0 -0.54822081374E+03 -0.35580392382E+03  0.31235375277E+03  0.72859761344E+03  0.78403588075E+02 0.  0.
         13    1    3    3    0    0  0.11207971112E+03  0.61112321237E+02  0.13959069130E+03  0.18916167305E+03  0.00000000000E+00 0. -1.
        -13    1    3    3    0    0  0.27404636345E+03  0.20130044509E+03  0.18855961305E+03  0.38881615988E+03  0.00000000000E+00 0.  1.
          4    1    6    6  502    0 -0.20299848921E+02 -0.65913747256E+01  0.26631387989E+02  0.34128593777E+02  0.00000000000E+00 0. -1.
          3    1    5    5  503    0  0.12254644797E+03  0.62898229629E+02  0.31427509997E+03  0.34313650004E+03  0.00000000000E+00 0. -1.
         -4    1    5    5    0  503  0.39548291203E+02  0.30492927872E+02  0.29279266751E+03  0.29702092878E+03  0.00000000000E+00 0.  1.
         -3    1    6    6    0  502 -0.52792096482E+03 -0.34921254910E+03  0.28572236478E+03  0.69446901967E+03  0.00000000000E+00 0.  1.
<mgrwt>
<rscale>  0 0.14944342E+04</rscale>
<asrwt>0</asrwt>
<pdfrwt beam="1">  1        1 0.24571574E+00 0.14944342E+04</pdfrwt>
<pdfrwt beam="2">  1       -1 0.53781620E-01 0.14944342E+04</pdfrwt>
<totfact> 0.18928799E+01</totfact>
</mgrwt>
</event>
<event>
12    1  0.2214165E-007  0.1260616E+04  0.7818608E-02  0.9061393E-01
         -2   -1    0    0    0  501 -0.00000000000E+00  0.00000000000E+00  0.45934932954E+03  0.45934932954E+03  0.00000000000E+00 0. -1.
          2   -1    0    0  501    0  0.00000000000E+00 -0.00000000000E+00 -0.86489400494E+03  0.86489400494E+03  0.00000000000E+00 0.  1.
         23    2    1    2    0    0  0.68351698892E+02 -0.16230914786E+03  0.15141079891E+03  0.24767394496E+03  0.86028708955E+02 0.  0.
        254    2    1    2    0    0 -0.68351698892E+02  0.16230914786E+03 -0.55695547432E+03  0.10765693895E+04  0.90431523036E+03 0.  0.
        -24    2    4    4    0    0  0.35632419640E+03  0.82979057639E+02 -0.51147954409E+03  0.63475876476E+03  0.86341811818E+02 0.  0.
         24    2    4    4    0    0 -0.42467589529E+03  0.79330090219E+02 -0.45475930231E+02  0.44181062476E+03  0.80533773434E+02 0.  0.
         13    1    3    3    0    0  0.29166529610E+01 -0.22186077912E+02 -0.96665645883E+01  0.24375631039E+02  0.00000000000E+00 0.  1.
        -13    1    3    3    0    0  0.65435045931E+02 -0.14012306995E+03  0.16107736350E+03  0.22329831392E+03  0.00000000000E+00 0. -1.
          4    1    6    6  502    0 -0.17156891526E+03  0.54063707538E+02  0.14505227799E+02  0.18046932922E+03  0.00000000000E+00 0. -1.
          3    1    5    5  503    0  0.10484824707E+03  0.24996435188E+02 -0.22304075886E+03  0.24771991603E+03  0.00000000000E+00 0. -1.
         -4    1    5    5    0  503  0.25147594933E+03  0.57982622450E+02 -0.28843878522E+03  0.38703884872E+03  0.00000000000E+00 0.  1.
         -3    1    6    6    0  502 -0.25310698003E+03  0.25266382681E+02 -0.59981158029E+02  0.26134129554E+03  0.00000000000E+00 0.  1.
<mgrwt>
<rscale>  0 0.12606165E+04</rscale>
<asrwt>0</asrwt>
<pdfrwt beam="1">  1        2 0.13306062E+00 0.12606165E+04</pdfrwt>
<pdfrwt beam="2">  1       -2 0.70669128E-01 0.12606165E+04</pdfrwt>
<totfact> 0.55472014E+01</totfact>
</mgrwt>
</event>
<event>
12    1  0.2214165E-007  0.2851648E+04  0.7818608E-02  0.8287411E-01
         -2   -1    0    0    0  501 -0.00000000000E+00  0.00000000000E+00  0.16076619369E+04  0.16076619369E+04  0.00000000000E+00 0.  1.
          2   -1    0    0  501    0  0.00000000000E+00 -0.00000000000E+00 -0.12645534657E+04  0.12645534657E+04  0.00000000000E+00 0. -1.
         23    2    1    2    0    0 -0.89723502065E+03  0.79146366381E+03  0.61744549270E+03  0.13495031470E+04  0.92056471935E+02 0.  0.
        254    2    1    2    0    0  0.89723502065E+03 -0.79146366381E+03 -0.27433702149E+03  0.15227122555E+04  0.90108068349E+03 0.  0.
        -24    2    4    4    0    0  0.70343636004E+03 -0.90132808641E+03 -0.44689756428E+03  0.12301979175E+04  0.80339599497E+02 0.  0.
         24    2    4    4    0    0  0.19379866061E+03  0.10986442260E+03  0.17256054278E+03  0.29251433797E+03  0.78481748129E+02 0.  0.
         11    1    3    3    0    0 -0.46984059109E+03  0.42798096743E+03  0.37822171663E+03  0.73957390196E+03  0.00000000000E+00 0.  1.
        -11    1    3    3    0    0 -0.42739442956E+03  0.36348269637E+03  0.23922377607E+03  0.60992924509E+03  0.00000000000E+00 0. -1.
          2    1    6    6  502    0  0.59017318028E+02  0.52754961551E+02  0.10446594072E+03  0.13106968592E+03  0.00000000000E+00 0. -1.
          1    1    5    5  503    0  0.26016736020E+03 -0.27683770545E+03 -0.16418580006E+03  0.41386368216E+03  0.00000000000E+00 0. -1.
         -2    1    5    5    0  503  0.44326899984E+03 -0.62449038096E+03 -0.28271176422E+03  0.81633423532E+03  0.00000000000E+00 0.  1.
         -1    1    6    6    0  502  0.13478134258E+03  0.57109461053E+02  0.68094602061E+02  0.16144465206E+03  0.00000000000E+00 0.  1.
<mgrwt>
<rscale>  0 0.28516483E+04</rscale>
<asrwt>0</asrwt>
<pdfrwt beam="1">  1        2 0.19454669E+00 0.28516483E+04</pdfrwt>
<pdfrwt beam="2">  1       -2 0.24733261E+00 0.28516483E+04</pdfrwt>
<totfact> 0.10028538E+00</totfact>
</mgrwt>
</event>
<event>
12    1  0.2214165E-007  0.1830166E+04  0.7818608E-02  0.8690420E-01
         -1   -1    0    0    0  501 -0.00000000000E+00  0.00000000000E+00  0.48318381190E+03  0.48318381190E+03  0.00000000000E+00 0.  1.
          1   -1    0    0  501    0  0.00000000000E+00 -0.00000000000E+00 -0.17330409386E+04  0.17330409386E+04  0.00000000000E+00 0. -1.
         23    2    1    2    0    0 -0.54461061977E+03  0.36151997233E+03 -0.21132546913E+03  0.69298222639E+03  0.90931263208E+02 0.  0.
        254    2    1    2    0    0  0.54461061977E+03 -0.36151997233E+03 -0.10385316576E+04  0.15232425241E+04  0.90245352564E+03 0.  0.
        -24    2    4    4    0    0  0.12485238430E+03  0.18712812552E+03  0.37297170228E+02  0.24216705529E+03  0.81539870822E+02 0.  0.
         24    2    4    4    0    0  0.41975823547E+03 -0.54864809785E+03 -0.10758288278E+04  0.12810754688E+04  0.80839214461E+02 0.  0.
         11    1    3    3    0    0 -0.45093933164E+02  0.12397693358E+02  0.32543481745E+01  0.46880234544E+02  0.00000000000E+00 0. -1.
        -11    1    3    3    0    0 -0.49951668660E+03  0.34912227897E+03 -0.21457981731E+03  0.64610199184E+03  0.00000000000E+00 0.  1.
          2    1    6    6  502    0  0.87711555591E+02 -0.67395325999E+02 -0.15965340855E+03  0.19422836511E+03  0.00000000000E+00 0. -1.
          3    1    5    5  503    0  0.29851867453E+02  0.24104851685E+02 -0.22195225854E+02  0.44326131299E+02  0.00000000000E+00 0. -1.
         -4    1    5    5    0  503  0.95000516847E+02  0.16302327384E+03  0.59492396083E+02  0.19784092399E+03  0.00000000000E+00 0.  1.
         -1    1    6    6    0  502  0.33204667987E+03 -0.48125277185E+03 -0.91617541925E+03  0.10868471037E+04  0.00000000000E+00 0.  1.
<mgrwt>
<rscale>  0 0.18301665E+04</rscale>
<asrwt>0</asrwt>
<pdfrwt beam="1">  1        1 0.26662168E+00 0.18301665E+04</pdfrwt>
<pdfrwt beam="2">  1       -1 0.74335971E-01 0.18301665E+04</pdfrwt>
<totfact> 0.77567225E+00</totfact>
</mgrwt>
</event>
<event>
12    1  0.2214165E-007  0.2777151E+04  0.7818608E-02  0.8310397E-01
          2   -1    0    0  501    0  0.00000000000E+00  0.00000000000E+00  0.13376760133E+04  0.13376760133E+04  0.00000000000E+00 0. -1.
         -2   -1    0    0    0  501 -0.00000000000E+00 -0.00000000000E+00 -0.14414114034E+04  0.14414114034E+04  0.00000000000E+00 0.  1.
         23    2    1    2    0    0  0.83034931796E+03  0.90012857013E+03  0.15393790730E+03  0.12377006843E+04  0.92166544769E+02 0.  0.
        254    2    1    2    0    0 -0.83034931796E+03 -0.90012857013E+03 -0.25767329738E+03  0.15413867323E+04  0.89987004497E+03 0.  0.
        -24    2    4    4    0    0 -0.38922415721E+03  0.11094531409E+03 -0.78493273190E+02  0.42086873316E+03  0.84646260026E+02 0.  0.
         24    2    4    4    0    0 -0.44112516075E+03 -0.10110738842E+04 -0.17918002419E+03  0.11205179992E+04  0.81199129527E+02 0.  0.
         11    1    3    3    0    0  0.39635100964E+03  0.40586824560E+03  0.11468397465E+03  0.57877074017E+03  0.00000000000E+00 0. -1.
        -11    1    3    3    0    0  0.43399830832E+03  0.49426032453E+03  0.39253932645E+02  0.65892994412E+03  0.00000000000E+00 0.  1.
          4    1    6    6  502    0 -0.25417453148E+02 -0.67227549001E+02 -0.32212820859E+02  0.78760752262E+02  0.00000000000E+00 0. -1.
          3    1    5    5  503    0 -0.15023518932E+03  0.12424509848E+01 -0.35994621282E+02  0.15449196923E+03  0.00000000000E+00 0. -1.
         -4    1    5    5    0  503 -0.23898896789E+03  0.10970286310E+03 -0.42498651907E+02  0.26637676393E+03  0.00000000000E+00 0.  1.
         -3    1    6    6    0  502 -0.41570770760E+03 -0.94384633522E+03 -0.14696720333E+03  0.10417572469E+04  0.00000000000E+00 0.  1.
<mgrwt>
<rscale>  0 0.27771507E+04</rscale>
<asrwt>0</asrwt>
<pdfrwt beam="1">  1        2 0.20579631E+00 0.27771507E+04</pdfrwt>
<pdfrwt beam="2">  1       -2 0.22175560E+00 0.27771507E+04</pdfrwt>
<totfact> 0.13201298E+00</totfact>
</mgrwt>
</event>
<event>
12    1  0.4935939E-007  0.2443695E+04  0.7818608E-02  0.8423324E-01
          2   -1    0    0  501    0  0.00000000000E+00  0.00000000000E+00  0.13129872532E+04  0.13129872532E+04  0.00000000000E+00 0. -1.
         -2   -1    0    0    0  501 -0.00000000000E+00 -0.00000000000E+00 -0.11370343607E+04  0.11370343607E+04  0.00000000000E+00 0.  1.
         23    2    1    2    0    0  0.81578948204E+03  0.52618563588E+03 -0.33956132597E+03  0.10321108433E+04  0.86989058315E+02 0.  0.
        254    2    1    2    0    0 -0.81578948204E+03 -0.52618563588E+03  0.51551421851E+03  0.14179107706E+04  0.89573000483E+03 0.  0.
        -24    2    4    4    0    0 -0.93508870566E+02 -0.57888910626E+03  0.24409723027E+03  0.64050366829E+03  0.82492333288E+02 0.  0.
         24    2    4    4    0    0 -0.72228061148E+03  0.52703470379E+02  0.27141698825E+03  0.77740710234E+03  0.78915674920E+02 0.  0.
         11    1    3    3    0    0  0.44871227194E+03  0.23796257083E+03 -0.18150229002E+03  0.53936255839E+03  0.00000000000E+00 0.  1.
        -11    1    3    3    0    0  0.36707721010E+03  0.28822306505E+03 -0.15805903595E+03  0.49274828487E+03  0.00000000000E+00 0. -1.
          2    1    6    6  502    0 -0.66211229485E+03  0.61875506136E+02  0.22941449418E+03  0.70345737567E+03  0.00000000000E+00 0. -1.
          3    1    5    5  503    0 -0.83224490026E+02 -0.57470301923E+03  0.24244836309E+03  0.62927822529E+03  0.00000000000E+00 0. -1.
         -4    1    5    5    0  503 -0.10284380540E+02 -0.41860870255E+01  0.16488671765E+01  0.11225443004E+02  0.00000000000E+00 0.  1.
         -1    1    6    6    0  502 -0.60168316632E+02 -0.91720357578E+01  0.42002494064E+02  0.73949726666E+02  0.00000000000E+00 0.  1.
<mgrwt>
<rscale>  0 0.24436953E+04</rscale>
<asrwt>0</asrwt>
<pdfrwt beam="1">  1        2 0.20199804E+00 0.24436953E+04</pdfrwt>
<pdfrwt beam="2">  1       -2 0.17492836E+00 0.24436953E+04</pdfrwt>
<totfact> 0.28635644E+00</totfact>
</mgrwt>
</event>
<event>
12    1  0.2214165E-007  0.2809646E+04  0.7818608E-02  0.8300280E-01
         -2   -1    0    0    0  501 -0.00000000000E+00  0.00000000000E+00  0.10091156537E+04  0.10091156537E+04  0.00000000000E+00 0.  1.
          2   -1    0    0  501    0  0.00000000000E+00 -0.00000000000E+00 -0.19557004355E+04  0.19557004355E+04  0.00000000000E+00 0. -1.
         23    2    1    2    0    0  0.60793352526E+03 -0.93525643951E+03  0.19033434133E+03  0.11355199014E+04  0.94289480377E+02 0.  0.
        254    2    1    2    0    0 -0.60793352526E+03  0.93525643951E+03 -0.11369191232E+04  0.18292961878E+04  0.89969532145E+03 0.  0.
        -24    2    4    4    0    0 -0.19733671045E+03  0.24132185339E+03 -0.94272973073E+03  0.99612022966E+03  0.79612514779E+02 0.  0.
         24    2    4    4    0    0 -0.41059681481E+03  0.69393458612E+03 -0.19418939242E+03  0.83317595817E+03  0.79609691643E+02 0.  0.
         13    1    3    3    0    0  0.19138433344E+03 -0.33571669871E+03  0.10540532535E+03  0.40055454996E+03  0.00000000000E+00 0.  1.
        -13    1    3    3    0    0  0.41654919182E+03 -0.59953974080E+03  0.84929015979E+02  0.73496535140E+03  0.00000000000E+00 0. -1.
          2    1    6    6  502    0 -0.16527522795E+03  0.23362902545E+03 -0.37970512123E+02  0.28868699710E+03  0.00000000000E+00 0. -1.
          1    1    5    5  503    0 -0.47078746054E+00  0.39242652937E+02 -0.13167520683E+03  0.13739929965E+03  0.00000000000E+00 0. -1.
         -2    1    5    5    0  503 -0.19686592299E+03  0.20207920045E+03 -0.81105452390E+03  0.85872093000E+03  0.00000000000E+00 0.  1.
         -1    1    6    6    0  502 -0.24532158686E+03  0.46030556067E+03 -0.15621888030E+03  0.54448896107E+03  0.00000000000E+00 0.  1.
<mgrwt>
<rscale>  0 0.28096462E+04</rscale>
<asrwt>0</asrwt>
<pdfrwt beam="1">  1        2 0.30087699E+00 0.28096462E+04</pdfrwt>
<pdfrwt beam="2">  1       -2 0.15524856E+00 0.28096462E+04</pdfrwt>
<totfact> 0.16807392E+00</totfact>
</mgrwt>
</event>
<event>
12    1  0.2214165E-007  0.2639103E+04  0.7818608E-02  0.8355039E-01
         -2   -1    0    0    0  501 -0.00000000000E+00  0.00000000000E+00  0.69534462921E+03  0.69534462921E+03  0.00000000000E+00 0.  1.
          2   -1    0    0  501    0  0.00000000000E+00 -0.00000000000E+00 -0.25041058142E+04  0.25041058142E+04  0.00000000000E+00 0. -1.
         23    2    1    2    0    0 -0.71306813252E+02  0.43514957311E+03  0.50555478384E+03  0.67762169385E+03  0.95633194640E+02 0.  0.
        254    2    1    2    0    0  0.71306813252E+02 -0.43514957311E+03 -0.23143159688E+04  0.25218287495E+04  0.89951210435E+03 0.  0.
        -24    2    4    4    0    0  0.47737497375E+03 -0.27457342123E+03 -0.12301641086E+04  0.13503132664E+04  0.82248124585E+02 0.  0.
         24    2    4    4    0    0 -0.40606816049E+03 -0.16057615189E+03 -0.10841518602E+04  0.11715154831E+04  0.79920083891E+02 0.  0.
         13    1    3    3    0    0 -0.65188322264E+02  0.31607474092E+03  0.30354267450E+03  0.44304730498E+03  0.00000000000E+00 0. -1.
        -13    1    3    3    0    0 -0.61184909888E+01  0.11907483219E+03  0.20201210935E+03  0.23457438887E+03  0.00000000000E+00 0.  1.
          4    1    6    6  502    0 -0.23601705505E+03 -0.13288148735E+03 -0.69591649180E+03  0.74676723516E+03  0.00000000000E+00 0. -1.
          3    1    5    5  503    0  0.99358335208E+02 -0.21353214183E+02 -0.21103100767E+03  0.23422665247E+03  0.00000000000E+00 0. -1.
         -4    1    5    5    0  503  0.37801663854E+03 -0.25322020704E+03 -0.10191331010E+04  0.11160866139E+04  0.00000000000E+00 0.  1.
         -3    1    6    6    0  502 -0.17005110545E+03 -0.27694664532E+02 -0.38823536838E+03  0.42474824799E+03  0.00000000000E+00 0.  1.
<mgrwt>
<rscale>  0 0.26391033E+04</rscale>
<asrwt>0</asrwt>
<pdfrwt beam="1">  1        2 0.38524704E+00 0.26391033E+04</pdfrwt>
<pdfrwt beam="2">  1       -2 0.10697610E+00 0.26391033E+04</pdfrwt>
<totfact> 0.21448953E+00</totfact>
</mgrwt>
</event>
<event>
12    1  0.2375270E-007  0.1885145E+04  0.7818608E-02  0.8662286E-01
          2   -1    0    0  501    0  0.00000000000E+00  0.00000000000E+00  0.31173916023E+04  0.31173916023E+04  0.00000000000E+00 0.  1.
         -2   -1    0    0    0  501 -0.00000000000E+00 -0.00000000000E+00 -0.28499552720E+03  0.28499552720E+03  0.00000000000E+00 0. -1.
         23    2    1    2    0    0  0.39178660775E+03  0.41849345308E+02  0.38782766486E+00  0.40455999589E+03  0.91763424938E+02 0.  0.
        254    2    1    2    0    0 -0.39178660775E+03 -0.41849345308E+02  0.28320082475E+04  0.29978271336E+04  0.90080447142E+03 0.  0.
        -24    2    4    4    0    0 -0.32325128835E+03  0.18066983791E+02  0.28567621764E+04  0.28761984245E+04  0.81298418075E+02 0.  0.
         24    2    4    4    0    0 -0.68535319399E+02 -0.59916329099E+02 -0.24753928986E+02  0.12162870917E+03  0.76770628473E+02 0.  0.
         13    1    3    3    0    0  0.65611277533E+02 -0.26094031538E+02  0.95795836294E+01  0.71256625264E+02  0.00000000000E+00 0. -1.
        -13    1    3    3    0    0  0.32617533021E+03  0.67943376845E+02 -0.91917559646E+01  0.33330337063E+03  0.00000000000E+00 0.  1.
          4    1    6    6  502    0 -0.71740067215E+02 -0.46771207702E+02 -0.45411207286E+02  0.96934827906E+02  0.00000000000E+00 0. -1.
          3    1    5    5  503    0 -0.31738973730E+03  0.35071362089E+01  0.27566143471E+04  0.27748281396E+04  0.00000000000E+00 0. -1.
         -4    1    5    5    0  503 -0.58615510511E+01  0.14559847582E+02  0.10014782930E+03  0.10137028488E+03  0.00000000000E+00 0.  1.
         -1    1    6    6    0  502  0.32047478158E+01 -0.13145121396E+02  0.20657278300E+02  0.24693881263E+02  0.00000000000E+00 0.  1.
<mgrwt>
<rscale>  0 0.18851447E+04</rscale>
<asrwt>0</asrwt>
<pdfrwt beam="1">  1        2 0.47959868E+00 0.18851447E+04</pdfrwt>
<pdfrwt beam="2">  1       -2 0.43845468E-01 0.18851447E+04</pdfrwt>
<totfact> 0.68108625E+00</totfact>
</mgrwt>
</event>
<event>
12    1  0.2214165E-007  0.1831702E+04  0.7818608E-02  0.8689620E-01
         -2   -1    0    0    0  501 -0.00000000000E+00  0.00000000000E+00  0.28634178226E+03  0.28634178226E+03  0.00000000000E+00 0.  1.
          2   -1    0    0  501    0  0.00000000000E+00 -0.00000000000E+00 -0.29293078528E+04  0.29293078528E+04  0.00000000000E+00 0. -1.
         23    2    1    2    0    0 -0.62162636034E+03 -0.21526783684E+03 -0.63566362148E+03  0.91916593544E+03  0.89656030269E+02 0.  0.
        254    2    1    2    0    0  0.62162636034E+03  0.21526783684E+03 -0.20073024491E+04  0.22964836996E+04  0.90100759551E+03 0.  0.
        -24    2    4    4    0    0  0.14293367436E+03 -0.29388968860E+03 -0.10904349273E+04  0.11408505431E+04  0.75435049465E+02 0.  0.
         24    2    4    4    0    0  0.47869268598E+03  0.50915752544E+03 -0.91686752178E+03  0.11556331565E+04  0.80335961209E+02 0.  0.
         13    1    3    3    0    0 -0.43621992470E+03 -0.18664079819E+03 -0.48571033717E+03  0.67899715897E+03  0.00000000000E+00 0. -1.
        -13    1    3    3    0    0 -0.18540643564E+03 -0.28627038651E+02 -0.14995328431E+03  0.24016877648E+03  0.00000000000E+00 0.  1.
          4    1    6    6  502    0  0.46161890987E+02  0.71092628493E+02 -0.14936404269E+03  0.17174020862E+03  0.00000000000E+00 0. -1.
          1    1    5    5  503    0  0.14264168808E+03 -0.28457508701E+03 -0.98849280655E+03  0.10384833460E+04  0.00000000000E+00 0. -1.
         -2    1    5    5    0  503  0.29198628071E+00 -0.93146015902E+01 -0.10194212075E+03  0.10236719710E+03  0.00000000000E+00 0.  1.
         -3    1    6    6    0  502  0.43253079499E+03  0.43806489695E+03 -0.76750347909E+03  0.98389294792E+03  0.00000000000E+00 0.  1.
<mgrwt>
<rscale>  0 0.18317022E+04</rscale>
<asrwt>0</asrwt>
<pdfrwt beam="1">  1        2 0.45066276E+00 0.18317022E+04</pdfrwt>
<pdfrwt beam="2">  1       -2 0.44052581E-01 0.18317022E+04</pdfrwt>
<totfact> 0.88954381E+00</totfact>
</mgrwt>
</event>
<event>
12    1  0.2214165E-007  0.2210303E+04  0.7818608E-02  0.8514152E-01
         -2   -1    0    0    0  501 -0.00000000000E+00  0.00000000000E+00  0.34282028188E+04  0.34282028188E+04  0.00000000000E+00 0.  1.
          2   -1    0    0  501    0  0.00000000000E+00 -0.00000000000E+00 -0.35626822077E+03  0.35626822077E+03  0.00000000000E+00 0. -1.
         23    2    1    2    0    0 -0.43991336785E+03  0.53290715816E+03  0.23186646880E+04  0.24211772520E+04  0.91539827399E+02 0.  0.
        254    2    1    2    0    0  0.43991336785E+03 -0.53290715816E+03  0.75326991003E+03  0.13632937875E+04  0.90202027877E+03 0.  0.
        -24    2    4    4    0    0  0.54366494997E+03 -0.71144109423E+03  0.50566124444E+03  0.10312962981E+04  0.78477716821E+02 0.  0.
         24    2    4    4    0    0 -0.10375158213E+03  0.17853393607E+03  0.24760866559E+03  0.33199748939E+03  0.79205584154E+02 0.  0.
         13    1    3    3    0    0 -0.15329886070E+03  0.12174088479E+03  0.63315819138E+03  0.66272971793E+03  0.00000000000E+00 0. -1.
        -13    1    3    3    0    0 -0.28661450715E+03  0.41116627337E+03  0.16855064966E+04  0.17584475341E+04  0.00000000000E+00 0.  1.
          2    1    6    6  502    0 -0.49270913193E+02  0.14217474499E+03  0.13724100280E+03  0.20365749151E+03  0.00000000000E+00 0. -1.
          1    1    5    5  503    0  0.12150748167E+03 -0.19609940745E+03  0.16029184982E+03  0.28091372844E+03  0.00000000000E+00 0. -1.
         -2    1    5    5    0  503  0.42215746830E+03 -0.51534168678E+03  0.34536939463E+03  0.75038256970E+03  0.00000000000E+00 0.  1.
         -1    1    6    6    0  502 -0.54480668935E+02  0.36359191072E+02  0.11036766280E+03  0.12833999787E+03  0.00000000000E+00 0.  1.
<mgrwt>
<rscale>  0 0.22103029E+04</rscale>
<asrwt>0</asrwt>
<pdfrwt beam="1">  1        2 0.54810498E-01 0.22103029E+04</pdfrwt>
<pdfrwt beam="2">  1       -2 0.52741580E+00 0.22103029E+04</pdfrwt>
<totfact> 0.92887785E-02</totfact>
</mgrwt>
</event>
<event>
12    1  0.2214165E-007  0.2006908E+04  0.7818608E-02  0.8603398E-01
         -2   -1    0    0    0  501 -0.00000000000E+00  0.00000000000E+00  0.28233478265E+04  0.28233478265E+04  0.00000000000E+00 0. -1.
          2   -1    0    0  501    0  0.00000000000E+00 -0.00000000000E+00 -0.35664056626E+03  0.35664056626E+03  0.00000000000E+00 0.  1.
         23    2    1    2    0    0  0.50889664705E+03  0.17927152559E+03  0.61487774948E+02  0.55335975221E+03  0.10635878726E+03 0.  0.
        254    2    1    2    0    0 -0.50889664705E+03 -0.17927152559E+03  0.24052194852E+04  0.26266286405E+04  0.90718419609E+03 0.  0.
        -24    2    4    4    0    0 -0.17363724630E+03  0.36452816429E+03  0.96979208144E+03  0.10534466781E+04  0.78883119267E+02 0.  0.
         24    2    4    4    0    0 -0.33525940075E+03 -0.54379968989E+03  0.14354274038E+04  0.15731819624E+04  0.79578179966E+02 0.  0.
         11    1    3    3    0    0  0.44114441791E+03  0.11380385583E+03  0.46386076533E+02  0.45794255442E+03  0.00000000000E+00 0.  1.
        -11    1    3    3    0    0  0.67752229138E+02  0.65467669765E+02  0.15101698414E+02  0.95417197782E+02  0.00000000000E+00 0. -1.
          4    1    6    6  502    0 -0.24527191141E+03 -0.44442152745E+03  0.10810913614E+04  0.11943313344E+04  0.00000000000E+00 0. -1.
          1    1    5    5  503    0 -0.17971166388E+03  0.36308585319E+03  0.95333825624E+03  0.10358481789E+04  0.00000000000E+00 0. -1.
         -2    1    5    5    0  503  0.60744175834E+01  0.14423111084E+01  0.16453825201E+02  0.17598499199E+02  0.00000000000E+00 0.  1.
         -3    1    6    6    0  502 -0.89987489340E+02 -0.99378162432E+02  0.35433604239E+03  0.37885062801E+03  0.00000000000E+00 0.  1.
<mgrwt>
<rscale>  0 0.20069084E+04</rscale>
<asrwt>0</asrwt>
<pdfrwt beam="1">  1        2 0.54867781E-01 0.20069084E+04</pdfrwt>
<pdfrwt beam="2">  1       -2 0.43436119E+00 0.20069084E+04</pdfrwt>
<totfact> 0.37096521E-01</totfact>
</mgrwt>
</event>
<event>
12    1  0.2400037E-007  0.4505181E+04  0.7818608E-02  0.7909730E-01
          2   -1    0    0  501    0  0.00000000000E+00  0.00000000000E+00  0.23279319574E+04  0.23279319574E+04  0.00000000000E+00 0. -1.
         -2   -1    0    0    0  501 -0.00000000000E+00 -0.00000000000E+00 -0.21796878273E+04  0.21796878273E+04  0.00000000000E+00 0.  1.
         23    2    1    2    0    0  0.17126518034E+04 -0.12232259509E+04 -0.42117999784E+03  0.21481888308E+04  0.88683343448E+02 0.  0.
        254    2    1    2    0    0 -0.17126518034E+04  0.12232259509E+04  0.56942412792E+03  0.23594309538E+04  0.90178304575E+03 0.  0.
        -24    2    4    4    0    0 -0.34891664945E+03  0.62846938455E+03  0.47751172185E+03  0.86662720661E+03  0.79427168866E+02 0.  0.
         24    2    4    4    0    0 -0.13637351540E+04  0.59475656636E+03  0.91912406069E+02  0.14928037472E+04  0.80660980890E+02 0.  0.
         13    1    3    3    0    0  0.78990536804E+03 -0.55424336708E+03 -0.14882818252E+03  0.97636367626E+03  0.00000000000E+00 0. -1.
        -13    1    3    3    0    0  0.92274643540E+03 -0.66898258383E+03 -0.27235181532E+03  0.11718251545E+04  0.00000000000E+00 0.  1.
          2    1    6    6  502    0 -0.62722745415E+03  0.26096377047E+03  0.34144926865E+01  0.67935854120E+03  0.00000000000E+00 0. -1.
          1    1    5    5  503    0 -0.34120700721E+03  0.57581837428E+03  0.43218170213E+03  0.79672457323E+03  0.00000000000E+00 0. -1.
         -2    1    5    5    0  503 -0.77096422330E+01  0.52651010267E+02  0.45330019720E+02  0.69902633379E+02  0.00000000000E+00 0.  1.
         -1    1    6    6    0  502 -0.73650769984E+03  0.33379279589E+03  0.88497913383E+02  0.81344520601E+03  0.00000000000E+00 0.  1.
<mgrwt>
<rscale>  0 0.45051814E+04</rscale>
<asrwt>0</asrwt>
<pdfrwt beam="1">  1        2 0.35814338E+00 0.45051814E+04</pdfrwt>
<pdfrwt beam="2">  1       -2 0.33533659E+00 0.45051814E+04</pdfrwt>
<totfact> 0.63656608E-02</totfact>
</mgrwt>
</event>
<event>
12    1  0.2214165E-007  0.3219894E+04  0.7818608E-02  0.8183583E-01
         -1   -1    0    0    0  501 -0.00000000000E+00  0.00000000000E+00  0.18082319646E+04  0.18082319646E+04  0.00000000000E+00 0.  1.
          1   -1    0    0  501    0  0.00000000000E+00 -0.00000000000E+00 -0.14334056222E+04  0.14334056222E+04  0.00000000000E+00 0. -1.
         23    2    1    2    0    0  0.55396171147E+02 -0.14782895040E+04  0.68187954404E+02  0.14837250387E+04  0.91552171033E+02 0.  0.
        254    2    1    2    0    0 -0.55396171147E+02  0.14782895040E+04  0.30663838806E+03  0.17579125481E+04  0.89878853607E+03 0.  0.
        -24    2    4    4    0    0 -0.16330501154E+03  0.13131601959E+04 -0.67252002480E+02  0.13278497450E+04  0.87200267014E+02 0.  0.
         24    2    4    4    0    0  0.10790884039E+03  0.16512930809E+03  0.37389039054E+03  0.43006280317E+03  0.79044192110E+02 0.  0.
         11    1    3    3    0    0  0.84055173721E+01 -0.10309227156E+04  0.76811651401E+02  0.10338144553E+04  0.00000000000E+00 0.  1.
        -11    1    3    3    0    0  0.46990653775E+02 -0.44736678833E+03 -0.86236969975E+01  0.44991058334E+03  0.00000000000E+00 0. -1.
          4    1    6    6  502    0  0.15091806126E+02  0.36171953459E+01  0.41777257353E+01  0.16071717601E+02  0.00000000000E+00 0. -1.
          3    1    5    5  503    0 -0.64427005730E+02  0.58179254706E+03 -0.72407847977E+02  0.58981039608E+03  0.00000000000E+00 0. -1.
         -4    1    5    5    0  503 -0.98878005810E+02  0.73136764880E+03  0.51558454965E+01  0.73803934888E+03  0.00000000000E+00 0.  1.
         -3    1    6    6    0  502  0.92817034267E+02  0.16151211275E+03  0.36971266480E+03  0.41399108557E+03  0.00000000000E+00 0.  1.
<mgrwt>
<rscale>  0 0.32198943E+04</rscale>
<asrwt>0</asrwt>
<pdfrwt beam="1">  1        1 0.22052394E+00 0.32198943E+04</pdfrwt>
<pdfrwt beam="2">  1       -1 0.27818953E+00 0.32198943E+04</pdfrwt>
<totfact> 0.27798197E-01</totfact>
</mgrwt>
</event>
<event>
12    1  0.2214165E-007  0.1553821E+04  0.7818608E-02  0.8849431E-01
         -1   -1    0    0    0  501 -0.00000000000E+00  0.00000000000E+00  0.19294768610E+03  0.19294768610E+03  0.00000000000E+00 0.  1.
          1   -1    0    0  501    0  0.00000000000E+00 -0.00000000000E+00 -0.31282571514E+04  0.31282571514E+04  0.00000000000E+00 0. -1.
         23    2    1    2    0    0 -0.11722120230E+03 -0.45379210558E+03 -0.14182878141E+04  0.14964498790E+04  0.90298568745E+02 0.  0.
        254    2    1    2    0    0  0.11722120230E+03  0.45379210558E+03 -0.15170216513E+04  0.18247549585E+04  0.89928187063E+03 0.  0.
        -24    2    4    4    0    0 -0.33620095126E+03  0.42552946001E+03 -0.90929157076E+03  0.10617811003E+04  0.80383726069E+02 0.  0.
         24    2    4    4    0    0  0.45342215357E+03  0.28262645563E+02 -0.60773008049E+03  0.76297385816E+03  0.80017691893E+02 0.  0.
         13    1    3    3    0    0 -0.15273439336E+02 -0.83254741498E+02 -0.16322405168E+03  0.18386604085E+03  0.00000000000E+00 0.  1.
        -13    1    3    3    0    0 -0.10194776297E+03 -0.37053736408E+03 -0.12550637624E+04  0.13125838382E+04  0.00000000000E+00 0. -1.
          2    1    6    6  502    0  0.28413207318E+03  0.46308235203E+02 -0.42395665747E+03  0.51245949603E+03  0.00000000000E+00 0. -1.
          1    1    5    5  503    0 -0.16188546171E+03  0.17568565192E+03 -0.33173415244E+03  0.40880300745E+03  0.00000000000E+00 0. -1.
         -2    1    5    5    0  503 -0.17431548955E+03  0.24984380809E+03 -0.57755741832E+03  0.65297809289E+03  0.00000000000E+00 0.  1.
         -1    1    6    6    0  502  0.16929008038E+03 -0.18045589640E+02 -0.18377342302E+03  0.25051436212E+03  0.00000000000E+00 0.  1.
<mgrwt>
<rscale>  0 0.15538211E+04</rscale>
<asrwt>0</asrwt>
<pdfrwt beam="1">  1        1 0.48127031E+00 0.15538211E+04</pdfrwt>
<pdfrwt beam="2">  1       -1 0.29684261E-01 0.15538211E+04</pdfrwt>
<totfact> 0.48467667E+00</totfact>
</mgrwt>
</event>
<event>
12    1  0.2214165E-007  0.1985316E+04  0.7818608E-02  0.8613517E-01
         -1   -1    0    0    0  501 -0.00000000000E+00  0.00000000000E+00  0.52549413819E+03  0.52549413819E+03  0.00000000000E+00 0.  1.
          1   -1    0    0  501    0  0.00000000000E+00 -0.00000000000E+00 -0.18751302741E+04  0.18751302741E+04  0.00000000000E+00 0. -1.
         23    2    1    2    0    0 -0.31734770356E+03 -0.58637485488E+03 -0.35701740394E+02  0.67434879541E+03  0.94480941015E+02 0.  0.
        254    2    1    2    0    0  0.31734770356E+03  0.58637485488E+03 -0.13139343955E+04  0.17262756169E+04  0.89947700045E+03 0.  0.
        -24    2    4    4    0    0  0.11259066729E+03 -0.23306249652E+03 -0.28980779611E+03  0.39627088481E+03  0.77764193640E+02 0.  0.
         24    2    4    4    0    0  0.20475703626E+03  0.81943735140E+03 -0.10241265994E+04  0.13300047321E+04  0.81696260368E+02 0.  0.
         13    1    3    3    0    0 -0.12975605027E+03 -0.16509285023E+03  0.14398427617E+02  0.21047469325E+03  0.00000000000E+00 0. -1.
        -13    1    3    3    0    0 -0.18759165329E+03 -0.42128200465E+03 -0.50100168011E+02  0.46387410216E+03  0.00000000000E+00 0.  1.
          2    1    6    6  502    0  0.20269974230E+03  0.69097172109E+03 -0.86804530861E+03  0.11278438556E+04  0.00000000000E+00 0. -1.
          1    1    5    5  503    0  0.91875670732E+02 -0.20450459443E+03 -0.20251556165E+03  0.30211888508E+03  0.00000000000E+00 0. -1.
         -2    1    5    5    0  503  0.20714996559E+02 -0.28557902099E+02 -0.87292234464E+02  0.94151999726E+02  0.00000000000E+00 0.  1.
         -1    1    6    6    0  502  0.20572939657E+01  0.12846563032E+03 -0.15608129077E+03  0.20216087643E+03  0.00000000000E+00 0.  1.
<mgrwt>
<rscale>  0 0.19853161E+04</rscale>
<asrwt>0</asrwt>
<pdfrwt beam="1">  1        1 0.28848158E+00 0.19853161E+04</pdfrwt>
<pdfrwt beam="2">  1       -1 0.80845252E-01 0.19853161E+04</pdfrwt>
<totfact> 0.51310741E+00</totfact>
</mgrwt>
</event>
<event>
12    1  0.2214165E-007  0.1291753E+04  0.7818608E-02  0.9036131E-01
         -1   -1    0    0    0  501 -0.00000000000E+00  0.00000000000E+00  0.16828339978E+03  0.16828339978E+03  0.00000000000E+00 0.  1.
          1   -1    0    0  501    0  0.00000000000E+00 -0.00000000000E+00 -0.24788918124E+04  0.24788918124E+04  0.00000000000E+00 0. -1.
         23    2    1    2    0    0 -0.10963791465E+03 -0.23106717675E+03 -0.19121300418E+03  0.33198469702E+03  0.90768461442E+02 0.  0.
        254    2    1    2    0    0  0.10963791465E+03  0.23106717675E+03 -0.21193954084E+04  0.23151905152E+04  0.89602327629E+03 0.  0.
        -24    2    4    4    0    0  0.10663768251E+03 -0.24031804647E+03 -0.20796032877E+03  0.34491955750E+03  0.81225882642E+02 0.  0.
         24    2    4    4    0    0  0.30002321346E+01  0.47138522322E+03 -0.19114350797E+04  0.19702709577E+04  0.78552865843E+02 0.  0.
         13    1    3    3    0    0  0.32140825311E+00 -0.10008096232E+03 -0.77978735032E+02  0.12687389582E+03  0.00000000000E+00 0.  1.
        -13    1    3    3    0    0 -0.10995932290E+03 -0.13098621442E+03 -0.11323426915E+03  0.20511080121E+03  0.00000000000E+00 0. -1.
          4    1    6    6  502    0 -0.24448962403E+02  0.29248312467E+03 -0.10651753694E+04  0.11048722539E+04  0.00000000000E+00 0. -1.
          3    1    5    5  503    0  0.84668782695E+02 -0.14595267182E+03 -0.17367193914E+03  0.24214237056E+03  0.00000000000E+00 0. -1.
         -4    1    5    5    0  503  0.21968899820E+02 -0.94365374649E+02 -0.34288389632E+02  0.10277718694E+03  0.00000000000E+00 0.  1.
         -3    1    6    6    0  502  0.27449194538E+02  0.17890209855E+03 -0.84625971028E+03  0.86539870371E+03  0.00000000000E+00 0.  1.
<mgrwt>
<rscale>  0 0.12917528E+04</rscale>
<asrwt>0</asrwt>
<pdfrwt beam="1">  1        1 0.38136796E+00 0.12917528E+04</pdfrwt>
<pdfrwt beam="2">  1       -1 0.25889755E-01 0.12917528E+04</pdfrwt>
<totfact> 0.18251697E+01</totfact>
</mgrwt>
</event>
<event>
12    1  0.2214165E-007  0.1685262E+04  0.7818608E-02  0.8769815E-01
          2   -1    0    0  501    0  0.00000000000E+00  0.00000000000E+00  0.61463570558E+03  0.61463570558E+03  0.00000000000E+00 0.  1.
         -2   -1    0    0    0  501 -0.00000000000E+00 -0.00000000000E+00 -0.11551999527E+04  0.11551999527E+04  0.00000000000E+00 0. -1.
         23    2    1    2    0    0  0.18875889506E+03  0.55004659039E+03 -0.53650901629E+02  0.59291141534E+03  0.10239314006E+03 0.  0.
        254    2    1    2    0    0 -0.18875889506E+03 -0.55004659039E+03 -0.48691334549E+03  0.11769242429E+04  0.89993605081E+03 0.  0.
        -24    2    4    4    0    0 -0.15386219824E+03 -0.46553029994E+03 -0.74227659849E+03  0.89352267321E+03  0.83762656721E+02 0.  0.
         24    2    4    4    0    0 -0.34896696819E+02 -0.84516290450E+02  0.25536325300E+03  0.28340156974E+03  0.82129628928E+02 0.  0.
         11    1    3    3    0    0  0.13475398177E+03  0.38555646032E+03 -0.84445623569E+02  0.41706532226E+03  0.00000000000E+00 0. -1.
        -11    1    3    3    0    0  0.54004913284E+02  0.16449013008E+03  0.30794721940E+02  0.17584609308E+03  0.00000000000E+00 0.  1.
          2    1    6    6  502    0 -0.59840212448E+01 -0.92099097955E+01  0.15147664348E+03  0.15187430483E+03  0.00000000000E+00 0. -1.
          3    1    5    5  503    0 -0.14455113590E+03 -0.38282877603E+03 -0.56437523657E+03  0.69711714246E+03  0.00000000000E+00 0. -1.
         -4    1    5    5    0  503 -0.93110623423E+01 -0.82701523911E+02 -0.17790136192E+03  0.19640553075E+03  0.00000000000E+00 0.  1.
         -1    1    6    6    0  502 -0.28912675574E+02 -0.75306380655E+02  0.10388660952E+03  0.13152726491E+03  0.00000000000E+00 0.  1.
<mgrwt>
<rscale>  0 0.16852622E+04</rscale>
<asrwt>0</asrwt>
<pdfrwt beam="1">  1        2 0.94559339E-01 0.16852622E+04</pdfrwt>
<pdfrwt beam="2">  1       -2 0.17772307E+00 0.16852622E+04</pdfrwt>
<totfact> 0.86205252E+00</totfact>
</mgrwt>
</event>
<event>
12    1  0.2214165E-007  0.2799440E+04  0.7818608E-02  0.8303442E-01
          2   -1    0    0  501    0  0.00000000000E+00  0.00000000000E+00  0.32581393968E+04  0.32581393968E+04  0.00000000000E+00 0. -1.
         -2   -1    0    0    0  501 -0.00000000000E+00 -0.00000000000E+00 -0.60132972322E+03  0.60132972322E+03  0.00000000000E+00 0.  1.
         23    2    1    2    0    0  0.61581701626E+03 -0.10892750000E+04  0.12219599806E+04  0.17513188978E+04  0.90449237807E+02 0.  0.
        254    2    1    2    0    0 -0.61581701626E+03  0.10892750000E+04  0.14348496930E+04  0.21081502222E+04  0.90540217296E+03 0.  0.
        -24    2    4    4    0    0 -0.15682680507E+02  0.19217490051E+03  0.85533996195E+03  0.88038258320E+03  0.79308911434E+02 0.  0.
         24    2    4    4    0    0 -0.60013433576E+03  0.89710009947E+03  0.57950973108E+03  0.12277676390E+04  0.81437323281E+02 0.  0.
         11    1    3    3    0    0  0.37101401699E+03 -0.62205428789E+03  0.76437232196E+03  0.10530280074E+04  0.00000000000E+00 0. -1.
        -11    1    3    3    0    0  0.24480299927E+03 -0.46722071210E+03  0.45758765864E+03  0.69829089039E+03  0.00000000000E+00 0.  1.
          4    1    6    6  502    0 -0.45551124574E+03  0.71554651888E+03  0.48541798240E+03  0.97730646847E+03  0.00000000000E+00 0. -1.
          3    1    5    5  503    0 -0.18242500781E+02  0.18033609635E+03  0.84568960801E+03  0.86489583741E+03  0.00000000000E+00 0. -1.
         -4    1    5    5    0  503  0.25598202739E+01  0.11838804158E+02  0.96503539410E+01  0.15486745782E+02  0.00000000000E+00 0.  1.
         -3    1    6    6    0  502 -0.14462309002E+03  0.18155358059E+03  0.94091748681E+02  0.25046117057E+03  0.00000000000E+00 0.  1.
<mgrwt>
<rscale>  0 0.27994400E+04</rscale>
<asrwt>0</asrwt>
<pdfrwt beam="1">  1        2 0.50125220E+00 0.27994400E+04</pdfrwt>
<pdfrwt beam="2">  1       -2 0.92512267E-01 0.27994400E+04</pdfrwt>
<totfact> 0.10242460E+00</totfact>
</mgrwt>
</event>
<event>
12    1  0.2214165E-007  0.1386833E+04  0.7818608E-02  0.8963405E-01
         -1   -1    0    0    0  501 -0.00000000000E+00  0.00000000000E+00  0.15103913597E+03  0.15103913597E+03  0.00000000000E+00 0.  1.
          1   -1    0    0  501    0  0.00000000000E+00 -0.00000000000E+00 -0.31834549790E+04  0.31834549790E+04  0.00000000000E+00 0. -1.
         23    2    1    2    0    0 -0.27109622874E+03  0.25466624962E+03 -0.57393832084E+03  0.68998250765E+03  0.91228289447E+02 0.  0.
        254    2    1    2    0    0  0.27109622874E+03 -0.25466624962E+03 -0.24584775222E+04  0.26445116073E+04  0.90054530714E+03 0.  0.
        -24    2    4    4    0    0  0.31581967640E+03 -0.41412119085E+03 -0.23913922155E+04  0.24488876328E+04  0.83996911987E+02 0.  0.
         24    2    4    4    0    0 -0.44723447654E+02  0.15945494123E+03 -0.67085306692E+02  0.19562397448E+03  0.79638156468E+02 0.  0.
         13    1    3    3    0    0 -0.46015678785E+02  0.99277003439E+02 -0.15928663186E+03  0.19325008976E+03  0.00000000000E+00 0. -1.
        -13    1    3    3    0    0 -0.22508054996E+03  0.15538924618E+03 -0.41465168898E+03  0.49673241788E+03  0.00000000000E+00 0.  1.
          4    1    6    6  502    0 -0.66643377972E+02  0.11511840699E+03 -0.58972786259E+02  0.14550387272E+03  0.00000000000E+00 0. -1.
          1    1    5    5  503    0  0.31209575967E+03 -0.37343907138E+03 -0.22054718413E+04  0.22585319449E+04  0.00000000000E+00 0. -1.
         -2    1    5    5    0  503  0.37239167320E+01 -0.40682119475E+02 -0.18592037420E+03  0.19035568797E+03  0.00000000000E+00 0.  1.
         -3    1    6    6    0  502  0.21919930318E+02  0.44336534236E+02 -0.81125204325E+01  0.50120101765E+02  0.00000000000E+00 0.  1.
<mgrwt>
<rscale>  0 0.13868328E+04</rscale>
<asrwt>0</asrwt>
<pdfrwt beam="1">  1        1 0.48976230E+00 0.13868328E+04</pdfrwt>
<pdfrwt beam="2">  1       -1 0.23236791E-01 0.13868328E+04</pdfrwt>
<totfact> 0.68477881E+00</totfact>
</mgrwt>
</event>
<event>
12    1  0.2214165E-007  0.3731384E+04  0.7818608E-02  0.8061042E-01
         -1   -1    0    0    0  501 -0.00000000000E+00  0.00000000000E+00  0.92388538419E+03  0.92388538419E+03  0.00000000000E+00 0.  1.
          1   -1    0    0  501    0  0.00000000000E+00 -0.00000000000E+00 -0.37675738081E+04  0.37675738081E+04  0.00000000000E+00 0. -1.
         23    2    1    2    0    0 -0.69840076516E+03  0.10152460664E+04  0.23226412226E+03  0.12573299982E+04  0.91890684529E+02 0.  0.
        254    2    1    2    0    0  0.69840076516E+03 -0.10152460664E+04 -0.30759525462E+04  0.34341291941E+04  0.90181541964E+03 0.  0.
        -24    2    4    4    0    0 -0.15546286484E+03 -0.65795803818E+02 -0.14750164699E+03  0.23839475525E+03  0.81101993313E+02 0.  0.
         24    2    4    4    0    0  0.85386363001E+03 -0.94945026256E+03 -0.29284508992E+04  0.31957344388E+04  0.79718471814E+02 0.  0.
         13    1    3    3    0    0 -0.20017831425E+03  0.36522882084E+03  0.89253247802E+02  0.42594552623E+03  0.00000000000E+00 0.  1.
        -13    1    3    3    0    0 -0.49822245091E+03  0.65001724553E+03  0.14301087445E+03  0.83138447201E+03  0.00000000000E+00 0. -1.
          2    1    6    6  502    0  0.23656308239E+03 -0.26222627584E+03 -0.90157198696E+03  0.96827514652E+03  0.00000000000E+00 0. -1.
          1    1    5    5  503    0 -0.17880868857E+02 -0.30265848030E+02 -0.65495820321E+02  0.74333367390E+02  0.00000000000E+00 0. -1.
         -2    1    5    5    0  503 -0.13758199599E+03 -0.35529955788E+02 -0.82005826667E+02  0.16406138786E+03  0.00000000000E+00 0.  1.
         -1    1    6    6    0  502  0.61730054762E+03 -0.68722398672E+03 -0.20268789122E+04  0.22274592923E+04  0.00000000000E+00 0.  1.
<mgrwt>
<rscale>  0 0.37313839E+04</rscale>
<asrwt>0</asrwt>
<pdfrwt beam="1">  1        1 0.57962675E+00 0.37313839E+04</pdfrwt>
<pdfrwt beam="2">  1       -1 0.14213621E+00 0.37313839E+04</pdfrwt>
<totfact> 0.48789711E-02</totfact>
</mgrwt>
</event>
<event>
12    1  0.2214165E-007  0.1615686E+04  0.7818608E-02  0.8810969E-01
          1   -1    0    0  501    0  0.00000000000E+00  0.00000000000E+00  0.69571131732E+03  0.69571131732E+03  0.00000000000E+00 0. -1.
         -1   -1    0    0    0  501 -0.00000000000E+00 -0.00000000000E+00 -0.93804784149E+03  0.93804784149E+03  0.00000000000E+00 0.  1.
         23    2    1    2    0    0 -0.84054381389E+02 -0.50773462450E+03  0.12039456003E+03  0.53593093504E+03  0.88699093016E+02 0.  0.
        254    2    1    2    0    0  0.84054381389E+02  0.50773462450E+03 -0.36273108420E+03  0.10978282238E+04  0.89932940657E+03 0.  0.
        -24    2    4    4    0    0  0.32848841402E+03 -0.11805377684E+03 -0.14991836537E+03  0.38849169664E+03  0.81295447023E+02 0.  0.
         24    2    4    4    0    0 -0.24443403263E+03  0.62578840134E+03 -0.21281271883E+03  0.70933652714E+03  0.80684173605E+02 0.  0.
         13    1    3    3    0    0 -0.36580503911E+02 -0.10261861301E+03 -0.54236129018E+01  0.10907854317E+03  0.00000000000E+00 0.  1.
        -13    1    3    3    0    0 -0.47473877478E+02 -0.40511601149E+03  0.12581817293E+03  0.42685239188E+03  0.00000000000E+00 0. -1.
          2    1    6    6  502    0 -0.22289332760E+03  0.56046551078E+03 -0.21549688459E+03  0.64050131267E+03  0.00000000000E+00 0. -1.
          1    1    5    5  503    0  0.30707932503E+03 -0.10447605899E+03 -0.11255384253E+03  0.34333850095E+03  0.00000000000E+00 0. -1.
         -2    1    5    5    0  503  0.21409088987E+02 -0.13577717856E+02 -0.37364522848E+02  0.45153195691E+02  0.00000000000E+00 0.  1.
         -1    1    6    6    0  502 -0.21540705032E+02  0.65322890564E+02  0.26841657645E+01  0.68835214468E+02  0.00000000000E+00 0.  1.
<mgrwt>
<rscale>  0 0.16156862E+04</rscale>
<asrwt>0</asrwt>
<pdfrwt beam="1">  1        1 0.10703251E+00 0.16156862E+04</pdfrwt>
<pdfrwt beam="2">  1       -1 0.14431505E+00 0.16156862E+04</pdfrwt>
<totfact> 0.10197750E+01</totfact>
</mgrwt>
</event>
<event>
12    1  0.2214165E-007  0.1707702E+04  0.7818608E-02  0.8756984E-01
         -2   -1    0    0    0  501 -0.00000000000E+00  0.00000000000E+00  0.38325769262E+03  0.38325769262E+03  0.00000000000E+00 0. -1.
          2   -1    0    0  501    0  0.00000000000E+00 -0.00000000000E+00 -0.19022757804E+04  0.19022757804E+04  0.00000000000E+00 0.  1.
         23    2    1    2    0    0 -0.28813645018E+02  0.57812941205E+03 -0.79144386511E+03  0.98508558916E+03  0.94585321957E+02 0.  0.
        254    2    1    2    0    0  0.28813645018E+02 -0.57812941205E+03 -0.72757422268E+03  0.13004478839E+04  0.90925057379E+03 0.  0.
        -24    2    4    4    0    0  0.74270307686E+02  0.16409767088E+03 -0.47005245635E+03  0.50974143735E+03  0.80267658705E+02 0.  0.
         24    2    4    4    0    0 -0.45456662668E+02 -0.74222708293E+03 -0.25752176633E+03  0.79070644652E+03  0.77018657650E+02 0.  0.
         11    1    3    3    0    0 -0.20551556579E+02  0.34219025299E+03 -0.38890709585E+03  0.51842575642E+03  0.00000000000E+00 0. -1.
        -11    1    3    3    0    0 -0.82620884388E+01  0.23593915906E+03 -0.40253676926E+03  0.46665983273E+03  0.00000000000E+00 0.  1.
          2    1    6    6  502    0 -0.12748470359E+02 -0.15182697208E+03 -0.86324754732E+02  0.17511686449E+03  0.00000000000E+00 0. -1.
          1    1    5    5  503    0 -0.15828959514E+02  0.11200129431E+02 -0.38035754153E+02  0.42693295171E+02  0.00000000000E+00 0. -1.
         -2    1    5    5    0  503  0.90099267200E+02  0.15289754145E+03 -0.43201670220E+03  0.46704814218E+03  0.00000000000E+00 0.  1.
         -1    1    6    6    0  502 -0.32708192309E+02 -0.59040011085E+03 -0.17119701159E+03  0.61558958204E+03  0.00000000000E+00 0.  1.
<mgrwt>
<rscale>  0 0.17077023E+04</rscale>
<asrwt>0</asrwt>
<pdfrwt beam="1">  1        2 0.29265781E+00 0.17077023E+04</pdfrwt>
<pdfrwt beam="2">  1       -2 0.58962722E-01 0.17077023E+04</pdfrwt>
<totfact> 0.19347885E+01</totfact>
</mgrwt>
</event>
<event>
12    1  0.2214165E-007  0.2035447E+04  0.7818608E-02  0.8590225E-01
          2   -1    0    0  501    0  0.00000000000E+00  0.00000000000E+00  0.12422284085E+04  0.12422284085E+04  0.00000000000E+00 0.  1.
         -2   -1    0    0    0  501 -0.00000000000E+00 -0.00000000000E+00 -0.83379259185E+03  0.83379259185E+03  0.00000000000E+00 0. -1.
         23    2    1    2    0    0 -0.71669339016E+03  0.27066019631E+03 -0.11353879274E+03  0.78005243579E+03  0.93190062509E+02 0.  0.
        254    2    1    2    0    0  0.71669339016E+03 -0.27066019631E+03  0.52197460943E+03  0.12959685646E+04  0.90563274574E+03 0.  0.
        -24    2    4    4    0    0  0.31305344367E+02  0.27826890079E+03  0.21436581072E+03  0.36206819043E+03  0.82018705086E+02 0.  0.
         24    2    4    4    0    0  0.68538804580E+03 -0.54892909710E+03  0.30760879871E+03  0.93390037416E+03  0.80416471243E+02 0.  0.
         13    1    3    3    0    0 -0.67102845026E+02  0.46957553806E+02 -0.33069740552E+02  0.88325598839E+02  0.00000000000E+00 0. -1.
        -13    1    3    3    0    0 -0.64959054514E+03  0.22370264251E+03 -0.80469052192E+02  0.69172683695E+03  0.00000000000E+00 0.  1.
          4    1    6    6  502    0  0.37072431307E+03 -0.32867133844E+03  0.14008196761E+03  0.51486340195E+03  0.00000000000E+00 0. -1.
          1    1    5    5  503    0 -0.19418484589E-01  0.86135934872E+02  0.11448682485E+03  0.14327118593E+03  0.00000000000E+00 0. -1.
         -2    1    5    5    0  503  0.31324762852E+02  0.19213296592E+03  0.99878985865E+02  0.21879700450E+03  0.00000000000E+00 0.  1.
         -3    1    6    6    0  502  0.31466373273E+03 -0.22025775866E+03  0.16752683110E+03  0.41903697222E+03  0.00000000000E+00 0.  1.
<mgrwt>
<rscale>  0 0.20354467E+04</rscale>
<asrwt>0</asrwt>
<pdfrwt beam="1">  1        2 0.19111206E+00 0.20354467E+04</pdfrwt>
<pdfrwt beam="2">  1       -2 0.12827578E+00 0.20354467E+04</pdfrwt>
<totfact> 0.74404462E+00</totfact>
</mgrwt>
</event>
<event>
12    1  0.2572149E-007  0.2849494E+04  0.7818608E-02  0.8288065E-01
          2   -1    0    0  501    0  0.00000000000E+00  0.00000000000E+00  0.14056186348E+04  0.14056186348E+04  0.00000000000E+00 0. -1.
         -2   -1    0    0    0  501 -0.00000000000E+00 -0.00000000000E+00 -0.14441359607E+04  0.14441359607E+04  0.00000000000E+00 0.  1.
         23    2    1    2    0    0 -0.23521774853E+03  0.11783804079E+04 -0.46972732686E+03  0.12931849066E+04  0.88179737505E+02 0.  0.
        254    2    1    2    0    0  0.23521774853E+03 -0.11783804079E+04  0.43121000093E+03  0.15565696889E+04  0.89053880121E+03 0.  0.
        -24    2    4    4    0    0  0.19535405711E+03  0.85002904870E+02  0.78298720393E+02  0.24149442603E+03  0.82463123420E+02 0.  0.
         24    2    4    4    0    0  0.39863691423E+02 -0.12633833128E+04  0.35291128053E+03  0.13150752629E+04  0.84558063519E+02 0.  0.
         11    1    3    3    0    0 -0.10301481295E+03  0.64916838788E+03 -0.21869908087E+03  0.69271995458E+03  0.00000000000E+00 0. -1.
        -11    1    3    3    0    0 -0.13220293558E+03  0.52921202005E+03 -0.25102824599E+03  0.60046495204E+03  0.00000000000E+00 0.  1.
          4    1    6    6  502    0  0.88037173621E+01 -0.33634834057E+03  0.55533495416E+02  0.34101566058E+03  0.00000000000E+00 0. -1.
          3    1    5    5  503    0  0.21815088149E+02 -0.13135914946E+02 -0.40601270107E+01  0.25786332887E+02  0.00000000000E+00 0. -1.
         -4    1    5    5    0  503  0.17353896896E+03  0.98138819816E+02  0.82358847403E+02  0.21570809314E+03  0.00000000000E+00 0.  1.
         -3    1    6    6    0  502  0.31059974061E+02 -0.92703497222E+03  0.29737778512E+03  0.97405960228E+03  0.00000000000E+00 0.  1.
<mgrwt>
<rscale>  0 0.28494943E+04</rscale>
<asrwt>0</asrwt>
<pdfrwt beam="1">  1        2 0.21624902E+00 0.28494943E+04</pdfrwt>
<pdfrwt beam="2">  1       -2 0.22217476E+00 0.28494943E+04</pdfrwt>
<totfact> 0.11920045E+00</totfact>
</mgrwt>
</event>
<event>
12    1  0.2214165E-007  0.2518367E+04  0.7818608E-02  0.8396471E-01
          2   -1    0    0  501    0  0.00000000000E+00  0.00000000000E+00  0.37469390534E+04  0.37469390534E+04  0.00000000000E+00 0. -1.
         -2   -1    0    0    0  501 -0.00000000000E+00 -0.00000000000E+00 -0.42315695228E+03  0.42315695228E+03  0.00000000000E+00 0.  1.
         23    2    1    2    0    0 -0.22683002468E+03  0.10622112168E+04  0.16885097608E+04  0.20096424463E+04  0.88617269359E+02 0.  0.
        254    2    1    2    0    0  0.22683002468E+03 -0.10622112168E+04  0.16352723402E+04  0.21604535593E+04  0.90205289544E+03 0.  0.
        -24    2    4    4    0    0  0.45959658123E+03 -0.71339758640E+03  0.60523495727E+03  0.10454635093E+04  0.80743185438E+02 0.  0.
         24    2    4    4    0    0 -0.23276655655E+03 -0.34881363036E+03  0.10300373830E+04  0.11149900500E+04  0.79840984491E+02 0.  0.
         13    1    3    3    0    0 -0.79960263165E+02  0.29064810733E+03  0.40461704750E+03  0.50456409018E+03  0.00000000000E+00 0.  1.
        -13    1    3    3    0    0 -0.14686976151E+03  0.77156310943E+03  0.12838927133E+04  0.15050783561E+04  0.00000000000E+00 0. -1.
          2    1    6    6  502    0 -0.14333883077E+03 -0.26355139975E+03  0.66314908954E+03  0.72785443303E+03  0.00000000000E+00 0. -1.
          3    1    5    5  503    0  0.40596154582E+03 -0.66652471467E+03  0.56673740539E+03  0.96449533883E+03  0.00000000000E+00 0. -1.
         -4    1    5    5    0  503  0.53635035406E+02 -0.46872871736E+02  0.38497551885E+02  0.80968170468E+02  0.00000000000E+00 0.  1.
         -1    1    6    6    0  502 -0.89427725781E+02 -0.85262230604E+02  0.36688829343E+03  0.38713561701E+03  0.00000000000E+00 0.  1.
<mgrwt>
<rscale>  0 0.25183672E+04</rscale>
<asrwt>0</asrwt>
<pdfrwt beam="1">  1        2 0.57645214E+00 0.25183672E+04</pdfrwt>
<pdfrwt beam="2">  1       -2 0.65101072E-01 0.25183672E+04</pdfrwt>
<totfact> 0.10457855E+00</totfact>
</mgrwt>
</event>
<event>
12    1  0.2214165E-007  0.1148654E+04  0.7818608E-02  0.9159026E-01
         -1   -1    0    0    0  501 -0.00000000000E+00  0.00000000000E+00  0.29963066873E+03  0.29963066873E+03  0.00000000000E+00 0.  1.
          1   -1    0    0  501    0  0.00000000000E+00 -0.00000000000E+00 -0.11008605514E+04  0.11008605514E+04  0.00000000000E+00 0. -1.
         23    2    1    2    0    0  0.20060979679E+03 -0.32434870282E+02 -0.12498090920E+03  0.25313409848E+03  0.84618749507E+02 0.  0.
        254    2    1    2    0    0 -0.20060979679E+03  0.32434870282E+02 -0.67624897342E+03  0.11473571216E+04  0.90433366578E+03 0.  0.
        -24    2    4    4    0    0 -0.53449338620E+03  0.11603760689E+03 -0.52952912792E+03  0.76557947579E+03  0.81011914809E+02 0.  0.
         24    2    4    4    0    0  0.33388358941E+03 -0.83602736605E+02 -0.14671984550E+03  0.38177764581E+03  0.75893273310E+02 0.  0.
         13    1    3    3    0    0  0.16880999712E+03 -0.52559389217E+02 -0.78819006603E+02  0.19357618739E+03  0.00000000000E+00 0.  1.
        -13    1    3    3    0    0  0.31799799670E+02  0.20124518935E+02 -0.46161902602E+02  0.59557911088E+02  0.00000000000E+00 0. -1.
          4    1    6    6  502    0  0.72539487304E+02 -0.41658911727E+02 -0.61088641611E+02  0.10358216197E+03  0.00000000000E+00 0. -1.
          3    1    5    5  503    0 -0.35678925682E+03  0.95843413053E+02 -0.30888570509E+03  0.48155468269E+03  0.00000000000E+00 0. -1.
         -4    1    5    5    0  503 -0.17770412937E+03  0.20194193835E+02 -0.22064342282E+03  0.28402479310E+03  0.00000000000E+00 0.  1.
         -3    1    6    6    0  502  0.26134410211E+03 -0.41943824878E+02 -0.85631203893E+02  0.27819548384E+03  0.00000000000E+00 0.  1.
<mgrwt>
<rscale>  0 0.11486541E+04</rscale>
<asrwt>0</asrwt>
<pdfrwt beam="1">  1        1 0.16936316E+00 0.11486541E+04</pdfrwt>
<pdfrwt beam="2">  1       -1 0.46097026E-01 0.11486541E+04</pdfrwt>
<totfact> 0.58837249E+01</totfact>
</mgrwt>
</event>
<event>
12    1  0.2214165E-007  0.3129644E+04  0.7818608E-02  0.8207649E-01
          2   -1    0    0  501    0  0.00000000000E+00  0.00000000000E+00  0.24845471264E+04  0.24845471264E+04  0.00000000000E+00 0. -1.
         -2   -1    0    0    0  501 -0.00000000000E+00 -0.00000000000E+00 -0.98555908540E+03  0.98555908540E+03  0.00000000000E+00 0.  1.
         23    2    1    2    0    0  0.88151768107E+03 -0.98877018464E+03  0.80703844608E+02  0.13304071708E+04  0.93435697983E+02 0.  0.
        254    2    1    2    0    0 -0.88151768107E+03  0.98877018464E+03  0.14182841964E+04  0.21396990410E+04  0.90113374376E+03 0.  0.
        -24    2    4    4    0    0 -0.66938858004E+03  0.10965025708E+04  0.13771884451E+04  0.18850667496E+04  0.80185275463E+02 0.  0.
         24    2    4    4    0    0 -0.21212910102E+03 -0.10773238617E+03  0.41095751340E+02  0.25463229137E+03  0.80893266086E+02 0.  0.
         13    1    3    3    0    0  0.15718823934E+03 -0.23332260696E+03  0.20967886229E+02  0.28211209431E+03  0.00000000000E+00 0. -1.
        -13    1    3    3    0    0  0.72432944172E+03 -0.75544757768E+03  0.59735958379E+02  0.10482950765E+04  0.00000000000E+00 0.  1.
          4    1    6    6  502    0 -0.18363071992E+03 -0.10670511855E+03  0.59663071977E+02  0.22060350356E+03  0.00000000000E+00 0. -1.
          1    1    5    5  503    0 -0.44796238825E+03  0.80291343199E+03  0.98917116323E+03  0.13504813478E+04  0.00000000000E+00 0. -1.
         -2    1    5    5    0  503 -0.22142619179E+03  0.29358913881E+03  0.38801728186E+03  0.53458540184E+03  0.00000000000E+00 0.  1.
         -1    1    6    6    0  502 -0.28498381101E+02 -0.10272676172E+01 -0.18567320637E+02  0.34028787809E+02  0.00000000000E+00 0.  1.
<mgrwt>
<rscale>  0 0.31296441E+04</rscale>
<asrwt>0</asrwt>
<pdfrwt beam="1">  1        2 0.38223802E+00 0.31296441E+04</pdfrwt>
<pdfrwt beam="2">  1       -2 0.15162448E+00 0.31296441E+04</pdfrwt>
<totfact> 0.87616031E-01</totfact>
</mgrwt>
</event>
<event>
12    1  0.2214165E-007  0.1887705E+04  0.7818608E-02  0.8661001E-01
         -4   -1    0    0    0  501 -0.00000000000E+00  0.00000000000E+00  0.35886998374E+03  0.35886998374E+03  0.00000000000E+00 0.  1.
          4   -1    0    0  501    0  0.00000000000E+00 -0.00000000000E+00 -0.24823951443E+04  0.24823951443E+04  0.00000000000E+00 0. -1.
         23    2    1    2    0    0 -0.33442077912E+02  0.65334858733E+03 -0.32503906602E+03  0.73612197631E+03  0.90787776905E+02 0.  0.
        254    2    1    2    0    0  0.33442077912E+02 -0.65334858733E+03 -0.17984860945E+04  0.21051431517E+04  0.87697930871E+03 0.  0.
        -24    2    4    4    0    0  0.13120440080E+03  0.78317377482E+02 -0.15235663080E+02  0.17353566486E+03  0.80834987120E+02 0.  0.
         24    2    4    4    0    0 -0.97762322888E+02 -0.73166596481E+03 -0.17832504315E+04  0.19316074869E+04  0.78948250257E+02 0.  0.
         11    1    3    3    0    0 -0.12025190191E+02  0.35235593502E+03 -0.22490248891E+03  0.41818708692E+03  0.00000000000E+00 0.  1.
        -11    1    3    3    0    0 -0.21416887721E+02  0.30099265230E+03 -0.10013657711E+03  0.31793488940E+03  0.00000000000E+00 0. -1.
          4    1    6    6  502    0 -0.11105262244E+03 -0.67562680572E+03 -0.16528314477E+04  0.17890377470E+04  0.00000000000E+00 0. -1.
          3    1    5    5  503    0  0.49901708516E+02  0.74115817716E+02  0.55214848149E+01  0.89519951648E+02  0.00000000000E+00 0. -1.
         -4    1    5    5    0  503  0.81302692285E+02  0.42015597661E+01 -0.20757147895E+02  0.84015713209E+02  0.00000000000E+00 0.  1.
         -3    1    6    6    0  502  0.13290299550E+02 -0.56039159087E+02 -0.13041898374E+03  0.14256973990E+03  0.00000000000E+00 0.  1.
<mgrwt>
<rscale>  0 0.18877045E+04</rscale>
<asrwt>0</asrwt>
<pdfrwt beam="1">  1        4 0.38190693E+00 0.18877045E+04</pdfrwt>
<pdfrwt beam="2">  1       -4 0.55210768E-01 0.18877045E+04</pdfrwt>
<totfact> 0.53703890E-02</totfact>
</mgrwt>
</event>
<event>
12    1  0.2214165E-007  0.1743453E+04  0.7818608E-02  0.8736962E-01
          1   -1    0    0  501    0  0.00000000000E+00  0.00000000000E+00  0.54363535649E+03  0.54363535649E+03  0.00000000000E+00 0. -1.
         -1   -1    0    0    0  501 -0.00000000000E+00 -0.00000000000E+00 -0.13978248951E+04  0.13978248951E+04  0.00000000000E+00 0.  1.
         23    2    1    2    0    0 -0.32422968605E+03 -0.45150354914E+03 -0.65501689580E+03  0.86432928329E+03  0.95066460785E+02 0.  0.
        254    2    1    2    0    0  0.32422968605E+03  0.45150354914E+03 -0.19917264282E+03  0.10771309683E+04  0.90086682536E+03 0.  0.
        -24    2    4    4    0    0  0.56564850283E+03  0.50787415749E+02 -0.32480941374E+02  0.57432630468E+03  0.79108168607E+02 0.  0.
         24    2    4    4    0    0 -0.24141881678E+03  0.40071613339E+03 -0.16669170144E+03  0.50280466363E+03  0.78548976960E+02 0.  0.
         13    1    3    3    0    0 -0.62693217924E+02 -0.13690234706E+03 -0.13147284101E+03  0.19989447248E+03  0.00000000000E+00 0. -1.
        -13    1    3    3    0    0 -0.26153646813E+03 -0.31460120208E+03 -0.52354405479E+03  0.66443481081E+03  0.00000000000E+00 0.  1.
          4    1    6    6  502    0 -0.48550823151E+02  0.38432079615E+02 -0.38116927697E+02  0.72712497889E+02  0.00000000000E+00 0. -1.
          3    1    5    5  503    0  0.38348533312E+02  0.24371969575E+02 -0.33930222514E+01  0.45564410543E+02  0.00000000000E+00 0. -1.
         -4    1    5    5    0  503  0.52729996952E+03  0.26415446174E+02 -0.29087919123E+02  0.52876189414E+03  0.00000000000E+00 0.  1.
         -3    1    6    6    0  502 -0.19286799363E+03  0.36228405378E+03 -0.12857477375E+03  0.43009216574E+03  0.00000000000E+00 0.  1.
<mgrwt>
<rscale>  0 0.17434529E+04</rscale>
<asrwt>0</asrwt>
<pdfrwt beam="1">  1        1 0.83636208E-01 0.17434529E+04</pdfrwt>
<pdfrwt beam="2">  1       -1 0.21504999E+00 0.17434529E+04</pdfrwt>
<totfact> 0.44419204E+00</totfact>
</mgrwt>
</event>
<event>
12    1  0.2214165E-007  0.2176489E+04  0.7818608E-02  0.8528278E-01
          2   -1    0    0  501    0  0.00000000000E+00  0.00000000000E+00  0.16064417947E+04  0.16064417947E+04  0.00000000000E+00 0. -1.
         -2   -1    0    0    0  501 -0.00000000000E+00 -0.00000000000E+00 -0.73720443665E+03  0.73720443665E+03  0.00000000000E+00 0.  1.
         23    2    1    2    0    0 -0.87457232928E+03  0.17798026891E+03  0.48174049873E+03  0.10180377891E+04  0.88166301567E+02 0.  0.
        254    2    1    2    0    0  0.87457232928E+03 -0.17798026891E+03  0.38749685933E+03  0.13256084422E+04  0.90029450229E+03 0.  0.
        -24    2    4    4    0    0  0.38149955499E+03 -0.52218253215E+03  0.28037975534E+03  0.70963757944E+03  0.82195982920E+02 0.  0.
         24    2    4    4    0    0  0.49307277428E+03  0.34420226324E+03  0.10711710399E+03  0.61597086279E+03  0.79687333247E+02 0.  0.
         13    1    3    3    0    0 -0.84067093986E+03  0.18717539898E+03  0.46898150312E+03  0.98066605395E+03  0.00000000000E+00 0. -1.
        -13    1    3    3    0    0 -0.33901389419E+02 -0.91951300722E+01  0.12758995610E+02  0.37371735183E+02  0.00000000000E+00 0.  1.
          2    1    6    6  502    0  0.38183762848E+03  0.22625095760E+03  0.66060079752E+02  0.44872419644E+03  0.00000000000E+00 0. -1.
          1    1    5    5  503    0  0.30027083337E+03 -0.41612989213E+03  0.25739094232E+03  0.57408776131E+03  0.00000000000E+00 0. -1.
         -2    1    5    5    0  503  0.81228721619E+02 -0.10605264002E+03  0.22988813023E+02  0.13554981813E+03  0.00000000000E+00 0.  1.
         -1    1    6    6    0  502  0.11123514580E+03  0.11795130564E+03  0.41057024236E+02  0.16724666634E+03  0.00000000000E+00 0.  1.
<mgrwt>
<rscale>  0 0.21764889E+04</rscale>
<asrwt>0</asrwt>
<pdfrwt beam="1">  1        2 0.24714489E+00 0.21764889E+04</pdfrwt>
<pdfrwt beam="2">  1       -2 0.11341607E+00 0.21764889E+04</pdfrwt>
<totfact> 0.61786519E+00</totfact>
</mgrwt>
</event>
<event>
12    1  0.2214165E-007  0.1189773E+04  0.7818608E-02  0.9121856E-01
         -1   -1    0    0    0  501 -0.00000000000E+00  0.00000000000E+00  0.49905737005E+03  0.49905737005E+03  0.00000000000E+00 0.  1.
          1   -1    0    0  501    0  0.00000000000E+00 -0.00000000000E+00 -0.70911644534E+03  0.70911644534E+03  0.00000000000E+00 0. -1.
         23    2    1    2    0    0  0.24014431649E+03 -0.16368221505E+02 -0.71638539394E+02  0.26746343830E+03  0.92018471433E+02 0.  0.
        254    2    1    2    0    0 -0.24014431649E+03  0.16368221505E+02 -0.13842053590E+03  0.94071037709E+03  0.89879839641E+03 0.  0.
        -24    2    4    4    0    0  0.13652114431E+03  0.33399811990E+03  0.10590474420E+03  0.38438376053E+03  0.79638518182E+02 0.  0.
         24    2    4    4    0    0 -0.37666546080E+03 -0.31762989839E+03 -0.24432528011E+03  0.55632661656E+03  0.83897795444E+02 0.  0.
         11    1    3    3    0    0  0.42302188555E+02  0.15948249478E+02 -0.47460830623E+02  0.65546565596E+02  0.00000000000E+00 0. -1.
        -11    1    3    3    0    0  0.19784212794E+03 -0.32316470983E+02 -0.24177708771E+02  0.20191687271E+03  0.00000000000E+00 0.  1.
          4    1    6    6  502    0 -0.21312359504E+03 -0.14178425836E+03 -0.92300961089E+02  0.27211010658E+03  0.00000000000E+00 0. -1.
          3    1    5    5  503    0  0.10312777047E+03  0.22058857666E+03  0.33625579520E+02  0.24581565612E+03  0.00000000000E+00 0. -1.
         -4    1    5    5    0  503  0.33393373837E+02  0.11340954324E+03  0.72279164683E+02  0.13856810442E+03  0.00000000000E+00 0.  1.
         -3    1    6    6    0  502 -0.16354186575E+03 -0.17584564004E+03 -0.15202431902E+03  0.28421650998E+03  0.00000000000E+00 0.  1.
<mgrwt>
<rscale>  0 0.11897727E+04</rscale>
<asrwt>0</asrwt>
<pdfrwt beam="1">  1        1 0.10909484E+00 0.11897727E+04</pdfrwt>
<pdfrwt beam="2">  1       -1 0.76778057E-01 0.11897727E+04</pdfrwt>
<totfact> 0.45047621E+01</totfact>
</mgrwt>
</event>
<event>
12    1  0.2214165E-007  0.2711045E+04  0.7818608E-02  0.8331430E-01
         -2   -1    0    0    0  501 -0.00000000000E+00  0.00000000000E+00  0.16666086432E+04  0.16666086432E+04  0.00000000000E+00 0.  1.
          2   -1    0    0  501    0  0.00000000000E+00 -0.00000000000E+00 -0.11025028873E+04  0.11025028873E+04  0.00000000000E+00 0. -1.
         23    2    1    2    0    0 -0.34026344292E+03  0.11456054142E+04  0.40767968076E+03  0.12660265734E+04  0.91812781033E+02 0.  0.
        254    2    1    2    0    0  0.34026344292E+03 -0.11456054142E+04  0.15642607515E+03  0.15030849571E+04  0.89811151624E+03 0.  0.
        -24    2    4    4    0    0  0.63012033620E+03 -0.91773471484E+03  0.14268714966E+03  0.11256230015E+04  0.85900372450E+02 0.  0.
         24    2    4    4    0    0 -0.28985689328E+03 -0.22787069937E+03  0.13738925495E+02  0.37746195556E+03  0.79666150979E+02 0.  0.
         13    1    3    3    0    0 -0.24711630494E+03  0.90730357490E+03  0.28730781300E+03  0.98326599890E+03  0.00000000000E+00 0.  1.
        -13    1    3    3    0    0 -0.93147137988E+02  0.23830183932E+03  0.12037186776E+03  0.28276057449E+03  0.00000000000E+00 0. -1.
          2    1    6    6  502    0 -0.10106468428E+02 -0.20404852218E+02 -0.16120734023E+02  0.27899404359E+02  0.00000000000E+00 0. -1.
          3    1    5    5  503    0  0.40945747793E+02 -0.31930077204E+02 -0.20970466602E+01  0.51966159154E+02  0.00000000000E+00 0. -1.
         -4    1    5    5    0  503  0.58917458841E+03 -0.88580463764E+03  0.14478419632E+03  0.10736568424E+04  0.00000000000E+00 0.  1.
         -1    1    6    6    0  502 -0.27975042485E+03 -0.20746584715E+03  0.29859659518E+02  0.34956255120E+03  0.00000000000E+00 0.  1.
<mgrwt>
<rscale>  0 0.27110447E+04</rscale>
<asrwt>0</asrwt>
<pdfrwt beam="1">  1        2 0.16961583E+00 0.27110447E+04</pdfrwt>
<pdfrwt beam="2">  1       -2 0.25640133E+00 0.27110447E+04</pdfrwt>
<totfact> 0.11168501E+00</totfact>
</mgrwt>
</event>
<event>
12    1  0.2214165E-007  0.4219803E+04  0.7818608E-02  0.7961616E-01
         -2   -1    0    0    0  501 -0.00000000000E+00  0.00000000000E+00  0.86201503106E+03  0.86201503106E+03  0.00000000000E+00 0.  1.
          2   -1    0    0  501    0  0.00000000000E+00 -0.00000000000E+00 -0.51642766803E+04  0.51642766803E+04  0.00000000000E+00 0. -1.
         23    2    1    2    0    0 -0.14156453952E+04  0.10793727061E+04 -0.33951293116E+04  0.38345782248E+04  0.89385659202E+02 0.  0.
        254    2    1    2    0    0  0.14156453952E+04 -0.10793727061E+04 -0.90713233765E+03  0.21917134866E+04  0.90090044163E+03 0.  0.
        -24    2    4    4    0    0  0.15760076995E+03 -0.60694856299E+03 -0.42549506885E+03  0.76194238797E+03  0.79281701359E+02 0.  0.
         24    2    4    4    0    0  0.12580446252E+04 -0.47242414310E+03 -0.48163726880E+03  0.14297710986E+04  0.80063010767E+02 0.  0.
         11    1    3    3    0    0 -0.80223000512E+03  0.61026620219E+03 -0.18265210229E+04  0.20861871598E+04  0.00000000000E+00 0.  1.
        -11    1    3    3    0    0 -0.61341539004E+03  0.46910650390E+03 -0.15686082887E+04  0.17483910650E+04  0.00000000000E+00 0. -1.
          4    1    6    6  502    0  0.12063652105E+04 -0.43814986367E+03 -0.46906773392E+03  0.13664980289E+04  0.00000000000E+00 0. -1.
          3    1    5    5  503    0  0.70060566097E+02 -0.41778008458E+03 -0.28742148398E+03  0.51191775848E+03  0.00000000000E+00 0. -1.
         -4    1    5    5    0  503  0.87540203852E+02 -0.18916847840E+03 -0.13807358488E+03  0.25002462949E+03  0.00000000000E+00 0.  1.
         -3    1    6    6    0  502  0.51679414738E+02 -0.34274279432E+02 -0.12569534881E+02  0.63273069670E+02  0.00000000000E+00 0.  1.
<mgrwt>
<rscale>  0 0.42198029E+04</rscale>
<asrwt>0</asrwt>
<pdfrwt beam="1">  1        2 0.79450410E+00 0.42198029E+04</pdfrwt>
<pdfrwt beam="2">  1       -2 0.13261770E+00 0.42198029E+04</pdfrwt>
<totfact> 0.65307945E-03</totfact>
</mgrwt>
</event>
<event>
12    1  0.2214165E-007  0.1642311E+04  0.7818608E-02  0.8794968E-01
         -2   -1    0    0    0  501 -0.00000000000E+00  0.00000000000E+00  0.22714026950E+03  0.22714026950E+03  0.00000000000E+00 0.  1.
          2   -1    0    0  501    0  0.00000000000E+00 -0.00000000000E+00 -0.29686328216E+04  0.29686328216E+04  0.00000000000E+00 0. -1.
         23    2    1    2    0    0  0.22282813287E+03 -0.51393664291E+03 -0.11561474721E+04  0.12883138589E+04  0.96396951236E+02 0.  0.
        254    2    1    2    0    0 -0.22282813287E+03  0.51393664291E+03 -0.15853450800E+04  0.19074592321E+04  0.90072107219E+03 0.  0.
        -24    2    4    4    0    0 -0.38880733288E+03  0.29013426246E+03 -0.27024859204E+03  0.56082324346E+03  0.78354173755E+02 0.  0.
         24    2    4    4    0    0  0.16597920001E+03  0.22380238045E+03 -0.13150964879E+04  0.13466359887E+04  0.79455100871E+02 0.  0.
         11    1    3    3    0    0  0.10332406183E+03 -0.33102483575E+03 -0.77360767257E+03  0.84777481367E+03  0.00000000000E+00 0. -1.
        -11    1    3    3    0    0  0.11950407104E+03 -0.18291180717E+03 -0.38253979950E+03  0.44053904526E+03  0.00000000000E+00 0.  1.
          4    1    6    6  502    0  0.12509717929E+03  0.20641743286E+03 -0.11796698816E+04  0.12041090027E+04  0.00000000000E+00 0. -1.
          3    1    5    5  503    0 -0.19989502412E+03  0.19590477034E+03 -0.16547839579E+03  0.32514581219E+03  0.00000000000E+00 0. -1.
         -4    1    5    5    0  503 -0.18891230876E+03  0.94229492117E+02 -0.10477019626E+03  0.23567743127E+03  0.00000000000E+00 0.  1.
         -3    1    6    6    0  502  0.40882020728E+02  0.17384947596E+02 -0.13542660630E+03  0.14252698592E+03  0.00000000000E+00 0.  1.
<mgrwt>
<rscale>  0 0.16423106E+04</rscale>
<asrwt>0</asrwt>
<pdfrwt beam="1">  1        2 0.45671272E+00 0.16423106E+04</pdfrwt>
<pdfrwt beam="2">  1       -2 0.34944659E-01 0.16423106E+04</pdfrwt>
<totfact> 0.13448782E+01</totfact>
</mgrwt>
</event>
<event>
12    1  0.2214165E-007  0.4357307E+04  0.7818608E-02  0.7936106E-01
         -1   -1    0    0    0  501 -0.00000000000E+00  0.00000000000E+00  0.13862965290E+04  0.13862965290E+04  0.00000000000E+00 0.  1.
          1   -1    0    0  501    0  0.00000000000E+00 -0.00000000000E+00 -0.34238936310E+04  0.34238936310E+04  0.00000000000E+00 0. -1.
         23    2    1    2    0    0  0.12753884587E+04  0.16350458625E+04 -0.73093924257E+03  0.22006146067E+04  0.91879147438E+02 0.  0.
        254    2    1    2    0    0 -0.12753884587E+04 -0.16350458625E+04 -0.13066578594E+04  0.26095755533E+04  0.89584547425E+03 0.  0.
        -24    2    4    4    0    0 -0.11134110191E+04 -0.85900671375E+03 -0.10988248091E+04  0.17862554265E+04  0.75603280594E+02 0.  0.
         24    2    4    4    0    0 -0.16197743959E+03 -0.77603914874E+03 -0.20783305031E+03  0.82332012675E+03  0.78663860720E+02 0.  0.
         11    1    3    3    0    0  0.63279913969E+03  0.74417570064E+03 -0.36530651885E+03  0.10429194971E+04  0.00000000000E+00 0. -1.
        -11    1    3    3    0    0  0.64258931900E+03  0.89087016186E+03 -0.36563272372E+03  0.11576951096E+04  0.00000000000E+00 0.  1.
          4    1    6    6  502    0 -0.11582196446E+03 -0.66695321794E+03 -0.19323608389E+03  0.70397550134E+03  0.00000000000E+00 0. -1.
          3    1    5    5  503    0 -0.10425623077E+04 -0.80949412774E+03 -0.10074271494E+04  0.16604596862E+04  0.00000000000E+00 0. -1.
         -4    1    5    5    0  503 -0.70848711434E+02 -0.49512586009E+02 -0.91397659681E+02  0.12579574031E+03  0.00000000000E+00 0.  1.
         -3    1    6    6    0  502 -0.46155475136E+02 -0.10908593080E+03 -0.14596966421E+02  0.11934462540E+03  0.00000000000E+00 0.  1.
<mgrwt>
<rscale>  0 0.43573074E+04</rscale>
<asrwt>0</asrwt>
<pdfrwt beam="1">  1        1 0.52675286E+00 0.43573074E+04</pdfrwt>
<pdfrwt beam="2">  1       -1 0.21327639E+00 0.43573074E+04</pdfrwt>
<totfact> 0.26587537E-02</totfact>
</mgrwt>
</event>
<event>
12    1  0.2214165E-007  0.2702178E+04  0.7818608E-02  0.8334298E-01
          2   -1    0    0  501    0  0.00000000000E+00  0.00000000000E+00  0.12499483875E+04  0.12499483875E+04  0.00000000000E+00 0. -1.
         -2   -1    0    0    0  501 -0.00000000000E+00 -0.00000000000E+00 -0.14604140036E+04  0.14604140036E+04  0.00000000000E+00 0.  1.
         23    2    1    2    0    0 -0.11468219477E+04 -0.31557003358E+02 -0.44322276760E+03  0.12331910438E+04  0.90096085918E+02 0.  0.
        254    2    1    2    0    0  0.11468219477E+04  0.31557003358E+02  0.23275715143E+03  0.14771713473E+04  0.90092334502E+03 0.  0.
        -24    2    4    4    0    0  0.47401529843E+03 -0.42318589805E+03  0.63267244442E+02  0.64355463589E+03  0.79893790150E+02 0.  0.
         24    2    4    4    0    0  0.67280664924E+03  0.45474290141E+03  0.16948990699E+03  0.83361671140E+03  0.82037182497E+02 0.  0.
         11    1    3    3    0    0 -0.48372116297E+03  0.19079898838E+02 -0.15412748690E+03  0.50804083327E+03  0.00000000000E+00 0. -1.
        -11    1    3    3    0    0 -0.66310078470E+03 -0.50636902196E+02 -0.28909528070E+03  0.72515021055E+03  0.00000000000E+00 0.  1.
          4    1    6    6  502    0  0.61261365267E+03  0.40042147286E+03  0.17448921576E+03  0.75238243585E+03  0.00000000000E+00 0. -1.
          3    1    5    5  503    0  0.39222334847E+03 -0.31942315860E+03  0.27058848584E+02  0.50655946405E+03  0.00000000000E+00 0. -1.
         -4    1    5    5    0  503  0.81791949960E+02 -0.10376273945E+03  0.36208395858E+02  0.13699517184E+03  0.00000000000E+00 0.  1.
         -3    1    6    6    0  502  0.60192996577E+02  0.54321428547E+02 -0.49993087685E+01  0.81234275552E+02  0.00000000000E+00 0.  1.
<mgrwt>
<rscale>  0 0.27021785E+04</rscale>
<asrwt>0</asrwt>
<pdfrwt beam="1">  1        2 0.19229975E+00 0.27021785E+04</pdfrwt>
<pdfrwt beam="2">  1       -2 0.22467908E+00 0.27021785E+04</pdfrwt>
<totfact> 0.14325989E+00</totfact>
</mgrwt>
</event>
<event>
12    1  0.2214165E-007  0.1505770E+04  0.7818608E-02  0.8880625E-01
          3   -1    0    0  501    0  0.00000000000E+00  0.00000000000E+00  0.25349203561E+03  0.25349203561E+03  0.00000000000E+00 0. -1.
         -3   -1    0    0    0  501 -0.00000000000E+00 -0.00000000000E+00 -0.22361079836E+04  0.22361079836E+04  0.00000000000E+00 0.  1.
         23    2    1    2    0    0  0.83606285712E+02  0.33167122336E+03 -0.11812337653E+04  0.12338628473E+04  0.10054106676E+03 0.  0.
        254    2    1    2    0    0 -0.83606285712E+02 -0.33167122336E+03 -0.80138218265E+03  0.12557371719E+04  0.90424920839E+03 0.  0.
        -24    2    4    4    0    0 -0.37113326097E+03 -0.42644256616E+03 -0.74338048909E+03  0.93717979273E+03  0.78091310096E+02 0.  0.
         24    2    4    4    0    0  0.28752697526E+03  0.94771342800E+02 -0.58001693556E+02  0.31855737919E+03  0.80381829190E+02 0.  0.
         13    1    3    3    0    0  0.19350819200E+02  0.15964552747E+03 -0.71292422704E+03  0.73083657691E+03  0.00000000000E+00 0.  1.
        -13    1    3    3    0    0  0.64255466512E+02  0.17202569590E+03 -0.46830953831E+03  0.50302627038E+03  0.00000000000E+00 0. -1.
          4    1    6    6  502    0  0.18817610291E+03  0.94001220877E+02 -0.61460013613E+02  0.21914335150E+03  0.00000000000E+00 0. -1.
          3    1    5    5  503    0 -0.10408267857E+03 -0.14598207223E+03 -0.18474330000E+03  0.25743748034E+03  0.00000000000E+00 0. -1.
         -4    1    5    5    0  503 -0.26705058241E+03 -0.28046049393E+03 -0.55863718909E+03  0.67974231239E+03  0.00000000000E+00 0.  1.
         -3    1    6    6    0  502  0.99350872353E+02  0.77012192301E+00  0.34583200575E+01  0.99414027696E+02  0.00000000000E+00 0.  1.
<mgrwt>
<rscale>  0 0.15057697E+04</rscale>
<asrwt>0</asrwt>
<pdfrwt beam="1">  1        3 0.38998773E-01 0.15057697E+04</pdfrwt>
<pdfrwt beam="2">  1       -3 0.34401663E+00 0.15057697E+04</pdfrwt>
<totfact> 0.35968902E-01</totfact>
</mgrwt>
</event>
<event>
12    1  0.2214165E-007  0.3613307E+04  0.7818608E-02  0.8087450E-01
         -2   -1    0    0    0  501 -0.00000000000E+00  0.00000000000E+00  0.12635592328E+04  0.12635592328E+04  0.00000000000E+00 0.  1.
          2   -1    0    0  501    0  0.00000000000E+00 -0.00000000000E+00 -0.25831764071E+04  0.25831764071E+04  0.00000000000E+00 0. -1.
         23    2    1    2    0    0 -0.14111415921E+04  0.23413762157E+03  0.34192361000E+03  0.14733825316E+04  0.88336348871E+02 0.  0.
        254    2    1    2    0    0  0.14111415921E+04 -0.23413762157E+03 -0.16615407843E+04  0.23733531084E+04  0.90881581208E+03 0.  0.
        -24    2    4    4    0    0  0.58494230043E+02 -0.30605036029E+03 -0.19860440564E+03  0.37798722450E+03  0.79638143917E+02 0.  0.
         24    2    4    4    0    0  0.13526473621E+04  0.71912738715E+02 -0.14629363786E+04  0.19953658839E+04  0.80472569219E+02 0.  0.
         11    1    3    3    0    0 -0.26841993049E+03  0.50025749392E+02  0.30362351225E+02  0.27472478421E+03  0.00000000000E+00 0.  1.
        -11    1    3    3    0    0 -0.11427216616E+04  0.18411187218E+03  0.31156125878E+03  0.11986577474E+04  0.00000000000E+00 0. -1.
          2    1    6    6  502    0  0.54642800835E+03 -0.84625611127E+01 -0.57106340611E+03  0.79042304942E+03  0.00000000000E+00 0. -1.
          1    1    5    5  503    0 -0.82257694232E+01  0.88397932332E-01 -0.40060480033E+01  0.91498370151E+01  0.00000000000E+00 0. -1.
         -2    1    5    5    0  503  0.66719999467E+02 -0.30613875822E+03 -0.19459835764E+03  0.36883738749E+03  0.00000000000E+00 0.  1.
         -1    1    6    6    0  502  0.80621935373E+03  0.80375299828E+02 -0.89187297253E+03  0.12049428344E+04  0.00000000000E+00 0.  1.
<mgrwt>
<rscale>  0 0.36133067E+04</rscale>
<asrwt>0</asrwt>
<pdfrwt beam="1">  1        2 0.39741175E+00 0.36133067E+04</pdfrwt>
<pdfrwt beam="2">  1       -2 0.19439373E+00 0.36133067E+04</pdfrwt>
<totfact> 0.36710497E-01</totfact>
</mgrwt>
</event>
<event>
12    1  0.2214165E-007  0.2590801E+04  0.7818608E-02  0.8371333E-01
          3   -1    0    0  501    0  0.00000000000E+00  0.00000000000E+00  0.15393227326E+04  0.15393227326E+04  0.00000000000E+00 0. -1.
         -3   -1    0    0    0  501 -0.00000000000E+00 -0.00000000000E+00 -0.10901300874E+04  0.10901300874E+04  0.00000000000E+00 0.  1.
         23    2    1    2    0    0  0.39121822276E+03  0.96243600433E+03  0.66525993643E+03  0.12371466726E+04  0.92878125567E+02 0.  0.
        254    2    1    2    0    0 -0.39121822276E+03 -0.96243600433E+03 -0.21606729117E+03  0.13923061474E+04  0.90138591823E+03 0.  0.
        -24    2    4    4    0    0 -0.25024325153E+03 -0.76186487899E+03 -0.54632030318E+03  0.97347595718E+03  0.78292954824E+02 0.  0.
         24    2    4    4    0    0 -0.14097497123E+03 -0.20057112534E+03  0.33025301200E+03  0.41883019024E+03  0.79050347783E+02 0.  0.
         13    1    3    3    0    0  0.13881779800E+03  0.38032504251E+03  0.31052223849E+03  0.51023678778E+03  0.00000000000E+00 0. -1.
        -13    1    3    3    0    0  0.25240042475E+03  0.58211096181E+03  0.35473769794E+03  0.72690988480E+03  0.00000000000E+00 0.  1.
          2    1    6    6  502    0 -0.11409630502E+02 -0.54273883281E+02  0.11759060442E+03  0.13001301597E+03  0.00000000000E+00 0. -1.
          1    1    5    5  503    0 -0.11286954849E+03 -0.30444632995E+03 -0.17751790738E+03  0.37005365859E+03  0.00000000000E+00 0. -1.
         -2    1    5    5    0  503 -0.13737370304E+03 -0.45741854904E+03 -0.36880239579E+03  0.60342229859E+03  0.00000000000E+00 0.  1.
         -1    1    6    6    0  502 -0.12956534073E+03 -0.14629724205E+03  0.21266240759E+03  0.28881717427E+03  0.00000000000E+00 0.  1.
<mgrwt>
<rscale>  0 0.25908007E+04</rscale>
<asrwt>0</asrwt>
<pdfrwt beam="1">  1        3 0.23681888E+00 0.25908007E+04</pdfrwt>
<pdfrwt beam="2">  1       -3 0.16771232E+00 0.25908007E+04</pdfrwt>
<totfact> 0.48705245E-02</totfact>
</mgrwt>
</event>
<event>
12    1  0.2214165E-007  0.3014962E+04  0.7818608E-02  0.8239471E-01
          2   -1    0    0  501    0  0.00000000000E+00  0.00000000000E+00  0.32924140311E+04  0.32924140311E+04  0.00000000000E+00 0. -1.
         -2   -1    0    0    0  501 -0.00000000000E+00 -0.00000000000E+00 -0.69022268109E+03  0.69022268109E+03  0.00000000000E+00 0.  1.
         23    2    1    2    0    0 -0.12127987279E+04 -0.51378325981E+03  0.68831797429E+03  0.14889883216E+04  0.91927121416E+02 0.  0.
        254    2    1    2    0    0  0.12127987279E+04  0.51378325981E+03  0.19138733757E+04  0.24936483906E+04  0.90582393727E+03 0.  0.
        -24    2    4    4    0    0  0.12040776847E+04  0.27132447988E+03  0.11527138665E+04  0.16907685464E+04  0.80802075172E+02 0.  0.
         24    2    4    4    0    0  0.87210432168E+01  0.24245877993E+03  0.76115950920E+03  0.80287984421E+03  0.79937032947E+02 0.  0.
         11    1    3    3    0    0 -0.83490032854E+03 -0.38279868217E+03  0.44226629559E+03  0.10194080959E+04  0.00000000000E+00 0.  1.
        -11    1    3    3    0    0 -0.37789839933E+03 -0.13098457764E+03  0.24605167870E+03  0.46958022572E+03  0.00000000000E+00 0. -1.
          2    1    6    6  502    0 -0.11206323914E+02  0.22638803141E+03  0.71535867979E+03  0.75040999674E+03  0.00000000000E+00 0. -1.
          3    1    5    5  503    0  0.11995487064E+04  0.26419006884E+03  0.11424114843E+04  0.16774437371E+04  0.00000000000E+00 0. -1.
         -4    1    5    5    0  503  0.45289782517E+01  0.71344110374E+01  0.10302382165E+02  0.13324809309E+02  0.00000000000E+00 0.  1.
         -1    1    6    6    0  502  0.19927367131E+02  0.16070748516E+02  0.45800829414E+02  0.52469847471E+02  0.00000000000E+00 0.  1.
<mgrwt>
<rscale>  0 0.30149619E+04</rscale>
<asrwt>0</asrwt>
<pdfrwt beam="1">  1        2 0.50652523E+00 0.30149619E+04</pdfrwt>
<pdfrwt beam="2">  1       -2 0.10618811E+00 0.30149619E+04</pdfrwt>
<totfact> 0.68877799E-01</totfact>
</mgrwt>
</event>
<event>
12    1  0.2214165E-007  0.1838285E+04  0.7818608E-02  0.8686201E-01
         -2   -1    0    0    0  501 -0.00000000000E+00  0.00000000000E+00  0.99637407068E+03  0.99637407068E+03  0.00000000000E+00 0.  1.
          2   -1    0    0  501    0  0.00000000000E+00 -0.00000000000E+00 -0.84789716074E+03  0.84789716074E+03  0.00000000000E+00 0. -1.
         23    2    1    2    0    0 -0.58265324114E+03 -0.35773338304E+03 -0.80956522790E+02  0.69443058028E+03  0.90674690445E+02 0.  0.
        254    2    1    2    0    0  0.58265324114E+03  0.35773338304E+03  0.22943343273E+03  0.11498406511E+04  0.89556454274E+03 0.  0.
        -24    2    4    4    0    0  0.27914510417E+02  0.42510555443E+03  0.36835504249E+03  0.56840291521E+03  0.76827627783E+02 0.  0.
         24    2    4    4    0    0  0.55473873073E+03 -0.67372171394E+02 -0.13892160975E+03  0.58143773593E+03  0.80601229935E+02 0.  0.
         11    1    3    3    0    0 -0.40857542236E+03 -0.28220040615E+03 -0.27657153038E+02  0.49732872741E+03  0.00000000000E+00 0.  1.
        -11    1    3    3    0    0 -0.17407781878E+03 -0.75532976889E+02 -0.53299369752E+02  0.19710185287E+03  0.00000000000E+00 0. -1.
          4    1    6    6  502    0  0.19715989647E+03 -0.49524240764E+02 -0.80669171667E+02  0.21870571656E+03  0.00000000000E+00 0. -1.
          3    1    5    5  503    0  0.54766132032E+02  0.29581736165E+03  0.25524892113E+03  0.39453675672E+03  0.00000000000E+00 0. -1.
         -4    1    5    5    0  503 -0.26851621616E+02  0.12928819279E+03  0.11310612136E+03  0.17386615848E+03  0.00000000000E+00 0.  1.
         -3    1    6    6    0  502  0.35757883426E+03 -0.17847930630E+02 -0.58252438085E+02  0.36273201937E+03  0.00000000000E+00 0.  1.
<mgrwt>
<rscale>  0 0.18382848E+04</rscale>
<asrwt>0</asrwt>
<pdfrwt beam="1">  1        2 0.13044572E+00 0.18382848E+04</pdfrwt>
<pdfrwt beam="2">  1       -2 0.15328832E+00 0.18382848E+04</pdfrwt>
<totfact> 0.84738509E+00</totfact>
</mgrwt>
</event>
<event>
12    1  0.2214165E-007  0.1677425E+04  0.7818608E-02  0.8774345E-01
         -1   -1    0    0    0  501 -0.00000000000E+00  0.00000000000E+00  0.61665672428E+03  0.61665672428E+03  0.00000000000E+00 0.  1.
          1   -1    0    0  501    0  0.00000000000E+00 -0.00000000000E+00 -0.11407301210E+04  0.11407301210E+04  0.00000000000E+00 0. -1.
         23    2    1    2    0    0  0.25161587875E+03 -0.47661715389E+03 -0.44319426657E+03  0.70390712964E+03  0.92680242926E+02 0.  0.
        254    2    1    2    0    0 -0.25161587875E+03  0.47661715389E+03 -0.80879130125E+02  0.10534797156E+04  0.90155621882E+03 0.  0.
        -24    2    4    4    0    0  0.32107838727E+02  0.67560781392E+03  0.27307254479E+02  0.68167630511E+03  0.80374543689E+02 0.  0.
         24    2    4    4    0    0 -0.28372371747E+03 -0.19899066003E+03 -0.10818638460E+03  0.37180341049E+03  0.80231238334E+02 0.  0.
         13    1    3    3    0    0  0.16205349862E+03 -0.32794106771E+03 -0.35281490164E+03  0.50821750769E+03  0.00000000000E+00 0.  1.
        -13    1    3    3    0    0  0.89562380125E+02 -0.14867608618E+03 -0.90379364928E+02  0.19568962195E+03  0.00000000000E+00 0. -1.
          4    1    6    6  502    0 -0.66125585493E+02 -0.21665657705E+02  0.35637371373E+01  0.69675634213E+02  0.00000000000E+00 0. -1.
          3    1    5    5  503    0 -0.13911486526E+02  0.34881760087E+02  0.10847851365E+02  0.39088905375E+02  0.00000000000E+00 0. -1.
         -4    1    5    5    0  503  0.46019325253E+02  0.64072605383E+03  0.16459403113E+02  0.64258739974E+03  0.00000000000E+00 0.  1.
         -3    1    6    6    0  502 -0.21759813198E+03 -0.17732500233E+03 -0.11175012174E+03  0.30212777628E+03  0.00000000000E+00 0.  1.
<mgrwt>
<rscale>  0 0.16774253E+04</rscale>
<asrwt>0</asrwt>
<pdfrwt beam="1">  1        1 0.17549694E+00 0.16774253E+04</pdfrwt>
<pdfrwt beam="2">  1       -1 0.94870266E-01 0.16774253E+04</pdfrwt>
<totfact> 0.12103954E+01</totfact>
</mgrwt>
</event>
<event>
12    1  0.2214165E-007  0.1711654E+04  0.7818608E-02  0.8754746E-01
          1   -1    0    0  501    0  0.00000000000E+00  0.00000000000E+00  0.98039459692E+03  0.98039459692E+03  0.00000000000E+00 0. -1.
         -1   -1    0    0    0  501 -0.00000000000E+00 -0.00000000000E+00 -0.74708667302E+03  0.74708667302E+03  0.00000000000E+00 0.  1.
         23    2    1    2    0    0 -0.42349723767E+03 -0.73063227363E+02 -0.35954426687E+03  0.56751937894E+03  0.90100056229E+02 0.  0.
        254    2    1    2    0    0  0.42349723767E+03  0.73063227363E+02  0.59285219077E+03  0.11599618910E+04  0.89963866244E+03 0.  0.
        -24    2    4    4    0    0 -0.25128101676E+03  0.32718632235E+02  0.14603256097E+02  0.26669603168E+03  0.81858780475E+02 0.  0.
         24    2    4    4    0    0  0.67477825443E+03  0.40344595128E+02  0.57824893468E+03  0.89326585932E+03  0.81232296301E+02 0.  0.
         13    1    3    3    0    0 -0.32989202088E+03 -0.90035071004E+02 -0.30278191573E+03  0.45674056963E+03  0.00000000000E+00 0.  1.
        -13    1    3    3    0    0 -0.93605216784E+02  0.16971843642E+02 -0.56762351139E+02  0.11077880931E+03  0.00000000000E+00 0. -1.
          4    1    6    6  502    0  0.92720414968E+02 -0.22134077860E+02  0.75242796853E+02  0.12144328402E+03  0.00000000000E+00 0. -1.
          3    1    5    5  503    0 -0.16396143170E+03  0.59839054185E+02  0.15806454493E+02  0.17525383732E+03  0.00000000000E+00 0. -1.
         -4    1    5    5    0  503 -0.87319585063E+02 -0.27120421949E+02 -0.12031983955E+01  0.91442194356E+02  0.00000000000E+00 0.  1.
         -3    1    6    6    0  502  0.58205783946E+03  0.62478672988E+02  0.50300613782E+03  0.77182257530E+03  0.00000000000E+00 0.  1.
<mgrwt>
<rscale>  0 0.17116539E+04</rscale>
<asrwt>0</asrwt>
<pdfrwt beam="1">  1        1 0.15082994E+00 0.17116539E+04</pdfrwt>
<pdfrwt beam="2">  1       -1 0.11493641E+00 0.17116539E+04</pdfrwt>
<totfact> 0.10246194E+01</totfact>
</mgrwt>
</event>
<event>
12    1  0.2214165E-007  0.1159716E+04  0.7818608E-02  0.9148867E-01
          2   -1    0    0  501    0  0.00000000000E+00  0.00000000000E+00  0.36767584472E+03  0.36767584472E+03  0.00000000000E+00 0. -1.
         -2   -1    0    0    0  501 -0.00000000000E+00 -0.00000000000E+00 -0.91448771538E+03  0.91448771538E+03  0.00000000000E+00 0.  1.
         23    2    1    2    0    0 -0.20957697437E+03 -0.37593583454E+02 -0.86219144224E+02  0.24803636278E+03  0.93554854123E+02 0.  0.
        254    2    1    2    0    0  0.20957697437E+03  0.37593583454E+02 -0.46059272644E+03  0.10341271973E+04  0.90107580973E+03 0.  0.
        -24    2    4    4    0    0 -0.31602102551E+03  0.51899906919E+02 -0.31895050087E+01  0.33257024841E+03  0.89609755524E+02 0.  0.
         24    2    4    4    0    0  0.52559799987E+03 -0.14306323464E+02 -0.45740322143E+03  0.70155694891E+03  0.80662985449E+02 0.  0.
         11    1    3    3    0    0 -0.57860675674E+02  0.12084123158E+02 -0.63554311279E+02  0.86793054469E+02  0.00000000000E+00 0.  1.
        -11    1    3    3    0    0 -0.15171629869E+03 -0.49677706612E+02 -0.22664832945E+02  0.16124330831E+03  0.00000000000E+00 0. -1.
          2    1    6    6  502    0  0.49298584565E+03 -0.23352675517E+01 -0.40178587864E+03  0.63598143822E+03  0.00000000000E+00 0. -1.
          3    1    5    5  503    0 -0.14043101778E+03 -0.15164910299E+02 -0.24668588812E+02  0.14338544045E+03  0.00000000000E+00 0. -1.
         -4    1    5    5    0  503 -0.17559000773E+03  0.67064817218E+02  0.21479083803E+02  0.18918480796E+03  0.00000000000E+00 0.  1.
         -1    1    6    6    0  502  0.32612154223E+02 -0.11971055913E+02 -0.55617342787E+02  0.65575510683E+02  0.00000000000E+00 0.  1.
<mgrwt>
<rscale>  0 0.11597156E+04</rscale>
<asrwt>0</asrwt>
<pdfrwt beam="1">  1        2 0.56565515E-01 0.11597156E+04</pdfrwt>
<pdfrwt beam="2">  1       -2 0.14069042E+00 0.11597156E+04</pdfrwt>
<totfact> 0.30643324E+01</totfact>
</mgrwt>
</event>
<event>
12    1  0.2214165E-007  0.2023524E+04  0.7818608E-02  0.8595701E-01
          2   -1    0    0  501    0  0.00000000000E+00  0.00000000000E+00  0.98002469409E+03  0.98002469409E+03  0.00000000000E+00 0. -1.
         -2   -1    0    0    0  501 -0.00000000000E+00 -0.00000000000E+00 -0.10445272701E+04  0.10445272701E+04  0.00000000000E+00 0.  1.
         23    2    1    2    0    0 -0.87514728032E+02  0.75921657921E+03 -0.28384137702E+03  0.82307410581E+03  0.11320960463E+03 0.  0.
        254    2    1    2    0    0  0.87514728032E+02 -0.75921657921E+03  0.21933880102E+03  0.12014778584E+04  0.90076128510E+03 0.  0.
        -24    2    4    4    0    0  0.11578976755E+03 -0.12096089092E+03  0.47434289196E+03  0.50893089936E+03  0.77270135036E+02 0.  0.
         24    2    4    4    0    0 -0.28275039519E+02 -0.63825568829E+03 -0.25500409094E+03  0.69254695900E+03  0.80152370717E+02 0.  0.
         13    1    3    3    0    0 -0.12900942343E+01  0.41585481836E+03 -0.11894896775E+03  0.43253410412E+03  0.00000000000E+00 0. -1.
        -13    1    3    3    0    0 -0.86224633798E+02  0.34336176084E+03 -0.16489240927E+03  0.39054000169E+03  0.00000000000E+00 0.  1.
          2    1    6    6  502    0  0.47048880021E+01 -0.52734342074E+03 -0.22229608779E+03  0.57230129304E+03  0.00000000000E+00 0. -1.
          1    1    5    5  503    0  0.10252598629E+03 -0.13027642288E+03  0.40293212351E+03  0.43570382185E+03  0.00000000000E+00 0. -1.
         -2    1    5    5    0  503  0.13263781260E+02  0.93155319625E+01  0.71410768454E+02  0.73227077507E+02  0.00000000000E+00 0.  1.
         -3    1    6    6    0  502 -0.32979927521E+02 -0.11091226755E+03 -0.32708003152E+02  0.12024566597E+03  0.00000000000E+00 0.  1.
<mgrwt>
<rscale>  0 0.20235242E+04</rscale>
<asrwt>0</asrwt>
<pdfrwt beam="1">  1        2 0.15077303E+00 0.20235242E+04</pdfrwt>
<pdfrwt beam="2">  1       -2 0.16069650E+00 0.20235242E+04</pdfrwt>
<totfact> 0.59885983E+00</totfact>
</mgrwt>
</event>
<event>
12    1  0.2214165E-007  0.2399954E+04  0.7818608E-02  0.8439521E-01
         -2   -1    0    0    0  501 -0.00000000000E+00  0.00000000000E+00  0.47806637434E+03  0.47806637434E+03  0.00000000000E+00 0. -1.
          2   -1    0    0  501    0  0.00000000000E+00 -0.00000000000E+00 -0.30120190571E+04  0.30120190571E+04  0.00000000000E+00 0.  1.
         23    2    1    2    0    0  0.20931560388E+03  0.53234877449E+03  0.15292641858E+03  0.59905201403E+03  0.90931767165E+02 0.  0.
        254    2    1    2    0    0 -0.20931560388E+03 -0.53234877449E+03 -0.26868791013E+04  0.28910334174E+04  0.90085885442E+03 0.  0.
        -24    2    4    4    0    0 -0.50084070727E+03 -0.48760643340E+03 -0.13849696404E+04  0.15536688121E+04  0.84524699749E+02 0.  0.
         24    2    4    4    0    0  0.29152510340E+03 -0.44742341088E+02 -0.13019094609E+04  0.13373646053E+04  0.81160828424E+02 0.  0.
         13    1    3    3    0    0  0.10917092636E+03  0.37134570629E+03  0.12873515119E+03  0.40790766589E+03  0.00000000000E+00 0.  1.
        -13    1    3    3    0    0  0.10014467752E+03  0.16100306820E+03  0.24191267398E+02  0.19114434814E+03  0.00000000000E+00 0. -1.
          4    1    6    6  502    0  0.17413617347E+03 -0.64234892249E+02 -0.85219055915E+03  0.87216872071E+03  0.00000000000E+00 0. -1.
          3    1    5    5  503    0 -0.14477365486E+03 -0.12099676490E+03 -0.30072643732E+03  0.35501551848E+03  0.00000000000E+00 0. -1.
         -4    1    5    5    0  503 -0.35606705241E+03 -0.36660966850E+03 -0.10842432031E+04  0.11986532936E+04  0.00000000000E+00 0.  1.
         -3    1    6    6    0  502  0.11738892993E+03  0.19492551161E+02 -0.44971890176E+03  0.46519588457E+03  0.00000000000E+00 0.  1.
<mgrwt>
<rscale>  0 0.23999542E+04</rscale>
<asrwt>0</asrwt>
<pdfrwt beam="1">  1        2 0.46338755E+00 0.23999542E+04</pdfrwt>
<pdfrwt beam="2">  1       -2 0.73548672E-01 0.23999542E+04</pdfrwt>
<totfact> 0.25669726E+00</totfact>
</mgrwt>
</event>
<event>
12    1  0.2214165E-007  0.3443308E+04  0.7818608E-02  0.8127358E-01
          2   -1    0    0  501    0  0.00000000000E+00  0.00000000000E+00  0.27681490343E+04  0.27681490343E+04  0.00000000000E+00 0. -1.
         -2   -1    0    0    0  501 -0.00000000000E+00 -0.00000000000E+00 -0.10707853001E+04  0.10707853001E+04  0.00000000000E+00 0.  1.
         23    2    1    2    0    0  0.12631944392E+04  0.85199692878E+03  0.13407322844E+04  0.20318174293E+04  0.95708147362E+02 0.  0.
        254    2    1    2    0    0 -0.12631944392E+04 -0.85199692878E+03  0.35663144975E+03  0.18071169052E+04  0.90383989737E+03 0.  0.
        -24    2    4    4    0    0 -0.11494584116E+04 -0.28713390735E+03  0.19979244341E+03  0.12047074750E+04  0.87764224806E+02 0.  0.
         24    2    4    4    0    0 -0.11373602764E+03 -0.56486302142E+03  0.15683900635E+03  0.60240943018E+03  0.79325473214E+02 0.  0.
         11    1    3    3    0    0  0.88719036755E+03  0.55671293847E+03  0.88305963735E+03  0.13699745864E+04  0.00000000000E+00 0. -1.
        -11    1    3    3    0    0  0.37600407168E+03  0.29528399031E+03  0.45767264708E+03  0.66184284293E+03  0.00000000000E+00 0.  1.
          2    1    6    6  502    0 -0.11417802479E+03 -0.45786356659E+03  0.10460536081E+03  0.48334040640E+03  0.00000000000E+00 0. -1.
          3    1    5    5  503    0 -0.73503425784E+03 -0.14947080127E+03  0.15293552124E+03  0.76551038810E+03  0.00000000000E+00 0. -1.
         -4    1    5    5    0  503 -0.41442415375E+03 -0.13766310609E+03  0.46856922162E+02  0.43919708690E+03  0.00000000000E+00 0.  1.
         -1    1    6    6    0  502  0.44199714068E+00 -0.10699945483E+03  0.52233645538E+02  0.11906902377E+03  0.00000000000E+00 0.  1.
<mgrwt>
<rscale>  0 0.34433085E+04</rscale>
<asrwt>0</asrwt>
<pdfrwt beam="1">  1        2 0.42586908E+00 0.34433085E+04</pdfrwt>
<pdfrwt beam="2">  1       -2 0.16473620E+00 0.34433085E+04</pdfrwt>
<totfact> 0.46382775E-01</totfact>
</mgrwt>
</event>
<event>
12    1  0.2214165E-007  0.2274958E+04  0.7818608E-02  0.8487861E-01
         -2   -1    0    0    0  501 -0.00000000000E+00  0.00000000000E+00  0.78178623246E+03  0.78178623246E+03  0.00000000000E+00 0.  1.
          2   -1    0    0  501    0  0.00000000000E+00 -0.00000000000E+00 -0.16550022245E+04  0.16550022245E+04  0.00000000000E+00 0. -1.
         23    2    1    2    0    0 -0.45733982381E+02  0.24109009646E+03 -0.13598950207E+04  0.13848212979E+04  0.90551246731E+02 0.  0.
        254    2    1    2    0    0  0.45733982381E+02 -0.24109009646E+03  0.48667902862E+03  0.10519671590E+04  0.89975685326E+03 0.  0.
        -24    2    4    4    0    0 -0.21231130808E+03  0.19749799614E+03 -0.53115247440E+02  0.30571427139E+03  0.80984172542E+02 0.  0.
         24    2    4    4    0    0  0.25804529046E+03 -0.43858809260E+03  0.53979427605E+03  0.74625288762E+03  0.81047053753E+02 0.  0.
         13    1    3    3    0    0 -0.39102942706E+02  0.32343467754E+02 -0.33953364091E+03  0.34330486939E+03  0.00000000000E+00 0.  1.
        -13    1    3    3    0    0 -0.66310396750E+01  0.20874662870E+03 -0.10203613797E+04  0.10415164286E+04  0.00000000000E+00 0. -1.
          4    1    6    6  502    0 -0.56562718471E+01 -0.17837231927E+02  0.18683474876E+02  0.26443004509E+02  0.00000000000E+00 0. -1.
          1    1    5    5  503    0 -0.97573590027E+02  0.12354605027E+03  0.46289471915E+01  0.15749812431E+03  0.00000000000E+00 0. -1.
         -2    1    5    5    0  503 -0.11473771805E+03  0.73951945866E+02 -0.57744194631E+02  0.14821614708E+03  0.00000000000E+00 0.  1.
         -3    1    6    6    0  502  0.26370156231E+03 -0.42075086067E+03  0.52111080118E+03  0.71980988311E+03  0.00000000000E+00 0.  1.
<mgrwt>
<rscale>  0 0.22749575E+04</rscale>
<asrwt>0</asrwt>
<pdfrwt beam="1">  1        2 0.25461572E+00 0.22749575E+04</pdfrwt>
<pdfrwt beam="2">  1       -2 0.12027481E+00 0.22749575E+04</pdfrwt>
<totfact> 0.49842294E+00</totfact>
</mgrwt>
</event>
<event>
12    1  0.2214165E-007  0.3706788E+04  0.7818608E-02  0.8066459E-01
          2   -1    0    0  501    0  0.00000000000E+00  0.00000000000E+00  0.10184341253E+04  0.10184341253E+04  0.00000000000E+00 0. -1.
         -2   -1    0    0    0  501 -0.00000000000E+00 -0.00000000000E+00 -0.33728926738E+04  0.33728926738E+04  0.00000000000E+00 0.  1.
         23    2    1    2    0    0 -0.15339740113E+04  0.69453459896E+03 -0.16368970761E+04  0.23502245932E+04  0.93107594196E+02 0.  0.
        254    2    1    2    0    0  0.15339740113E+04 -0.69453459896E+03 -0.71756147229E+03  0.20411022059E+04  0.90318833685E+03 0.  0.
        -24    2    4    4    0    0  0.15884976816E+04 -0.58461872124E+03 -0.79930197669E+03  0.18739668011E+04  0.88113494805E+02 0.  0.
         24    2    4    4    0    0 -0.54523670238E+02 -0.10991587771E+03  0.81740504401E+02  0.16713540483E+03  0.78729935222E+02 0.  0.
         11    1    3    3    0    0 -0.69775473304E+03  0.26681803618E+03 -0.70879183586E+03  0.10297763828E+04  0.00000000000E+00 0. -1.
        -11    1    3    3    0    0 -0.83621927829E+03  0.42771656278E+03 -0.92810524028E+03  0.13204482105E+04  0.00000000000E+00 0.  1.
          4    1    6    6  502    0 -0.67844315841E+02 -0.58456300011E+02  0.67387076263E+02  0.11207590397E+03  0.00000000000E+00 0. -1.
          1    1    5    5  503    0  0.59750298083E+03 -0.17561971382E+03 -0.28399231252E+03  0.68447332275E+03  0.00000000000E+00 0. -1.
         -2    1    5    5    0  503  0.99099470074E+03 -0.40899900743E+03 -0.51530966418E+03  0.11894934783E+04  0.00000000000E+00 0.  1.
         -3    1    6    6    0  502  0.13320645603E+02 -0.51459577700E+02  0.14353428138E+02  0.55059500866E+02  0.00000000000E+00 0.  1.
<mgrwt>
<rscale>  0 0.37067878E+04</rscale>
<asrwt>0</asrwt>
<pdfrwt beam="1">  1        2 0.15668217E+00 0.37067878E+04</pdfrwt>
<pdfrwt beam="2">  1       -2 0.51890657E+00 0.37067878E+04</pdfrwt>
<totfact> 0.25095292E-02</totfact>
</mgrwt>
</event>
<event>
12    1  0.2214165E-007  0.2000954E+04  0.7818608E-02  0.8606175E-01
          2   -1    0    0  501    0  0.00000000000E+00  0.00000000000E+00  0.18157561724E+04  0.18157561724E+04  0.00000000000E+00 0. -1.
         -2   -1    0    0    0  501 -0.00000000000E+00 -0.00000000000E+00 -0.55126011193E+03  0.55126011193E+03  0.00000000000E+00 0.  1.
         23    2    1    2    0    0  0.18983810412E+03  0.23457585511E+03  0.13756423650E+04  0.14113105525E+04  0.91330288508E+02 0.  0.
        254    2    1    2    0    0 -0.18983810412E+03 -0.23457585511E+03 -0.11114630457E+03  0.95570573180E+03  0.89997533699E+03 0.  0.
        -24    2    4    4    0    0  0.19199054298E+03 -0.44929290016E+03 -0.12196572262E+03  0.51010967736E+03  0.81312770943E+02 0.  0.
         24    2    4    4    0    0 -0.38182864709E+03  0.21471704505E+03  0.10819418047E+02  0.44559605444E+03  0.80884230524E+02 0.  0.
         13    1    3    3    0    0  0.80162282076E+02  0.12951342782E+03  0.50319720356E+03  0.52574437241E+03  0.00000000000E+00 0.  1.
        -13    1    3    3    0    0  0.10967582204E+03  0.10506242729E+03  0.87244516148E+03  0.88556618011E+03  0.00000000000E+00 0. -1.
          2    1    6    6  502    0 -0.20414977722E+03  0.13837161371E+03 -0.28456936866E+02  0.24826121783E+03  0.00000000000E+00 0. -1.
          3    1    5    5  503    0  0.36020468308E+02 -0.28551183764E+02 -0.39726430787E+01  0.46134868858E+02  0.00000000000E+00 0. -1.
         -4    1    5    5    0  503  0.15597007467E+03 -0.42074171639E+03 -0.11799307954E+03  0.46397480850E+03  0.00000000000E+00 0.  1.
         -3    1    6    6    0  502 -0.17767886987E+03  0.76345431336E+02  0.39276354913E+02  0.19733483661E+03  0.00000000000E+00 0.  1.
<mgrwt>
<rscale>  0 0.20009537E+04</rscale>
<asrwt>0</asrwt>
<pdfrwt beam="1">  1        2 0.27934710E+00 0.20009537E+04</pdfrwt>
<pdfrwt beam="2">  1       -2 0.84809249E-01 0.20009537E+04</pdfrwt>
<totfact> 0.95140408E+00</totfact>
</mgrwt>
</event>
<event>
12    1  0.2214165E-007  0.3181645E+04  0.7818608E-02  0.8193681E-01
         -3   -1    0    0    0  501 -0.00000000000E+00  0.00000000000E+00  0.17852088199E+04  0.17852088199E+04  0.00000000000E+00 0.  1.
          3   -1    0    0  501    0  0.00000000000E+00 -0.00000000000E+00 -0.14176026302E+04  0.14176026302E+04  0.00000000000E+00 0. -1.
         23    2    1    2    0    0  0.65667823366E+03  0.10918840083E+04  0.88106667149E+03  0.15517750238E+04  0.91050834998E+02 0.  0.
        254    2    1    2    0    0 -0.65667823366E+03 -0.10918840083E+04 -0.51346048181E+03  0.16510364263E+04  0.91588352118E+03 0.  0.
        -24    2    4    4    0    0  0.49780720738E+02 -0.17584853283E+03  0.20542144802E+03  0.28657398371E+03  0.80782734428E+02 0.  0.
         24    2    4    4    0    0 -0.70645895440E+03 -0.91603547552E+03 -0.71888192983E+03  0.13644624426E+04  0.82227012381E+02 0.  0.
         11    1    3    3    0    0  0.28957792346E+03  0.41752337885E+03  0.31463887122E+03  0.59764434651E+03  0.00000000000E+00 0. -1.
        -11    1    3    3    0    0  0.36710031020E+03  0.67436062950E+03  0.56642780027E+03  0.95413067726E+03  0.00000000000E+00 0.  1.
          4    1    6    6  502    0 -0.42966901757E+03 -0.50043024257E+03 -0.38386977934E+03  0.76315260586E+03  0.00000000000E+00 0. -1.
          1    1    5    5  503    0  0.45248766189E+02 -0.10152443107E+03  0.68075184059E+02  0.13034144249E+03  0.00000000000E+00 0. -1.
         -2    1    5    5    0  503  0.45319545495E+01 -0.74324101756E+02  0.13734626396E+03  0.15623254122E+03  0.00000000000E+00 0.  1.
         -3    1    6    6    0  502 -0.27678993683E+03 -0.41560523294E+03 -0.33501215049E+03  0.60130983674E+03  0.00000000000E+00 0.  1.
<mgrwt>
<rscale>  0 0.31816453E+04</rscale>
<asrwt>0</asrwt>
<pdfrwt beam="1">  1        3 0.21809271E+00 0.31816453E+04</pdfrwt>
<pdfrwt beam="2">  1       -3 0.27464751E+00 0.31816453E+04</pdfrwt>
<totfact> 0.13132852E-02</totfact>
</mgrwt>
</event>
<event>
12    1  0.2214165E-007  0.3238014E+04  0.7818608E-02  0.8178849E-01
          2   -1    0    0  501    0  0.00000000000E+00  0.00000000000E+00  0.22378116019E+04  0.22378116019E+04  0.00000000000E+00 0. -1.
         -2   -1    0    0    0  501 -0.00000000000E+00 -0.00000000000E+00 -0.11713154354E+04  0.11713154354E+04  0.00000000000E+00 0.  1.
         23    2    1    2    0    0 -0.14074124205E+04 -0.27161230853E+03  0.58005003957E+02  0.14382077252E+04  0.10243980083E+03 0.  0.
        254    2    1    2    0    0  0.14074124205E+04  0.27161230853E+03  0.10084911625E+04  0.19709193121E+04  0.90160165401E+03 0.  0.
        -24    2    4    4    0    0  0.48817165044E+03  0.38124362895E+03  0.34441063945E+02  0.62503772264E+03  0.76339393032E+02 0.  0.
         24    2    4    4    0    0  0.91924077008E+03 -0.10963132042E+03  0.97405009857E+03  0.13458815895E+04  0.74840087018E+02 0.  0.
         13    1    3    3    0    0 -0.15711196426E+03 -0.31019250989E+02  0.39009715626E+02  0.16482754976E+03  0.00000000000E+00 0. -1.
        -13    1    3    3    0    0 -0.12503004563E+04 -0.24059305754E+03  0.18995288330E+02  0.12733801755E+04  0.00000000000E+00 0.  1.
          4    1    6    6  502    0  0.35290777842E+03 -0.73460973007E+02  0.40606040828E+03  0.54297833271E+03  0.00000000000E+00 0. -1.
          3    1    5    5  503    0  0.16814465521E+03  0.12640504638E+03  0.47806971236E+02  0.21572289476E+03  0.00000000000E+00 0. -1.
         -4    1    5    5    0  503  0.32002699523E+03  0.25483858257E+03 -0.13365907291E+02  0.40931482788E+03  0.00000000000E+00 0.  1.
         -3    1    6    6    0  502  0.56633299167E+03 -0.36170347416E+02  0.56798969029E+03  0.80290325679E+03  0.00000000000E+00 0.  1.
<mgrwt>
<rscale>  0 0.32380138E+04</rscale>
<asrwt>0</asrwt>
<pdfrwt beam="1">  1        2 0.34427871E+00 0.32380138E+04</pdfrwt>
<pdfrwt beam="2">  1       -2 0.18020238E+00 0.32380138E+04</pdfrwt>
<totfact> 0.74592712E-01</totfact>
</mgrwt>
</event>
<event>
12    1  0.2803642E-007  0.2487072E+04  0.7818608E-02  0.8407606E-01
          1   -1    0    0  501    0  0.00000000000E+00  0.00000000000E+00  0.21927628324E+04  0.21927628324E+04  0.00000000000E+00 0. -1.
         -1   -1    0    0    0  501 -0.00000000000E+00 -0.00000000000E+00 -0.70522099191E+03  0.70522099191E+03  0.00000000000E+00 0.  1.
         23    2    1    2    0    0 -0.10486766199E+04 -0.43723238975E+02  0.34400324577E+03  0.11082628695E+04  0.90961420746E+02 0.  0.
        254    2    1    2    0    0  0.10486766199E+04  0.43723238975E+02  0.11435385947E+04  0.17897209549E+04  0.89094680195E+03 0.  0.
        -24    2    4    4    0    0  0.12659746630E+02 -0.19696832070E+02 -0.12565715970E+03  0.14816350462E+03  0.74929753364E+02 0.  0.
         24    2    4    4    0    0  0.10360168732E+04  0.63420071045E+02  0.12691957544E+04  0.16415574502E+04  0.80622157477E+02 0.  0.
         11    1    3    3    0    0 -0.49812417791E+03 -0.30274498636E+02  0.21032552974E+03  0.54155430969E+03  0.00000000000E+00 0.  1.
        -11    1    3    3    0    0 -0.55055244196E+03 -0.13448740339E+02  0.13367771603E+03  0.56670855978E+03  0.00000000000E+00 0. -1.
          2    1    6    6  502    0  0.32507507141E+03  0.56444348081E+02  0.38866869714E+03  0.50982656131E+03  0.00000000000E+00 0. -1.
          3    1    5    5  503    0  0.14268205212E+02 -0.45359238177E+02 -0.53578517065E+02  0.71635882481E+02  0.00000000000E+00 0. -1.
         -4    1    5    5    0  503 -0.16084585828E+01  0.25662406107E+02 -0.72078642636E+02  0.76527622140E+02  0.00000000000E+00 0.  1.
         -1    1    6    6    0  502  0.71094180184E+03  0.69757229644E+01  0.88052705730E+03  0.11317308889E+04  0.00000000000E+00 0.  1.
<mgrwt>
<rscale>  0 0.24870725E+04</rscale>
<asrwt>0</asrwt>
<pdfrwt beam="1">  1        1 0.33734812E+00 0.24870725E+04</pdfrwt>
<pdfrwt beam="2">  1       -1 0.10849554E+00 0.24870725E+04</pdfrwt>
<totfact> 0.15446900E+00</totfact>
</mgrwt>
</event>
<event>
12    1  0.2214165E-007  0.1699716E+04  0.7818608E-02  0.8761526E-01
         -3   -1    0    0    0  501 -0.00000000000E+00  0.00000000000E+00  0.21979451700E+04  0.21979451700E+04  0.00000000000E+00 0.  1.
          3   -1    0    0  501    0  0.00000000000E+00 -0.00000000000E+00 -0.32860638561E+03  0.32860638561E+03  0.00000000000E+00 0. -1.
         23    2    1    2    0    0 -0.23572658443E+03 -0.48358123076E+03  0.25931357747E+03  0.60531866701E+03  0.98738684479E+02 0.  0.
        254    2    1    2    0    0  0.23572658443E+03  0.48358123076E+03  0.16100252069E+04  0.19212328886E+04  0.89974263876E+03 0.  0.
        -24    2    4    4    0    0  0.14044857337E+03  0.74107063722E+03  0.12408793927E+04  0.14541770019E+04  0.77055786878E+02 0.  0.
         24    2    4    4    0    0  0.95278011058E+02 -0.25748940646E+03  0.36914581416E+03  0.46705588673E+03  0.80584585289E+02 0.  0.
         13    1    3    3    0    0 -0.35088949683E+02 -0.15337252987E+03  0.45803768125E+02  0.16386687427E+03  0.00000000000E+00 0. -1.
        -13    1    3    3    0    0 -0.20063763475E+03 -0.33020870089E+03  0.21350980935E+03  0.44145179273E+03  0.00000000000E+00 0.  1.
          2    1    6    6  502    0  0.16215651669E+01 -0.18435252028E+02  0.72068718302E+02  0.74406909280E+02  0.00000000000E+00 0. -1.
          1    1    5    5  503    0  0.46702560068E+02  0.10957995121E+03  0.21795681288E+03  0.24838290421E+03  0.00000000000E+00 0. -1.
         -2    1    5    5    0  503  0.93746013305E+02  0.63149068601E+03  0.10229225799E+04  0.12057940977E+04  0.00000000000E+00 0.  1.
         -1    1    6    6    0  502  0.93656445892E+02 -0.23905415443E+03  0.29707709585E+03  0.39264897745E+03  0.00000000000E+00 0.  1.
<mgrwt>
<rscale>  0 0.16997162E+04</rscale>
<asrwt>0</asrwt>
<pdfrwt beam="1">  1        3 0.50554830E-01 0.16997162E+04</pdfrwt>
<pdfrwt beam="2">  1       -3 0.33814540E+00 0.16997162E+04</pdfrwt>
<totfact> 0.22594963E-01</totfact>
</mgrwt>
</event>
<event>
12    1  0.2214165E-007  0.3726874E+04  0.7818608E-02  0.8062032E-01
          2   -1    0    0  501    0  0.00000000000E+00  0.00000000000E+00  0.24445158200E+04  0.24445158200E+04  0.00000000000E+00 0. -1.
         -2   -1    0    0    0  501 -0.00000000000E+00 -0.00000000000E+00 -0.14204845405E+04  0.14204845405E+04  0.00000000000E+00 0.  1.
         23    2    1    2    0    0 -0.88894101649E+03  0.13465493371E+04 -0.22920080191E+03  0.16329699912E+04  0.10318302368E+03 0.  0.
        254    2    1    2    0    0  0.88894101649E+03 -0.13465493371E+04  0.12532320815E+04  0.22320303693E+04  0.89886465692E+03 0.  0.
        -24    2    4    4    0    0  0.42590135188E+03 -0.17607289312E+03  0.72912464940E+03  0.86622393482E+03  0.79545745740E+02 0.  0.
         24    2    4    4    0    0  0.46303966461E+03 -0.11704764440E+04  0.52410743205E+03  0.13658064345E+04  0.79484458910E+02 0.  0.
         11    1    3    3    0    0 -0.54310248614E+03  0.88428355895E+03 -0.11087573298E+03  0.10436527925E+04  0.00000000000E+00 0. -1.
        -11    1    3    3    0    0 -0.34583853034E+03  0.46226577818E+03 -0.11832506893E+03  0.58931719870E+03  0.00000000000E+00 0.  1.
          2    1    6    6  502    0  0.41305541409E+03 -0.10845227105E+04  0.49901901635E+03  0.12632593809E+04  0.00000000000E+00 0. -1.
          1    1    5    5  503    0  0.39277527808E+03 -0.16509823408E+03  0.70519299964E+03  0.82390959013E+03  0.00000000000E+00 0. -1.
         -2    1    5    5    0  503  0.33126073796E+02 -0.10974659039E+02  0.23931649766E+02  0.42314344691E+02  0.00000000000E+00 0.  1.
         -1    1    6    6    0  502  0.49984250515E+02 -0.85953733530E+02  0.25088415698E+02  0.10254705364E+03  0.00000000000E+00 0.  1.
<mgrwt>
<rscale>  0 0.37268737E+04</rscale>
<asrwt>0</asrwt>
<pdfrwt beam="1">  1        2 0.37607936E+00 0.37268737E+04</pdfrwt>
<pdfrwt beam="2">  1       -2 0.21853608E+00 0.37268737E+04</pdfrwt>
<totfact> 0.30525673E-01</totfact>
</mgrwt>
</event>
<event>
12    1  0.2214165E-007  0.1900779E+04  0.7818608E-02  0.8654469E-01
         -2   -1    0    0    0  501 -0.00000000000E+00  0.00000000000E+00  0.37380022641E+03  0.37380022641E+03  0.00000000000E+00 0.  1.
          2   -1    0    0  501    0  0.00000000000E+00 -0.00000000000E+00 -0.24163713225E+04  0.24163713225E+04  0.00000000000E+00 0. -1.
         23    2    1    2    0    0 -0.50288355024E+03 -0.10158352229E+03 -0.15332057136E+04  0.16195787558E+04  0.95417549796E+02 0.  0.
        254    2    1    2    0    0  0.50288355024E+03  0.10158352229E+03 -0.50936538249E+03  0.11705927931E+04  0.92066460635E+03 0.  0.
        -24    2    4    4    0    0 -0.26139852884E+03  0.76543781960E+02 -0.15345198385E+03  0.32328982533E+03  0.82344753179E+02 0.  0.
         24    2    4    4    0    0  0.76428207909E+03  0.25039740332E+02 -0.35591339863E+03  0.84730296781E+03  0.80584656933E+02 0.  0.
         11    1    3    3    0    0 -0.42423747215E+03 -0.10746875136E+03 -0.12043968741E+04  0.12814440275E+04  0.00000000000E+00 0. -1.
        -11    1    3    3    0    0 -0.78646078091E+02  0.58852290631E+01 -0.32880883953E+03  0.33813472829E+03  0.00000000000E+00 0.  1.
          2    1    6    6  502    0  0.76057970644E+03  0.20982038455E+02 -0.34573261783E+03  0.83573487352E+03  0.00000000000E+00 0. -1.
          3    1    5    5  503    0 -0.23940681493E+03  0.73021214323E+02 -0.16338627710E+03  0.29890265358E+03  0.00000000000E+00 0. -1.
         -4    1    5    5    0  503 -0.21991713914E+02  0.35225676373E+01  0.99342932429E+01  0.24387171748E+02  0.00000000000E+00 0.  1.
         -1    1    6    6    0  502  0.37023726420E+01  0.40577018778E+01 -0.10180780808E+02  0.11568094293E+02  0.00000000000E+00 0.  1.
<mgrwt>
<rscale>  0 0.19007789E+04</rscale>
<asrwt>0</asrwt>
<pdfrwt beam="1">  1        2 0.37174944E+00 0.19007789E+04</pdfrwt>
<pdfrwt beam="2">  1       -2 0.57507726E-01 0.19007789E+04</pdfrwt>
<totfact> 0.10325030E+01</totfact>
</mgrwt>
</event>
<event>
12    1  0.2214165E-007  0.1862619E+04  0.7818608E-02  0.8673690E-01
          2   -1    0    0  501    0  0.00000000000E+00  0.00000000000E+00  0.89063928230E+03  0.89063928230E+03  0.00000000000E+00 0.  1.
         -2   -1    0    0    0  501 -0.00000000000E+00 -0.00000000000E+00 -0.97383712146E+03  0.97383712146E+03  0.00000000000E+00 0. -1.
         23    2    1    2    0    0 -0.22891224255E+03  0.31397097881E+03 -0.62677848788E+03  0.74304788990E+03  0.91051103767E+02 0.  0.
        254    2    1    2    0    0  0.22891224255E+03 -0.31397097881E+03  0.54358064871E+03  0.11214285139E+04  0.90063499805E+03 0.  0.
        -24    2    4    4    0    0 -0.19856047343E+03  0.19294191454E+03  0.53541428970E+02  0.29295525178E+03  0.79393015654E+02 0.  0.
         24    2    4    4    0    0  0.42747271598E+03 -0.50691289334E+03  0.49003921974E+03  0.82847326208E+03  0.80844942676E+02 0.  0.
         13    1    3    3    0    0 -0.12871835569E+03  0.14069813354E+03 -0.23105012612E+03  0.29958060794E+03  0.00000000000E+00 0.  1.
        -13    1    3    3    0    0 -0.10019388686E+03  0.17327284527E+03 -0.39572836176E+03  0.44346728196E+03  0.00000000000E+00 0. -1.
          2    1    6    6  502    0  0.16834923509E+03 -0.18508669499E+03  0.23285747967E+03  0.34179109915E+03  0.00000000000E+00 0. -1.
          1    1    5    5  503    0 -0.29484940785E+02  0.56906191966E+02 -0.14151293249E+02  0.65634865108E+02  0.00000000000E+00 0. -1.
         -2    1    5    5    0  503 -0.16907553264E+03  0.13603572257E+03  0.67692722220E+02  0.22732038667E+03  0.00000000000E+00 0.  1.
         -1    1    6    6    0  502  0.25912348089E+03 -0.32182619835E+03  0.25718174007E+03  0.48668216293E+03  0.00000000000E+00 0.  1.
<mgrwt>
<rscale>  0 0.18626192E+04</rscale>
<asrwt>0</asrwt>
<pdfrwt beam="1">  1        2 0.13702143E+00 0.18626192E+04</pdfrwt>
<pdfrwt beam="2">  1       -2 0.14982110E+00 0.18626192E+04</pdfrwt>
<totfact> 0.83988174E+00</totfact>
</mgrwt>
</event>
<event>
12    1  0.2214165E-007  0.1073826E+04  0.7818608E-02  0.9231085E-01
         -1   -1    0    0    0  501 -0.00000000000E+00  0.00000000000E+00  0.26612350650E+03  0.26612350650E+03  0.00000000000E+00 0.  1.
          1   -1    0    0  501    0  0.00000000000E+00 -0.00000000000E+00 -0.10832398183E+04  0.10832398183E+04  0.00000000000E+00 0. -1.
         23    2    1    2    0    0 -0.22347161108E-01 -0.11202379222E+03 -0.36114128528E+02  0.14827004239E+03  0.90168978412E+02 0.  0.
        254    2    1    2    0    0  0.22347161108E-01  0.11202379222E+03 -0.78100218329E+03  0.12010932824E+04  0.90559998470E+03 0.  0.
        -24    2    4    4    0    0  0.38584067564E+03  0.27043122988E+03 -0.49711947352E+03  0.69009108323E+03  0.84213152944E+02 0.  0.
         24    2    4    4    0    0 -0.38581832848E+03 -0.15840743766E+03 -0.28388270977E+03  0.51100219920E+03  0.81148972820E+02 0.  0.
         11    1    3    3    0    0  0.44290906211E+02 -0.47648982002E+02 -0.23143262253E+02  0.69048681715E+02  0.00000000000E+00 0.  1.
        -11    1    3    3    0    0 -0.44313253373E+02 -0.64374810218E+02 -0.12970866275E+02  0.79221360674E+02  0.00000000000E+00 0. -1.
          4    1    6    6  502    0 -0.34056992432E+03 -0.12938887341E+03 -0.27513772887E+03  0.45654148087E+03  0.00000000000E+00 0. -1.
          3    1    5    5  503    0  0.37990238645E+03  0.26975742763E+03 -0.46810464108E+03  0.66046714377E+03  0.00000000000E+00 0. -1.
         -4    1    5    5    0  503  0.59382891907E+01  0.67380224897E+00 -0.29014832439E+02  0.29623939465E+02  0.00000000000E+00 0.  1.
         -3    1    6    6    0  502 -0.45248404164E+02 -0.29018564241E+02 -0.87449809002E+01  0.54460718329E+02  0.00000000000E+00 0.  1.
<mgrwt>
<rscale>  0 0.10738260E+04</rscale>
<asrwt>0</asrwt>
<pdfrwt beam="1">  1        1 0.16665228E+00 0.10738260E+04</pdfrwt>
<pdfrwt beam="2">  1       -1 0.40942078E-01 0.10738260E+04</pdfrwt>
<totfact> 0.75985401E+01</totfact>
</mgrwt>
</event>
<event>
12    1  0.2214165E-007  0.3473083E+04  0.7818608E-02  0.8120199E-01
         -2   -1    0    0    0  501 -0.00000000000E+00  0.00000000000E+00  0.15242810728E+04  0.15242810728E+04  0.00000000000E+00 0.  1.
          2   -1    0    0  501    0  0.00000000000E+00 -0.00000000000E+00 -0.19783597884E+04  0.19783597884E+04  0.00000000000E+00 0. -1.
         23    2    1    2    0    0  0.13995531290E+04  0.79711216640E+03 -0.49941764392E+02  0.16140001317E+04  0.91462990360E+02 0.  0.
        254    2    1    2    0    0 -0.13995531290E+04 -0.79711216640E+03 -0.40413695129E+03  0.18886407295E+04  0.89972238095E+03 0.  0.
        -24    2    4    4    0    0 -0.99961185138E+02 -0.45575438999E+03 -0.24418691639E+03  0.53314046518E+03  0.83109583999E+02 0.  0.
         24    2    4    4    0    0 -0.12995919439E+04 -0.34135777641E+03 -0.15995003491E+03  0.13555002643E+04  0.79577639126E+02 0.  0.
         11    1    3    3    0    0  0.88631283418E+03  0.52860057268E+03 -0.70701834556E+02  0.10343924569E+04  0.00000000000E+00 0. -1.
        -11    1    3    3    0    0  0.51324029485E+03  0.26851159372E+03  0.20760070163E+02  0.57960767484E+03  0.00000000000E+00 0.  1.
          2    1    6    6  502    0 -0.10525832490E+04 -0.28023851565E+03 -0.16070635664E+03  0.11010411686E+04  0.00000000000E+00 0. -1.
          1    1    5    5  503    0 -0.65251440263E+02 -0.40558248613E+03 -0.19478391383E+03  0.45463796212E+03  0.00000000000E+00 0. -1.
         -2    1    5    5    0  503 -0.34709744875E+02 -0.50171903863E+02 -0.49403002551E+02  0.78502503066E+02  0.00000000000E+00 0.  1.
         -1    1    6    6    0  502 -0.24700869485E+03 -0.61119260765E+02  0.75632173330E+00  0.25445909571E+03  0.00000000000E+00 0.  1.
<mgrwt>
<rscale>  0 0.34730830E+04</rscale>
<asrwt>0</asrwt>
<pdfrwt beam="1">  1        2 0.30436304E+00 0.34730830E+04</pdfrwt>
<pdfrwt beam="2">  1       -2 0.23450478E+00 0.34730830E+04</pdfrwt>
<totfact> 0.45333164E-01</totfact>
</mgrwt>
</event>
<event>
12    1  0.2214165E-007  0.4091606E+04  0.7818608E-02  0.7986317E-01
          1   -1    0    0  501    0  0.00000000000E+00  0.00000000000E+00  0.15216341085E+04  0.15216341085E+04  0.00000000000E+00 0. -1.
         -1   -1    0    0    0  501 -0.00000000000E+00 -0.00000000000E+00 -0.27505361910E+04  0.27505361910E+04  0.00000000000E+00 0.  1.
         23    2    1    2    0    0 -0.15208056892E+04 -0.21291924060E+03  0.66720025530E+03  0.16764327240E+04  0.84178085585E+02 0.  0.
        254    2    1    2    0    0  0.15208056892E+04  0.21291924060E+03 -0.18961023378E+04  0.25957375755E+04  0.88570025299E+03 0.  0.
        -24    2    4    4    0    0  0.12248260369E+04 -0.34677716041E+02 -0.89331829028E+03  0.15184462110E+04  0.79119931078E+02 0.  0.
         24    2    4    4    0    0  0.29597965235E+03  0.24759695664E+03 -0.10027840475E+04  0.10772913645E+04  0.77927084271E+02 0.  0.
         11    1    3    3    0    0 -0.19583298160E+03 -0.73075099141E+01  0.10702265995E+03  0.22328861621E+03  0.00000000000E+00 0.  1.
        -11    1    3    3    0    0 -0.13249727076E+04 -0.20561173069E+03  0.56017759535E+03  0.14531441078E+04  0.00000000000E+00 0. -1.
          2    1    6    6  502    0  0.22629703664E+03  0.14515935257E+03 -0.65113756713E+03  0.70445845708E+03  0.00000000000E+00 0. -1.
          3    1    5    5  503    0  0.95692275583E+03 -0.47773301338E+02 -0.66595368285E+03  0.11668237899E+04  0.00000000000E+00 0. -1.
         -2    1    5    5    0  503  0.26790328102E+03  0.13095585297E+02 -0.22736460742E+03  0.35162242114E+03  0.00000000000E+00 0.  1.
         -1    1    6    6    0  502  0.69682615705E+02  0.10243760407E+03 -0.35164648040E+03  0.37283290739E+03  0.00000000000E+00 0.  1.
<mgrwt>
<rscale>  0 0.40916059E+04</rscale>
<asrwt>0</asrwt>
<pdfrwt beam="1">  1        1 0.23409756E+00 0.40916059E+04</pdfrwt>
<pdfrwt beam="2">  1       -1 0.42315941E+00 0.40916059E+04</pdfrwt>
<totfact> 0.24331809E-02</totfact>
</mgrwt>
</event>
<event>
12    1  0.2214165E-007  0.1834820E+04  0.7818608E-02  0.8687999E-01
         -1   -1    0    0    0  501 -0.00000000000E+00  0.00000000000E+00  0.61832575071E+03  0.61832575071E+03  0.00000000000E+00 0.  1.
          1   -1    0    0  501    0  0.00000000000E+00 -0.00000000000E+00 -0.13611607540E+04  0.13611607540E+04  0.00000000000E+00 0. -1.
         23    2    1    2    0    0  0.67948507221E+03  0.12941383502E+03 -0.22355693189E+03  0.73196402005E+03  0.85707180548E+02 0.  0.
        254    2    1    2    0    0 -0.67948507221E+03 -0.12941383502E+03 -0.51927807136E+03  0.12475224846E+04  0.89900763635E+03 0.  0.
        -24    2    4    4    0    0 -0.14203398288E+03  0.34706292706E+03 -0.31636632779E+03  0.49713089795E+03  0.80157025310E+02 0.  0.
         24    2    4    4    0    0 -0.53745108933E+03 -0.47647676208E+03 -0.20291174357E+03  0.75039158668E+03  0.77656805538E+02 0.  0.
         13    1    3    3    0    0  0.70551815705E+02  0.93352497403E+01  0.30449543682E+01  0.71231856175E+02  0.00000000000E+00 0.  1.
        -13    1    3    3    0    0  0.60893325651E+03  0.12007858528E+03 -0.22660188626E+03  0.66073216387E+03  0.00000000000E+00 0. -1.
          4    1    6    6  502    0 -0.35235051468E+03 -0.26742495032E+03 -0.10638456848E+03  0.45495567439E+03  0.00000000000E+00 0. -1.
          1    1    5    5  503    0 -0.55831889139E+02  0.23561101730E+03 -0.21136207070E+03  0.32140889261E+03  0.00000000000E+00 0. -1.
         -4    1    5    5    0  503 -0.86202093739E+02  0.11145190976E+03 -0.10500425709E+03  0.17572200534E+03  0.00000000000E+00 0.  1.
         -3    1    6    6    0  502 -0.18510057466E+03 -0.20905181176E+03 -0.96527175094E+02  0.29543591229E+03  0.00000000000E+00 0.  1.
<mgrwt>
<rscale>  0 0.18348196E+04</rscale>
<asrwt>0</asrwt>
<pdfrwt beam="1">  1        1 0.20940934E+00 0.18348196E+04</pdfrwt>
<pdfrwt beam="2">  1       -1 0.95127039E-01 0.18348196E+04</pdfrwt>
<totfact> 0.82189247E+00</totfact>
</mgrwt>
</event>
<event>
12    1  0.2214165E-007  0.2522883E+04  0.7818608E-02  0.8394879E-01
          2   -1    0    0  501    0  0.00000000000E+00  0.00000000000E+00  0.23649186419E+04  0.23649186419E+04  0.00000000000E+00 0.  1.
         -2   -1    0    0    0  501 -0.00000000000E+00 -0.00000000000E+00 -0.67284943955E+03  0.67284943955E+03  0.00000000000E+00 0. -1.
         23    2    1    2    0    0  0.75724752388E+03  0.10029398216E+03 -0.21121935508E+03  0.79780015064E+03  0.91590223941E+02 0.  0.
        254    2    1    2    0    0 -0.75724752388E+03 -0.10029398216E+03  0.19032885574E+04  0.22399679308E+04  0.90081424438E+03 0.  0.
        -24    2    4    4    0    0  0.11918759647E+03 -0.36705841961E+02  0.73073691048E+01  0.14876267063E+03  0.80770864453E+02 0.  0.
         24    2    4    4    0    0 -0.87643512035E+03 -0.63588140199E+02  0.18959811883E+04  0.20912052602E+04  0.78821329033E+02 0.  0.
         13    1    3    3    0    0  0.63575408433E+03  0.60347578827E+02 -0.20101625653E+03  0.66950177102E+03  0.00000000000E+00 0. -1.
        -13    1    3    3    0    0  0.12149343955E+03  0.39946403333E+02 -0.10203098556E+02  0.12829837962E+03  0.00000000000E+00 0.  1.
          2    1    6    6  502    0 -0.23574533698E+03  0.41367538522E+01  0.44439904695E+03  0.50307403985E+03  0.00000000000E+00 0. -1.
          1    1    5    5  503    0  0.92595981668E+01  0.16062910041E+02  0.18651313081E+02  0.26298834896E+02  0.00000000000E+00 0. -1.
         -2    1    5    5    0  503  0.10992799830E+03 -0.52768752003E+02 -0.11343943977E+02  0.12246383574E+03  0.00000000000E+00 0.  1.
         -1    1    6    6    0  502 -0.64068978337E+03 -0.67724894051E+02  0.14515821414E+04  0.15881312203E+04  0.00000000000E+00 0.  1.
<mgrwt>
<rscale>  0 0.25228826E+04</rscale>
<asrwt>0</asrwt>
<pdfrwt beam="1">  1        2 0.36383363E+00 0.25228826E+04</pdfrwt>
<pdfrwt beam="2">  1       -2 0.10351530E+00 0.25228826E+04</pdfrwt>
<totfact> 0.28187741E+00</totfact>
</mgrwt>
</event>
<event>
12    1  0.2214165E-007  0.1143514E+04  0.7818608E-02  0.9163788E-01
          1   -1    0    0  501    0  0.00000000000E+00  0.00000000000E+00  0.12147646998E+04  0.12147646998E+04  0.00000000000E+00 0. -1.
         -1   -1    0    0    0  501 -0.00000000000E+00 -0.00000000000E+00 -0.26911053927E+03  0.26911053927E+03  0.00000000000E+00 0.  1.
         23    2    1    2    0    0  0.43699544875E+02 -0.17309690625E+03  0.26872869640E+03  0.34492041463E+03  0.12199504493E+03 0.  0.
        254    2    1    2    0    0 -0.43699544875E+02  0.17309690625E+03  0.67692546411E+03  0.11389548244E+04  0.89839736137E+03 0.  0.
        -24    2    4    4    0    0 -0.40965952292E+03 -0.28760136479E+02  0.55758055589E+03  0.69699119170E+03  0.79073224418E+02 0.  0.
         24    2    4    4    0    0  0.36595997805E+03  0.20185704273E+03  0.11934490822E+03  0.44196363271E+03  0.80097904406E+02 0.  0.
         13    1    3    3    0    0  0.47015067582E+02 -0.69203876179E+01  0.83311807149E+02  0.95912280522E+02  0.00000000000E+00 0.  1.
        -13    1    3    3    0    0 -0.33155227072E+01 -0.16617651863E+03  0.18541688925E+03  0.24900813411E+03  0.00000000000E+00 0. -1.
          4    1    6    6  502    0  0.14855162542E+03  0.61178692261E+02  0.81866348697E+02  0.18031227593E+03  0.00000000000E+00 0. -1.
          1    1    5    5  503    0 -0.57936565532E+02 -0.58391446054E+01  0.39437946820E+02  0.70328464257E+02  0.00000000000E+00 0. -1.
         -2    1    5    5    0  503 -0.35172295739E+03 -0.22920991874E+02  0.51814260907E+03  0.62666272744E+03  0.00000000000E+00 0.  1.
         -3    1    6    6    0  502  0.21740835263E+03  0.14067835047E+03  0.37478559522E+02  0.26165135678E+03  0.00000000000E+00 0.  1.
<mgrwt>
<rscale>  0 0.11435139E+04</rscale>
<asrwt>0</asrwt>
<pdfrwt beam="1">  1        1 0.18688687E+00 0.11435139E+04</pdfrwt>
<pdfrwt beam="2">  1       -1 0.41401622E-01 0.11435139E+04</pdfrwt>
<totfact> 0.59177630E+01</totfact>
</mgrwt>
</event>
<event>
12    1  0.2214165E-007  0.1958167E+04  0.7818608E-02  0.8626432E-01
         -1   -1    0    0    0  501 -0.00000000000E+00  0.00000000000E+00  0.69549095861E+03  0.69549095861E+03  0.00000000000E+00 0.  1.
          1   -1    0    0  501    0  0.00000000000E+00 -0.00000000000E+00 -0.13783140097E+04  0.13783140097E+04  0.00000000000E+00 0. -1.
         23    2    1    2    0    0 -0.68251838719E+03  0.14679538652E+02 -0.64461934865E+03  0.94334484448E+03  0.91206103083E+02 0.  0.
        254    2    1    2    0    0  0.68251838719E+03 -0.14679538652E+02 -0.38203702403E+02  0.11304601238E+04  0.90024092937E+03 0.  0.
        -24    2    4    4    0    0  0.48151211247E+03 -0.60727651047E+02 -0.44803746814E+03  0.66545947548E+03  0.80975172744E+02 0.  0.
         24    2    4    4    0    0  0.20100627472E+03  0.46048112395E+02  0.40983376573E+03  0.46500064832E+03  0.75749166776E+02 0.  0.
         11    1    3    3    0    0 -0.19731731587E+03 -0.96451982425E+00 -0.13236019443E+03  0.23760108272E+03  0.00000000000E+00 0.  1.
        -11    1    3    3    0    0 -0.48520107133E+03  0.15644058476E+02 -0.51225915422E+03  0.70574376176E+03  0.00000000000E+00 0. -1.
          4    1    6    6  502    0  0.17988937556E+03  0.16598389947E+02  0.31005553606E+03  0.35884555094E+03  0.00000000000E+00 0. -1.
          3    1    5    5  503    0  0.46865916153E+03 -0.48401461881E+02 -0.41469449874E+03  0.62765885518E+03  0.00000000000E+00 0. -1.
         -4    1    5    5    0  503  0.12852950937E+02 -0.12326189165E+02 -0.33342969400E+02  0.37800620306E+02  0.00000000000E+00 0.  1.
         -3    1    6    6    0  502  0.21116899165E+02  0.29449722448E+02  0.99778229671E+02  0.10615509738E+03  0.00000000000E+00 0.  1.
<mgrwt>
<rscale>  0 0.19581674E+04</rscale>
<asrwt>0</asrwt>
<pdfrwt beam="1">  1        1 0.21204831E+00 0.19581674E+04</pdfrwt>
<pdfrwt beam="2">  1       -1 0.10699861E+00 0.19581674E+04</pdfrwt>
<totfact> 0.60353284E+00</totfact>
</mgrwt>
</event>
<event>
12    1  0.2214165E-007  0.4870868E+04  0.7818608E-02  0.7848742E-01
          2   -1    0    0  501    0  0.00000000000E+00  0.00000000000E+00  0.23164384439E+04  0.23164384439E+04  0.00000000000E+00 0. -1.
         -2   -1    0    0    0  501 -0.00000000000E+00 -0.00000000000E+00 -0.25605418637E+04  0.25605418637E+04  0.00000000000E+00 0.  1.
         23    2    1    2    0    0  0.20646703968E+04  0.10764887333E+04 -0.43517591947E+03  0.23705113651E+04  0.90852687309E+02 0.  0.
        254    2    1    2    0    0 -0.20646703968E+04 -0.10764887333E+04  0.19107249973E+03  0.25064689425E+04  0.90784691378E+03 0.  0.
        -24    2    4    4    0    0 -0.14820729231E+04 -0.11000341703E+04  0.38486252718E+03  0.18870294819E+04  0.78394996872E+02 0.  0.
         24    2    4    4    0    0 -0.58259747372E+03  0.23545437001E+02 -0.19379002746E+03  0.61943946053E+03  0.78590499034E+02 0.  0.
         13    1    3    3    0    0  0.14078997759E+04  0.75617405433E+03 -0.26056671494E+03  0.16192207979E+04  0.00000000000E+00 0. -1.
        -13    1    3    3    0    0  0.65677062095E+03  0.32031467900E+03 -0.17460920454E+03  0.75129056725E+03  0.00000000000E+00 0.  1.
          2    1    6    6  502    0 -0.10933062556E+03 -0.22943449367E+02 -0.22284059345E+02  0.11391297931E+03  0.00000000000E+00 0. -1.
          3    1    5    5  503    0 -0.17586163484E+03 -0.12865932051E+03  0.71526017986E+02  0.22933928275E+03  0.00000000000E+00 0. -1.
         -4    1    5    5    0  503 -0.13062112883E+04 -0.97137484982E+03  0.31333650920E+03  0.16576901992E+04  0.00000000000E+00 0.  1.
         -1    1    6    6    0  502 -0.47326684815E+03  0.46488886368E+02 -0.17150596811E+03  0.50552648122E+03  0.00000000000E+00 0.  1.
<mgrwt>
<rscale>  0 0.48708675E+04</rscale>
<asrwt>0</asrwt>
<pdfrwt beam="1">  1        2 0.35637515E+00 0.48708675E+04</pdfrwt>
<pdfrwt beam="2">  1       -2 0.39392952E+00 0.48708675E+04</pdfrwt>
<totfact> 0.26551631E-02</totfact>
</mgrwt>
</event>
<event>
12    1  0.2214165E-007  0.3104871E+04  0.7818608E-02  0.8214402E-01
         -2   -1    0    0    0  501 -0.00000000000E+00  0.00000000000E+00  0.89296446461E+03  0.89296446461E+03  0.00000000000E+00 0.  1.
          2   -1    0    0  501    0  0.00000000000E+00 -0.00000000000E+00 -0.26989385654E+04  0.26989385654E+04  0.00000000000E+00 0. -1.
         23    2    1    2    0    0  0.13853164179E+04 -0.28899887022E+03 -0.68612898886E+03  0.15753929969E+04  0.92022718384E+02 0.  0.
        254    2    1    2    0    0 -0.13853164179E+04  0.28899887022E+03 -0.11198451119E+04  0.20165100331E+04  0.89979870766E+03 0.  0.
        -24    2    4    4    0    0 -0.78527815561E+03 -0.66458137371E+02 -0.10438489810E+04  0.13104197530E+04  0.80627340767E+02 0.  0.
         24    2    4    4    0    0 -0.60003826226E+03  0.35545700759E+03 -0.75996130917E+02  0.70609028015E+03  0.79952932336E+02 0.  0.
         13    1    3    3    0    0  0.69919457956E+03 -0.98863240821E+02 -0.34209306243E+03  0.78464938911E+03  0.00000000000E+00 0.  1.
        -13    1    3    3    0    0  0.68612183832E+03 -0.19013562940E+03 -0.34403592643E+03  0.79074360779E+03  0.00000000000E+00 0. -1.
          4    1    6    6  502    0 -0.54992265247E+03  0.31923915388E+03 -0.91305655883E+02  0.64239028936E+03  0.00000000000E+00 0. -1.
          3    1    5    5  503    0 -0.40582299053E+03 -0.72429586111E+02 -0.56580936167E+03  0.70005612514E+03  0.00000000000E+00 0. -1.
         -4    1    5    5    0  503 -0.37945516509E+03  0.59714487397E+01 -0.47803961933E+03  0.61036362782E+03  0.00000000000E+00 0.  1.
         -3    1    6    6    0  502 -0.50115609794E+02  0.36217853710E+02  0.15309524966E+02  0.63699990793E+02  0.00000000000E+00 0.  1.
<mgrwt>
<rscale>  0 0.31048712E+04</rscale>
<asrwt>0</asrwt>
<pdfrwt beam="1">  1        2 0.41522131E+00 0.31048712E+04</pdfrwt>
<pdfrwt beam="2">  1       -2 0.13737915E+00 0.31048712E+04</pdfrwt>
<totfact> 0.85101841E-01</totfact>
</mgrwt>
</event>
<event>
12    1  0.2214165E-007  0.3956396E+04  0.7818608E-02  0.8013401E-01
          1   -1    0    0  501    0  0.00000000000E+00  0.00000000000E+00  0.41504765766E+04  0.41504765766E+04  0.00000000000E+00 0. -1.
         -1   -1    0    0    0  501 -0.00000000000E+00 -0.00000000000E+00 -0.94284763549E+03  0.94284763549E+03  0.00000000000E+00 0.  1.
         23    2    1    2    0    0  0.16772326251E+04 -0.74884793601E+03  0.10388431306E+04  0.21121905407E+04  0.90946799049E+02 0.  0.
        254    2    1    2    0    0 -0.16772326251E+04  0.74884793601E+03  0.21687858105E+04  0.29811336713E+04  0.89980195853E+03 0.  0.
        -24    2    4    4    0    0 -0.15558227466E+04  0.47225082354E+03  0.21066463811E+04  0.26624333694E+04  0.83589546439E+02 0.  0.
         24    2    4    4    0    0 -0.12140987858E+03  0.27659711247E+03  0.62139429339E+02  0.31870030195E+03  0.80388136797E+02 0.  0.
         11    1    3    3    0    0  0.42684034703E+03 -0.22817980749E+03  0.29731696758E+03  0.56802824367E+03  0.00000000000E+00 0. -1.
        -11    1    3    3    0    0  0.12503922781E+04 -0.52066812852E+03  0.74152616306E+03  0.15441622971E+04  0.00000000000E+00 0.  1.
          2    1    6    6  502    0 -0.73463935249E+02  0.11446582938E+03 -0.66382676548E+01  0.13617430916E+03  0.00000000000E+00 0. -1.
          3    1    5    5  503    0 -0.14447677940E+04  0.45692526264E+03  0.19799613956E+04  0.24932672946E+04  0.00000000000E+00 0. -1.
         -4    1    5    5    0  503 -0.11105495251E+03  0.15325560896E+02  0.12668498551E+03  0.16916607476E+03  0.00000000000E+00 0.  1.
         -3    1    6    6    0  502 -0.47945943334E+02  0.16213128309E+03  0.68777696993E+02  0.18252599278E+03  0.00000000000E+00 0.  1.
<mgrwt>
<rscale>  0 0.39563958E+04</rscale>
<asrwt>0</asrwt>
<pdfrwt beam="1">  1        1 0.63853485E+00 0.39563958E+04</pdfrwt>
<pdfrwt beam="2">  1       -1 0.14505348E+00 0.39563958E+04</pdfrwt>
<totfact> 0.20986941E-02</totfact>
</mgrwt>
</event>
<event>
12    1  0.2214165E-007  0.2476390E+04  0.7818608E-02  0.8411445E-01
          2   -1    0    0  501    0  0.00000000000E+00  0.00000000000E+00  0.17421573660E+04  0.17421573660E+04  0.00000000000E+00 0. -1.
         -2   -1    0    0    0  501 -0.00000000000E+00 -0.00000000000E+00 -0.88001606874E+03  0.88001606874E+03  0.00000000000E+00 0.  1.
         23    2    1    2    0    0 -0.98108744283E+02  0.85825101133E+03  0.10461659912E+04  0.13598246067E+04  0.91867054465E+02 0.  0.
        254    2    1    2    0    0  0.98108744283E+02 -0.85825101133E+03 -0.18402469393E+03  0.12623488280E+04  0.90190872683E+03 0.  0.
        -24    2    4    4    0    0  0.49412533562E+03 -0.45661394630E+03 -0.13222711782E+03  0.69036388645E+03  0.80387447815E+02 0.  0.
         24    2    4    4    0    0 -0.39601659134E+03 -0.40163706503E+03 -0.51797576107E+02  0.57198494160E+03  0.79638633235E+02 0.  0.
         11    1    3    3    0    0 -0.11280076139E+03  0.73264663812E+03  0.91558337609E+03  0.11780441531E+04  0.00000000000E+00 0. -1.
        -11    1    3    3    0    0  0.14692017110E+02  0.12560437321E+03  0.13058261507E+03  0.18178045356E+03  0.00000000000E+00 0.  1.
          2    1    6    6  502    0 -0.27488491539E+03 -0.31496329635E+03 -0.13835202303E+02  0.41827623359E+03  0.00000000000E+00 0. -1.
          3    1    5    5  503    0  0.25583426638E+03 -0.24494120139E+03 -0.10994409817E+03  0.37085720798E+03  0.00000000000E+00 0. -1.
         -4    1    5    5    0  503  0.23829106924E+03 -0.21167274491E+03 -0.22283019655E+02  0.31950667847E+03  0.00000000000E+00 0.  1.
         -1    1    6    6    0  502 -0.12113167594E+03 -0.86673768675E+02 -0.37962373803E+02  0.15370870801E+03  0.00000000000E+00 0.  1.
<mgrwt>
<rscale>  0 0.24763897E+04</rscale>
<asrwt>0</asrwt>
<pdfrwt beam="1">  1        2 0.26802421E+00 0.24763897E+04</pdfrwt>
<pdfrwt beam="2">  1       -2 0.13538709E+00 0.24763897E+04</pdfrwt>
<totfact> 0.32521440E+00</totfact>
</mgrwt>
</event>
<event>
12    1  0.2214165E-007  0.1605255E+04  0.7818608E-02  0.8817326E-01
         -2   -1    0    0    0  501 -0.00000000000E+00  0.00000000000E+00  0.56318216179E+03  0.56318216179E+03  0.00000000000E+00 0. -1.
          2   -1    0    0  501    0  0.00000000000E+00 -0.00000000000E+00 -0.11438767647E+04  0.11438767647E+04  0.00000000000E+00 0.  1.
         23    2    1    2    0    0  0.38806323742E+03  0.37432886074E+03 -0.11825315160E+03  0.55974047435E+03  0.92792341002E+02 0.  0.
        254    2    1    2    0    0 -0.38806323742E+03 -0.37432886074E+03 -0.46244145130E+03  0.11473184521E+04  0.90098410779E+03 0.  0.
        -24    2    4    4    0    0 -0.38344413791E+03 -0.14769564013E+03 -0.69603848494E+03  0.81198887642E+03  0.77543238885E+02 0.  0.
         24    2    4    4    0    0 -0.46190995109E+01 -0.22663322061E+03  0.23359703365E+03  0.33532957571E+03  0.80587824462E+02 0.  0.
         11    1    3    3    0    0  0.14518039946E+03  0.16065343049E+03 -0.37116886044E+01  0.21656557840E+03  0.00000000000E+00 0. -1.
        -11    1    3    3    0    0  0.24288283796E+03  0.21367543024E+03 -0.11454146300E+03  0.34317489595E+03  0.00000000000E+00 0.  1.
          2    1    6    6  502    0  0.76619739771E+01 -0.13794882846E+02  0.54986781842E+02  0.57206213083E+02  0.00000000000E+00 0. -1.
          1    1    5    5  503    0 -0.25879925803E+02  0.68053990848E+01 -0.28327224080E+02  0.38968136218E+02  0.00000000000E+00 0. -1.
         -2    1    5    5    0  503 -0.35756421211E+03 -0.15450103921E+03 -0.66771126086E+03  0.77302074020E+03  0.00000000000E+00 0.  1.
         -1    1    6    6    0  502 -0.12281073488E+02 -0.21283833776E+03  0.17861025180E+03  0.27812336262E+03  0.00000000000E+00 0.  1.
<mgrwt>
<rscale>  0 0.16052551E+04</rscale>
<asrwt>0</asrwt>
<pdfrwt beam="1">  1        2 0.17598104E+00 0.16052551E+04</pdfrwt>
<pdfrwt beam="2">  1       -2 0.86643410E-01 0.16052551E+04</pdfrwt>
<totfact> 0.22642071E+01</totfact>
</mgrwt>
</event>
<event>
12    1  0.2214165E-007  0.1286423E+04  0.7818608E-02  0.9040402E-01
         -2   -1    0    0    0  501 -0.00000000000E+00  0.00000000000E+00  0.38597144603E+03  0.38597144603E+03  0.00000000000E+00 0.  1.
          2   -1    0    0  501    0  0.00000000000E+00 -0.00000000000E+00 -0.10718954218E+04  0.10718954218E+04  0.00000000000E+00 0. -1.
         23    2    1    2    0    0 -0.40091891298E+02  0.19140235849E+03 -0.46061163185E+03  0.50846677040E+03  0.90184026413E+02 0.  0.
        254    2    1    2    0    0  0.40091891298E+02 -0.19140235849E+03 -0.22531234392E+03  0.94940009742E+03  0.90130609123E+03 0.  0.
        -24    2    4    4    0    0  0.52160089022E+02  0.35173655746E+03 -0.15426424652E+03  0.39561540382E+03  0.79213693522E+02 0.  0.
         24    2    4    4    0    0 -0.12068197724E+02 -0.54313891595E+03 -0.71048097399E+02  0.55378469361E+03  0.80524103914E+02 0.  0.
         13    1    3    3    0    0  0.19478081337E+02  0.72197646651E+02 -0.23309525470E+03  0.24479643298E+03  0.00000000000E+00 0. -1.
        -13    1    3    3    0    0 -0.59569972635E+02  0.11920471184E+03 -0.22751637715E+03  0.26367033742E+03  0.00000000000E+00 0.  1.
          2    1    6    6  502    0  0.27188179659E+02 -0.26121947261E+03 -0.10882375809E+02  0.26285592267E+03  0.00000000000E+00 0. -1.
          3    1    5    5  503    0  0.55946691842E+01  0.26740092176E+03 -0.10414084733E+03  0.28701893555E+03  0.00000000000E+00 0. -1.
         -4    1    5    5    0  503  0.46565419838E+02  0.84335635703E+02 -0.50123399191E+02  0.10859646827E+03  0.00000000000E+00 0.  1.
         -1    1    6    6    0  502 -0.39256377383E+02 -0.28191944335E+03 -0.60165721590E+02  0.29092877093E+03  0.00000000000E+00 0.  1.
<mgrwt>
<rscale>  0 0.12864230E+04</rscale>
<asrwt>0</asrwt>
<pdfrwt beam="1">  1        2 0.16490699E+00 0.12864230E+04</pdfrwt>
<pdfrwt beam="2">  1       -2 0.59380223E-01 0.12864230E+04</pdfrwt>
<totfact> 0.58910984E+01</totfact>
</mgrwt>
</event>
<event>
12    1  0.2214165E-007  0.3542405E+04  0.7818608E-02  0.8103813E-01
         -2   -1    0    0    0  501 -0.00000000000E+00  0.00000000000E+00  0.18781299187E+04  0.18781299187E+04  0.00000000000E+00 0.  1.
          2   -1    0    0  501    0  0.00000000000E+00 -0.00000000000E+00 -0.16703629454E+04  0.16703629454E+04  0.00000000000E+00 0. -1.
         23    2    1    2    0    0 -0.12014990938E+04  0.10329856419E+04  0.57883777412E+03  0.16893720441E+04  0.90913836157E+02 0.  0.
        254    2    1    2    0    0  0.12014990938E+04 -0.10329856419E+04 -0.37107080084E+03  0.18591208201E+04  0.89887556178E+03 0.  0.
        -24    2    4    4    0    0 -0.11851241723E+03 -0.44190114318E+00 -0.25735671099E+02  0.14606340192E+03  0.81405185953E+02 0.  0.
         24    2    4    4    0    0  0.13200115111E+04 -0.10325437408E+04 -0.34533512974E+03  0.17130574182E+04  0.82051204481E+02 0.  0.
         11    1    3    3    0    0 -0.32106574969E+03  0.32480973420E+03  0.18590826037E+03  0.49309883424E+03  0.00000000000E+00 0.  1.
        -11    1    3    3    0    0 -0.88043334415E+03  0.70817590773E+03  0.39292951375E+03  0.11962732098E+04  0.00000000000E+00 0. -1.
          2    1    6    6  502    0  0.30008671385E+03 -0.19277327223E+03 -0.79309194092E+02  0.36538133311E+03  0.00000000000E+00 0. -1.
          3    1    5    5  503    0  0.59844965619E+01  0.14761144447E+02  0.54286794243E+01  0.16827838387E+02  0.00000000000E+00 0. -1.
         -4    1    5    5    0  503 -0.12449691379E+03 -0.15203045590E+02 -0.31164350523E+02  0.12923556353E+03  0.00000000000E+00 0.  1.
         -1    1    6    6    0  502  0.10199247972E+04 -0.83977046855E+03 -0.26602593565E+03  0.13476760851E+04  0.00000000000E+00 0.  1.
<mgrwt>
<rscale>  0 0.35424052E+04</rscale>
<asrwt>0</asrwt>
<pdfrwt beam="1">  1        2 0.25697892E+00 0.35424052E+04</pdfrwt>
<pdfrwt beam="2">  1       -2 0.28894306E+00 0.35424052E+04</pdfrwt>
<totfact> 0.30978493E-01</totfact>
</mgrwt>
</event>
<event>
12    1  0.2214165E-007  0.1845739E+04  0.7818608E-02  0.8682347E-01
          2   -1    0    0  501    0  0.00000000000E+00  0.00000000000E+00  0.38118152754E+03  0.38118152754E+03  0.00000000000E+00 0.  1.
         -2   -1    0    0    0  501 -0.00000000000E+00 -0.00000000000E+00 -0.22343367514E+04  0.22343367514E+04  0.00000000000E+00 0. -1.
         23    2    1    2    0    0  0.14953215296E+03  0.56293536040E+02 -0.16746181154E+04  0.16847659963E+04  0.92530010241E+02 0.  0.
        254    2    1    2    0    0 -0.14953215296E+03 -0.56293536040E+02 -0.17853710842E+03  0.93075228264E+03  0.89938617156E+03 0.  0.
        -24    2    4    4    0    0 -0.27466906800E+03 -0.10047994663E+03  0.29991081999E+03  0.42629018904E+03  0.78977900289E+02 0.  0.
         24    2    4    4    0    0  0.12513691504E+03  0.44186410586E+02 -0.47844792842E+03  0.50446209360E+03  0.89207047269E+02 0.  0.
         11    1    3    3    0    0  0.10039818413E+03  0.17855105576E+02 -0.13720244019E+04  0.13758086929E+04  0.00000000000E+00 0. -1.
        -11    1    3    3    0    0  0.49133968835E+02  0.38438430464E+02 -0.30259371357E+03  0.30895730340E+03  0.00000000000E+00 0.  1.
          4    1    6    6  502    0  0.47471387712E+02  0.52232464430E+02 -0.13599096636E+03  0.15321653280E+03  0.00000000000E+00 0. -1.
          3    1    5    5  503    0 -0.20794163172E+03 -0.10366555879E+03  0.20271009528E+03  0.30834664423E+03  0.00000000000E+00 0. -1.
         -4    1    5    5    0  503 -0.66727436286E+02  0.31856121608E+01  0.97200724718E+02  0.11794354482E+03  0.00000000000E+00 0.  1.
         -3    1    6    6    0  502  0.77665527329E+02 -0.80460538445E+01 -0.34245696205E+03  0.35124556079E+03  0.00000000000E+00 0.  1.
<mgrwt>
<rscale>  0 0.18457388E+04</rscale>
<asrwt>0</asrwt>
<pdfrwt beam="1">  1        2 0.58643311E-01 0.18457388E+04</pdfrwt>
<pdfrwt beam="2">  1       -2 0.34374412E+00 0.18457388E+04</pdfrwt>
<totfact> 0.13495388E+00</totfact>
</mgrwt>
</event>
<event>
12    1  0.2214165E-007  0.1487864E+04  0.7818608E-02  0.8892564E-01
          2   -1    0    0  501    0  0.00000000000E+00  0.00000000000E+00  0.95172188539E+03  0.95172188539E+03  0.00000000000E+00 0. -1.
         -2   -1    0    0    0  501 -0.00000000000E+00 -0.00000000000E+00 -0.58150875816E+03  0.58150875816E+03  0.00000000000E+00 0.  1.
         23    2    1    2    0    0  0.33764316584E+03 -0.29305440934E+03  0.25179201479E+03  0.52069549363E+03  0.88548202127E+02 0.  0.
        254    2    1    2    0    0 -0.33764316584E+03  0.29305440934E+03  0.11842111244E+03  0.10125351499E+04  0.90073307682E+03 0.  0.
        -24    2    4    4    0    0 -0.20008335020E+02  0.51066231924E+03 -0.14755886516E+03  0.53776747104E+03  0.79018329915E+02 0.  0.
         24    2    4    4    0    0 -0.31763483082E+03 -0.21760790990E+03  0.26597997760E+03  0.47476767888E+03  0.80086904241E+02 0.  0.
         13    1    3    3    0    0  0.41425735142E+02 -0.78854447506E+02  0.35055321592E+02  0.95723513284E+02  0.00000000000E+00 0. -1.
        -13    1    3    3    0    0  0.29621743069E+03 -0.21419996184E+03  0.21673669320E+03  0.42497198034E+03  0.00000000000E+00 0.  1.
          2    1    6    6  502    0 -0.16308969732E+03 -0.10812498704E+03  0.86867392901E+02  0.21409158354E+03  0.00000000000E+00 0. -1.
          1    1    5    5  503    0  0.26687279741E+02  0.11239195148E+03 -0.22197576330E+02  0.11763032795E+03  0.00000000000E+00 0. -1.
         -2    1    5    5    0  503 -0.46695614761E+02  0.39827036776E+03 -0.12536128883E+03  0.42013714309E+03  0.00000000000E+00 0.  1.
         -1    1    6    6    0  502 -0.15454513350E+03 -0.10948292286E+03  0.17911258470E+03  0.26067609534E+03  0.00000000000E+00 0.  1.
<mgrwt>
<rscale>  0 0.14878637E+04</rscale>
<asrwt>0</asrwt>
<pdfrwt beam="1">  1        2 0.14641875E+00 0.14878637E+04</pdfrwt>
<pdfrwt beam="2">  1       -2 0.89462886E-01 0.14878637E+04</pdfrwt>
<totfact> 0.28067307E+01</totfact>
</mgrwt>
</event>
<event>
12    1  0.2214165E-007  0.2054812E+04  0.7818608E-02  0.8581414E-01
          2   -1    0    0  501    0  0.00000000000E+00  0.00000000000E+00  0.14457159140E+04  0.14457159140E+04  0.00000000000E+00 0. -1.
         -2   -1    0    0    0  501 -0.00000000000E+00 -0.00000000000E+00 -0.73013194118E+03  0.73013194118E+03  0.00000000000E+00 0.  1.
         23    2    1    2    0    0  0.80349899902E+03 -0.11073791207E+03  0.46611613798E+03  0.93980630212E+03  0.89989470588E+02 0.  0.
        254    2    1    2    0    0 -0.80349899902E+03  0.11073791207E+03  0.24946783488E+03  0.12360415531E+04  0.89871630325E+03 0.  0.
        -24    2    4    4    0    0 -0.81804184865E+03 -0.23495807790E+03  0.16747405210E+03  0.87105948469E+03  0.79368149933E+02 0.  0.
         24    2    4    4    0    0  0.14542849624E+02  0.34569598997E+03  0.81993782779E+02  0.36498206841E+03  0.82290448333E+02 0.  0.
         11    1    3    3    0    0  0.41077605500E+03 -0.43390784592E+02  0.28677007145E+03  0.50284868641E+03  0.00000000000E+00 0. -1.
        -11    1    3    3    0    0  0.39272294403E+03 -0.67347127474E+02  0.17934606652E+03  0.43695761570E+03  0.00000000000E+00 0.  1.
          2    1    6    6  502    0  0.71702283978E+01  0.18289253869E+02 -0.13520761609E+02  0.23847850571E+02  0.00000000000E+00 0. -1.
          3    1    5    5  503    0 -0.71492662853E+02 -0.22854381475E+02 -0.76681233686E+01  0.75447489755E+02  0.00000000000E+00 0. -1.
         -4    1    5    5    0  503 -0.74654918579E+03 -0.21210369643E+03  0.17514217547E+03  0.79561199493E+03  0.00000000000E+00 0.  1.
         -1    1    6    6    0  502  0.73726212261E+01  0.32740673610E+03  0.95514544389E+02  0.34113421784E+03  0.00000000000E+00 0.  1.
<mgrwt>
<rscale>  0 0.20548123E+04</rscale>
<asrwt>0</asrwt>
<pdfrwt beam="1">  1        2 0.22241783E+00 0.20548123E+04</pdfrwt>
<pdfrwt beam="2">  1       -2 0.11232799E+00 0.20548123E+04</pdfrwt>
<totfact> 0.78714636E+00</totfact>
</mgrwt>
</event>
<event>
12    1  0.2214165E-007  0.1709646E+04  0.7818608E-02  0.8755882E-01
          2   -1    0    0  501    0  0.00000000000E+00  0.00000000000E+00  0.29353366565E+04  0.29353366565E+04  0.00000000000E+00 0. -1.
         -2   -1    0    0    0  501 -0.00000000000E+00 -0.00000000000E+00 -0.24893995316E+03  0.24893995316E+03  0.00000000000E+00 0.  1.
         23    2    1    2    0    0  0.34255969090E+03  0.46030848867E+03  0.13773310473E+04  0.14948015942E+04  0.90332418268E+02 0.  0.
        254    2    1    2    0    0 -0.34255969090E+03 -0.46030848867E+03  0.13090656560E+04  0.16894750154E+04  0.90080069339E+03 0.  0.
        -24    2    4    4    0    0 -0.45772906123E+03 -0.61137802581E+03  0.12638348728E+04  0.14788356354E+04  0.79857792390E+02 0.  0.
         24    2    4    4    0    0  0.11516937032E+03  0.15106953714E+03  0.45230783268E+02  0.21063937997E+03  0.78975538776E+02 0.  0.
         13    1    3    3    0    0  0.13108744372E+03  0.21557118392E+03  0.70322483767E+03  0.74711446617E+03  0.00000000000E+00 0. -1.
        -13    1    3    3    0    0  0.21147224718E+03  0.24473730475E+03  0.67410620961E+03  0.74768712808E+03  0.00000000000E+00 0.  1.
          2    1    6    6  502    0  0.11021391598E+03  0.90715070321E+02  0.46317335308E+02  0.15007207205E+03  0.00000000000E+00 0. -1.
          1    1    5    5  503    0 -0.38635841885E+03 -0.47000232143E+03  0.96946781628E+03  0.11445710361E+04  0.00000000000E+00 0. -1.
         -2    1    5    5    0  503 -0.71370642381E+02 -0.14137570438E+03  0.29436705648E+03  0.33426459927E+03  0.00000000000E+00 0.  1.
         -1    1    6    6    0  502  0.49554543426E+01  0.60354466823E+02 -0.10865520403E+01  0.60567307919E+02  0.00000000000E+00 0.  1.
<mgrwt>
<rscale>  0 0.17096462E+04</rscale>
<asrwt>0</asrwt>
<pdfrwt beam="1">  1        2 0.45159023E+00 0.17096462E+04</pdfrwt>
<pdfrwt beam="2">  1       -2 0.38298456E-01 0.17096462E+04</pdfrwt>
<totfact> 0.11745539E+01</totfact>
</mgrwt>
</event>
<event>
12    1  0.2214165E-007  0.1716223E+04  0.7818608E-02  0.8752166E-01
         -3   -1    0    0    0  501 -0.00000000000E+00  0.00000000000E+00  0.30544627406E+03  0.30544627406E+03  0.00000000000E+00 0.  1.
          3   -1    0    0  501    0  0.00000000000E+00 -0.00000000000E+00 -0.24107521094E+04  0.24107521094E+04  0.00000000000E+00 0. -1.
         23    2    1    2    0    0 -0.41990420255E+03  0.42944294442E+03 -0.55232659021E+03  0.82285439380E+03  0.10622574692E+03 0.  0.
        254    2    1    2    0    0  0.41990420255E+03 -0.42944294442E+03 -0.15529792452E+04  0.18933439897E+04  0.90125809044E+03 0.  0.
        -24    2    4    4    0    0  0.21987530680E+03 -0.65931624110E+03 -0.72597126806E+03  0.10084687284E+04  0.83257659404E+02 0.  0.
         24    2    4    4    0    0  0.20002889575E+03  0.22987329668E+03 -0.82700797710E+03  0.88487526126E+03  0.78795571934E+02 0.  0.
         11    1    3    3    0    0 -0.35048027741E+03  0.30218757017E+03 -0.44940297877E+03  0.64507115092E+03  0.00000000000E+00 0.  1.
        -11    1    3    3    0    0 -0.69423925136E+02  0.12725537425E+03 -0.10292361144E+03  0.17778324288E+03  0.00000000000E+00 0. -1.
          4    1    6    6  502    0  0.32952628448E+01  0.34071022924E+02 -0.58502109416E+02  0.67780455638E+02  0.00000000000E+00 0. -1.
          3    1    5    5  503    0  0.10148584193E+03 -0.25168951414E+03 -0.23068857601E+03  0.35618002013E+03  0.00000000000E+00 0. -1.
         -4    1    5    5    0  503  0.11838946487E+03 -0.40762672696E+03 -0.49528269206E+03  0.65228870830E+03  0.00000000000E+00 0.  1.
         -3    1    6    6    0  502  0.19673363291E+03  0.19580227375E+03 -0.76850586768E+03  0.81709480563E+03  0.00000000000E+00 0.  1.
<mgrwt>
<rscale>  0 0.17162229E+04</rscale>
<asrwt>0</asrwt>
<pdfrwt beam="1">  1        3 0.37088495E+00 0.17162229E+04</pdfrwt>
<pdfrwt beam="2">  1       -3 0.46991733E-01 0.17162229E+04</pdfrwt>
<totfact> 0.17918119E-01</totfact>
</mgrwt>
</event>
<event>
12    1  0.2214165E-007  0.1452840E+04  0.7818608E-02  0.8916434E-01
          2   -1    0    0  501    0  0.00000000000E+00  0.00000000000E+00  0.62668275051E+03  0.62668275051E+03  0.00000000000E+00 0. -1.
         -2   -1    0    0    0  501 -0.00000000000E+00 -0.00000000000E+00 -0.84203085267E+03  0.84203085267E+03  0.00000000000E+00 0.  1.
         23    2    1    2    0    0  0.87262251155E+02 -0.41586492120E+03  0.51092535908E+02  0.43833303468E+03  0.94694608649E+02 0.  0.
        254    2    1    2    0    0 -0.87262251155E+02  0.41586492120E+03 -0.26644063807E+03  0.10303805685E+04  0.90007509086E+03 0.  0.
        -24    2    4    4    0    0 -0.20835784104E+03  0.53551607901E+02  0.27797129545E+03  0.36040543904E+03  0.79644678173E+02 0.  0.
         24    2    4    4    0    0  0.12109558989E+03  0.36231331330E+03 -0.54441193352E+03  0.66997512947E+03  0.80915028641E+02 0.  0.
         11    1    3    3    0    0  0.43467952733E+02 -0.30209683446E+03 -0.23741099434E+01  0.30521729424E+03  0.00000000000E+00 0.  1.
        -11    1    3    3    0    0  0.43794298422E+02 -0.11376808674E+03  0.53466645851E+02  0.13311574044E+03  0.00000000000E+00 0. -1.
          2    1    6    6  502    0  0.11283025372E+03  0.22450250793E+03 -0.37568640458E+03  0.45196495086E+03  0.00000000000E+00 0. -1.
          1    1    5    5  503    0 -0.16230193918E+03  0.74132552848E+02  0.22644630375E+03  0.28829756040E+03  0.00000000000E+00 0. -1.
         -2    1    5    5    0  503 -0.46055901866E+02 -0.20580944947E+02  0.51524991705E+02  0.72107878639E+02  0.00000000000E+00 0.  1.
         -1    1    6    6    0  502  0.82653361661E+01  0.13781080537E+03 -0.16872552894E+03  0.21801017860E+03  0.00000000000E+00 0.  1.
<mgrwt>
<rscale>  0 0.14528403E+04</rscale>
<asrwt>0</asrwt>
<pdfrwt beam="1">  1        2 0.96412731E-01 0.14528403E+04</pdfrwt>
<pdfrwt beam="2">  1       -2 0.12954321E+00 0.14528403E+04</pdfrwt>
<totfact> 0.19975422E+01</totfact>
</mgrwt>
</event>
<event>
12    1  0.2214165E-007  0.1150415E+04  0.7818608E-02  0.9157401E-01
          2   -1    0    0  501    0  0.00000000000E+00  0.00000000000E+00  0.28755014554E+04  0.28755014554E+04  0.00000000000E+00 0.  1.
         -2   -1    0    0    0  501 -0.00000000000E+00 -0.00000000000E+00 -0.11506299363E+03  0.11506299363E+03  0.00000000000E+00 0. -1.
         23    2    1    2    0    0  0.12189984348E+03 -0.11244387839E+03  0.22033754610E+03  0.29075374134E+03  0.92118978783E+02 0.  0.
        254    2    1    2    0    0 -0.12189984348E+03  0.11244387839E+03  0.25401009156E+04  0.26998107077E+04  0.89964548458E+03 0.  0.
        -24    2    4    4    0    0  0.43287933131E+02  0.38349242108E+03  0.51077784109E+03  0.64422700636E+03  0.72070455729E+02 0.  0.
         24    2    4    4    0    0 -0.16518777661E+03 -0.27104854269E+03  0.20293230746E+04  0.20555837013E+04  0.80733500552E+02 0.  0.
         13    1    3    3    0    0  0.32016634517E+02 -0.66477301264E+02  0.39620885048E+02  0.83750289558E+02  0.00000000000E+00 0. -1.
        -13    1    3    3    0    0  0.89883208959E+02 -0.45966577127E+02  0.18071666106E+03  0.20700345178E+03  0.00000000000E+00 0.  1.
          2    1    6    6  502    0 -0.76918664309E+02 -0.11345322312E+03  0.11313657583E+04  0.11396387997E+04  0.00000000000E+00 0. -1.
          1    1    5    5  503    0  0.69793299937E+00  0.10811738651E+03  0.96286717689E+02  0.14477910201E+03  0.00000000000E+00 0. -1.
         -2    1    5    5    0  503  0.42590000132E+02  0.27537503458E+03  0.41449112340E+03  0.49944790435E+03  0.00000000000E+00 0.  1.
         -1    1    6    6    0  502 -0.88269112298E+02 -0.15759531958E+03  0.89795731626E+03  0.91594490160E+03  0.00000000000E+00 0.  1.
<mgrwt>
<rscale>  0 0.11504152E+04</rscale>
<asrwt>0</asrwt>
<pdfrwt beam="1">  1        2 0.44238478E+00 0.11504152E+04</pdfrwt>
<pdfrwt beam="2">  1       -2 0.17702001E-01 0.11504152E+04</pdfrwt>
<totfact> 0.55213676E+01</totfact>
</mgrwt>
</event>
<event>
12    1  0.2214165E-007  0.2050158E+04  0.7818608E-02  0.8583523E-01
         -2   -1    0    0    0  501 -0.00000000000E+00  0.00000000000E+00  0.13396258058E+04  0.13396258058E+04  0.00000000000E+00 0.  1.
          2   -1    0    0  501    0  0.00000000000E+00 -0.00000000000E+00 -0.78438818029E+03  0.78438818029E+03  0.00000000000E+00 0. -1.
         23    2    1    2    0    0 -0.48570684739E+03  0.54297790813E+03  0.62034829349E+03  0.96134518152E+03  0.92824579091E+02 0.  0.
        254    2    1    2    0    0  0.48570684739E+03 -0.54297790813E+03 -0.65110667988E+02  0.11626688046E+04  0.90378271709E+03 0.  0.
        -24    2    4    4    0    0 -0.69591584762E+02 -0.66632425169E+02  0.31169489636E+03  0.33586548078E+03  0.79806290515E+02 0.  0.
         24    2    4    4    0    0  0.55529843215E+03 -0.47634548296E+03 -0.37680556435E+03  0.82680332379E+03  0.79749200726E+02 0.  0.
         13    1    3    3    0    0 -0.38075416864E+03  0.44685330703E+03  0.45210136101E+03  0.74097723012E+03  0.00000000000E+00 0. -1.
        -13    1    3    3    0    0 -0.10495267875E+03  0.96124601101E+02  0.16824693248E+03  0.22036795140E+03  0.00000000000E+00 0.  1.
          4    1    6    6  502    0  0.45857045817E+03 -0.35805975620E+03 -0.27771061094E+03  0.64468351735E+03  0.00000000000E+00 0. -1.
          3    1    5    5  503    0 -0.41693377671E+02 -0.14725064993E+01  0.19432634138E+03  0.19875420240E+03  0.00000000000E+00 0. -1.
         -4    1    5    5    0  503 -0.27898207091E+02 -0.65159918670E+02  0.11736855498E+03  0.13711127838E+03  0.00000000000E+00 0.  1.
         -1    1    6    6    0  502  0.96727973986E+02 -0.11828572676E+03 -0.99094953412E+02  0.18211980644E+03  0.00000000000E+00 0.  1.
<mgrwt>
<rscale>  0 0.20501577E+04</rscale>
<asrwt>0</asrwt>
<pdfrwt beam="1">  1        2 0.12067511E+00 0.20501577E+04</pdfrwt>
<pdfrwt beam="2">  1       -2 0.20609628E+00 0.20501577E+04</pdfrwt>
<totfact> 0.39684555E+00</totfact>
</mgrwt>
</event>
<event>
12    1  0.2214165E-007  0.3323537E+04  0.7818608E-02  0.8156932E-01
          2   -1    0    0  501    0  0.00000000000E+00  0.00000000000E+00  0.40347207725E+04  0.40347207725E+04  0.00000000000E+00 0.  1.
         -2   -1    0    0    0  501 -0.00000000000E+00 -0.00000000000E+00 -0.68442769134E+03  0.68442769134E+03  0.00000000000E+00 0. -1.
         23    2    1    2    0    0 -0.14552739499E+04  0.22626163002E+03  0.92034538465E+03  0.17389511204E+04  0.88875066293E+02 0.  0.
        254    2    1    2    0    0  0.14552739499E+04 -0.22626163002E+03  0.24299476965E+04  0.29801973435E+04  0.89884025483E+03 0.  0.
        -24    2    4    4    0    0  0.42427705724E+03 -0.20200724226E+03  0.19206634808E+03  0.51477892498E+03  0.85380983352E+02 0.  0.
         24    2    4    4    0    0  0.10309968927E+04 -0.24254387755E+02  0.22378813485E+04  0.24654184185E+04  0.81438200530E+02 0.  0.
         11    1    3    3    0    0 -0.93278063345E+03  0.15290362921E+03  0.54080541675E+03  0.10890040077E+04  0.00000000000E+00 0. -1.
        -11    1    3    3    0    0 -0.52249331649E+03  0.73358000805E+02  0.37953996791E+03  0.64994711269E+03  0.00000000000E+00 0.  1.
          2    1    6    6  502    0  0.64262633756E+03  0.68187941964E+00  0.13061505536E+04  0.14556779669E+04  0.00000000000E+00 0. -1.
          1    1    5    5  503    0  0.71171502337E+02 -0.38145173580E+02  0.10956325087E+00  0.80749297313E+02  0.00000000000E+00 0. -1.
         -2    1    5    5    0  503  0.35310555490E+03 -0.16386206868E+03  0.19195678483E+03  0.43402962767E+03  0.00000000000E+00 0.  1.
         -1    1    6    6    0  502  0.38837055514E+03 -0.24936267175E+02  0.93173079485E+03  0.10097404516E+04  0.00000000000E+00 0.  1.
<mgrwt>
<rscale>  0 0.33235370E+04</rscale>
<asrwt>0</asrwt>
<pdfrwt beam="1">  1        2 0.62072626E+00 0.33235370E+04</pdfrwt>
<pdfrwt beam="2">  1       -2 0.10529657E+00 0.33235370E+04</pdfrwt>
<totfact> 0.19465762E-01</totfact>
</mgrwt>
</event>
<event>
12    1  0.2214165E-007  0.2349470E+04  0.7818608E-02  0.8458667E-01
          1   -1    0    0  501    0  0.00000000000E+00  0.00000000000E+00  0.16884449463E+04  0.16884449463E+04  0.00000000000E+00 0.  1.
         -1   -1    0    0    0  501 -0.00000000000E+00 -0.00000000000E+00 -0.81732156429E+03  0.81732156429E+03  0.00000000000E+00 0. -1.
         23    2    1    2    0    0  0.12521868334E+03  0.97739479799E+03  0.44023660954E+03  0.10836157700E+04  0.97131636398E+02 0.  0.
        254    2    1    2    0    0 -0.12521868334E+03 -0.97739479799E+03  0.43088677249E+03  0.14221507406E+04  0.93052082649E+03 0.  0.
        -24    2    4    4    0    0  0.68351203817E+02 -0.11057887271E+04  0.34875491183E+03  0.11639893987E+04  0.76162561379E+02 0.  0.
         24    2    4    4    0    0 -0.19356988716E+03  0.12839392909E+03  0.82131860661E+02  0.25816134192E+03  0.77118958016E+02 0.  0.
         13    1    3    3    0    0  0.40649065684E+02  0.12884597854E+03  0.86382459048E+02  0.16036072449E+03  0.00000000000E+00 0.  1.
        -13    1    3    3    0    0  0.84569617656E+02  0.84854881945E+03  0.35385415050E+03  0.92325504550E+03  0.00000000000E+00 0. -1.
          4    1    6    6  502    0 -0.17331078722E+03  0.10994870428E+03  0.41886470296E+02  0.20947511292E+03  0.00000000000E+00 0. -1.
          3    1    5    5  503    0  0.54996881517E+02 -0.35482090771E+03  0.12688760700E+03  0.38081885239E+03  0.00000000000E+00 0. -1.
         -4    1    5    5    0  503  0.13354322300E+02 -0.75096781937E+03  0.22186730483E+03  0.78317054631E+03  0.00000000000E+00 0.  1.
         -3    1    6    6    0  502 -0.20259099936E+02  0.18445224813E+02  0.40245390365E+02  0.48686229000E+02  0.00000000000E+00 0.  1.
<mgrwt>
<rscale>  0 0.23494701E+04</rscale>
<asrwt>0</asrwt>
<pdfrwt beam="1">  1        1 0.25976076E+00 0.23494701E+04</pdfrwt>
<pdfrwt beam="2">  1       -1 0.12574178E+00 0.23494701E+04</pdfrwt>
<totfact> 0.24086393E+00</totfact>
</mgrwt>
</event>
<event>
12    1  0.2214165E-007  0.1267936E+04  0.7818608E-02  0.9055386E-01
          2   -1    0    0  501    0  0.00000000000E+00  0.00000000000E+00  0.10823015023E+04  0.10823015023E+04  0.00000000000E+00 0. -1.
         -2   -1    0    0    0  501 -0.00000000000E+00 -0.00000000000E+00 -0.37135277875E+03  0.37135277875E+03  0.00000000000E+00 0.  1.
         23    2    1    2    0    0  0.89865358830E+02  0.26530242986E+03  0.31380746300E+03  0.42984899703E+03  0.88509176942E+02 0.  0.
        254    2    1    2    0    0 -0.89865358830E+02 -0.26530242986E+03  0.39714126056E+03  0.10238052840E+04  0.90110760553E+03 0.  0.
        -24    2    4    4    0    0 -0.18883725816E+03 -0.54200984016E+03  0.42503379987E+03  0.71857386704E+03  0.79123286523E+02 0.  0.
         24    2    4    4    0    0  0.98971899330E+02  0.27670741030E+03 -0.27892539310E+02  0.30523141698E+03  0.77626003316E+02 0.  0.
         11    1    3    3    0    0  0.37098886266E+02  0.21496981907E+03  0.25898745387E+03  0.33861903629E+03  0.00000000000E+00 0. -1.
        -11    1    3    3    0    0  0.52766472564E+02  0.50332610788E+02  0.54820009133E+02  0.91229960742E+02  0.00000000000E+00 0.  1.
          4    1    6    6  502    0  0.40330777298E+02  0.31674523478E+02  0.31249868542E+01  0.51377160080E+02  0.00000000000E+00 0. -1.
          1    1    5    5  503    0 -0.69641939497E+02 -0.12642346257E+03  0.13751071306E+03  0.19935417686E+03  0.00000000000E+00 0. -1.
         -2    1    5    5    0  503 -0.11919531866E+03 -0.41558637759E+03  0.28752308681E+03  0.51921969018E+03  0.00000000000E+00 0.  1.
         -3    1    6    6    0  502  0.58641122032E+02  0.24503288682E+03 -0.31017526164E+02  0.25385425690E+03  0.00000000000E+00 0.  1.
<mgrwt>
<rscale>  0 0.12679364E+04</rscale>
<asrwt>0</asrwt>
<pdfrwt beam="1">  1        2 0.16650792E+00 0.12679364E+04</pdfrwt>
<pdfrwt beam="2">  1       -2 0.57131197E-01 0.12679364E+04</pdfrwt>
<totfact> 0.63026065E+01</totfact>
</mgrwt>
</event>
<event>
12    1  0.2214165E-007  0.1122259E+04  0.7818608E-02  0.9183764E-01
          1   -1    0    0  501    0  0.00000000000E+00  0.00000000000E+00  0.72231355110E+03  0.72231355110E+03  0.00000000000E+00 0. -1.
         -1   -1    0    0    0  501 -0.00000000000E+00 -0.00000000000E+00 -0.43591356400E+03  0.43591356400E+03  0.00000000000E+00 0.  1.
         23    2    1    2    0    0 -0.64305274824E+02 -0.12485793028E+03 -0.69344116263E+02  0.18098446718E+03  0.90675794877E+02 0.  0.
        254    2    1    2    0    0  0.64305274824E+02  0.12485793028E+03  0.35574410336E+03  0.97724264792E+03  0.89929119573E+03 0.  0.
        -24    2    4    4    0    0  0.11770573125E+03 -0.13833543426E+03  0.58370734733E+03  0.61617321765E+03  0.77225871865E+02 0.  0.
         24    2    4    4    0    0 -0.53400456427E+02  0.26319336453E+03 -0.22796324397E+03  0.36106943027E+03  0.79256148002E+02 0.  0.
         11    1    3    3    0    0 -0.56187959738E+02 -0.11812634946E+03 -0.22204744438E+02  0.13267996055E+03  0.00000000000E+00 0. -1.
        -11    1    3    3    0    0 -0.81173150855E+01 -0.67315808166E+01 -0.47139371825E+02  0.48304506628E+02  0.00000000000E+00 0.  1.
          2    1    6    6  502    0  0.15656465330E+02  0.90893284293E+02 -0.97314228279E+02  0.13407748902E+03  0.00000000000E+00 0. -1.
          1    1    5    5  503    0  0.56051118734E+02 -0.79784729491E+02  0.42588430706E+03  0.43690362092E+03  0.00000000000E+00 0. -1.
         -2    1    5    5    0  503  0.61654612517E+02 -0.58550704766E+02  0.15782304026E+03  0.17926959673E+03  0.00000000000E+00 0.  1.
         -1    1    6    6    0  502 -0.69056921757E+02  0.17230008024E+03 -0.13064901569E+03  0.22699194125E+03  0.00000000000E+00 0.  1.
<mgrwt>
<rscale>  0 0.11222589E+04</rscale>
<asrwt>0</asrwt>
<pdfrwt beam="1">  1        1 0.11112516E+00 0.11222589E+04</pdfrwt>
<pdfrwt beam="2">  1       -1 0.67063626E-01 0.11222589E+04</pdfrwt>
<totfact> 0.58208879E+01</totfact>
</mgrwt>
</event>
<event>
12    1  0.2214165E-007  0.1487180E+04  0.7818608E-02  0.8893023E-01
         -2   -1    0    0    0  501 -0.00000000000E+00  0.00000000000E+00  0.52647074086E+03  0.52647074086E+03  0.00000000000E+00 0.  1.
          2   -1    0    0  501    0  0.00000000000E+00 -0.00000000000E+00 -0.10502504993E+04  0.10502504993E+04  0.00000000000E+00 0. -1.
         23    2    1    2    0    0 -0.18588190435E+03 -0.10654708591E+03  0.26914745988E+03  0.35548260562E+03  0.89572115379E+02 0.  0.
        254    2    1    2    0    0  0.18588190435E+03  0.10654708591E+03 -0.79292721833E+03  0.12212386346E+04  0.90376206220E+03 0.  0.
        -24    2    4    4    0    0  0.41301694509E+03  0.28105518691E+03 -0.17486258935E+03  0.53538128969E+03  0.80505808333E+02 0.  0.
         24    2    4    4    0    0 -0.22713504074E+03 -0.17450810100E+03 -0.61806462897E+03  0.68585734486E+03  0.79705758048E+02 0.  0.
         11    1    3    3    0    0 -0.18627454388E+03 -0.96233495937E+02  0.27321277382E+03  0.34438976642E+03  0.00000000000E+00 0.  1.
        -11    1    3    3    0    0  0.39263952479E+00 -0.10313589977E+02 -0.40653139389E+01  0.11092839196E+02  0.00000000000E+00 0. -1.
          2    1    6    6  502    0 -0.16211147710E+03 -0.10884432166E+03 -0.49374793995E+03  0.53095597329E+03  0.00000000000E+00 0. -1.
          3    1    5    5  503    0  0.30788205964E+03  0.17881953193E+03 -0.95470752589E+02  0.36862237079E+03  0.00000000000E+00 0. -1.
         -4    1    5    5    0  503  0.10513488545E+03  0.10223565498E+03 -0.79391836766E+02  0.16675891890E+03  0.00000000000E+00 0.  1.
         -1    1    6    6    0  502 -0.65023563639E+02 -0.65663779339E+02 -0.12431668902E+03  0.15490137157E+03  0.00000000000E+00 0.  1.
<mgrwt>
<rscale>  0 0.14871801E+04</rscale>
<asrwt>0</asrwt>
<pdfrwt beam="1">  1        2 0.16157700E+00 0.14871801E+04</pdfrwt>
<pdfrwt beam="2">  1       -2 0.80995499E-01 0.14871801E+04</pdfrwt>
<totfact> 0.30428704E+01</totfact>
</mgrwt>
</event>
<event>
12    1  0.2214165E-007  0.1694066E+04  0.7818608E-02  0.8764756E-01
          1   -1    0    0  501    0  0.00000000000E+00  0.00000000000E+00  0.11742668489E+04  0.11742668489E+04  0.00000000000E+00 0.  1.
         -1   -1    0    0    0  501 -0.00000000000E+00 -0.00000000000E+00 -0.61098992384E+03  0.61098992384E+03  0.00000000000E+00 0. -1.
         23    2    1    2    0    0  0.37302094386E+03 -0.37431651102E+03  0.51343062114E+03  0.74224185344E+03  0.89746817737E+02 0.  0.
        254    2    1    2    0    0 -0.37302094386E+03  0.37431651102E+03  0.49846303896E+02  0.10430149193E+04  0.89785187689E+03 0.  0.
        -24    2    4    4    0    0 -0.60799498836E+02 -0.75151097187E+02  0.37955422749E+03  0.39958508535E+03  0.79136352970E+02 0.  0.
         24    2    4    4    0    0 -0.31222144503E+03  0.44946760820E+03 -0.32970792360E+03  0.64342983392E+03  0.76100425355E+02 0.  0.
         11    1    3    3    0    0  0.19781628676E+03 -0.13615083504E+03  0.24032986698E+03  0.33974516649E+03  0.00000000000E+00 0.  1.
        -11    1    3    3    0    0  0.17520465710E+03 -0.23816567598E+03  0.27310075416E+03  0.40249668695E+03  0.00000000000E+00 0. -1.
          4    1    6    6  502    0 -0.11334863316E+03  0.11850467584E+03 -0.71265683167E+02  0.17880175735E+03  0.00000000000E+00 0. -1.
          3    1    5    5  503    0  0.15079836099E+02 -0.32444719714E+02  0.80067269517E+02  0.87697371352E+02  0.00000000000E+00 0. -1.
         -4    1    5    5    0  503 -0.75879334935E+02 -0.42706377473E+02  0.29948695797E+03  0.31188771400E+03  0.00000000000E+00 0.  1.
         -3    1    6    6    0  502 -0.19887281187E+03  0.33096293236E+03 -0.25844224043E+03  0.46462807657E+03  0.00000000000E+00 0.  1.
<mgrwt>
<rscale>  0 0.16940664E+04</rscale>
<asrwt>0</asrwt>
<pdfrwt beam="1">  1        1 0.18065644E+00 0.16940664E+04</pdfrwt>
<pdfrwt beam="2">  1       -1 0.93998450E-01 0.16940664E+04</pdfrwt>
<totfact> 0.11653799E+01</totfact>
</mgrwt>
</event>
<event>
12    1  0.2214165E-007  0.3199705E+04  0.7818608E-02  0.8188895E-01
         -2   -1    0    0    0  501 -0.00000000000E+00  0.00000000000E+00  0.20277137380E+04  0.20277137380E+04  0.00000000000E+00 0.  1.
          2   -1    0    0  501    0  0.00000000000E+00 -0.00000000000E+00 -0.12622728444E+04  0.12622728444E+04  0.00000000000E+00 0. -1.
         23    2    1    2    0    0 -0.11979895564E+04 -0.80070797291E+03  0.42526360218E+02  0.14444466405E+04  0.91133807365E+02 0.  0.
        254    2    1    2    0    0  0.11979895564E+04  0.80070797291E+03  0.72291453346E+03  0.18455399419E+04  0.89838745497E+03 0.  0.
        -24    2    4    4    0    0  0.41382910418E+03 -0.14749577251E+03  0.74944732092E+02  0.45277699947E+03  0.79879709600E+02 0.  0.
         24    2    4    4    0    0  0.78416045222E+03  0.94820374542E+03  0.64796980136E+03  0.13927629424E+04  0.76979169889E+02 0.  0.
         13    1    3    3    0    0 -0.15748672114E+03 -0.10798255014E+03  0.36598512230E+02  0.19442672030E+03  0.00000000000E+00 0.  1.
        -13    1    3    3    0    0 -0.10405028353E+04 -0.69272542277E+03  0.59278479879E+01  0.12500199202E+04  0.00000000000E+00 0. -1.
          2    1    6    6  502    0  0.72941221959E+03  0.89711077238E+03  0.58996631145E+03  0.12980408979E+04  0.00000000000E+00 0. -1.
          3    1    5    5  503    0  0.31265399757E+03 -0.13720546037E+03  0.80959837637E+02  0.35090220271E+03  0.00000000000E+00 0. -1.
         -2    1    5    5    0  503  0.10117510661E+03 -0.10290312139E+02 -0.60151055450E+01  0.10187479676E+03  0.00000000000E+00 0.  1.
         -1    1    6    6    0  502  0.54748232634E+02  0.51092973040E+02  0.58003489916E+02  0.94722044494E+02  0.00000000000E+00 0.  1.
<mgrwt>
<rscale>  0 0.31997050E+04</rscale>
<asrwt>0</asrwt>
<pdfrwt beam="1">  1        2 0.19419582E+00 0.31997050E+04</pdfrwt>
<pdfrwt beam="2">  1       -2 0.31195596E+00 0.31997050E+04</pdfrwt>
<totfact> 0.39311285E-01</totfact>
</mgrwt>
</event>
<event>
12    1  0.2214165E-007  0.1724976E+04  0.7818608E-02  0.8747246E-01
          1   -1    0    0  501    0  0.00000000000E+00  0.00000000000E+00  0.13790714576E+04  0.13790714576E+04  0.00000000000E+00 0. -1.
         -1   -1    0    0    0  501 -0.00000000000E+00 -0.00000000000E+00 -0.53941067792E+03  0.53941067792E+03  0.00000000000E+00 0.  1.
         23    2    1    2    0    0  0.54363329324E+03 -0.25454241132E+03  0.12052348180E+03  0.61867127503E+03  0.88877669897E+02 0.  0.
        254    2    1    2    0    0 -0.54363329324E+03  0.25454241132E+03  0.71913729792E+03  0.12998108605E+04  0.90112198020E+03 0.  0.
        -24    2    4    4    0    0 -0.15740559483E+03 -0.17570363763E+03 -0.12148318780E+03  0.27651861512E+03  0.77820884293E+02 0.  0.
         24    2    4    4    0    0 -0.38622769841E+03  0.43024604895E+03  0.84062048572E+03  0.10232922454E+04  0.78744655886E+02 0.  0.
         11    1    3    3    0    0  0.26572794921E+03 -0.75883612845E+02  0.60156277329E+02  0.28282228235E+03  0.00000000000E+00 0. -1.
        -11    1    3    3    0    0  0.27790534403E+03 -0.17865879847E+03  0.60367204468E+02  0.33584899268E+03  0.00000000000E+00 0.  1.
          4    1    6    6  502    0 -0.25921981258E+03  0.24205496612E+03  0.47267893219E+03  0.59094068297E+03  0.00000000000E+00 0. -1.
          3    1    5    5  503    0 -0.10651367739E+03 -0.15789828273E+03 -0.11428937837E+03  0.22212404905E+03  0.00000000000E+00 0. -1.
         -4    1    5    5    0  503 -0.50891917441E+02 -0.17805354899E+02 -0.71938094340E+01  0.54394566071E+02  0.00000000000E+00 0.  1.
         -3    1    6    6    0  502 -0.12700788583E+03  0.18819108283E+03  0.36794155353E+03  0.43235156243E+03  0.00000000000E+00 0.  1.
<mgrwt>
<rscale>  0 0.17249764E+04</rscale>
<asrwt>0</asrwt>
<pdfrwt beam="1">  1        1 0.21216484E+00 0.17249764E+04</pdfrwt>
<pdfrwt beam="2">  1       -1 0.82986259E-01 0.17249764E+04</pdfrwt>
<totfact> 0.10883830E+01</totfact>
</mgrwt>
</event>
<event>
12    1  0.2214165E-007  0.2620212E+04  0.7818608E-02  0.8361368E-01
         -1   -1    0    0    0  501 -0.00000000000E+00  0.00000000000E+00  0.35984794841E+04  0.35984794841E+04  0.00000000000E+00 0.  1.
          1   -1    0    0  501    0  0.00000000000E+00 -0.00000000000E+00 -0.47697305894E+03  0.47697305894E+03  0.00000000000E+00 0. -1.
         23    2    1    2    0    0  0.69472463451E+03  0.44796771563E+03  0.26337629951E+04  0.27612781906E+04  0.68061293011E+02 0.  0.
        254    2    1    2    0    0 -0.69472463451E+03 -0.44796771563E+03  0.48774343001E+03  0.13141743524E+04  0.89768768670E+03 0.  0.
        -24    2    4    4    0    0 -0.49493921381E+03  0.19443307110E+03  0.15847944562E+03  0.56105209312E+03  0.83034161667E+02 0.  0.
         24    2    4    4    0    0 -0.19978542071E+03 -0.64240078674E+03  0.32926398439E+03  0.75312225925E+03  0.78647192184E+02 0.  0.
         11    1    3    3    0    0  0.45694807731E+03  0.33125686731E+03  0.17666633202E+04  0.18546244753E+04  0.00000000000E+00 0. -1.
        -11    1    3    3    0    0  0.23777655720E+03  0.11671084833E+03  0.86709967488E+03  0.90665371528E+03  0.00000000000E+00 0.  1.
          2    1    6    6  502    0 -0.49587128151E+02 -0.24095536675E+03  0.15278907844E+03  0.28959087440E+03  0.00000000000E+00 0. -1.
          3    1    5    5  503    0 -0.86657113593E+02  0.41654090533E+01  0.13150210267E+02  0.87748128179E+02  0.00000000000E+00 0. -1.
         -4    1    5    5    0  503 -0.40828210021E+03  0.19026766205E+03  0.14532923535E+03  0.47330396494E+03  0.00000000000E+00 0.  1.
         -1    1    6    6    0  502 -0.15019829255E+03 -0.40144541998E+03  0.17647490595E+03  0.46353138485E+03  0.00000000000E+00 0.  1.
<mgrwt>
<rscale>  0 0.26202120E+04</rscale>
<asrwt>0</asrwt>
<pdfrwt beam="1">  1        1 0.73380473E-01 0.26202120E+04</pdfrwt>
<pdfrwt beam="2">  1       -1 0.55361221E+00 0.26202120E+04</pdfrwt>
<totfact> 0.29577606E-02</totfact>
</mgrwt>
</event>
<event>
12    1  0.2214165E-007  0.2431814E+04  0.7818608E-02  0.8427688E-01
         -2   -1    0    0    0  501 -0.00000000000E+00  0.00000000000E+00  0.93912275055E+03  0.93912275055E+03  0.00000000000E+00 0.  1.
          2   -1    0    0  501    0  0.00000000000E+00 -0.00000000000E+00 -0.15742668380E+04  0.15742668380E+04  0.00000000000E+00 0. -1.
         23    2    1    2    0    0  0.59233008035E+03 -0.66858891513E+03  0.28853895610E+03  0.94256437143E+03  0.85479843111E+02 0.  0.
        254    2    1    2    0    0 -0.59233008035E+03  0.66858891513E+03 -0.92368304361E+03  0.15708252172E+04  0.90356816916E+03 0.  0.
        -24    2    4    4    0    0 -0.21407625457E+03  0.80225613588E+03 -0.46023822055E+03  0.95275019276E+03  0.80437303600E+02 0.  0.
         24    2    4    4    0    0 -0.37825382578E+03 -0.13366722075E+03 -0.46344482305E+03  0.61807502441E+03  0.79326850226E+02 0.  0.
         11    1    3    3    0    0  0.38482206230E+03 -0.46525481624E+03  0.15832157561E+03  0.62419210582E+03  0.00000000000E+00 0. -1.
        -11    1    3    3    0    0  0.20750801805E+03 -0.20333409890E+03  0.13021738049E+03  0.31837226561E+03  0.00000000000E+00 0.  1.
          2    1    6    6  502    0 -0.72776004344E+02 -0.75217932140E+01 -0.49312006804E+02  0.88230370034E+02  0.00000000000E+00 0. -1.
          1    1    5    5  503    0 -0.10535721951E+03  0.47014004454E+03 -0.30605532878E+03  0.57079039012E+03  0.00000000000E+00 0. -1.
         -2    1    5    5    0  503 -0.10871903506E+03  0.33211609134E+03 -0.15418289177E+03  0.38195980264E+03  0.00000000000E+00 0.  1.
         -1    1    6    6    0  502 -0.30547782143E+03 -0.12614542754E+03 -0.41413281625E+03  0.52984465438E+03  0.00000000000E+00 0.  1.
<mgrwt>
<rscale>  0 0.24318140E+04</rscale>
<asrwt>0</asrwt>
<pdfrwt beam="1">  1        2 0.24219490E+00 0.24318140E+04</pdfrwt>
<pdfrwt beam="2">  1       -2 0.14448042E+00 0.24318140E+04</pdfrwt>
<totfact> 0.34207911E+00</totfact>
</mgrwt>
</event>
<event>
12    1  0.2214165E-007  0.1768625E+04  0.7818608E-02  0.8723165E-01
         -1   -1    0    0    0  501 -0.00000000000E+00  0.00000000000E+00  0.37164212950E+03  0.37164212950E+03  0.00000000000E+00 0.  1.
          1   -1    0    0  501    0  0.00000000000E+00 -0.00000000000E+00 -0.21041978408E+04  0.21041978408E+04  0.00000000000E+00 0. -1.
         23    2    1    2    0    0 -0.32972453641E+03 -0.12972276951E+03  0.12145508289E+03  0.38514543841E+03  0.89662727626E+02 0.  0.
        254    2    1    2    0    0  0.32972453641E+03  0.12972276951E+03 -0.18540107942E+04  0.20906945319E+04  0.89894456661E+03 0.  0.
        -24    2    4    4    0    0 -0.22310313703E+03 -0.10249230597E+03 -0.10668872266E+04  0.10976991729E+04  0.80096426392E+02 0.  0.
         24    2    4    4    0    0  0.55282767344E+03  0.23221507548E+03 -0.78712356767E+03  0.99299535899E+03  0.83270609419E+02 0.  0.
         11    1    3    3    0    0 -0.26274169436E+03 -0.11728773245E+03  0.13136510282E+03  0.31630112295E+03  0.00000000000E+00 0.  1.
        -11    1    3    3    0    0 -0.66982842054E+02 -0.12435037060E+02 -0.99100199331E+01  0.68844315461E+02  0.00000000000E+00 0. -1.
          2    1    6    6  502    0  0.56186120940E+02  0.47962004196E+02 -0.12312328201E+03  0.14358473667E+03  0.00000000000E+00 0. -1.
          3    1    5    5  503    0 -0.24791699732E+02 -0.58053004452E+00 -0.24003373531E+03  0.24131133309E+03  0.00000000000E+00 0. -1.
         -4    1    5    5    0  503 -0.19831143729E+03 -0.10191177592E+03 -0.82685349124E+03  0.85638783983E+03  0.00000000000E+00 0.  1.
         -1    1    6    6    0  502  0.49664155250E+03  0.18425307129E+03 -0.66400028566E+03  0.84941062232E+03  0.00000000000E+00 0.  1.
<mgrwt>
<rscale>  0 0.17686250E+04</rscale>
<asrwt>0</asrwt>
<pdfrwt beam="1">  1        1 0.32372275E+00 0.17686250E+04</pdfrwt>
<pdfrwt beam="2">  1       -1 0.57175711E-01 0.17686250E+04</pdfrwt>
<totfact> 0.74218020E+00</totfact>
</mgrwt>
</event>
<event>
12    1  0.2214165E-007  0.1824935E+04  0.7818608E-02  0.8693151E-01
          1   -1    0    0  501    0  0.00000000000E+00  0.00000000000E+00  0.10811814109E+04  0.10811814109E+04  0.00000000000E+00 0. -1.
         -1   -1    0    0    0  501 -0.00000000000E+00 -0.00000000000E+00 -0.77008083979E+03  0.77008083979E+03  0.00000000000E+00 0.  1.
         23    2    1    2    0    0  0.41849520874E+03  0.49885058366E+03 -0.10335620713E+03  0.66541306581E+03  0.90010544089E+02 0.  0.
        254    2    1    2    0    0 -0.41849520874E+03 -0.49885058366E+03  0.41445677823E+03  0.11858491849E+04  0.90026314134E+03 0.  0.
        -24    2    4    4    0    0 -0.17498080875E+03 -0.26194226571E+03  0.67518924805E+03  0.75024605210E+03  0.88071471092E+02 0.  0.
         24    2    4    4    0    0 -0.24351440000E+03 -0.23690831794E+03 -0.26073246982E+03  0.43560313276E+03  0.79648316573E+02 0.  0.
         13    1    3    3    0    0  0.28221557201E+03  0.28412747814E+03 -0.34574376248E+02  0.40195701314E+03  0.00000000000E+00 0. -1.
        -13    1    3    3    0    0  0.13627963673E+03  0.21472310552E+03 -0.68781830881E+02  0.26345605268E+03  0.00000000000E+00 0.  1.
          4    1    6    6  502    0 -0.24834960560E+03 -0.23637543871E+03 -0.25164392682E+03  0.42529465142E+03  0.00000000000E+00 0. -1.
          3    1    5    5  503    0 -0.10277331968E+03 -0.22034893002E+03  0.52241259371E+03  0.57622124594E+03  0.00000000000E+00 0. -1.
         -4    1    5    5    0  503 -0.72207489066E+02 -0.41593335691E+02  0.15277665434E+03  0.17402480617E+03  0.00000000000E+00 0.  1.
         -3    1    6    6    0  502  0.48352056011E+01 -0.53287923525E+00 -0.90885430059E+01  0.10308481336E+02  0.00000000000E+00 0.  1.
<mgrwt>
<rscale>  0 0.18249352E+04</rscale>
<asrwt>0</asrwt>
<pdfrwt beam="1">  1        1 0.16633560E+00 0.18249352E+04</pdfrwt>
<pdfrwt beam="2">  1       -1 0.11847398E+00 0.18249352E+04</pdfrwt>
<totfact> 0.78813785E+00</totfact>
</mgrwt>
</event>
<event>
12    1  0.2214165E-007  0.3656362E+04  0.7818608E-02  0.8077702E-01
         -1   -1    0    0    0  501 -0.00000000000E+00  0.00000000000E+00  0.13921412823E+04  0.13921412823E+04  0.00000000000E+00 0.  1.
          1   -1    0    0  501    0  0.00000000000E+00 -0.00000000000E+00 -0.24007946587E+04  0.24007946587E+04  0.00000000000E+00 0. -1.
         23    2    1    2    0    0  0.96462042677E+03  0.13958640061E+04 -0.20348245843E+03  0.17112437322E+04  0.89560643959E+02 0.  0.
        254    2    1    2    0    0 -0.96462042677E+03 -0.13958640061E+04 -0.80517091800E+03  0.20816922087E+04  0.89789384314E+03 0.  0.
        -24    2    4    4    0    0 -0.64235628458E+03 -0.14036377001E+04 -0.81877111130E+03  0.17492720952E+04  0.82136110627E+02 0.  0.
         24    2    4    4    0    0 -0.32226414219E+03  0.77736940481E+01  0.13600193300E+02  0.33242011358E+03  0.80022240611E+02 0.  0.
         13    1    3    3    0    0  0.61601711664E+03  0.81460943677E+03 -0.12640194437E+03  0.10290981848E+04  0.00000000000E+00 0. -1.
        -13    1    3    3    0    0  0.34860331013E+03  0.58125456931E+03 -0.77080514060E+02  0.68214554739E+03  0.00000000000E+00 0.  1.
          4    1    6    6  502    0 -0.99184767688E+02 -0.27905883220E+02  0.25663242652E+02  0.10618360741E+03  0.00000000000E+00 0. -1.
          3    1    5    5  503    0 -0.55509568364E+02 -0.12397843577E+03 -0.46621761944E+02  0.14361599285E+03  0.00000000000E+00 0. -1.
         -4    1    5    5    0  503 -0.58684671621E+03 -0.12796592644E+04 -0.77214934936E+03  0.16056561023E+04  0.00000000000E+00 0.  1.
         -3    1    6    6    0  502 -0.22307937450E+03  0.35679577268E+02 -0.12063049353E+02  0.22623650617E+03  0.00000000000E+00 0.  1.
<mgrwt>
<rscale>  0 0.36563618E+04</rscale>
<asrwt>0</asrwt>
<pdfrwt beam="1">  1        1 0.36935302E+00 0.36563618E+04</pdfrwt>
<pdfrwt beam="2">  1       -1 0.21417558E+00 0.36563618E+04</pdfrwt>
<totfact> 0.15389281E-01</totfact>
</mgrwt>
</event>
<event>
12    1  0.2214165E-007  0.2787429E+04  0.7818608E-02  0.8307182E-01
          2   -1    0    0  501    0  0.00000000000E+00  0.00000000000E+00  0.95531421579E+03  0.95531421579E+03  0.00000000000E+00 0. -1.
         -2   -1    0    0    0  501 -0.00000000000E+00 -0.00000000000E+00 -0.20332994562E+04  0.20332994562E+04  0.00000000000E+00 0.  1.
         23    2    1    2    0    0 -0.87637115544E+03  0.73871734637E+03  0.41763071671E+02  0.11505041250E+04  0.90475784268E+02 0.  0.
        254    2    1    2    0    0  0.87637115544E+03 -0.73871734637E+03 -0.11197483121E+04  0.18381095470E+04  0.90060019126E+03 0.  0.
        -24    2    4    4    0    0  0.10326417014E+03  0.19138137629E+03 -0.94751846311E+02  0.25056964896E+03  0.80727421448E+02 0.  0.
         24    2    4    4    0    0  0.77310698530E+03 -0.93009872266E+03 -0.10249964658E+04  0.15875398981E+04  0.82988724952E+02 0.  0.
         13    1    3    3    0    0 -0.35769711251E+03  0.35888498441E+03  0.28073223906E+02  0.50747784408E+03  0.00000000000E+00 0. -1.
        -13    1    3    3    0    0 -0.51867404293E+03  0.37983236196E+03  0.13689847765E+02  0.64302628091E+03  0.00000000000E+00 0.  1.
          2    1    6    6  502    0  0.74522978670E+03 -0.86668935197E+03 -0.96607245670E+03  0.14966007682E+04  0.00000000000E+00 0. -1.
          3    1    5    5  503    0  0.68920214462E+02  0.14950276770E+03 -0.10526077053E+03  0.19539934320E+03  0.00000000000E+00 0. -1.
         -4    1    5    5    0  503  0.34343955679E+02  0.41878608590E+02  0.10508924215E+02  0.55170305757E+02  0.00000000000E+00 0.  1.
         -1    1    6    6    0  502  0.27877198598E+02 -0.63409370684E+02 -0.58924009081E+02  0.90939129853E+02  0.00000000000E+00 0.  1.
<mgrwt>
<rscale>  0 0.27874288E+04</rscale>
<asrwt>0</asrwt>
<pdfrwt beam="1">  1        2 0.14697142E+00 0.27874288E+04</pdfrwt>
<pdfrwt beam="2">  1       -2 0.31281530E+00 0.27874288E+04</pdfrwt>
<totfact> 0.62204798E-01</totfact>
</mgrwt>
</event>
<event>
12    1  0.2214165E-007  0.3401887E+04  0.7818608E-02  0.8137443E-01
          1   -1    0    0  501    0  0.00000000000E+00  0.00000000000E+00  0.17451794052E+04  0.17451794052E+04  0.00000000000E+00 0. -1.
         -1   -1    0    0    0  501 -0.00000000000E+00 -0.00000000000E+00 -0.16578284421E+04  0.16578284421E+04  0.00000000000E+00 0.  1.
         23    2    1    2    0    0  0.23846937671E+03  0.12044844538E+04 -0.95465976165E+03  0.15577235661E+04  0.86469676116E+02 0.  0.
        254    2    1    2    0    0 -0.23846937671E+03 -0.12044844538E+04  0.10420107248E+04  0.18452842811E+04  0.90090914340E+03 0.  0.
        -24    2    4    4    0    0  0.26800336537E+03 -0.18738080292E+03  0.61267240894E+02  0.34195254443E+03  0.78996827039E+02 0.  0.
         24    2    4    4    0    0 -0.50647274208E+03 -0.10171036508E+04  0.98074348389E+03  0.15033317367E+04  0.84463331538E+02 0.  0.
         11    1    3    3    0    0  0.79591140754E+02  0.30873436920E+03 -0.20646227273E+03  0.37983987478E+03  0.00000000000E+00 0. -1.
        -11    1    3    3    0    0  0.15887823596E+03  0.89575008457E+03 -0.74819748892E+03  0.11778836913E+04  0.00000000000E+00 0.  1.
          4    1    6    6  502    0 -0.37856058360E+03 -0.67642209969E+03  0.68371803950E+03  0.10335982440E+04  0.00000000000E+00 0. -1.
          1    1    5    5  503    0  0.23290989718E+03 -0.13292734554E+03  0.29469387348E+02  0.26978722021E+03  0.00000000000E+00 0. -1.
         -2    1    5    5    0  503  0.35093468193E+02 -0.54453457375E+02  0.31797853545E+02  0.72165324221E+02  0.00000000000E+00 0.  1.
         -3    1    6    6    0  502 -0.12791215848E+03 -0.34068155116E+03  0.29702544439E+03  0.46973349274E+03  0.00000000000E+00 0.  1.
<mgrwt>
<rscale>  0 0.34018866E+04</rscale>
<asrwt>0</asrwt>
<pdfrwt beam="1">  1        1 0.26848914E+00 0.34018866E+04</pdfrwt>
<pdfrwt beam="2">  1       -1 0.25505053E+00 0.34018866E+04</pdfrwt>
<totfact> 0.23599651E-01</totfact>
</mgrwt>
</event>
<event>
12    1  0.2214165E-007  0.2082525E+04  0.7818608E-02  0.8568980E-01
         -2   -1    0    0    0  501 -0.00000000000E+00  0.00000000000E+00  0.52816439789E+03  0.52816439789E+03  0.00000000000E+00 0.  1.
          2   -1    0    0  501    0  0.00000000000E+00 -0.00000000000E+00 -0.20528227722E+04  0.20528227722E+04  0.00000000000E+00 0. -1.
         23    2    1    2    0    0 -0.42318940147E+03 -0.48055400495E+03  0.59251843320E+02  0.64969433570E+03  0.92577144623E+02 0.  0.
        254    2    1    2    0    0  0.42318940147E+03  0.48055400495E+03 -0.15839102176E+04  0.19312928344E+04  0.90061035608E+03 0.  0.
        -24    2    4    4    0    0 -0.21865437537E+03 -0.69883221469E+02 -0.24017918925E+03  0.34177873692E+03  0.80207615303E+02 0.  0.
         24    2    4    4    0    0  0.64184377684E+03  0.55043722642E+03 -0.13437310284E+04  0.15895140975E+04  0.77442981184E+02 0.  0.
         13    1    3    3    0    0 -0.31465549193E+03 -0.38008970152E+03  0.81556426856E+02  0.50012769425E+03  0.00000000000E+00 0.  1.
        -13    1    3    3    0    0 -0.10853390954E+03 -0.10046430344E+03 -0.22304583536E+02  0.14956664144E+03  0.00000000000E+00 0. -1.
          2    1    6    6  502    0  0.52487151468E+03  0.47573757097E+03 -0.11610140071E+04  0.13600624500E+04  0.00000000000E+00 0. -1.
          1    1    5    5  503    0 -0.20785802016E+03 -0.52041134933E+02 -0.18606095871E+03  0.28378145927E+03  0.00000000000E+00 0. -1.
         -2    1    5    5    0  503 -0.10796355205E+02 -0.17842086536E+02 -0.54118230546E+02  0.57997277652E+02  0.00000000000E+00 0.  1.
         -1    1    6    6    0  502  0.11697226215E+03  0.74699655451E+02 -0.18271702127E+03  0.22945164741E+03  0.00000000000E+00 0.  1.
<mgrwt>
<rscale>  0 0.20825253E+04</rscale>
<asrwt>0</asrwt>
<pdfrwt beam="1">  1        2 0.31581888E+00 0.20825253E+04</pdfrwt>
<pdfrwt beam="2">  1       -2 0.81256063E-01 0.20825253E+04</pdfrwt>
<totfact> 0.76888891E+00</totfact>
</mgrwt>
</event>
<event>
12    1  0.2214165E-007  0.2212807E+04  0.7818608E-02  0.8513116E-01
          2   -1    0    0  501    0  0.00000000000E+00  0.00000000000E+00  0.10843397525E+04  0.10843397525E+04  0.00000000000E+00 0. -1.
         -2   -1    0    0    0  501 -0.00000000000E+00 -0.00000000000E+00 -0.11289166380E+04  0.11289166380E+04  0.00000000000E+00 0.  1.
         23    2    1    2    0    0  0.41764716363E+03 -0.75274726461E+03 -0.32399294491E+03  0.92401503985E+03  0.88174644094E+02 0.  0.
        254    2    1    2    0    0 -0.41764716363E+03  0.75274726461E+03  0.27941605941E+03  0.12892413507E+04  0.91815702818E+03 0.  0.
        -24    2    4    4    0    0 -0.69592494378E+03  0.57145721671E+03  0.11448722294E+03  0.91097221790E+03  0.76734475046E+02 0.  0.
         24    2    4    4    0    0  0.27827778015E+03  0.18129004790E+03  0.16492883646E+03  0.37826913279E+03  0.74708843719E+02 0.  0.
         11    1    3    3    0    0  0.16188522314E+03 -0.21092523049E+03 -0.88228225898E+02  0.28014370985E+03  0.00000000000E+00 0. -1.
        -11    1    3    3    0    0  0.25576194049E+03 -0.54182203412E+03 -0.23576471901E+03  0.64387133000E+03  0.00000000000E+00 0.  1.
          4    1    6    6  502    0  0.97269011590E+02  0.32505751885E+02  0.76015946798E+02  0.12765699624E+03  0.00000000000E+00 0. -1.
          3    1    5    5  503    0 -0.21204684696E+03  0.19207949978E+03  0.32898622378E+01  0.28612798314E+03  0.00000000000E+00 0. -1.
         -2    1    5    5    0  503 -0.48387809681E+03  0.37937771693E+03  0.11119736071E+03  0.62484423475E+03  0.00000000000E+00 0.  1.
         -3    1    6    6    0  502  0.18100876856E+03  0.14878429602E+03  0.88912889665E+02  0.25061213655E+03  0.00000000000E+00 0.  1.
<mgrwt>
<rscale>  0 0.22128074E+04</rscale>
<asrwt>0</asrwt>
<pdfrwt beam="1">  1        2 0.16682150E+00 0.22128074E+04</pdfrwt>
<pdfrwt beam="2">  1       -2 0.17367948E+00 0.22128074E+04</pdfrwt>
<totfact> 0.40829116E+00</totfact>
</mgrwt>
</event>
<event>
12    1  0.2214165E-007  0.2164803E+04  0.7818608E-02  0.8533223E-01
          1   -1    0    0  501    0  0.00000000000E+00  0.00000000000E+00  0.16738053348E+04  0.16738053348E+04  0.00000000000E+00 0. -1.
         -1   -1    0    0    0  501 -0.00000000000E+00 -0.00000000000E+00 -0.69995743495E+03  0.69995743495E+03  0.00000000000E+00 0.  1.
         23    2    1    2    0    0  0.10238762499E+03 -0.59915092437E+02 -0.56756676480E+03  0.58681270998E+03  0.90244556783E+02 0.  0.
        254    2    1    2    0    0 -0.10238762499E+03  0.59915092437E+02  0.15414146646E+04  0.17869500597E+04  0.89619099730E+03 0.  0.
        -24    2    4    4    0    0  0.32023168775E+03  0.24346434964E+03  0.51483004416E+03  0.65891357903E+03  0.85404372672E+02 0.  0.
         24    2    4    4    0    0 -0.42261931274E+03 -0.18354925720E+03  0.10265846204E+04  0.11280364807E+04  0.79327835829E+02 0.  0.
         13    1    3    3    0    0  0.93563548417E+01 -0.37506160947E+02 -0.68497107855E+02  0.78651810338E+02  0.00000000000E+00 0. -1.
        -13    1    3    3    0    0  0.93031270153E+02 -0.22408931490E+02 -0.49906965695E+03  0.50816089964E+03  0.00000000000E+00 0.  1.
          2    1    6    6  502    0 -0.25058049793E+03 -0.14420082713E+03  0.58654436527E+03  0.65392565091E+03  0.00000000000E+00 0. -1.
          1    1    5    5  503    0  0.25202328200E+03  0.20776474334E+03  0.46097606787E+03  0.56496093528E+03  0.00000000000E+00 0. -1.
         -2    1    5    5    0  503  0.68208405747E+02  0.35699606298E+02  0.53853976295E+02  0.93952643747E+02  0.00000000000E+00 0.  1.
         -1    1    6    6    0  502 -0.17203881481E+03 -0.39348430070E+02  0.44004025518E+03  0.47411082979E+03  0.00000000000E+00 0.  1.
<mgrwt>
<rscale>  0 0.21648025E+04</rscale>
<asrwt>0</asrwt>
<pdfrwt beam="1">  1        1 0.25750851E+00 0.21648025E+04</pdfrwt>
<pdfrwt beam="2">  1       -1 0.10768576E+00 0.21648025E+04</pdfrwt>
<totfact> 0.36444083E+00</totfact>
</mgrwt>
</event>
<event>
12    1  0.2214165E-007  0.2065989E+04  0.7818608E-02  0.8576375E-01
         -2   -1    0    0    0  501 -0.00000000000E+00  0.00000000000E+00  0.12773068825E+04  0.12773068825E+04  0.00000000000E+00 0.  1.
          2   -1    0    0  501    0  0.00000000000E+00 -0.00000000000E+00 -0.83541177784E+03  0.83541177784E+03  0.00000000000E+00 0. -1.
         23    2    1    2    0    0 -0.16674647148E+03 -0.59004920449E+03  0.75848087977E+03  0.97956212058E+03  0.91028861551E+02 0.  0.
        254    2    1    2    0    0  0.16674647148E+03  0.59004920449E+03 -0.31658577512E+03  0.11331565397E+04  0.89880739932E+03 0.  0.
        -24    2    4    4    0    0  0.42880755680E+03  0.55364027340E+03 -0.43961178976E+03  0.83077011303E+03  0.80789738947E+02 0.  0.
         24    2    4    4    0    0 -0.26206108532E+03  0.36408931090E+02  0.12302601463E+03  0.30238642671E+03  0.79375865856E+02 0.  0.
         13    1    3    3    0    0 -0.23927499016E+02 -0.12424315400E+03  0.10482313988E+03  0.16430696022E+03  0.00000000000E+00 0. -1.
        -13    1    3    3    0    0 -0.14281897246E+03 -0.46580605049E+03  0.65365773989E+03  0.81525516036E+03  0.00000000000E+00 0.  1.
          4    1    6    6  502    0 -0.14462046130E+03 -0.64138684864E+01  0.33382814403E+02  0.14856186534E+03  0.00000000000E+00 0. -1.
          1    1    5    5  503    0  0.57727121306E+02  0.94725352682E+02 -0.10286840884E+03  0.15128523560E+03  0.00000000000E+00 0. -1.
         -2    1    5    5    0  503  0.37108043549E+03  0.45891492072E+03 -0.33674338092E+03  0.67948487743E+03  0.00000000000E+00 0.  1.
         -3    1    6    6    0  502 -0.11744062402E+03  0.42822799576E+02  0.89643200228E+02  0.15382456137E+03  0.00000000000E+00 0.  1.
<mgrwt>
<rscale>  0 0.20659886E+04</rscale>
<asrwt>0</asrwt>
<pdfrwt beam="1">  1        2 0.12852489E+00 0.20659886E+04</pdfrwt>
<pdfrwt beam="2">  1       -2 0.19650875E+00 0.20659886E+04</pdfrwt>
<totfact> 0.42096712E+00</totfact>
</mgrwt>
</event>
<event>
12    1  0.2214165E-007  0.4495069E+04  0.7818608E-02  0.7911501E-01
          2   -1    0    0  501    0  0.00000000000E+00  0.00000000000E+00  0.20038586178E+04  0.20038586178E+04  0.00000000000E+00 0. -1.
         -2   -1    0    0    0  501 -0.00000000000E+00 -0.00000000000E+00 -0.25208417032E+04  0.25208417032E+04  0.00000000000E+00 0.  1.
         23    2    1    2    0    0 -0.49507668899E+03 -0.90952746803E+03 -0.21507458823E+04  0.23887941108E+04  0.91040158146E+02 0.  0.
        254    2    1    2    0    0  0.49507668899E+03  0.90952746803E+03  0.16337627970E+04  0.21359062101E+04  0.90585502073E+03 0.  0.
        -24    2    4    4    0    0 -0.18855074526E+03  0.99863739483E+02  0.57432019370E+02  0.23478896631E+03  0.79393147382E+02 0.  0.
         24    2    4    4    0    0  0.68362743425E+03  0.80966372855E+03  0.15763307776E+04  0.19011172438E+04  0.80785098236E+02 0.  0.
         11    1    3    3    0    0 -0.42184802006E+03 -0.69942564500E+03 -0.17111545986E+04  0.18961018024E+04  0.00000000000E+00 0.  1.
        -11    1    3    3    0    0 -0.73228668935E+02 -0.21010182303E+03 -0.43959128377E+03  0.49269230841E+03  0.00000000000E+00 0. -1.
          4    1    6    6  502    0  0.58990022480E+03  0.67577909911E+03  0.13761369033E+04  0.16426845232E+04  0.00000000000E+00 0. -1.
          3    1    5    5  503    0 -0.17247718569E+02  0.44231784948E+02  0.14368146943E+02  0.49602199973E+02  0.00000000000E+00 0. -1.
         -4    1    5    5    0  503 -0.17130302669E+03  0.55631954535E+02  0.43063872427E+02  0.18518676634E+03  0.00000000000E+00 0.  1.
         -1    1    6    6    0  502  0.93727209456E+02  0.13388462944E+03  0.20019387429E+03  0.25843272064E+03  0.00000000000E+00 0.  1.
<mgrwt>
<rscale>  0 0.44950686E+04</rscale>
<asrwt>0</asrwt>
<pdfrwt beam="1">  1        2 0.30828594E+00 0.44950686E+04</pdfrwt>
<pdfrwt beam="2">  1       -2 0.38782180E+00 0.44950686E+04</pdfrwt>
<totfact> 0.44905395E-02</totfact>
</mgrwt>
</event>
<event>
12    1  0.2214165E-007  0.1777860E+04  0.7818608E-02  0.8718163E-01
         -2   -1    0    0    0  501 -0.00000000000E+00  0.00000000000E+00  0.30999025757E+03  0.30999025757E+03  0.00000000000E+00 0.  1.
          2   -1    0    0  501    0  0.00000000000E+00 -0.00000000000E+00 -0.25491017540E+04  0.25491017540E+04  0.00000000000E+00 0. -1.
         23    2    1    2    0    0  0.33666770011E+03  0.11301165606E+03 -0.17218506099E+04  0.17605666248E+04  0.93319573365E+02 0.  0.
        254    2    1    2    0    0 -0.33666770011E+03 -0.11301165606E+03 -0.51726088647E+03  0.10985253867E+04  0.90171083276E+03 0.  0.
        -24    2    4    4    0    0  0.87200125980E+02 -0.42065730387E+03 -0.19601159005E+03  0.47907748818E+03  0.80859550903E+02 0.  0.
         24    2    4    4    0    0 -0.42386782609E+03  0.30764564781E+03 -0.32124929642E+03  0.61944789856E+03  0.78770616124E+02 0.  0.
         11    1    3    3    0    0  0.17836938877E+03  0.89469867119E+02 -0.11287384000E+04  0.11462420650E+04  0.00000000000E+00 0. -1.
        -11    1    3    3    0    0  0.15829831134E+03  0.23541788941E+02 -0.59311220994E+03  0.61432455980E+03  0.00000000000E+00 0.  1.
          2    1    6    6  502    0 -0.42409897413E+03  0.30020697230E+03 -0.32298824105E+03  0.61180517318E+03  0.00000000000E+00 0. -1.
          3    1    5    5  503    0  0.66342698907E+02 -0.35996613867E+03 -0.19535660352E+03  0.41489899641E+03  0.00000000000E+00 0. -1.
         -4    1    5    5    0  503  0.20857427073E+02 -0.60691165205E+02 -0.65498653414E+00  0.64178491766E+02  0.00000000000E+00 0.  1.
         -1    1    6    6    0  502  0.23114803924E+00  0.74386755076E+01  0.17389446286E+01  0.76427253742E+01  0.00000000000E+00 0.  1.
<mgrwt>
<rscale>  0 0.17778602E+04</rscale>
<asrwt>0</asrwt>
<pdfrwt beam="1">  1        2 0.39216949E+00 0.17778602E+04</pdfrwt>
<pdfrwt beam="2">  1       -2 0.47690811E-01 0.17778602E+04</pdfrwt>
<totfact> 0.12861900E+01</totfact>
</mgrwt>
</event>
<event>
12    1  0.2214165E-007  0.3427261E+04  0.7818608E-02  0.8131248E-01
          1   -1    0    0  501    0  0.00000000000E+00  0.00000000000E+00  0.11273961505E+04  0.11273961505E+04  0.00000000000E+00 0. -1.
         -1   -1    0    0    0  501 -0.00000000000E+00 -0.00000000000E+00 -0.26047008256E+04  0.26047008256E+04  0.00000000000E+00 0.  1.
         23    2    1    2    0    0 -0.12243016490E+04  0.60073673952E+03  0.20930317249E+03  0.13826679460E+04  0.90353045286E+02 0.  0.
        254    2    1    2    0    0  0.12243016490E+04 -0.60073673952E+03 -0.16866078476E+04  0.23494290300E+04  0.90297927867E+03 0.  0.
        -24    2    4    4    0    0  0.62227752168E+02 -0.24308817284E+03 -0.80053392876E+03  0.84293247571E+03  0.81953856528E+02 0.  0.
         24    2    4    4    0    0  0.11620738968E+04 -0.35764856668E+03 -0.88607391883E+03  0.15064965543E+04  0.77952803841E+02 0.  0.
         13    1    3    3    0    0 -0.41891243411E+03  0.25379076567E+03  0.75967480985E+02  0.49564951160E+03  0.00000000000E+00 0. -1.
        -13    1    3    3    0    0 -0.80538921491E+03  0.34694597385E+03  0.13333569151E+03  0.88701843436E+03  0.00000000000E+00 0.  1.
          4    1    6    6  502    0  0.77969975375E+03 -0.25918428481E+03 -0.55899208451E+03  0.99377077339E+03  0.00000000000E+00 0. -1.
          1    1    5    5  503    0  0.68128104287E+02 -0.11045406569E+03 -0.35194077438E+03  0.37510511580E+03  0.00000000000E+00 0. -1.
         -2    1    5    5    0  503 -0.59003521181E+01 -0.13263410714E+03 -0.44859315437E+03  0.46782735991E+03  0.00000000000E+00 0.  1.
         -3    1    6    6    0  502  0.38237414309E+03 -0.98464281869E+02 -0.32708183432E+03  0.51272578095E+03  0.00000000000E+00 0.  1.
<mgrwt>
<rscale>  0 0.34272611E+04</rscale>
<asrwt>0</asrwt>
<pdfrwt beam="1">  1        1 0.17344556E+00 0.34272611E+04</pdfrwt>
<pdfrwt beam="2">  1       -1 0.40072320E+00 0.34272611E+04</pdfrwt>
<totfact> 0.70139073E-02</totfact>
</mgrwt>
</event>
<event>
12    1  0.2214165E-007  0.1533550E+04  0.7818608E-02  0.8862444E-01
         -2   -1    0    0    0  501 -0.00000000000E+00  0.00000000000E+00  0.30228520997E+03  0.30228520997E+03  0.00000000000E+00 0.  1.
          2   -1    0    0  501    0  0.00000000000E+00 -0.00000000000E+00 -0.19449960229E+04  0.19449960229E+04  0.00000000000E+00 0. -1.
         23    2    1    2    0    0 -0.32777044479E+02 -0.44704884538E+03 -0.85743024985E+03  0.97159399697E+03  0.88776442810E+02 0.  0.
        254    2    1    2    0    0  0.32777044479E+02  0.44704884538E+03 -0.78528056311E+03  0.12756872359E+04  0.89988074559E+03 0.  0.
        -24    2    4    4    0    0  0.43246298653E+03  0.11439241200E+03 -0.22235307562E+03  0.50549344920E+03  0.77284398843E+02 0.  0.
         24    2    4    4    0    0 -0.39968594205E+03  0.33265643338E+03 -0.56292748749E+03  0.77019378672E+03  0.76824201898E+02 0.  0.
         13    1    3    3    0    0 -0.28404737379E+02 -0.20427121587E+03 -0.48465198681E+03  0.52670780045E+03  0.00000000000E+00 0. -1.
        -13    1    3    3    0    0 -0.43723070998E+01 -0.24277762951E+03 -0.37277826304E+03  0.44488619652E+03  0.00000000000E+00 0.  1.
          4    1    6    6  502    0 -0.30275959351E+03  0.24050974940E+03 -0.36793659684E+03  0.53374680357E+03  0.00000000000E+00 0. -1.
          1    1    5    5  503    0  0.28499636907E+03  0.80149222870E+02 -0.18655618199E+03  0.34992861750E+03  0.00000000000E+00 0. -1.
         -2    1    5    5    0  503  0.14746661746E+03  0.34243189128E+02 -0.35796893631E+02  0.15556483169E+03  0.00000000000E+00 0.  1.
         -3    1    6    6    0  502 -0.96926348532E+02  0.92146683977E+02 -0.19499089065E+03  0.23644698316E+03  0.00000000000E+00 0.  1.
<mgrwt>
<rscale>  0 0.15335495E+04</rscale>
<asrwt>0</asrwt>
<pdfrwt beam="1">  1        2 0.29923016E+00 0.15335495E+04</pdfrwt>
<pdfrwt beam="2">  1       -2 0.46505417E-01 0.15335495E+04</pdfrwt>
<totfact> 0.30291942E+01</totfact>
</mgrwt>
</event>
<event>
12    1  0.2214165E-007  0.1946021E+04  0.7818608E-02  0.8632282E-01
          2   -1    0    0  501    0  0.00000000000E+00  0.00000000000E+00  0.77878224388E+03  0.77878224388E+03  0.00000000000E+00 0. -1.
         -2   -1    0    0    0  501 -0.00000000000E+00 -0.00000000000E+00 -0.12156787254E+04  0.12156787254E+04  0.00000000000E+00 0.  1.
         23    2    1    2    0    0 -0.28315356326E+03 -0.65151829743E+03 -0.45677721682E+03  0.84931897402E+03  0.89695382011E+02 0.  0.
        254    2    1    2    0    0  0.28315356326E+03  0.65151829743E+03  0.19880735300E+02  0.11451419953E+04  0.89794371393E+03 0.  0.
        -24    2    4    4    0    0  0.30360748016E+03  0.57252079379E+03 -0.36249320634E+03  0.74589193318E+03  0.70681610125E+02 0.  0.
         24    2    4    4    0    0 -0.20453916896E+02  0.78997503643E+02  0.38237394164E+03  0.39925006208E+03  0.80819629610E+02 0.  0.
         13    1    3    3    0    0 -0.15358017060E+03 -0.41056569777E+03 -0.23650364508E+03  0.49808135392E+03  0.00000000000E+00 0. -1.
        -13    1    3    3    0    0 -0.12957339266E+03 -0.24095259966E+03 -0.22027357173E+03  0.35123762010E+03  0.00000000000E+00 0.  1.
          2    1    6    6  502    0  0.13399905917E+02  0.68977446288E+00  0.87703622920E+01  0.16029738679E+02  0.00000000000E+00 0. -1.
          1    1    5    5  503    0  0.61168259093E+02  0.74444338878E+02 -0.35806586521E+02  0.10278923655E+03  0.00000000000E+00 0. -1.
         -2    1    5    5    0  503  0.24243922106E+03  0.49807645491E+03 -0.32668661982E+03  0.64310269663E+03  0.00000000000E+00 0.  1.
         -1    1    6    6    0  502 -0.33853822813E+02  0.78307729180E+02  0.37360357935E+03  0.38322032340E+03  0.00000000000E+00 0.  1.
<mgrwt>
<rscale>  0 0.19460206E+04</rscale>
<asrwt>0</asrwt>
<pdfrwt beam="1">  1        2 0.11981265E+00 0.19460206E+04</pdfrwt>
<pdfrwt beam="2">  1       -2 0.18702750E+00 0.19460206E+04</pdfrwt>
<totfact> 0.54036781E+00</totfact>
</mgrwt>
</event>
<event>
12    1  0.2214165E-007  0.2549960E+04  0.7818608E-02  0.8385400E-01
         -2   -1    0    0    0  501 -0.00000000000E+00  0.00000000000E+00  0.91706196335E+03  0.91706196335E+03  0.00000000000E+00 0.  1.
          2   -1    0    0  501    0  0.00000000000E+00 -0.00000000000E+00 -0.17725893527E+04  0.17725893527E+04  0.00000000000E+00 0. -1.
         23    2    1    2    0    0 -0.89665185744E+03  0.56105372115E+03 -0.74213846795E+03  0.12964514284E+04  0.10607058513E+03 0.  0.
        254    2    1    2    0    0  0.89665185744E+03 -0.56105372115E+03 -0.11338892139E+03  0.13931998877E+04  0.89965718363E+03 0.  0.
        -24    2    4    4    0    0  0.91964435821E+03 -0.74153217275E+03 -0.14315990163E+03  0.11926346484E+04  0.79163997011E+02 0.  0.
         24    2    4    4    0    0 -0.22992500766E+02  0.18047845160E+03  0.29770980243E+02  0.20056523923E+03  0.78987197315E+02 0.  0.
         13    1    3    3    0    0 -0.40284807660E+03  0.23976118648E+03 -0.39226016485E+03  0.61126102141E+03  0.00000000000E+00 0. -1.
        -13    1    3    3    0    0 -0.49380378084E+03  0.32129253467E+03 -0.34987830309E+03  0.68519040695E+03  0.00000000000E+00 0.  1.
          2    1    6    6  502    0 -0.27515161130E+02  0.11585832770E+03  0.54844705987E+02  0.13110369165E+03  0.00000000000E+00 0. -1.
          3    1    5    5  503    0  0.31824611614E+03 -0.23346607995E+03 -0.80831679864E+02  0.40289050795E+03  0.00000000000E+00 0. -1.
         -4    1    5    5    0  503  0.60139824206E+03 -0.50806609280E+03 -0.62328221769E+02  0.78974414049E+03  0.00000000000E+00 0.  1.
         -1    1    6    6    0  502  0.45226603641E+01  0.64620123904E+02 -0.25073725744E+02  0.69461547585E+02  0.00000000000E+00 0.  1.
<mgrwt>
<rscale>  0 0.25499602E+04</rscale>
<asrwt>0</asrwt>
<pdfrwt beam="1">  1        2 0.27270605E+00 0.25499602E+04</pdfrwt>
<pdfrwt beam="2">  1       -2 0.14108646E+00 0.25499602E+04</pdfrwt>
<totfact> 0.27944546E+00</totfact>
</mgrwt>
</event>
<event>
12    1  0.2214165E-007  0.1588664E+04  0.7818608E-02  0.8827543E-01
          2   -1    0    0  501    0  0.00000000000E+00  0.00000000000E+00  0.58619569604E+03  0.58619569604E+03  0.00000000000E+00 0. -1.
         -2   -1    0    0    0  501 -0.00000000000E+00 -0.00000000000E+00 -0.10763696747E+04  0.10763696747E+04  0.00000000000E+00 0.  1.
         23    2    1    2    0    0 -0.45415221551E+03 -0.28111454422E+03 -0.15033247293E+03  0.56215515891E+03  0.90216120817E+02 0.  0.
        254    2    1    2    0    0  0.45415221551E+03  0.28111454422E+03 -0.33984150577E+03  0.11004102119E+04  0.90007264347E+03 0.  0.
        -24    2    4    4    0    0  0.40253256118E+03  0.23372375261E+02  0.22772121702E+03  0.46982568823E+03  0.79375650563E+02 0.  0.
         24    2    4    4    0    0  0.51619654332E+02  0.25774216896E+03 -0.56756272279E+03  0.63058452364E+03  0.80086096058E+02 0.  0.
         11    1    3    3    0    0 -0.14305153366E+03 -0.97619081431E+02 -0.62665136644E+01  0.17329886190E+03  0.00000000000E+00 0. -1.
        -11    1    3    3    0    0 -0.31110068185E+03 -0.18349546279E+03 -0.14406595927E+03  0.38885629702E+03  0.00000000000E+00 0.  1.
          4    1    6    6  502    0  0.68443685143E+02  0.16482806336E+03 -0.33482584800E+03  0.37942216197E+03  0.00000000000E+00 0. -1.
          1    1    5    5  503    0  0.25057902888E+03 -0.46668452882E+01  0.17837479076E+03  0.30761858711E+03  0.00000000000E+00 0. -1.
         -4    1    5    5    0  503  0.15195353230E+03  0.28039220549E+02  0.49346426264E+02  0.16220710111E+03  0.00000000000E+00 0.  1.
         -3    1    6    6    0  502 -0.16824030811E+02  0.92914105601E+02 -0.23273687479E+03  0.25116236167E+03  0.00000000000E+00 0.  1.
<mgrwt>
<rscale>  0 0.15886639E+04</rscale>
<asrwt>0</asrwt>
<pdfrwt beam="1">  1        2 0.90183953E-01 0.15886639E+04</pdfrwt>
<pdfrwt beam="2">  1       -2 0.16559533E+00 0.15886639E+04</pdfrwt>
<totfact> 0.11212743E+01</totfact>
</mgrwt>
</event>
<event>
12    1  0.2762074E-007  0.2087376E+04  0.7818608E-02  0.8566825E-01
          2   -1    0    0  501    0  0.00000000000E+00  0.00000000000E+00  0.87930715243E+03  0.87930715243E+03  0.00000000000E+00 0. -1.
         -2   -1    0    0    0  501 -0.00000000000E+00 -0.00000000000E+00 -0.12387985039E+04  0.12387985039E+04  0.00000000000E+00 0.  1.
         23    2    1    2    0    0 -0.36167824071E+03 -0.75297942942E+03 -0.76457613707E+01  0.84020692666E+03  0.90000283341E+02 0.  0.
        254    2    1    2    0    0  0.36167824071E+03  0.75297942942E+03 -0.35184559011E+03  0.12778987297E+04  0.90080001837E+03 0.  0.
        -24    2    4    4    0    0 -0.20036698402E+03  0.51756873009E+03  0.16369909337E+02  0.56150376946E+03  0.83631277205E+02 0.  0.
         24    2    4    4    0    0  0.56204522473E+03  0.23541069933E+03 -0.36821549944E+03  0.71639496022E+03  0.79536488418E+02 0.  0.
         11    1    3    3    0    0 -0.25539852747E+03 -0.52180068284E+03  0.35941267728E+02  0.58206196850E+03  0.00000000000E+00 0.  1.
        -11    1    3    3    0    0 -0.10627971324E+03 -0.23117874658E+03 -0.43587029099E+02  0.25814495816E+03  0.00000000000E+00 0. -1.
          2    1    6    6  502    0  0.29325872181E+02  0.28270855271E+02 -0.40954455243E+02  0.57762578207E+02  0.00000000000E+00 0. -1.
          3    1    5    5  503    0 -0.12079765901E+02  0.25893082903E+01 -0.34430208342E+01  0.12824962148E+02  0.00000000000E+00 0. -1.
         -4    1    5    5    0  503 -0.18828721812E+03  0.51497942180E+03  0.19812930171E+02  0.54867880731E+03  0.00000000000E+00 0.  1.
         -1    1    6    6    0  502  0.53271935255E+03  0.20713984405E+03 -0.32726104420E+03  0.65863238201E+03  0.00000000000E+00 0.  1.
<mgrwt>
<rscale>  0 0.20873758E+04</rscale>
<asrwt>0</asrwt>
<pdfrwt beam="1">  1        2 0.13527802E+00 0.20873758E+04</pdfrwt>
<pdfrwt beam="2">  1       -2 0.19058438E+00 0.20873758E+04</pdfrwt>
<totfact> 0.42904478E+00</totfact>
</mgrwt>
</event>
<event>
12    1  0.2214165E-007  0.1611072E+04  0.7818608E-02  0.8813775E-01
          4   -1    0    0  501    0  0.00000000000E+00  0.00000000000E+00  0.10207950921E+04  0.10207950921E+04  0.00000000000E+00 0. -1.
         -4   -1    0    0    0  501 -0.00000000000E+00 -0.00000000000E+00 -0.63566940056E+03  0.63566940056E+03  0.00000000000E+00 0.  1.
         23    2    1    2    0    0 -0.28277224868E+03  0.21362954253E+03  0.56239159236E+03  0.67095928379E+03  0.91128103672E+02 0.  0.
        254    2    1    2    0    0  0.28277224868E+03 -0.21362954253E+03 -0.17726590080E+03  0.98550520890E+03  0.90233008988E+03 0.  0.
        -24    2    4    4    0    0  0.32791401614E+03 -0.30901540749E+03 -0.47533051892E+03  0.65968357198E+03  0.78899866095E+02 0.  0.
         24    2    4    4    0    0 -0.45141767461E+02  0.95385864959E+02  0.29806461812E+03  0.32582163692E+03  0.78619209495E+02 0.  0.
         13    1    3    3    0    0 -0.15530927703E+03  0.15024803325E+03  0.40281642133E+03  0.45711761323E+03  0.00000000000E+00 0. -1.
        -13    1    3    3    0    0 -0.12746297165E+03  0.63381509278E+02  0.15957517103E+03  0.21384167057E+03  0.00000000000E+00 0.  1.
          4    1    6    6  502    0 -0.52918706369E+01  0.48641164758E+01  0.13440808558E+03  0.13460013742E+03  0.00000000000E+00 0. -1.
          3    1    5    5  503    0  0.15193353242E+03 -0.15784045964E+03 -0.28579634644E+03  0.36010687387E+03  0.00000000000E+00 0. -1.
         -4    1    5    5    0  503  0.17598048372E+03 -0.15117494785E+03 -0.18953417249E+03  0.29957669811E+03  0.00000000000E+00 0.  1.
         -3    1    6    6    0  502 -0.39849896824E+02  0.90521748483E+02  0.16365653254E+03  0.19122149949E+03  0.00000000000E+00 0.  1.
<mgrwt>
<rscale>  0 0.16110719E+04</rscale>
<asrwt>0</asrwt>
<pdfrwt beam="1">  1        4 0.15704540E+00 0.16110719E+04</pdfrwt>
<pdfrwt beam="2">  1       -4 0.97795292E-01 0.16110719E+04</pdfrwt>
<totfact> 0.43927607E-01</totfact>
</mgrwt>
</event>
<event>
12    1  0.2214165E-007  0.4737635E+04  0.7818608E-02  0.7870305E-01
          2   -1    0    0  501    0  0.00000000000E+00  0.00000000000E+00  0.27736710058E+04  0.27736710058E+04  0.00000000000E+00 0. -1.
         -2   -1    0    0    0  501 -0.00000000000E+00 -0.00000000000E+00 -0.20230572940E+04  0.20230572940E+04  0.00000000000E+00 0.  1.
         23    2    1    2    0    0  0.13422120173E+04  0.16442905060E+04  0.12118115197E+04  0.24457677442E+04  0.89823892753E+02 0.  0.
        254    2    1    2    0    0 -0.13422120173E+04 -0.16442905060E+04 -0.46119780800E+03  0.23509605556E+04  0.89949305085E+03 0.  0.
        -24    2    4    4    0    0 -0.99538593408E+02  0.81708686555E+02 -0.12482176631E+03  0.19624180850E+03  0.79662619991E+02 0.  0.
         24    2    4    4    0    0 -0.12426734239E+04 -0.17259991925E+04 -0.33637604169E+03  0.21547187471E+04  0.79709388921E+02 0.  0.
         13    1    3    3    0    0  0.39898967642E+03  0.42847456809E+03  0.31967315882E+03  0.66706382443E+03  0.00000000000E+00 0.  1.
        -13    1    3    3    0    0  0.94322234092E+03  0.12158159379E+04  0.89213836088E+03  0.17787039197E+04  0.00000000000E+00 0. -1.
          2    1    6    6  502    0 -0.52816125397E+03 -0.76243318747E+03 -0.11050243446E+03  0.93406073869E+03  0.00000000000E+00 0. -1.
          3    1    5    5  503    0 -0.82128640952E+01  0.11807521270E+02 -0.65067231026E+02  0.66637926502E+02  0.00000000000E+00 0. -1.
         -4    1    5    5    0  503 -0.91325729313E+02  0.69901165285E+02 -0.59754535283E+02  0.12960388200E+03  0.00000000000E+00 0.  1.
         -1    1    6    6    0  502 -0.71451216996E+03 -0.96356600504E+03 -0.22587360722E+03  0.12206580084E+04  0.00000000000E+00 0.  1.
<mgrwt>
<rscale>  0 0.47376346E+04</rscale>
<asrwt>0</asrwt>
<pdfrwt beam="1">  1        2 0.42671862E+00 0.47376346E+04</pdfrwt>
<pdfrwt beam="2">  1       -2 0.31123958E+00 0.47376346E+04</pdfrwt>
<totfact> 0.48338849E-02</totfact>
</mgrwt>
</event>
<event>
12    1  0.2214165E-007  0.1653866E+04  0.7818608E-02  0.8788123E-01
          2   -1    0    0  501    0  0.00000000000E+00  0.00000000000E+00  0.13713322200E+04  0.13713322200E+04  0.00000000000E+00 0. -1.
         -2   -1    0    0    0  501 -0.00000000000E+00 -0.00000000000E+00 -0.49865240955E+03  0.49865240955E+03  0.00000000000E+00 0.  1.
         23    2    1    2    0    0  0.26577748169E+03 -0.39581031235E+03 -0.60710483742E+02  0.48902680327E+03  0.90321527591E+02 0.  0.
        254    2    1    2    0    0 -0.26577748169E+03  0.39581031235E+03  0.93339029419E+03  0.13809578263E+04  0.89917940564E+03 0.  0.
        -24    2    4    4    0    0 -0.22373858103E+03  0.52861213614E+03  0.10386752035E+04  0.11894439135E+04  0.80255229190E+02 0.  0.
         24    2    4    4    0    0 -0.42038900658E+02 -0.13280182379E+03 -0.10528490936E+03  0.19151391276E+03  0.78670662081E+02 0.  0.
         13    1    3    3    0    0  0.13010645666E+03 -0.26205412279E+03 -0.59190024127E+02  0.29850211439E+03  0.00000000000E+00 0. -1.
        -13    1    3    3    0    0  0.13567102503E+03 -0.13375618956E+03 -0.15204596148E+01  0.19052468889E+03  0.00000000000E+00 0.  1.
          4    1    6    6  502    0 -0.58029776377E+02 -0.12194902886E+03 -0.72052158452E+02  0.15307035678E+03  0.00000000000E+00 0. -1.
          3    1    5    5  503    0 -0.11628608226E+03  0.30783050837E+03  0.51646072275E+03  0.61238366483E+03  0.00000000000E+00 0. -1.
         -4    1    5    5    0  503 -0.10745249877E+03  0.22078162777E+03  0.52221448080E+03  0.57706024868E+03  0.00000000000E+00 0.  1.
         -3    1    6    6    0  502  0.15990875719E+02 -0.10852794931E+02 -0.33232750904E+02  0.38443555984E+02  0.00000000000E+00 0.  1.
<mgrwt>
<rscale>  0 0.16538659E+04</rscale>
<asrwt>0</asrwt>
<pdfrwt beam="1">  1        2 0.21097419E+00 0.16538659E+04</pdfrwt>
<pdfrwt beam="2">  1       -2 0.76715756E-01 0.16538659E+04</pdfrwt>
<totfact> 0.21794758E+01</totfact>
</mgrwt>
</event>
<event>
12    1  0.2214165E-007  0.1409429E+04  0.7818608E-02  0.8947021E-01
          2   -1    0    0  501    0  0.00000000000E+00  0.00000000000E+00  0.27264434373E+04  0.27264434373E+04  0.00000000000E+00 0. -1.
         -2   -1    0    0    0  501 -0.00000000000E+00 -0.00000000000E+00 -0.18215033586E+03  0.18215033586E+03  0.00000000000E+00 0.  1.
         23    2    1    2    0    0  0.33571516129E+03  0.21465464824E+03  0.82882942823E+03  0.92401106852E+03  0.89760493038E+02 0.  0.
        254    2    1    2    0    0 -0.33571516129E+03 -0.21465464824E+03  0.17154636732E+04  0.19845827046E+04  0.91486152501E+03 0.  0.
        -24    2    4    4    0    0  0.23707737430E+03 -0.25392445198E+03  0.34147712525E+03  0.49335210467E+03  0.78143223568E+02 0.  0.
         24    2    4    4    0    0 -0.57279253560E+03  0.39269803735E+02  0.13739865479E+04  0.14912306000E+04  0.79348988818E+02 0.  0.
         13    1    3    3    0    0  0.28018417937E+03  0.14001943031E+03  0.67701877594E+03  0.74596450198E+03  0.00000000000E+00 0. -1.
        -13    1    3    3    0    0  0.55530981925E+02  0.74635217928E+02  0.15181065229E+03  0.17804656655E+03  0.00000000000E+00 0.  1.
          4    1    6    6  502    0 -0.45229946131E+03  0.52879983041E+02  0.10195648722E+04  0.11166394333E+04  0.00000000000E+00 0. -1.
          1    1    5    5  503    0  0.17120261473E+03 -0.21405254146E+03  0.29815464388E+03  0.40500002156E+03  0.00000000000E+00 0. -1.
         -2    1    5    5    0  503  0.65874759574E+02 -0.39871910520E+02  0.43322481375E+02  0.88352083111E+02  0.00000000000E+00 0.  1.
         -3    1    6    6    0  502 -0.12049307429E+03 -0.13610179306E+02  0.35442167570E+03  0.37459116666E+03  0.00000000000E+00 0.  1.
<mgrwt>
<rscale>  0 0.14094291E+04</rscale>
<asrwt>0</asrwt>
<pdfrwt beam="1">  1        2 0.41945281E+00 0.14094291E+04</pdfrwt>
<pdfrwt beam="2">  1       -2 0.28023131E-01 0.14094291E+04</pdfrwt>
<totfact> 0.29155291E+01</totfact>
</mgrwt>
</event>
<event>
12    1  0.2214165E-007  0.1666235E+04  0.7818608E-02  0.8780859E-01
         -2   -1    0    0    0  501 -0.00000000000E+00  0.00000000000E+00  0.45573699366E+03  0.45573699366E+03  0.00000000000E+00 0. -1.
          2   -1    0    0  501    0  0.00000000000E+00 -0.00000000000E+00 -0.15229944146E+04  0.15229944146E+04  0.00000000000E+00 0.  1.
         23    2    1    2    0    0 -0.35067159861E+03  0.15410192740E+03  0.14588709148E+03  0.41994940936E+03  0.91413832989E+02 0.  0.
        254    2    1    2    0    0  0.35067159861E+03 -0.15410192740E+03 -0.12131445125E+04  0.15587819989E+04  0.90075731361E+03 0.  0.
        -24    2    4    4    0    0  0.28556820639E+03  0.35043037804E+03 -0.65184102998E+03  0.79731596482E+03  0.80407518512E+02 0.  0.
         24    2    4    4    0    0  0.65103392219E+02 -0.50453230544E+03 -0.56130348248E+03  0.76146603413E+03  0.77315087618E+02 0.  0.
         13    1    3    3    0    0 -0.67035371474E+02  0.71632983388E+02  0.43587625565E+02  0.10735411702E+03  0.00000000000E+00 0. -1.
        -13    1    3    3    0    0 -0.28363622713E+03  0.82468944016E+02  0.10229946591E+03  0.31259529234E+03  0.00000000000E+00 0.  1.
          4    1    6    6  502    0 -0.13935215775E+02 -0.38711964031E+02 -0.33309429682E+02  0.52936986159E+02  0.00000000000E+00 0. -1.
          1    1    5    5  503    0  0.12003392815E+03  0.88014386940E+02 -0.20650987255E+03  0.25456041262E+03  0.00000000000E+00 0. -1.
         -2    1    5    5    0  503  0.16553427824E+03  0.26241599110E+03 -0.44533115743E+03  0.54275555219E+03  0.00000000000E+00 0.  1.
         -3    1    6    6    0  502  0.79038607995E+02 -0.46582034141E+03 -0.52799405280E+03  0.70852904797E+03  0.00000000000E+00 0.  1.
<mgrwt>
<rscale>  0 0.16662352E+04</rscale>
<asrwt>0</asrwt>
<pdfrwt beam="1">  1        2 0.23430683E+00 0.16662352E+04</pdfrwt>
<pdfrwt beam="2">  1       -2 0.70113383E-01 0.16662352E+04</pdfrwt>
<totfact> 0.21770915E+01</totfact>
</mgrwt>
</event>
<event>
12    1  0.2214165E-007  0.2476731E+04  0.7818608E-02  0.8411322E-01
          1   -1    0    0  501    0  0.00000000000E+00  0.00000000000E+00  0.13286232007E+04  0.13286232007E+04  0.00000000000E+00 0. -1.
         -1   -1    0    0    0  501 -0.00000000000E+00 -0.00000000000E+00 -0.11542393479E+04  0.11542393479E+04  0.00000000000E+00 0.  1.
         23    2    1    2    0    0 -0.47832945786E+03  0.86734716217E+03 -0.33687261611E+03  0.10502818225E+04  0.92296139127E+02 0.  0.
        254    2    1    2    0    0  0.47832945786E+03 -0.86734716217E+03  0.51125646893E+03  0.14325807261E+04  0.89989676615E+03 0.  0.
        -24    2    4    4    0    0 -0.11514863411E+03 -0.43526730699E+03 -0.10695609031E+03  0.46975422114E+03  0.80700598250E+02 0.  0.
         24    2    4    4    0    0  0.59347809197E+03 -0.43207985519E+03  0.61821255924E+03  0.96282650494E+03  0.77064020800E+02 0.  0.
         13    1    3    3    0    0 -0.41735144616E+03  0.68440612169E+03 -0.28226001299E+03  0.84986156752E+03  0.00000000000E+00 0.  1.
        -13    1    3    3    0    0 -0.60978011705E+02  0.18294104049E+03 -0.54612603118E+02  0.20042025503E+03  0.00000000000E+00 0. -1.
          4    1    6    6  502    0  0.57192245886E+03 -0.42820991117E+03  0.60996940395E+03  0.93942626146E+03  0.00000000000E+00 0. -1.
          3    1    5    5  503    0 -0.11483022360E+03 -0.43858240211E+03 -0.10365359929E+03  0.46506405186E+03  0.00000000000E+00 0. -1.
         -4    1    5    5    0  503 -0.31841051011E+00  0.33150951216E+01 -0.33024910197E+01  0.46901692777E+01  0.00000000000E+00 0.  1.
         -3    1    6    6    0  502  0.21555633117E+02 -0.38699440237E+01  0.82431552878E+01  0.23400243480E+02  0.00000000000E+00 0.  1.
<mgrwt>
<rscale>  0 0.24767311E+04</rscale>
<asrwt>0</asrwt>
<pdfrwt beam="1">  1        1 0.20440357E+00 0.24767311E+04</pdfrwt>
<pdfrwt beam="2">  1       -1 0.17757528E+00 0.24767311E+04</pdfrwt>
<totfact> 0.16645701E+00</totfact>
</mgrwt>
</event>
<event>
12    1  0.2214165E-007  0.2133993E+04  0.7818608E-02  0.8546415E-01
          2   -1    0    0  501    0  0.00000000000E+00  0.00000000000E+00  0.33570158678E+04  0.33570158678E+04  0.00000000000E+00 0. -1.
         -2   -1    0    0    0  501 -0.00000000000E+00 -0.00000000000E+00 -0.33913482944E+03  0.33913482944E+03  0.00000000000E+00 0.  1.
         23    2    1    2    0    0 -0.53153678941E+03  0.68216138008E+03  0.10137840974E+04  0.13355332377E+04  0.89528352580E+02 0.  0.
        254    2    1    2    0    0  0.53153678941E+03 -0.68216138008E+03  0.20040969410E+04  0.23606174595E+04  0.89901876203E+03 0.  0.
        -24    2    4    4    0    0 -0.11506923983E+03 -0.36900982743E+03  0.26128009284E+03  0.47346253122E+03  0.80562391114E+02 0.  0.
         24    2    4    4    0    0  0.64660602925E+03 -0.31315155265E+03  0.17428168481E+04  0.18871549283E+04  0.88203771708E+02 0.  0.
         11    1    3    3    0    0 -0.91292480159E+02  0.16381032904E+03  0.25583919218E+03  0.31720944672E+03  0.00000000000E+00 0. -1.
        -11    1    3    3    0    0 -0.44024430925E+03  0.51835105104E+03  0.75794490520E+03  0.10183237910E+04  0.00000000000E+00 0.  1.
          4    1    6    6  502    0  0.19986662650E+03 -0.13228610784E+03  0.51139888807E+03  0.56477881107E+03  0.00000000000E+00 0. -1.
          1    1    5    5  503    0 -0.90689125001E+02 -0.16523560135E+03  0.10726212365E+03  0.21686974090E+03  0.00000000000E+00 0. -1.
         -4    1    5    5    0  503 -0.24380114831E+02 -0.20377422608E+03  0.15401796919E+03  0.25659279033E+03  0.00000000000E+00 0.  1.
         -3    1    6    6    0  502  0.44673940275E+03 -0.18086544481E+03  0.12314179601E+04  0.13223761172E+04  0.00000000000E+00 0.  1.
<mgrwt>
<rscale>  0 0.21339925E+04</rscale>
<asrwt>0</asrwt>
<pdfrwt beam="1">  1        2 0.51646396E+00 0.21339925E+04</pdfrwt>
<pdfrwt beam="2">  1       -2 0.52174591E-01 0.21339925E+04</pdfrwt>
<totfact> 0.32606412E+00</totfact>
</mgrwt>
</event>
<event>
12    1  0.2214165E-007  0.2237694E+04  0.7818608E-02  0.8502901E-01
          2   -1    0    0  501    0  0.00000000000E+00  0.00000000000E+00  0.18873979806E+04  0.18873979806E+04  0.00000000000E+00 0. -1.
         -2   -1    0    0    0  501 -0.00000000000E+00 -0.00000000000E+00 -0.66325081681E+03  0.66325081681E+03  0.00000000000E+00 0.  1.
         23    2    1    2    0    0 -0.63915833290E+03  0.16185537025E+03  0.12858176103E+04  0.14479100889E+04  0.91630579873E+02 0.  0.
        254    2    1    2    0    0  0.63915833290E+03 -0.16185537025E+03 -0.61670446469E+02  0.11027387086E+04  0.88176463979E+03 0.  0.
        -24    2    4    4    0    0  0.66768500783E+03 -0.44480926616E+03 -0.52826653853E+02  0.80725101735E+03  0.72145663182E+02 0.  0.
         24    2    4    4    0    0 -0.28526674927E+02  0.28295389591E+03 -0.88437926168E+01  0.29548769121E+03  0.79737598378E+02 0.  0.
         11    1    3    3    0    0 -0.45616569352E+03  0.15760316604E+03  0.93451544709E+03  0.10517818304E+04  0.00000000000E+00 0. -1.
        -11    1    3    3    0    0 -0.18299263937E+03  0.42522042041E+01  0.35130216321E+03  0.39612825850E+03  0.00000000000E+00 0.  1.
          2    1    6    6  502    0 -0.25222003495E+02  0.19598458933E+02 -0.24261067187E+01  0.32033342734E+02  0.00000000000E+00 0. -1.
          3    1    5    5  503    0  0.25538362865E+03 -0.16378727679E+03 -0.54692092799E+02  0.30828281632E+03  0.00000000000E+00 0. -1.
         -4    1    5    5    0  503  0.41230137917E+03 -0.28102198936E+03  0.18654389467E+01  0.49896820103E+03  0.00000000000E+00 0.  1.
         -1    1    6    6    0  502 -0.33046714321E+01  0.26335543697E+03 -0.64176858981E+01  0.26345434847E+03  0.00000000000E+00 0.  1.
<mgrwt>
<rscale>  0 0.22376937E+04</rscale>
<asrwt>0</asrwt>
<pdfrwt beam="1">  1        2 0.29036892E+00 0.22376937E+04</pdfrwt>
<pdfrwt beam="2">  1       -2 0.10203859E+00 0.22376937E+04</pdfrwt>
<totfact> 0.55354866E+00</totfact>
</mgrwt>
</event>
<event>
12    1  0.2214165E-007  0.3838124E+04  0.7818608E-02  0.8038023E-01
          1   -1    0    0  501    0  0.00000000000E+00  0.00000000000E+00  0.25948561183E+04  0.25948561183E+04  0.00000000000E+00 0. -1.
         -1   -1    0    0    0  501 -0.00000000000E+00 -0.00000000000E+00 -0.14192688638E+04  0.14192688638E+04  0.00000000000E+00 0.  1.
         23    2    1    2    0    0 -0.11458008728E+04 -0.13919721084E+04  0.75043036190E+03  0.19552061110E+04  0.96120849131E+02 0.  0.
        254    2    1    2    0    0  0.11458008728E+04  0.13919721084E+04  0.42515689262E+03  0.20589188712E+04  0.89885624223E+03 0.  0.
        -24    2    4    4    0    0  0.88600067037E+03  0.10823506268E+04  0.69749583218E+03  0.15652686824E+04  0.84175679307E+02 0.  0.
         24    2    4    4    0    0  0.25980020241E+03  0.30962148159E+03 -0.27233893956E+03  0.49365018878E+03  0.78488240168E+02 0.  0.
         11    1    3    3    0    0 -0.73338685394E+03 -0.92823100488E+03  0.44969295393E+03  0.12655800365E+04  0.00000000000E+00 0.  1.
        -11    1    3    3    0    0 -0.41241401885E+03 -0.46374110352E+03  0.30073740798E+03  0.68962607447E+03  0.00000000000E+00 0. -1.
          4    1    6    6  502    0  0.11557403206E+03  0.15190895585E+03 -0.83054236496E+02  0.20816266225E+03  0.00000000000E+00 0. -1.
          3    1    5    5  503    0  0.17611329122E+02  0.45594045353E+02  0.24986586329E+02  0.54893582334E+02  0.00000000000E+00 0. -1.
         -4    1    5    5    0  503  0.86838934125E+03  0.10367565815E+04  0.67250924585E+03  0.15103751001E+04  0.00000000000E+00 0.  1.
         -3    1    6    6    0  502  0.14422617034E+03  0.15771252573E+03 -0.18928470307E+03  0.28548752652E+03  0.00000000000E+00 0.  1.
<mgrwt>
<rscale>  0 0.38381238E+04</rscale>
<asrwt>0</asrwt>
<pdfrwt beam="1">  1        1 0.39920863E+00 0.38381238E+04</pdfrwt>
<pdfrwt beam="2">  1       -1 0.21834906E+00 0.38381238E+04</pdfrwt>
<totfact> 0.10416756E-01</totfact>
</mgrwt>
</event>
<event>
12    1  0.2214165E-007  0.3752541E+04  0.7818608E-02  0.8056417E-01
          2   -1    0    0  501    0  0.00000000000E+00  0.00000000000E+00  0.19988602706E+04  0.19988602706E+04  0.00000000000E+00 0. -1.
         -2   -1    0    0    0  501 -0.00000000000E+00 -0.00000000000E+00 -0.17611992472E+04  0.17611992472E+04  0.00000000000E+00 0.  1.
         23    2    1    2    0    0 -0.78432622062E+03 -0.11028371690E+04  0.12509091119E+04  0.18452643433E+04  0.93858662880E+02 0.  0.
        254    2    1    2    0    0  0.78432622062E+03  0.11028371690E+04 -0.10132480886E+04  0.19147951745E+04  0.89908366104E+03 0.  0.
        -24    2    4    4    0    0  0.95683677460E+02  0.42089137915E+02  0.14721751962E+03  0.19656465044E+03  0.77703295011E+02 0.  0.
         24    2    4    4    0    0  0.68864254316E+03  0.10607480311E+04 -0.11604656082E+04  0.17182305240E+04  0.78871847008E+02 0.  0.
         13    1    3    3    0    0 -0.45436587220E+03 -0.57188301616E+03  0.63845491732E+03  0.97011505062E+03  0.00000000000E+00 0. -1.
        -13    1    3    3    0    0 -0.32996034842E+03 -0.53095415285E+03  0.61245419463E+03  0.87514929268E+03  0.00000000000E+00 0.  1.
          2    1    6    6  502    0  0.25183511474E+02  0.17047861358E+02 -0.27526107015E+02  0.41018598153E+02  0.00000000000E+00 0. -1.
          1    1    5    5  503    0  0.58087573685E+02  0.22827440346E+02  0.24965562916E+02  0.67220068291E+02  0.00000000000E+00 0. -1.
         -2    1    5    5    0  503  0.37596103776E+02  0.19261697569E+02  0.12225195671E+03  0.12934458215E+03  0.00000000000E+00 0.  1.
         -1    1    6    6    0  502  0.66345903168E+03  0.10437001697E+04 -0.11329395012E+04  0.16772119259E+04  0.00000000000E+00 0.  1.
<mgrwt>
<rscale>  0 0.37525411E+04</rscale>
<asrwt>0</asrwt>
<pdfrwt beam="1">  1        2 0.30751697E+00 0.37525411E+04</pdfrwt>
<pdfrwt beam="2">  1       -2 0.27095373E+00 0.37525411E+04</pdfrwt>
<totfact> 0.25757035E-01</totfact>
</mgrwt>
</event>
<event>
12    1  0.2214165E-007  0.1337890E+04  0.7818608E-02  0.9000046E-01
         -1   -1    0    0    0  501 -0.00000000000E+00  0.00000000000E+00  0.27191075168E+03  0.27191075168E+03  0.00000000000E+00 0.  1.
          1   -1    0    0  501    0  0.00000000000E+00 -0.00000000000E+00 -0.16457136069E+04  0.16457136069E+04  0.00000000000E+00 0. -1.
         23    2    1    2    0    0 -0.93646101781E+02 -0.26293905592E+03 -0.70057939691E+03  0.75953247442E+03  0.90396619522E+02 0.  0.
        254    2    1    2    0    0  0.93646101781E+02  0.26293905592E+03 -0.67322345831E+03  0.11580918841E+04  0.90002247073E+03 0.  0.
        -24    2    4    4    0    0  0.13878021524E+03  0.58448309369E+03 -0.40174797113E+03  0.72732468360E+03  0.81971507865E+02 0.  0.
         24    2    4    4    0    0 -0.45134113456E+02 -0.32154403778E+03 -0.27147548718E+03  0.43076720055E+03  0.80210875244E+02 0.  0.
         11    1    3    3    0    0  0.88302685236E+01 -0.60932357865E+02 -0.21639650404E+03  0.22498482802E+03  0.00000000000E+00 0. -1.
        -11    1    3    3    0    0 -0.10247637030E+03 -0.20200669805E+03 -0.48418289287E+03  0.53454764640E+03  0.00000000000E+00 0.  1.
          4    1    6    6  502    0  0.18109073543E+02 -0.56586978972E+02 -0.70815464741E+02  0.92438383696E+02  0.00000000000E+00 0. -1.
          1    1    5    5  503    0  0.33518849910E+02  0.29169782096E+03 -0.16910424142E+03  0.33883237230E+03  0.00000000000E+00 0. -1.
         -2    1    5    5    0  503  0.10526136533E+03  0.29278527273E+03 -0.23264372971E+03  0.38849231129E+03  0.00000000000E+00 0.  1.
         -3    1    6    6    0  502 -0.63243187000E+02 -0.26495705881E+03 -0.20066002244E+03  0.33832881686E+03  0.00000000000E+00 0.  1.
<mgrwt>
<rscale>  0 0.13378897E+04</rscale>
<asrwt>0</asrwt>
<pdfrwt beam="1">  1        1 0.25318671E+00 0.13378897E+04</pdfrwt>
<pdfrwt beam="2">  1       -1 0.41832424E-01 0.13378897E+04</pdfrwt>
<totfact> 0.28529785E+01</totfact>
</mgrwt>
</event>
<event>
12    1  0.2214165E-007  0.1963464E+04  0.7818608E-02  0.8623896E-01
         -2   -1    0    0    0  501 -0.00000000000E+00  0.00000000000E+00  0.82761403634E+03  0.82761403634E+03  0.00000000000E+00 0. -1.
          2   -1    0    0  501    0  0.00000000000E+00 -0.00000000000E+00 -0.11645496137E+04  0.11645496137E+04  0.00000000000E+00 0.  1.
         23    2    1    2    0    0 -0.32987289371E+03  0.49349012533E+03 -0.63565298692E+03  0.87385876416E+03  0.85004647641E+02 0.  0.
        254    2    1    2    0    0  0.32987289371E+03 -0.49349012533E+03  0.29871740952E+03  0.11183048859E+04  0.89945822432E+03 0.  0.
        -24    2    4    4    0    0 -0.37038322184E+02 -0.53171999125E+03  0.45938228325E+03  0.70819723415E+03  0.80082793966E+02 0.  0.
         24    2    4    4    0    0  0.36691121589E+03  0.38229865922E+02 -0.16066487373E+03  0.41010765176E+03  0.79307763708E+02 0.  0.
         13    1    3    3    0    0 -0.18924185223E+03  0.21323406787E+03 -0.32777710269E+03  0.43441808823E+03  0.00000000000E+00 0.  1.
        -13    1    3    3    0    0 -0.14063104148E+03  0.28025605747E+03 -0.30787588423E+03  0.43944067594E+03  0.00000000000E+00 0. -1.
          2    1    6    6  502    0  0.38104528456E+02  0.28746323734E+02 -0.28595022187E+02  0.55641544829E+02  0.00000000000E+00 0. -1.
          3    1    5    5  503    0  0.11085743611E+02 -0.35627462515E+03  0.28793846466E+03  0.45821726470E+03  0.00000000000E+00 0. -1.
         -4    1    5    5    0  503 -0.48124065795E+02 -0.17544536610E+03  0.17144381859E+03  0.24997996945E+03  0.00000000000E+00 0.  1.
         -1    1    6    6    0  502  0.32880668744E+03  0.94835421882E+01 -0.13206985154E+03  0.35446610693E+03  0.00000000000E+00 0.  1.
<mgrwt>
<rscale>  0 0.19634639E+04</rscale>
<asrwt>0</asrwt>
<pdfrwt beam="1">  1        2 0.17916148E+00 0.19634639E+04</pdfrwt>
<pdfrwt beam="2">  1       -2 0.12732524E+00 0.19634639E+04</pdfrwt>
<totfact> 0.84865257E+00</totfact>
</mgrwt>
</event>
<event>
12    1  0.2214165E-007  0.1578937E+04  0.7818608E-02  0.8833594E-01
         -1   -1    0    0    0  501 -0.00000000000E+00  0.00000000000E+00  0.39479095397E+03  0.39479095397E+03  0.00000000000E+00 0.  1.
          1   -1    0    0  501    0  0.00000000000E+00 -0.00000000000E+00 -0.15787092174E+04  0.15787092174E+04  0.00000000000E+00 0. -1.
         23    2    1    2    0    0  0.45822636853E+03  0.93768296785E+02 -0.93782825678E+02  0.48581735335E+03  0.91974910299E+02 0.  0.
        254    2    1    2    0    0 -0.45822636853E+03 -0.93768296785E+02 -0.10901354377E+04  0.14876828180E+04  0.89779785926E+03 0.  0.
        -24    2    4    4    0    0 -0.30601224754E+03  0.24692907799E+03 -0.10248629897E+04  0.11006053174E+04  0.79815110492E+02 0.  0.
         24    2    4    4    0    0 -0.15221412099E+03 -0.34069737477E+03 -0.65272448017E+02  0.38707750058E+03  0.79527725845E+02 0.  0.
         13    1    3    3    0    0  0.32204396709E+03  0.58260876656E+02 -0.22460723081E+02  0.32804135497E+03  0.00000000000E+00 0.  1.
        -13    1    3    3    0    0  0.13618240144E+03  0.35507420129E+02 -0.71322102597E+02  0.15777599838E+03  0.00000000000E+00 0. -1.
          4    1    6    6  502    0 -0.81482421075E+02 -0.25934762474E+03 -0.29236681184E+02  0.27341426248E+03  0.00000000000E+00 0. -1.
          3    1    5    5  503    0 -0.22736564101E+03  0.19097884645E+03 -0.66997182625E+03  0.73282351387E+03  0.00000000000E+00 0. -1.
         -4    1    5    5    0  503 -0.78646606531E+02  0.55950231538E+02 -0.35489116344E+03  0.36778180355E+03  0.00000000000E+00 0.  1.
         -3    1    6    6    0  502 -0.70731699915E+02 -0.81349750036E+02 -0.36035766833E+02  0.11366323810E+03  0.00000000000E+00 0.  1.
<mgrwt>
<rscale>  0 0.15789365E+04</rscale>
<asrwt>0</asrwt>
<pdfrwt beam="1">  1        1 0.24287834E+00 0.15789365E+04</pdfrwt>
<pdfrwt beam="2">  1       -1 0.60737070E-01 0.15789365E+04</pdfrwt>
<totfact> 0.15249902E+01</totfact>
</mgrwt>
</event>
<event>
12    1  0.2214165E-007  0.1671374E+04  0.7818608E-02  0.8777861E-01
         -2   -1    0    0    0  501 -0.00000000000E+00  0.00000000000E+00  0.23752416898E+03  0.23752416898E+03  0.00000000000E+00 0.  1.
          2   -1    0    0  501    0  0.00000000000E+00 -0.00000000000E+00 -0.29402178524E+04  0.29402178524E+04  0.00000000000E+00 0. -1.
         23    2    1    2    0    0 -0.30849497369E+03 -0.50032775961E+03 -0.92590971383E+03  0.11007122762E+04  0.93603958158E+02 0.  0.
        254    2    1    2    0    0  0.30849497369E+03  0.50032775961E+03 -0.17767839696E+04  0.20770297452E+04  0.90088527128E+03 0.  0.
        -24    2    4    4    0    0 -0.19620374336E+03  0.23598653629E+03 -0.14951657827E+03  0.35102818906E+03  0.81731438966E+02 0.  0.
         24    2    4    4    0    0  0.50469871705E+03  0.26434122331E+03 -0.16272673913E+04  0.17260015561E+04  0.80530314695E+02 0.  0.
         11    1    3    3    0    0 -0.24667839452E+03 -0.44785935370E+03 -0.83294508558E+03  0.97735650947E+03  0.00000000000E+00 0. -1.
        -11    1    3    3    0    0 -0.61816579165E+02 -0.52468405907E+02 -0.92964628252E+02  0.12335576672E+03  0.00000000000E+00 0.  1.
          4    1    6    6  502    0  0.11232721811E+02  0.24020547264E+02 -0.73327392790E+02  0.77974786076E+02  0.00000000000E+00 0. -1.
          1    1    5    5  503    0 -0.44977691136E+02  0.98461838175E+02 -0.23093620677E+02  0.11068442344E+03  0.00000000000E+00 0. -1.
         -2    1    5    5    0  503 -0.15122605223E+03  0.13752469812E+03 -0.12642295759E+03  0.24034376562E+03  0.00000000000E+00 0.  1.
         -3    1    6    6    0  502  0.49346599524E+03  0.24032067605E+03 -0.15539399985E+04  0.16480267701E+04  0.00000000000E+00 0.  1.
<mgrwt>
<rscale>  0 0.16713740E+04</rscale>
<asrwt>0</asrwt>
<pdfrwt beam="1">  1        2 0.45234121E+00 0.16713740E+04</pdfrwt>
<pdfrwt beam="2">  1       -2 0.36542179E-01 0.16713740E+04</pdfrwt>
<totfact> 0.12818057E+01</totfact>
</mgrwt>
</event>
<event>
12    1  0.2214165E-007  0.3263859E+04  0.7818608E-02  0.8172153E-01
         -1   -1    0    0    0  501 -0.00000000000E+00  0.00000000000E+00  0.67659596138E+03  0.67659596138E+03  0.00000000000E+00 0.  1.
          1   -1    0    0  501    0  0.00000000000E+00 -0.00000000000E+00 -0.39361655011E+04  0.39361655011E+04  0.00000000000E+00 0. -1.
         23    2    1    2    0    0 -0.37711940753E+03 -0.13599248582E+04 -0.22583577281E+04  0.26644714297E+04  0.87256542742E+02 0.  0.
        254    2    1    2    0    0  0.37711940753E+03  0.13599248582E+04 -0.10012118116E+04  0.19482900327E+04  0.89542966912E+03 0.  0.
        -24    2    4    4    0    0 -0.19497842116E+03  0.91011003253E+02 -0.32920425419E+03  0.40066665609E+03  0.76542412386E+02 0.  0.
         24    2    4    4    0    0  0.57209782869E+03  0.12689138550E+04 -0.67200755739E+03  0.15476233766E+04  0.78138733833E+02 0.  0.
         13    1    3    3    0    0 -0.77629749705E+02 -0.20773166495E+03 -0.30894784574E+03  0.38029934795E+03  0.00000000000E+00 0.  1.
        -13    1    3    3    0    0 -0.29948965783E+03 -0.11521931933E+04 -0.19494098824E+04  0.22841720818E+04  0.00000000000E+00 0. -1.
          2    1    6    6  502    0  0.55611082861E+03  0.12503966984E+04 -0.66805574338E+03  0.15228426160E+04  0.00000000000E+00 0. -1.
          3    1    5    5  503    0 -0.17514330407E+03  0.10489058040E+03 -0.29603021717E+03  0.35959852655E+03  0.00000000000E+00 0. -1.
         -4    1    5    5    0  503 -0.19835117092E+02 -0.13879577150E+02 -0.33174037026E+02  0.41068129547E+02  0.00000000000E+00 0.  1.
         -1    1    6    6    0  502  0.15987000083E+02  0.18517156617E+02 -0.39518140026E+01  0.24780760577E+02  0.00000000000E+00 0.  1.
<mgrwt>
<rscale>  0 0.32638589E+04</rscale>
<asrwt>0</asrwt>
<pdfrwt beam="1">  1        1 0.60556390E+00 0.32638589E+04</pdfrwt>
<pdfrwt beam="2">  1       -1 0.10409169E+00 0.32638589E+04</pdfrwt>
<totfact> 0.78727054E-02</totfact>
</mgrwt>
</event>
<event>
12    1  0.2214165E-007  0.4514034E+04  0.7818608E-02  0.7908185E-01
         -2   -1    0    0    0  501 -0.00000000000E+00  0.00000000000E+00  0.20229299993E+04  0.20229299993E+04  0.00000000000E+00 0.  1.
          2   -1    0    0  501    0  0.00000000000E+00 -0.00000000000E+00 -0.25181912730E+04  0.25181912730E+04  0.00000000000E+00 0. -1.
         23    2    1    2    0    0  0.66972731094E+03  0.17722851528E+04  0.81911199801E+03  0.20660701045E+04  0.90398438031E+02 0.  0.
        254    2    1    2    0    0 -0.66972731094E+03 -0.17722851528E+04 -0.13143732718E+04  0.24750511678E+04  0.89931743653E+03 0.  0.
        -24    2    4    4    0    0 -0.19315918448E+03 -0.13275673551E+04 -0.51172121187E+03  0.14381388903E+04  0.81481999345E+02 0.  0.
         24    2    4    4    0    0 -0.47656812646E+03 -0.44471779775E+03 -0.80265205989E+03  0.10369122775E+04  0.77753734345E+02 0.  0.
         13    1    3    3    0    0  0.24409544539E+03  0.53486190424E+03  0.23835294084E+03  0.63440678391E+03  0.00000000000E+00 0.  1.
        -13    1    3    3    0    0  0.42563186555E+03  0.12374232486E+04  0.58075905717E+03  0.14316633206E+04  0.00000000000E+00 0. -1.
          4    1    6    6  502    0 -0.34252406549E+03 -0.29093602226E+03 -0.59695257366E+03  0.74720738733E+03  0.00000000000E+00 0. -1.
          1    1    5    5  503    0 -0.15367043554E+03 -0.78678978920E+03 -0.31558977952E+03  0.86153913672E+03  0.00000000000E+00 0. -1.
         -2    1    5    5    0  503 -0.39488748932E+02 -0.54077756586E+03 -0.19613143235E+03  0.57659975354E+03  0.00000000000E+00 0.  1.
         -3    1    6    6    0  502 -0.13404406098E+03 -0.15378177549E+03 -0.20569948623E+03  0.28970489017E+03  0.00000000000E+00 0.  1.
<mgrwt>
<rscale>  0 0.45140335E+04</rscale>
<asrwt>0</asrwt>
<pdfrwt beam="1">  1        2 0.38741404E+00 0.45140335E+04</pdfrwt>
<pdfrwt beam="2">  1       -2 0.31122000E+00 0.45140335E+04</pdfrwt>
<totfact> 0.69741524E-02</totfact>
</mgrwt>
</event>
<event>
12    1  0.2214165E-007  0.4686325E+04  0.7818608E-02  0.7878805E-01
          2   -1    0    0  501    0  0.00000000000E+00  0.00000000000E+00  0.29153415719E+04  0.29153415719E+04  0.00000000000E+00 0. -1.
         -2   -1    0    0    0  501 -0.00000000000E+00 -0.00000000000E+00 -0.18832818077E+04  0.18832818077E+04  0.00000000000E+00 0.  1.
         23    2    1    2    0    0  0.19275365616E+04 -0.37073574542E+03 -0.64120437031E+03  0.20671480430E+04  0.95476687132E+02 0.  0.
        254    2    1    2    0    0 -0.19275365616E+04  0.37073574542E+03  0.16732641345E+04  0.27314753365E+04  0.89905642804E+03 0.  0.
        -24    2    4    4    0    0 -0.33572490690E+03  0.27662488909E+03  0.34555489583E+02  0.44354972653E+03  0.79433844601E+02 0.  0.
         24    2    4    4    0    0 -0.15918116547E+04  0.94110856335E+02  0.16387086450E+04  0.22879256100E+04  0.80724076033E+02 0.  0.
         11    1    3    3    0    0  0.13506165463E+04 -0.23784091487E+03 -0.40749182065E+03  0.14306582191E+04  0.00000000000E+00 0. -1.
        -11    1    3    3    0    0  0.57692001538E+03 -0.13289483055E+03 -0.23371254966E+03  0.63648982396E+03  0.00000000000E+00 0.  1.
          4    1    6    6  502    0 -0.11733551939E+04  0.86790655006E+02  0.12523663321E+04  0.17183470135E+04  0.00000000000E+00 0. -1.
          3    1    5    5  503    0 -0.29986428950E+03  0.26540355011E+03  0.13937108386E+02  0.40068925556E+03  0.00000000000E+00 0. -1.
         -4    1    5    5    0  503 -0.35860617405E+02  0.11221338977E+02  0.20618381197E+02  0.42860470975E+02  0.00000000000E+00 0.  1.
         -3    1    6    6    0  502 -0.41845646080E+03  0.73202013295E+01  0.38634231290E+03  0.56957859657E+03  0.00000000000E+00 0.  1.
<mgrwt>
<rscale>  0 0.46863247E+04</rscale>
<asrwt>0</asrwt>
<pdfrwt beam="1">  1        2 0.44851409E+00 0.46863247E+04</pdfrwt>
<pdfrwt beam="2">  1       -2 0.28973566E+00 0.46863247E+04</pdfrwt>
<totfact> 0.53866228E-02</totfact>
</mgrwt>
</event>
<event>
12    1  0.2214165E-007  0.1431781E+04  0.7818608E-02  0.8931130E-01
          1   -1    0    0  501    0  0.00000000000E+00  0.00000000000E+00  0.21506123503E+04  0.21506123503E+04  0.00000000000E+00 0. -1.
         -1   -1    0    0    0  501 -0.00000000000E+00 -0.00000000000E+00 -0.23830383778E+03  0.23830383778E+03  0.00000000000E+00 0.  1.
         23    2    1    2    0    0 -0.13440687110E+03  0.33287421012E+03  0.96634890261E+03  0.10348424051E+04  0.90543663588E+02 0.  0.
        254    2    1    2    0    0  0.13440687110E+03 -0.33287421012E+03  0.94595960995E+03  0.13540737830E+04  0.89989209324E+03 0.  0.
        -24    2    4    4    0    0  0.15977610357E+03  0.22439030148E+03  0.43418652500E+02  0.29010052997E+03  0.79960786832E+02 0.  0.
         24    2    4    4    0    0 -0.25369232472E+02 -0.55726451160E+03  0.90254095745E+03  0.10639732531E+04  0.79193241607E+02 0.  0.
         13    1    3    3    0    0 -0.38104443561E+02  0.18083290751E+03  0.40094094240E+03  0.44148174181E+03  0.00000000000E+00 0. -1.
        -13    1    3    3    0    0 -0.96302427534E+02  0.15204130260E+03  0.56540796022E+03  0.59336066328E+03  0.00000000000E+00 0.  1.
          2    1    6    6  502    0 -0.44452884889E+02 -0.23338797764E+03  0.41908243295E+03  0.48174276610E+03  0.00000000000E+00 0. -1.
          1    1    5    5  503    0  0.13098292127E+03  0.17508594037E+03  0.47802011380E+00  0.21865918842E+03  0.00000000000E+00 0. -1.
         -2    1    5    5    0  503  0.28793182301E+02  0.49304361118E+02  0.42940632386E+02  0.71441341546E+02  0.00000000000E+00 0.  1.
         -1    1    6    6    0  502  0.19083652417E+02 -0.32387653396E+03  0.48345852450E+03  0.58223048697E+03  0.00000000000E+00 0.  1.
<mgrwt>
<rscale>  0 0.14317810E+04</rscale>
<asrwt>0</asrwt>
<pdfrwt beam="1">  1        1 0.33086343E+00 0.14317810E+04</pdfrwt>
<pdfrwt beam="2">  1       -1 0.36662130E-01 0.14317810E+04</pdfrwt>
<totfact> 0.16365627E+01</totfact>
</mgrwt>
</event>
<event>
12    1  0.2214165E-007  0.1600246E+04  0.7818608E-02  0.8820397E-01
         -3   -1    0    0    0  501 -0.00000000000E+00  0.00000000000E+00  0.50555407639E+03  0.50555407639E+03  0.00000000000E+00 0.  1.
          3   -1    0    0  501    0  0.00000000000E+00 -0.00000000000E+00 -0.12663267344E+04  0.12663267344E+04  0.00000000000E+00 0. -1.
         23    2    1    2    0    0 -0.24808404821E+03 -0.62190850258E+02 -0.79071596543E+03  0.83598639228E+03  0.90708948064E+02 0.  0.
        254    2    1    2    0    0  0.24808404821E+03  0.62190850258E+02  0.29943307398E+02  0.93589441852E+03  0.89977128435E+03 0.  0.
        -24    2    4    4    0    0  0.38201743206E+03  0.38351814144E+03 -0.98608233839E+02  0.55595945646E+03  0.79648290841E+02 0.  0.
         24    2    4    4    0    0 -0.13393338384E+03 -0.32132729119E+03  0.12855154124E+03  0.37993496207E+03  0.81459789323E+02 0.  0.
         13    1    3    3    0    0 -0.10792345614E+03  0.15925556284E+02 -0.27358915240E+03  0.29453712846E+03  0.00000000000E+00 0. -1.
        -13    1    3    3    0    0 -0.14016059207E+03 -0.78116406542E+02 -0.51712681302E+03  0.54144926382E+03  0.00000000000E+00 0.  1.
          4    1    6    6  502    0  0.97972457783E+01 -0.76715261196E+01  0.58097035996E+01  0.13732843615E+02  0.00000000000E+00 0. -1.
          3    1    5    5  503    0  0.16828769523E+02  0.36209003231E+02  0.82806707086E+01  0.40778289640E+02  0.00000000000E+00 0. -1.
         -4    1    5    5    0  503  0.36518866253E+03  0.34730913821E+03 -0.10688890455E+03  0.51518116682E+03  0.00000000000E+00 0.  1.
         -3    1    6    6    0  502 -0.14373062962E+03 -0.31365576507E+03  0.12274183764E+03  0.36620211845E+03  0.00000000000E+00 0.  1.
<mgrwt>
<rscale>  0 0.16002458E+04</rscale>
<asrwt>0</asrwt>
<pdfrwt beam="1">  1        3 0.19481950E+00 0.16002458E+04</pdfrwt>
<pdfrwt beam="2">  1       -3 0.77777551E-01 0.16002458E+04</pdfrwt>
<totfact> 0.61777810E-01</totfact>
</mgrwt>
</event>
<event>
12    1  0.2214165E-007  0.1408024E+04  0.7818608E-02  0.8948031E-01
         -2   -1    0    0    0  501 -0.00000000000E+00  0.00000000000E+00  0.73251674768E+03  0.73251674768E+03  0.00000000000E+00 0. -1.
          2   -1    0    0  501    0  0.00000000000E+00 -0.00000000000E+00 -0.67661636716E+03  0.67661636716E+03  0.00000000000E+00 0.  1.
         23    2    1    2    0    0 -0.92655487299E+02 -0.50068946898E+02 -0.38771312493E+03  0.41213830105E+03  0.91894358783E+02 0.  0.
        254    2    1    2    0    0  0.92655487299E+02  0.50068946898E+02  0.44361350545E+03  0.99699481380E+03  0.88663057569E+03 0.  0.
        -24    2    4    4    0    0  0.40094733728E+03  0.50058974973E+02 -0.44177734682E+02  0.41479934163E+03  0.82717309682E+02 0.  0.
         24    2    4    4    0    0 -0.30829184999E+03  0.99719248551E-02  0.48779124014E+03  0.58219547217E+03  0.77249006436E+02 0.  0.
         13    1    3    3    0    0 -0.10474604078E+03 -0.48471970658E+02 -0.38124674639E+03  0.39833446578E+03  0.00000000000E+00 0.  1.
        -13    1    3    3    0    0  0.12090553478E+02 -0.15969762397E+01 -0.64663785387E+01  0.13803835261E+02  0.00000000000E+00 0. -1.
          2    1    6    6  502    0 -0.11361959586E+03 -0.19822874913E+02  0.24153796261E+03  0.26766200014E+03  0.00000000000E+00 0. -1.
          3    1    5    5  503    0  0.13855126572E+03  0.17462448677E+02 -0.55188667519E+02  0.15015718221E+03  0.00000000000E+00 0. -1.
         -4    1    5    5    0  503  0.26239607156E+03  0.32596526295E+02  0.11010932838E+02  0.26464215942E+03  0.00000000000E+00 0.  1.
         -1    1    6    6    0  502 -0.19467225412E+03  0.19832846838E+02  0.24625327752E+03  0.31453347203E+03  0.00000000000E+00 0.  1.
<mgrwt>
<rscale>  0 0.14080239E+04</rscale>
<asrwt>0</asrwt>
<pdfrwt beam="1">  1        2 0.10409483E+00 0.14080239E+04</pdfrwt>
<pdfrwt beam="2">  1       -2 0.11269488E+00 0.14080239E+04</pdfrwt>
<totfact> 0.25772485E+01</totfact>
</mgrwt>
</event>
<event>
12    1  0.2214165E-007  0.5837794E+04  0.7818608E-02  0.7710845E-01
          2   -1    0    0  501    0  0.00000000000E+00  0.00000000000E+00  0.40823065953E+04  0.40823065953E+04  0.00000000000E+00 0. -1.
         -2   -1    0    0    0  501 -0.00000000000E+00 -0.00000000000E+00 -0.20870457272E+04  0.20870457272E+04  0.00000000000E+00 0.  1.
         23    2    1    2    0    0  0.21628011380E+04  0.30161041896E+03  0.29073927673E+04  0.36372061189E+04  0.87510233693E+02 0.  0.
        254    2    1    2    0    0 -0.21628011380E+04 -0.30161041896E+03 -0.91213189917E+03  0.25321462037E+04  0.90061211856E+03 0.  0.
        -24    2    4    4    0    0 -0.16722318338E+04  0.15086981178E+03 -0.55515343014E+03  0.17702114339E+04  0.79575019544E+02 0.  0.
         24    2    4    4    0    0 -0.49056930413E+03 -0.45248023074E+03 -0.35697846903E+03  0.76193476972E+03  0.87831455569E+02 0.  0.
         13    1    3    3    0    0  0.61693135748E+03  0.53559718667E+02  0.86233910916E+03  0.10616504521E+04  0.00000000000E+00 0.  1.
        -13    1    3    3    0    0  0.15458697805E+04  0.24805070029E+03  0.20450536581E+04  0.25755556668E+04  0.00000000000E+00 0. -1.
          2    1    6    6  502    0 -0.35971241556E+03 -0.30329552857E+03 -0.28895931986E+03  0.55215820929E+03  0.00000000000E+00 0. -1.
          3    1    5    5  503    0 -0.13531406636E+04  0.14419739913E+03 -0.42619660651E+03  0.14259825009E+04  0.00000000000E+00 0. -1.
         -4    1    5    5    0  503 -0.31909117021E+03  0.66724126486E+01 -0.12895682363E+03  0.34422893306E+03  0.00000000000E+00 0.  1.
         -1    1    6    6    0  502 -0.13085688857E+03 -0.14918470217E+03 -0.68019149163E+02  0.20977656042E+03  0.00000000000E+00 0.  1.
<mgrwt>
<rscale>  0 0.58377943E+04</rscale>
<asrwt>0</asrwt>
<pdfrwt beam="1">  1        2 0.62804717E+00 0.58377943E+04</pdfrwt>
<pdfrwt beam="2">  1       -2 0.32108396E+00 0.58377943E+04</pdfrwt>
<totfact> 0.46765462E-03</totfact>
</mgrwt>
</event>
<event>
12    1  0.2214165E-007  0.1648089E+04  0.7818608E-02  0.8791538E-01
         -1   -1    0    0    0  501 -0.00000000000E+00  0.00000000000E+00  0.63455710846E+03  0.63455710846E+03  0.00000000000E+00 0.  1.
          1   -1    0    0  501    0  0.00000000000E+00 -0.00000000000E+00 -0.10701153016E+04  0.10701153016E+04  0.00000000000E+00 0. -1.
         23    2    1    2    0    0  0.16149995306E+03  0.54723202880E+03 -0.95950897802E+02  0.58577477632E+03  0.91544446007E+02 0.  0.
        254    2    1    2    0    0 -0.16149995306E+03 -0.54723202880E+03 -0.33960729535E+03  0.11188976338E+04  0.90058518287E+03 0.  0.
        -24    2    4    4    0    0 -0.38934012795E+03 -0.16055524310E+03 -0.47865518485E+03  0.64250626668E+03  0.79622832276E+02 0.  0.
         24    2    4    4    0    0  0.22784017489E+03 -0.38667678570E+03  0.13904788951E+03  0.47639136708E+03  0.78640556695E+02 0.  0.
         13    1    3    3    0    0  0.34832104977E+02  0.24610983298E+03 -0.69128402682E+02  0.25799624316E+03  0.00000000000E+00 0. -1.
        -13    1    3    3    0    0  0.12666784809E+03  0.30112219582E+03 -0.26822495120E+02  0.32777853316E+03  0.00000000000E+00 0.  1.
          4    1    6    6  502    0  0.21541067504E+02 -0.37409850311E+02 -0.98596063835E+01  0.44280089516E+02  0.00000000000E+00 0. -1.
          1    1    5    5  503    0 -0.25635366247E+03 -0.11241787682E+03 -0.37105457344E+03  0.46479724156E+03  0.00000000000E+00 0. -1.
         -2    1    5    5    0  503 -0.13298646548E+03 -0.48137366286E+02 -0.10760061141E+03  0.17770902512E+03  0.00000000000E+00 0.  1.
         -3    1    6    6    0  502  0.20629910739E+03 -0.34926693539E+03  0.14890749589E+03  0.43211127756E+03  0.00000000000E+00 0.  1.
<mgrwt>
<rscale>  0 0.16480889E+04</rscale>
<asrwt>0</asrwt>
<pdfrwt beam="1">  1        1 0.16463312E+00 0.16480889E+04</pdfrwt>
<pdfrwt beam="2">  1       -1 0.97624172E-01 0.16480889E+04</pdfrwt>
<totfact> 0.12855861E+01</totfact>
</mgrwt>
</event>
<event>
12    1  0.2214165E-007  0.1352861E+04  0.7818608E-02  0.8988665E-01
          1   -1    0    0  501    0  0.00000000000E+00  0.00000000000E+00  0.16008479444E+04  0.16008479444E+04  0.00000000000E+00 0. -1.
         -1   -1    0    0    0  501 -0.00000000000E+00 -0.00000000000E+00 -0.28582225969E+03  0.28582225969E+03  0.00000000000E+00 0.  1.
         23    2    1    2    0    0 -0.21229728103E+03  0.22314013902E+03  0.65776115353E+03  0.73065889026E+03  0.79693297368E+02 0.  0.
        254    2    1    2    0    0  0.21229728103E+03 -0.22314013902E+03  0.65726453121E+03  0.11560113139E+04  0.89972431145E+03 0.  0.
        -24    2    4    4    0    0  0.89978697847E+01  0.33757639495E+03  0.20630313751E+03  0.40366313992E+03  0.79650247277E+02 0.  0.
         24    2    4    4    0    0  0.20329941124E+03 -0.56071653398E+03  0.45096139370E+03  0.75234817395E+03  0.83234092484E+02 0.  0.
         11    1    3    3    0    0 -0.77030576316E+02  0.32758011229E+02  0.15033488290E+03  0.17206793427E+03  0.00000000000E+00 0.  1.
        -11    1    3    3    0    0 -0.13526670471E+03  0.19038212779E+03  0.50742627063E+03  0.55859095599E+03  0.00000000000E+00 0. -1.
          2    1    6    6  502    0  0.92573940392E+02 -0.18321030525E+03  0.19410717908E+03  0.28251291539E+03  0.00000000000E+00 0. -1.
          3    1    5    5  503    0 -0.14634748837E+02  0.69783904130E+02  0.12826622366E+02  0.72446472589E+02  0.00000000000E+00 0. -1.
         -4    1    5    5    0  503  0.23632618622E+02  0.26779249082E+03  0.19347651515E+03  0.33121666733E+03  0.00000000000E+00 0.  1.
         -1    1    6    6    0  502  0.11072547085E+03 -0.37750622872E+03  0.25685421462E+03  0.46983525856E+03  0.00000000000E+00 0.  1.
<mgrwt>
<rscale>  0 0.13528606E+04</rscale>
<asrwt>0</asrwt>
<pdfrwt beam="1">  1        1 0.24628429E+00 0.13528606E+04</pdfrwt>
<pdfrwt beam="2">  1       -1 0.43972656E-01 0.13528606E+04</pdfrwt>
<totfact> 0.27884350E+01</totfact>
</mgrwt>
</event>
<event>
12    1  0.2214165E-007  0.1708013E+04  0.7818608E-02  0.8756807E-01
         -1   -1    0    0    0  501 -0.00000000000E+00  0.00000000000E+00  0.13142464354E+04  0.13142464354E+04  0.00000000000E+00 0.  1.
          1   -1    0    0  501    0  0.00000000000E+00 -0.00000000000E+00 -0.55493968009E+03  0.55493968009E+03  0.00000000000E+00 0. -1.
         23    2    1    2    0    0  0.22894557862E+03 -0.18683228844E+03 -0.31704734212E+03  0.44342397332E+03  0.93719907136E+02 0.  0.
        254    2    1    2    0    0 -0.22894557862E+03  0.18683228844E+03  0.10763540975E+04  0.14257621422E+04  0.88709478694E+03 0.  0.
        -24    2    4    4    0    0  0.16891456697E+03  0.42169525196E+03  0.46056055299E+03  0.65206775102E+03  0.81959212348E+02 0.  0.
         24    2    4    4    0    0 -0.39786014559E+03 -0.23486296352E+03  0.61579354447E+03  0.77369439117E+03  0.77123371553E+02 0.  0.
         13    1    3    3    0    0  0.19195168013E+03 -0.11515924189E+03 -0.19354579440E+03  0.29591734155E+03  0.00000000000E+00 0.  1.
        -13    1    3    3    0    0  0.36993898488E+02 -0.71673046550E+02 -0.12350154772E+03  0.14750663177E+03  0.00000000000E+00 0. -1.
          2    1    6    6  502    0 -0.34562261913E+03 -0.17096597294E+03  0.51709085011E+03  0.64503279453E+03  0.00000000000E+00 0. -1.
          1    1    5    5  503    0  0.17124933251E+03  0.40854241390E+03  0.42421319299E+03  0.61334335486E+03  0.00000000000E+00 0. -1.
         -4    1    5    5    0  503 -0.23347655412E+01  0.13152838062E+02  0.36347360002E+02  0.38724396165E+02  0.00000000000E+00 0.  1.
         -1    1    6    6    0  502 -0.52237526458E+02 -0.63896990577E+02  0.98702694362E+02  0.12866159664E+03  0.00000000000E+00 0.  1.
<mgrwt>
<rscale>  0 0.17080135E+04</rscale>
<asrwt>0</asrwt>
<pdfrwt beam="1">  1        1 0.85375336E-01 0.17080135E+04</pdfrwt>
<pdfrwt beam="2">  1       -1 0.20219176E+00 0.17080135E+04</pdfrwt>
<totfact> 0.52937320E+00</totfact>
</mgrwt>
</event>
<event>
12    1  0.2214165E-007  0.2556809E+04  0.7818608E-02  0.8383022E-01
         -2   -1    0    0    0  501 -0.00000000000E+00  0.00000000000E+00  0.54726518088E+03  0.54726518088E+03  0.00000000000E+00 0.  1.
          2   -1    0    0  501    0  0.00000000000E+00 -0.00000000000E+00 -0.29863358287E+04  0.29863358287E+04  0.00000000000E+00 0. -1.
         23    2    1    2    0    0  0.43434129492E+03 -0.95165065752E+03 -0.52507622901E+03  0.11740907394E+04  0.92155757938E+02 0.  0.
        254    2    1    2    0    0 -0.43434129492E+03  0.95165065752E+03 -0.19139944188E+04  0.23595102701E+04  0.89979038957E+03 0.  0.
        -24    2    4    4    0    0 -0.64065317256E+02  0.89746491017E+03 -0.89724500053E+03  0.12731830914E+04  0.79993520983E+02 0.  0.
         24    2    4    4    0    0 -0.37027597767E+03  0.54185747353E+02 -0.10167494182E+04  0.10863271787E+04  0.79290382892E+02 0.  0.
         11    1    3    3    0    0  0.37864798115E+03 -0.86526432149E+03 -0.44648240701E+03  0.10447024358E+04  0.00000000000E+00 0.  1.
        -11    1    3    3    0    0  0.55693313779E+02 -0.86386336031E+02 -0.78593821994E+02  0.12938830360E+03  0.00000000000E+00 0. -1.
          2    1    6    6  502    0 -0.11891428036E+03  0.51580927835E+02 -0.30115907045E+03  0.32786885168E+03  0.00000000000E+00 0. -1.
          1    1    5    5  503    0  0.13433715059E+02  0.97546453006E+02 -0.78627258727E+02  0.12600801962E+03  0.00000000000E+00 0. -1.
         -2    1    5    5    0  503 -0.77499032316E+02  0.79991845716E+03 -0.81861774180E+03  0.11471750718E+04  0.00000000000E+00 0.  1.
         -1    1    6    6    0  502 -0.25136169731E+03  0.26048195178E+01 -0.71559034779E+03  0.75845832701E+03  0.00000000000E+00 0.  1.
<mgrwt>
<rscale>  0 0.25568086E+04</rscale>
<asrwt>0</asrwt>
<pdfrwt beam="1">  1        2 0.45943628E+00 0.25568086E+04</pdfrwt>
<pdfrwt beam="2">  1       -2 0.84194644E-01 0.25568086E+04</pdfrwt>
<totfact> 0.19410825E+00</totfact>
</mgrwt>
</event>
<event>
12    1  0.2214165E-007  0.1645479E+04  0.7818608E-02  0.8793085E-01
         -1   -1    0    0    0  501 -0.00000000000E+00  0.00000000000E+00  0.62150061382E+03  0.62150061382E+03  0.00000000000E+00 0.  1.
          1   -1    0    0  501    0  0.00000000000E+00 -0.00000000000E+00 -0.10891391850E+04  0.10891391850E+04  0.00000000000E+00 0. -1.
         23    2    1    2    0    0 -0.49320878318E+02  0.35655496804E+03  0.30120735508E+03  0.47784044289E+03  0.89675101540E+02 0.  0.
        254    2    1    2    0    0  0.49320878318E+02 -0.35655496804E+03 -0.76884592628E+03  0.12327993559E+04  0.89392740164E+03 0.  0.
        -24    2    4    4    0    0 -0.26762513484E+03 -0.16428278448E+02  0.53300238097E+02  0.28488114850E+03  0.80145194864E+02 0.  0.
         24    2    4    4    0    0  0.31694601315E+03 -0.34012668959E+03 -0.82214616437E+03  0.94791820745E+03  0.80521253051E+02 0.  0.
         13    1    3    3    0    0 -0.71107163598E+02  0.18805601946E+03  0.16295750418E+03  0.25879807445E+03  0.00000000000E+00 0. -1.
        -13    1    3    3    0    0  0.21786285280E+02  0.16849894858E+03  0.13824985090E+03  0.21904236844E+03  0.00000000000E+00 0.  1.
          2    1    6    6  502    0  0.25067422707E+03 -0.24627647615E+03 -0.55211848507E+03  0.65446504291E+03  0.00000000000E+00 0. -1.
          1    1    5    5  503    0 -0.12967520470E+03  0.28000054117E+02  0.74466131859E+01  0.13287254718E+03  0.00000000000E+00 0. -1.
         -2    1    5    5    0  503 -0.13794993013E+03 -0.44428332566E+02  0.45853624911E+02  0.15200860132E+03  0.00000000000E+00 0.  1.
         -1    1    6    6    0  502  0.66271786080E+02 -0.93850213439E+02 -0.27002767930E+03  0.29345316454E+03  0.00000000000E+00 0.  1.
<mgrwt>
<rscale>  0 0.16454795E+04</rscale>
<asrwt>0</asrwt>
<pdfrwt beam="1">  1        1 0.16755987E+00 0.16454795E+04</pdfrwt>
<pdfrwt beam="2">  1       -1 0.95615480E-01 0.16454795E+04</pdfrwt>
<totfact> 0.13036678E+01</totfact>
</mgrwt>
</event>
<event>
12    1  0.2214165E-007  0.2135011E+04  0.7818608E-02  0.8545976E-01
          1   -1    0    0  501    0  0.00000000000E+00  0.00000000000E+00  0.67365566170E+03  0.67365566170E+03  0.00000000000E+00 0. -1.
         -1   -1    0    0    0  501 -0.00000000000E+00 -0.00000000000E+00 -0.16916183458E+04  0.16916183458E+04  0.00000000000E+00 0.  1.
         23    2    1    2    0    0  0.77911203958E+03 -0.35953505731E+02 -0.86309179873E+03  0.11650553756E+04  0.64174374499E+02 0.  0.
        254    2    1    2    0    0 -0.77911203958E+03  0.35953505731E+02 -0.15487088533E+03  0.12002186319E+04  0.89901699002E+03 0.  0.
        -24    2    4    4    0    0  0.11945801041E+03 -0.99422691102E+02  0.15819743685E+03  0.23582117779E+03  0.80187973587E+02 0.  0.
         24    2    4    4    0    0 -0.89857005000E+03  0.13537619683E+03 -0.31306832218E+03  0.96439745408E+03  0.79346239055E+02 0.  0.
         13    1    3    3    0    0  0.37140298902E+03  0.37304569588E+01 -0.44675237007E+03  0.58098345650E+03  0.00000000000E+00 0. -1.
        -13    1    3    3    0    0  0.40770905057E+03 -0.39683962690E+02 -0.41633942866E+03  0.58407191909E+03  0.00000000000E+00 0.  1.
          2    1    6    6  502    0 -0.54862243031E+03  0.60366092623E+02 -0.15603321726E+03  0.57356516724E+03  0.00000000000E+00 0. -1.
          1    1    5    5  503    0  0.10662412641E+03 -0.49690721513E+02  0.79982401429E+02  0.14224997952E+03  0.00000000000E+00 0. -1.
         -4    1    5    5    0  503  0.12833884008E+02 -0.49731969589E+02  0.78215035425E+02  0.93571198264E+02  0.00000000000E+00 0.  1.
         -1    1    6    6    0  502 -0.34994761968E+03  0.75010104210E+02 -0.15703510492E+03  0.39083228684E+03  0.00000000000E+00 0.  1.
<mgrwt>
<rscale>  0 0.21350113E+04</rscale>
<asrwt>0</asrwt>
<pdfrwt beam="1">  1        1 0.10363933E+00 0.21350113E+04</pdfrwt>
<pdfrwt beam="2">  1       -1 0.26024897E+00 0.21350113E+04</pdfrwt>
<totfact> 0.15825489E+00</totfact>
</mgrwt>
</event>
<event>
12    1  0.2214165E-007  0.1641733E+04  0.7818608E-02  0.8795312E-01
          2   -1    0    0  501    0  0.00000000000E+00  0.00000000000E+00  0.34472114764E+03  0.34472114764E+03  0.00000000000E+00 0.  1.
         -2   -1    0    0    0  501 -0.00000000000E+00 -0.00000000000E+00 -0.19546855860E+04  0.19546855860E+04  0.00000000000E+00 0. -1.
         23    2    1    2    0    0 -0.49105171870E+03  0.27309432996E+03 -0.43800575930E+03  0.71845701639E+03  0.92839300546E+02 0.  0.
        254    2    1    2    0    0  0.49105171870E+03 -0.27309432996E+03 -0.11719586790E+04  0.15809497172E+04  0.90011252605E+03 0.  0.
        -24    2    4    4    0    0  0.14323876755E+03 -0.48192404373E+03 -0.10209003358E+04  0.11408089296E+04  0.80245807861E+02 0.  0.
         24    2    4    4    0    0  0.34781295115E+03  0.20882971376E+03 -0.15105834321E+03  0.44014078764E+03  0.79508437001E+02 0.  0.
         11    1    3    3    0    0 -0.34944511547E+03  0.24028770025E+03 -0.33059286905E+03  0.53771899044E+03  0.00000000000E+00 0. -1.
        -11    1    3    3    0    0 -0.14160660323E+03  0.32806629712E+02 -0.10741289024E+03  0.18073802594E+03  0.00000000000E+00 0.  1.
          4    1    6    6  502    0  0.34931873227E+03  0.19653142969E+03 -0.14407100316E+03  0.42591622829E+03  0.00000000000E+00 0. -1.
          3    1    5    5  503    0  0.11201320836E+03 -0.41420941800E+03 -0.80223155093E+03  0.90977572078E+03  0.00000000000E+00 0. -1.
         -4    1    5    5    0  503  0.31225559188E+02 -0.67714625727E+02 -0.21866878491E+03  0.23103320882E+03  0.00000000000E+00 0.  1.
         -3    1    6    6    0  502 -0.15057811152E+01  0.12298284070E+02 -0.69873400402E+01  0.14224559349E+02  0.00000000000E+00 0.  1.
<mgrwt>
<rscale>  0 0.16417326E+04</rscale>
<asrwt>0</asrwt>
<pdfrwt beam="1">  1        2 0.53034022E-01 0.16417326E+04</pdfrwt>
<pdfrwt beam="2">  1       -2 0.30072086E+00 0.16417326E+04</pdfrwt>
<totfact> 0.28343128E+00</totfact>
</mgrwt>
</event>
<event>
12    1  0.2214165E-007  0.1734349E+04  0.7818608E-02  0.8742013E-01
         -1   -1    0    0    0  501 -0.00000000000E+00  0.00000000000E+00  0.57038611834E+03  0.57038611834E+03  0.00000000000E+00 0.  1.
          1   -1    0    0  501    0  0.00000000000E+00 -0.00000000000E+00 -0.13183905537E+04  0.13183905537E+04  0.00000000000E+00 0. -1.
         23    2    1    2    0    0  0.55290305872E+03  0.15711094303E+03 -0.55170348560E+03  0.80220931361E+03  0.93687811658E+02 0.  0.
        254    2    1    2    0    0 -0.55290305872E+03 -0.15711094303E+03 -0.19630094973E+03  0.10865673584E+04  0.90094890018E+03 0.  0.
        -24    2    4    4    0    0 -0.60935211127E+03  0.22367640322E+03 -0.22731080072E+03  0.69234269514E+03  0.79542935178E+02 0.  0.
         24    2    4    4    0    0  0.56449052545E+02 -0.38078734624E+03  0.31009850986E+02  0.39422466327E+03  0.79157916065E+02 0.  0.
         11    1    3    3    0    0  0.16898524780E+03  0.22588529056E+02 -0.11655478423E+03  0.20652184713E+03  0.00000000000E+00 0.  1.
        -11    1    3    3    0    0  0.38391781092E+03  0.13452241397E+03 -0.43514870137E+03  0.59568746647E+03  0.00000000000E+00 0. -1.
          4    1    6    6  502    0  0.46548550951E+02 -0.83887415556E+02  0.71164925766E+01  0.96200366688E+02  0.00000000000E+00 0. -1.
          1    1    5    5  503    0 -0.43304978229E+03  0.12501329094E+03 -0.17617156975E+03  0.48393889990E+03  0.00000000000E+00 0. -1.
         -2    1    5    5    0  503 -0.17630232898E+03  0.98663112275E+02 -0.51139230967E+02  0.20840379524E+03  0.00000000000E+00 0.  1.
         -3    1    6    6    0  502  0.99005015940E+01 -0.29689993069E+03  0.23893358410E+02  0.29802429658E+03  0.00000000000E+00 0.  1.
<mgrwt>
<rscale>  0 0.17343491E+04</rscale>
<asrwt>0</asrwt>
<pdfrwt beam="1">  1        1 0.20282932E+00 0.17343491E+04</pdfrwt>
<pdfrwt beam="2">  1       -1 0.87751711E-01 0.17343491E+04</pdfrwt>
<totfact> 0.10635551E+01</totfact>
</mgrwt>
</event>
<event>
12    1  0.2214165E-007  0.1919080E+04  0.7818608E-02  0.8645417E-01
          1   -1    0    0  501    0  0.00000000000E+00  0.00000000000E+00  0.27326776571E+04  0.27326776571E+04  0.00000000000E+00 0. -1.
         -1   -1    0    0    0  501 -0.00000000000E+00 -0.00000000000E+00 -0.33692844758E+03  0.33692844758E+03  0.00000000000E+00 0.  1.
         23    2    1    2    0    0  0.59151074337E+03 -0.26405113794E+03  0.34833705213E+03  0.74132712529E+03  0.92839872006E+02 0.  0.
        254    2    1    2    0    0 -0.59151074337E+03  0.26405113794E+03  0.20474121574E+04  0.23282789794E+04  0.89965465634E+03 0.  0.
        -24    2    4    4    0    0  0.17539189804E+03  0.18520652285E+03  0.93394381883E+03  0.97159507629E+03  0.81744489333E+02 0.  0.
         24    2    4    4    0    0 -0.76690264142E+03  0.78844615090E+02  0.11134683386E+04  0.13566839031E+04  0.80145724912E+02 0.  0.
         13    1    3    3    0    0  0.22171176914E+03 -0.14381583678E+03  0.16369219775E+03  0.31086048171E+03  0.00000000000E+00 0. -1.
        -13    1    3    3    0    0  0.36979897423E+03 -0.12023530116E+03  0.18464485438E+03  0.43046664358E+03  0.00000000000E+00 0.  1.
          4    1    6    6  502    0 -0.51966164830E+03  0.87290644126E+02  0.72909390049E+03  0.89958090298E+03  0.00000000000E+00 0. -1.
          1    1    5    5  503    0  0.11106284442E+02  0.56608593731E+02  0.24822694815E+03  0.25484210843E+03  0.00000000000E+00 0. -1.
         -2    1    5    5    0  503  0.16428561360E+03  0.12859792912E+03  0.68571687068E+03  0.71675296786E+03  0.00000000000E+00 0.  1.
         -3    1    6    6    0  502 -0.24724099311E+03 -0.84460290357E+01  0.38437443807E+03  0.45710300013E+03  0.00000000000E+00 0.  1.
<mgrwt>
<rscale>  0 0.19190798E+04</rscale>
<asrwt>0</asrwt>
<pdfrwt beam="1">  1        1 0.42041193E+00 0.19190798E+04</pdfrwt>
<pdfrwt beam="2">  1       -1 0.51835148E-01 0.19190798E+04</pdfrwt>
<totfact> 0.32606323E+00</totfact>
</mgrwt>
</event>
<event>
12    1  0.2214165E-007  0.1623735E+04  0.7818608E-02  0.8806098E-01
         -2   -1    0    0    0  501 -0.00000000000E+00  0.00000000000E+00  0.10173954113E+04  0.10173954113E+04  0.00000000000E+00 0. -1.
          2   -1    0    0  501    0  0.00000000000E+00 -0.00000000000E+00 -0.64785928810E+03  0.64785928810E+03  0.00000000000E+00 0.  1.
         23    2    1    2    0    0 -0.33203287475E+03  0.42559239287E+03 -0.17169066970E+02  0.54773227561E+03  0.91329918947E+02 0.  0.
        254    2    1    2    0    0  0.33203287475E+03 -0.42559239287E+03  0.38670519020E+03  0.11175224238E+04  0.89885524354E+03 0.  0.
        -24    2    4    4    0    0  0.16427434394E+03  0.26896033826E+03  0.76352194979E+02  0.33410320761E+03  0.80433649818E+02 0.  0.
         24    2    4    4    0    0  0.16775853081E+03 -0.69455273113E+03  0.31035299522E+03  0.78341921621E+03  0.82947367065E+02 0.  0.
         13    1    3    3    0    0 -0.13820007341E+03  0.21411961989E+03 -0.47613400198E+02  0.25925568034E+03  0.00000000000E+00 0.  1.
        -13    1    3    3    0    0 -0.19383280135E+03  0.21147277298E+03  0.30444333228E+02  0.28847659527E+03  0.00000000000E+00 0. -1.
          2    1    6    6  502    0  0.73665612254E+02 -0.38096545981E+03  0.12758402846E+03  0.40845928599E+03  0.00000000000E+00 0. -1.
          1    1    5    5  503    0  0.14876778591E+03  0.20717869660E+03  0.87068226564E+02  0.26951019002E+03  0.00000000000E+00 0. -1.
         -2    1    5    5    0  503  0.15506558035E+02  0.61781641662E+02 -0.10716031584E+02  0.64593017590E+02  0.00000000000E+00 0.  1.
         -1    1    6    6    0  502  0.94092918555E+02 -0.31358727133E+03  0.18276896676E+03  0.37495993022E+03  0.00000000000E+00 0.  1.
<mgrwt>
<rscale>  0 0.16237353E+04</rscale>
<asrwt>0</asrwt>
<pdfrwt beam="1">  1        2 0.99670660E-01 0.16237353E+04</pdfrwt>
<pdfrwt beam="2">  1       -2 0.15652237E+00 0.16237353E+04</pdfrwt>
<totfact> 0.11546180E+01</totfact>
</mgrwt>
</event>
<event>
12    1  0.2214165E-007  0.1919616E+04  0.7818608E-02  0.8645153E-01
         -1   -1    0    0    0  501 -0.00000000000E+00  0.00000000000E+00  0.54124464599E+03  0.54124464599E+03  0.00000000000E+00 0.  1.
          1   -1    0    0  501    0  0.00000000000E+00 -0.00000000000E+00 -0.17020608507E+04  0.17020608507E+04  0.00000000000E+00 0. -1.
         23    2    1    2    0    0  0.38474942462E+03  0.63701318026E+03 -0.48357689318E+03  0.89217147832E+03  0.91134096459E+02 0.  0.
        254    2    1    2    0    0 -0.38474942462E+03 -0.63701318026E+03 -0.67723931152E+03  0.13511340184E+04  0.90171621861E+03 0.  0.
        -24    2    4    4    0    0 -0.11082145819E+03 -0.75754043215E+03 -0.70029947798E+03  0.10407239171E+04  0.80857967126E+02 0.  0.
         24    2    4    4    0    0 -0.27392796643E+03  0.12052725189E+03  0.23060166457E+02  0.31041010124E+03  0.79115803939E+02 0.  0.
         11    1    3    3    0    0  0.15444125640E+03  0.21596066238E+03 -0.12719995462E+03  0.29439928300E+03  0.00000000000E+00 0.  1.
        -11    1    3    3    0    0  0.23030816822E+03  0.42105251789E+03 -0.35637693856E+03  0.59777219533E+03  0.00000000000E+00 0. -1.
          2    1    6    6  502    0 -0.39844122557E+02  0.82262509165E+00  0.25810105399E+02  0.47480441816E+02  0.00000000000E+00 0. -1.
          3    1    5    5  503    0 -0.35085990005E+02 -0.12802373594E+03 -0.15823068642E+03  0.20653826227E+03  0.00000000000E+00 0. -1.
         -4    1    5    5    0  503 -0.75735468187E+02 -0.62951669622E+03 -0.54206879156E+03  0.83418565484E+03  0.00000000000E+00 0.  1.
         -1    1    6    6    0  502 -0.23408384387E+03  0.11970462680E+03 -0.27499389422E+01  0.26292965942E+03  0.00000000000E+00 0.  1.
<mgrwt>
<rscale>  0 0.19196159E+04</rscale>
<asrwt>0</asrwt>
<pdfrwt beam="1">  1        1 0.26185551E+00 0.19196159E+04</pdfrwt>
<pdfrwt beam="2">  1       -1 0.83268408E-01 0.19196159E+04</pdfrwt>
<totfact> 0.63513128E+00</totfact>
</mgrwt>
</event>
<event>
12    1  0.2214165E-007  0.2394086E+04  0.7818608E-02  0.8441721E-01
         -2   -1    0    0    0  501 -0.00000000000E+00  0.00000000000E+00  0.48715728275E+03  0.48715728275E+03  0.00000000000E+00 0.  1.
          2   -1    0    0  501    0  0.00000000000E+00 -0.00000000000E+00 -0.29413750972E+04  0.29413750972E+04  0.00000000000E+00 0. -1.
         23    2    1    2    0    0  0.79858735993E+03 -0.64048353645E+03 -0.11561077548E+04  0.15468587152E+04  0.90696263176E+02 0.  0.
        254    2    1    2    0    0 -0.79858735993E+03  0.64048353645E+03 -0.12981100596E+04  0.18816736647E+04  0.89869078205E+03 0.  0.
        -24    2    4    4    0    0 -0.54592219080E+03  0.64987508286E+03 -0.13635662996E+04  0.16083294973E+04  0.83916963388E+02 0.  0.
         24    2    4    4    0    0 -0.25266516914E+03 -0.93915464115E+01  0.65456239972E+02  0.27334416744E+03  0.80651259658E+02 0.  0.
         11    1    3    3    0    0  0.22828441659E+03 -0.13912364584E+03 -0.27125973694E+03  0.38085562694E+03  0.00000000000E+00 0.  1.
        -11    1    3    3    0    0  0.57030294335E+03 -0.50135989062E+03 -0.88484801790E+03  0.11660030883E+04  0.00000000000E+00 0. -1.
          4    1    6    6  502    0 -0.16442257541E+03 -0.19487925140E+02  0.45258509803E+01  0.16563527963E+03  0.00000000000E+00 0. -1.
          3    1    5    5  503    0 -0.19138259863E+03  0.28484852726E+03 -0.51426992631E+03  0.61825523827E+03  0.00000000000E+00 0. -1.
         -4    1    5    5    0  503 -0.35453959217E+03  0.36502655561E+03 -0.84929637326E+03  0.99007425901E+03  0.00000000000E+00 0.  1.
         -3    1    6    6    0  502 -0.88242593722E+02  0.10096378728E+02  0.60930388992E+02  0.10770888781E+03  0.00000000000E+00 0.  1.
<mgrwt>
<rscale>  0 0.23940863E+04</rscale>
<asrwt>0</asrwt>
<pdfrwt beam="1">  1        2 0.45251925E+00 0.23940863E+04</pdfrwt>
<pdfrwt beam="2">  1       -2 0.74947273E-01 0.23940863E+04</pdfrwt>
<totfact> 0.27263815E+00</totfact>
</mgrwt>
</event>
<event>
12    1  0.2360629E-007  0.1994954E+04  0.7818608E-02  0.8608983E-01
         -1   -1    0    0    0  501 -0.00000000000E+00  0.00000000000E+00  0.94940127912E+03  0.94940127912E+03  0.00000000000E+00 0.  1.
          1   -1    0    0  501    0  0.00000000000E+00 -0.00000000000E+00 -0.10479876266E+04  0.10479876266E+04  0.00000000000E+00 0. -1.
         23    2    1    2    0    0  0.12545943448E+03 -0.77034187288E+03 -0.15462455141E+03  0.80139478251E+03  0.95698352841E+02 0.  0.
        254    2    1    2    0    0 -0.12545943448E+03  0.77034187288E+03  0.56038203974E+02  0.11959941232E+04  0.90448603722E+03 0.  0.
        -24    2    4    4    0    0 -0.39380740026E+03  0.43036231739E+03  0.33231709450E+03  0.67619161792E+03  0.80650233251E+02 0.  0.
         24    2    4    4    0    0  0.26834796578E+03  0.33997955549E+03 -0.27627889053E+03  0.51980250524E+03  0.79170008316E+02 0.  0.
         13    1    3    3    0    0  0.93519077186E+02 -0.45183147807E+03 -0.13469794548E+03  0.48066728502E+03  0.00000000000E+00 0.  1.
        -13    1    3    3    0    0  0.31940357290E+02 -0.31851039480E+03 -0.19926605921E+02  0.32072749749E+03  0.00000000000E+00 0. -1.
          2    1    6    6  502    0  0.24974432848E+03  0.27334769471E+03 -0.24427608509E+03  0.44357862613E+03  0.00000000000E+00 0. -1.
          1    1    5    5  503    0 -0.38524446474E+03  0.41342952324E+03  0.33514392528E+03  0.65700739642E+03  0.00000000000E+00 0. -1.
         -2    1    5    5    0  503 -0.85629355205E+01  0.16932794146E+02 -0.28268307796E+01  0.19184221500E+02  0.00000000000E+00 0.  1.
         -1    1    6    6    0  502  0.18603637304E+02  0.66631860776E+02 -0.32002805439E+02  0.76223879116E+02  0.00000000000E+00 0.  1.
<mgrwt>
<rscale>  0 0.19949544E+04</rscale>
<asrwt>0</asrwt>
<pdfrwt beam="1">  1        1 0.16122886E+00 0.19949544E+04</pdfrwt>
<pdfrwt beam="2">  1       -1 0.14606174E+00 0.19949544E+04</pdfrwt>
<totfact> 0.48304004E+00</totfact>
</mgrwt>
</event>
<event>
12    1  0.2214165E-007  0.1998315E+04  0.7818608E-02  0.8607409E-01
         -2   -1    0    0    0  501 -0.00000000000E+00  0.00000000000E+00  0.31083004229E+03  0.31083004229E+03  0.00000000000E+00 0. -1.
          2   -1    0    0  501    0  0.00000000000E+00 -0.00000000000E+00 -0.32117722643E+04  0.32117722643E+04  0.00000000000E+00 0.  1.
         23    2    1    2    0    0  0.24198328456E+03  0.72177401696E+03 -0.15545932177E+04  0.17333731396E+04  0.91152218370E+02 0.  0.
        254    2    1    2    0    0 -0.24198328456E+03 -0.72177401696E+03 -0.13463490044E+04  0.17892291671E+04  0.89953973185E+03 0.  0.
        -24    2    4    4    0    0 -0.57101774477E+02 -0.84702118454E+03 -0.71053371056E+03  0.11106178359E+04  0.88928757550E+02 0.  0.
         24    2    4    4    0    0 -0.18488151008E+03  0.12524716758E+03 -0.63581529379E+03  0.67861133114E+03  0.79901346548E+02 0.  0.
         13    1    3    3    0    0  0.16921561750E+03  0.42771955021E+03 -0.10200352564E+04  0.11189503399E+04  0.00000000000E+00 0.  1.
        -13    1    3    3    0    0  0.72767667057E+02  0.29405446675E+03 -0.53455796131E+03  0.61442279969E+03  0.00000000000E+00 0. -1.
          4    1    6    6  502    0 -0.64312240203E+01 -0.50717825495E+01 -0.80977782835E+02  0.81390938891E+02  0.00000000000E+00 0. -1.
          3    1    5    5  503    0 -0.38241126717E+02 -0.15734728758E+03 -0.16371550499E+03  0.23026792928E+03  0.00000000000E+00 0. -1.
         -4    1    5    5    0  503 -0.18860647760E+02 -0.68967389695E+03 -0.54681820558E+03  0.88034990664E+03  0.00000000000E+00 0.  1.
         -1    1    6    6    0  502 -0.17845028606E+03  0.13031895013E+03 -0.55483751095E+03  0.59722039225E+03  0.00000000000E+00 0.  1.
<mgrwt>
<rscale>  0 0.19983146E+04</rscale>
<asrwt>0</asrwt>
<pdfrwt beam="1">  1        2 0.49411880E+00 0.19983146E+04</pdfrwt>
<pdfrwt beam="2">  1       -2 0.47820007E-01 0.19983146E+04</pdfrwt>
<totfact> 0.49226452E+00</totfact>
</mgrwt>
</event>
<event>
12    1  0.2214165E-007  0.2884191E+04  0.7818608E-02  0.8277597E-01
          2   -1    0    0  501    0  0.00000000000E+00  0.00000000000E+00  0.21246012838E+04  0.21246012838E+04  0.00000000000E+00 0. -1.
         -2   -1    0    0    0  501 -0.00000000000E+00 -0.00000000000E+00 -0.97883774445E+03  0.97883774445E+03  0.00000000000E+00 0.  1.
         23    2    1    2    0    0 -0.30321458095E+03 -0.21098669001E+03 -0.82268565391E+03  0.90814141729E+03  0.10702655362E+03 0.  0.
        254    2    1    2    0    0  0.30321458095E+03  0.21098669001E+03  0.19684491933E+04  0.21952976110E+04  0.89893543083E+03 0.  0.
        -24    2    4    4    0    0 -0.19309149510E+03 -0.66214945258E+02  0.10295130082E+03  0.24343269652E+03  0.83616762314E+02 0.  0.
         24    2    4    4    0    0  0.49630607605E+03  0.27720163527E+03  0.18654978925E+04  0.19518649145E+04  0.80831861276E+02 0.  0.
         11    1    3    3    0    0 -0.98075541772E+02 -0.22334513976E+02 -0.29009537359E+03  0.30703903366E+03  0.00000000000E+00 0.  1.
        -11    1    3    3    0    0 -0.20513903918E+03 -0.18865217604E+03 -0.53259028032E+03  0.60110238363E+03  0.00000000000E+00 0. -1.
          2    1    6    6  502    0  0.15264065604E+03  0.10683286135E+03  0.50274028785E+03  0.53615317510E+03  0.00000000000E+00 0. -1.
          1    1    5    5  503    0 -0.30974436639E+01  0.13345961373E+02  0.13765523354E+01  0.13769667336E+02  0.00000000000E+00 0. -1.
         -2    1    5    5    0  503 -0.18999405144E+03 -0.79560906631E+02  0.10157474848E+03  0.22966302918E+03  0.00000000000E+00 0.  1.
         -1    1    6    6    0  502  0.34366542001E+03  0.17036877392E+03  0.13627576046E+04  0.14157117394E+04  0.00000000000E+00 0.  1.
<mgrwt>
<rscale>  0 0.28841913E+04</rscale>
<asrwt>0</asrwt>
<pdfrwt beam="1">  1        2 0.32686174E+00 0.28841913E+04</pdfrwt>
<pdfrwt beam="2">  1       -2 0.15059042E+00 0.28841913E+04</pdfrwt>
<totfact> 0.14586536E+00</totfact>
</mgrwt>
</event>
<event>
12    1  0.2214165E-007  0.3882038E+04  0.7818608E-02  0.8028775E-01
         -2   -1    0    0    0  501 -0.00000000000E+00  0.00000000000E+00  0.18174523045E+04  0.18174523045E+04  0.00000000000E+00 0.  1.
          2   -1    0    0  501    0  0.00000000000E+00 -0.00000000000E+00 -0.20729869396E+04  0.20729869396E+04  0.00000000000E+00 0. -1.
         23    2    1    2    0    0 -0.65020603294E+03 -0.90307133445E+03 -0.15832555649E+04  0.19375576976E+04  0.95529718745E+02 0.  0.
        254    2    1    2    0    0  0.65020603294E+03  0.90307133445E+03  0.13277209299E+04  0.19528815465E+04  0.90144203730E+03 0.  0.
        -24    2    4    4    0    0  0.33536462680E+03  0.84988387773E+03  0.46237005162E+03  0.10269772041E+04  0.78256466570E+02 0.  0.
         24    2    4    4    0    0  0.31484140614E+03  0.53187456720E+02  0.86535087828E+03  0.92590434241E+03  0.80701252698E+02 0.  0.
         13    1    3    3    0    0 -0.43756340816E+03 -0.67512377824E+03 -0.11699457234E+04  0.14198686023E+04  0.00000000000E+00 0. -1.
        -13    1    3    3    0    0 -0.21264262478E+03 -0.22794755622E+03 -0.41330984156E+03  0.51768909529E+03  0.00000000000E+00 0.  1.
          2    1    6    6  502    0  0.18860673848E+03  0.33603673609E+02  0.62516791986E+03  0.65386285772E+03  0.00000000000E+00 0. -1.
          3    1    5    5  503    0  0.32053141095E+03  0.74920041623E+03  0.40203167896E+03  0.90866447051E+03  0.00000000000E+00 0. -1.
         -4    1    5    5    0  503  0.14833215847E+02  0.10068346150E+03  0.60338372663E+02  0.11831273358E+03  0.00000000000E+00 0.  1.
         -1    1    6    6    0  502  0.12623466766E+03  0.19583783110E+02  0.24018295842E+03  0.27204148469E+03  0.00000000000E+00 0.  1.
<mgrwt>
<rscale>  0 0.38820381E+04</rscale>
<asrwt>0</asrwt>
<pdfrwt beam="1">  1        2 0.31892107E+00 0.38820381E+04</pdfrwt>
<pdfrwt beam="2">  1       -2 0.27960805E+00 0.38820381E+04</pdfrwt>
<totfact> 0.20518836E-01</totfact>
</mgrwt>
</event>
<event>
12    1  0.2214165E-007  0.3635370E+04  0.7818608E-02  0.8082437E-01
         -2   -1    0    0    0  501 -0.00000000000E+00  0.00000000000E+00  0.17232084713E+04  0.17232084713E+04  0.00000000000E+00 0.  1.
          2   -1    0    0  501    0  0.00000000000E+00 -0.00000000000E+00 -0.19173414739E+04  0.19173414739E+04  0.00000000000E+00 0. -1.
         23    2    1    2    0    0  0.83811100413E+03 -0.95793657358E+03  0.10448556843E+04  0.16492665542E+04  0.91017754067E+02 0.  0.
        254    2    1    2    0    0 -0.83811100413E+03  0.95793657358E+03 -0.12389886869E+04  0.19912833910E+04  0.90002446794E+03 0.  0.
        -24    2    4    4    0    0 -0.27514478029E+03  0.71443998449E+03 -0.22208774600E+03  0.80119916518E+03  0.80423838515E+02 0.  0.
         24    2    4    4    0    0 -0.56296622384E+03  0.24349658909E+03 -0.10169009409E+04  0.11900842258E+04  0.77404024168E+02 0.  0.
         11    1    3    3    0    0  0.53543411479E+03 -0.66621673989E+03  0.73056193133E+03  0.11243910224E+04  0.00000000000E+00 0. -1.
        -11    1    3    3    0    0  0.30267688934E+03 -0.29171983370E+03  0.31429375295E+03  0.52487553178E+03  0.00000000000E+00 0.  1.
          2    1    6    6  502    0 -0.27273528754E+03  0.78159951581E+02 -0.49092564295E+03  0.56701102459E+03  0.00000000000E+00 0. -1.
          1    1    5    5  503    0 -0.65629587840E+02  0.19139536917E+03 -0.95341657922E+02  0.22367266680E+03  0.00000000000E+00 0. -1.
         -2    1    5    5    0  503 -0.20951519245E+03  0.52304461532E+03 -0.12674608808E+03  0.57752649838E+03  0.00000000000E+00 0.  1.
         -1    1    6    6    0  502 -0.29023093630E+03  0.16533663751E+03 -0.52597529794E+03  0.62307320126E+03  0.00000000000E+00 0.  1.
<mgrwt>
<rscale>  0 0.36353702E+04</rscale>
<asrwt>0</asrwt>
<pdfrwt beam="1">  1        2 0.29497561E+00 0.36353702E+04</pdfrwt>
<pdfrwt beam="2">  1       -2 0.26510900E+00 0.36353702E+04</pdfrwt>
<totfact> 0.31339435E-01</totfact>
</mgrwt>
</event>
<event>
12    1  0.2214165E-007  0.1583536E+04  0.7818608E-02  0.8830727E-01
         -2   -1    0    0    0  501 -0.00000000000E+00  0.00000000000E+00  0.31844788756E+03  0.31844788756E+03  0.00000000000E+00 0.  1.
          2   -1    0    0  501    0  0.00000000000E+00 -0.00000000000E+00 -0.19686004788E+04  0.19686004788E+04  0.00000000000E+00 0. -1.
         23    2    1    2    0    0  0.50715298890E+03  0.57869165054E+02 -0.35707874222E+03  0.63011357635E+03  0.94788694203E+02 0.  0.
        254    2    1    2    0    0 -0.50715298890E+03 -0.57869165054E+02 -0.12930738490E+04  0.16569347900E+04  0.90157635553E+03 0.  0.
        -24    2    4    4    0    0 -0.52531456393E+03 -0.37697985577E+02 -0.14148261110E+04  0.15116725251E+04  0.77745544626E+02 0.  0.
         24    2    4    4    0    0  0.18161575029E+02 -0.20171179477E+02  0.12175226197E+03  0.14526226487E+03  0.74436503216E+02 0.  0.
         13    1    3    3    0    0  0.17912684833E+03 -0.87419263992E+01 -0.83559901443E+02  0.19785122238E+03  0.00000000000E+00 0.  1.
        -13    1    3    3    0    0  0.32802614057E+03  0.66611091453E+02 -0.27351884077E+03  0.43226235397E+03  0.00000000000E+00 0. -1.
          2    1    6    6  502    0 -0.14869982518E+02  0.11487999377E+00  0.99420005200E+02  0.10052595193E+03  0.00000000000E+00 0. -1.
          1    1    5    5  503    0 -0.12450416569E+03  0.25192879430E+00 -0.43195621611E+03  0.44954145902E+03  0.00000000000E+00 0. -1.
         -2    1    5    5    0  503 -0.40081039824E+03 -0.37949914371E+02 -0.98286989484E+03  0.10621310661E+04  0.00000000000E+00 0.  1.
         -1    1    6    6    0  502  0.33031557547E+02 -0.20286059471E+02  0.22332256768E+02  0.44736312937E+02  0.00000000000E+00 0.  1.
<mgrwt>
<rscale>  0 0.15835361E+04</rscale>
<asrwt>0</asrwt>
<pdfrwt beam="1">  1        2 0.30286161E+00 0.15835361E+04</pdfrwt>
<pdfrwt beam="2">  1       -2 0.48991983E-01 0.15835361E+04</pdfrwt>
<totfact> 0.26348289E+01</totfact>
</mgrwt>
</event>
<event>
12    1  0.2214165E-007  0.2684530E+04  0.7818608E-02  0.8340042E-01
         -2   -1    0    0    0  501 -0.00000000000E+00  0.00000000000E+00  0.48031955909E+03  0.48031955909E+03  0.00000000000E+00 0.  1.
          2   -1    0    0  501    0  0.00000000000E+00 -0.00000000000E+00 -0.37509923611E+04  0.37509923611E+04  0.00000000000E+00 0. -1.
         23    2    1    2    0    0 -0.19126537506E+02  0.10698172288E+04 -0.63573854083E+03  0.12479903551E+04  0.91878761141E+02 0.  0.
        254    2    1    2    0    0  0.19126537506E+02 -0.10698172288E+04 -0.26349342612E+04  0.29833215651E+04  0.90136245339E+03 0.  0.
        -24    2    4    4    0    0 -0.18602531690E+03 -0.54884719183E+03 -0.48347893056E+03  0.75876285077E+03  0.78297694068E+02 0.  0.
         24    2    4    4    0    0  0.20515185441E+03 -0.52097003696E+03 -0.21514553307E+04  0.22245587143E+04  0.80027313593E+02 0.  0.
         11    1    3    3    0    0  0.54744887034E+01  0.19450882627E+03 -0.15691081403E+03  0.24996931228E+03  0.00000000000E+00 0. -1.
        -11    1    3    3    0    0 -0.24601026209E+02  0.87530840253E+03 -0.47882772680E+03  0.99802104285E+03  0.00000000000E+00 0.  1.
          2    1    6    6  502    0  0.15305467134E+03 -0.34408701726E+03 -0.13049935762E+04  0.13582451332E+04  0.00000000000E+00 0. -1.
          1    1    5    5  503    0  0.52373885749E+01 -0.27436396697E+02 -0.12652548238E+02  0.30663872549E+02  0.00000000000E+00 0. -1.
         -2    1    5    5    0  503 -0.19126270547E+03 -0.52141079514E+03 -0.47082638232E+03  0.72809897822E+03  0.00000000000E+00 0.  1.
         -1    1    6    6    0  502  0.52097183066E+02 -0.17688301970E+03 -0.84646175444E+03  0.86631358115E+03  0.00000000000E+00 0.  1.
<mgrwt>
<rscale>  0 0.26845298E+04</rscale>
<asrwt>0</asrwt>
<pdfrwt beam="1">  1        2 0.57707577E+00 0.26845298E+04</pdfrwt>
<pdfrwt beam="2">  1       -2 0.73895314E-01 0.26845298E+04</pdfrwt>
<totfact> 0.77590262E-01</totfact>
</mgrwt>
</event>
<event>
12    1  0.2214165E-007  0.2194158E+04  0.7818608E-02  0.8520863E-01
          2   -1    0    0  501    0  0.00000000000E+00  0.00000000000E+00  0.16670109550E+04  0.16670109550E+04  0.00000000000E+00 0. -1.
         -2   -1    0    0    0  501 -0.00000000000E+00 -0.00000000000E+00 -0.72200051835E+03  0.72200051835E+03  0.00000000000E+00 0.  1.
         23    2    1    2    0    0  0.84194841662E+03  0.23639726096E+03  0.66664636593E+03  0.11031540310E+04  0.88151220565E+02 0.  0.
        254    2    1    2    0    0 -0.84194841662E+03 -0.23639726096E+03  0.27836407078E+03  0.12858574424E+04  0.90065643006E+03 0.  0.
        -24    2    4    4    0    0 -0.42271073247E+02  0.28265728885E+03  0.23080566105E+02  0.29557557049E+03  0.71765024655E+02 0.  0.
         24    2    4    4    0    0 -0.79967734337E+03 -0.51905454981E+03  0.25528350467E+03  0.99028187190E+03  0.81160574592E+02 0.  0.
         11    1    3    3    0    0  0.79012509013E+03  0.21402844943E+03  0.64690650723E+03  0.10433570167E+04  0.00000000000E+00 0. -1.
        -11    1    3    3    0    0  0.51823326493E+02  0.22368811532E+02  0.19739858699E+02  0.59797014304E+02  0.00000000000E+00 0.  1.
          2    1    6    6  502    0 -0.59943068499E+03 -0.40638162384E+03  0.16074359337E+03  0.74182320880E+03  0.00000000000E+00 0. -1.
          1    1    5    5  503    0 -0.62132481399E+02  0.23211445383E+03  0.16127010913E+02  0.24082700306E+03  0.00000000000E+00 0. -1.
         -2    1    5    5    0  503  0.19861408151E+02  0.50542835017E+02  0.69535551920E+01  0.54748567425E+02  0.00000000000E+00 0.  1.
         -1    1    6    6    0  502 -0.20024665838E+03 -0.11267292597E+03  0.94539911297E+02  0.24845866309E+03  0.00000000000E+00 0.  1.
<mgrwt>
<rscale>  0 0.21941584E+04</rscale>
<asrwt>0</asrwt>
<pdfrwt beam="1">  1        2 0.25646322E+00 0.21941584E+04</pdfrwt>
<pdfrwt beam="2">  1       -2 0.11107700E+00 0.21941584E+04</pdfrwt>
<totfact> 0.60039734E+00</totfact>
</mgrwt>
</event>
<event>
12    1  0.2214165E-007  0.3033425E+04  0.7818608E-02  0.8234250E-01
         -2   -1    0    0    0  501 -0.00000000000E+00  0.00000000000E+00  0.94056757537E+03  0.94056757537E+03  0.00000000000E+00 0.  1.
          2   -1    0    0  501    0  0.00000000000E+00 -0.00000000000E+00 -0.24457750963E+04  0.24457750963E+04  0.00000000000E+00 0. -1.
         23    2    1    2    0    0  0.52541841193E+03  0.21535469456E+03 -0.20935515162E+04  0.21708369219E+04  0.84456133858E+02 0.  0.
        254    2    1    2    0    0 -0.52541841193E+03 -0.21535469456E+03  0.58834399523E+03  0.12155057498E+04  0.89936834441E+03 0.  0.
        -24    2    4    4    0    0 -0.42673185697E+03  0.26568225123E+03  0.10069987456E+03  0.51882980612E+03  0.79729333464E+02 0.  0.
         24    2    4    4    0    0 -0.98686554967E+02 -0.48103694580E+03  0.48764412067E+03  0.69667594365E+03  0.80156114429E+02 0.  0.
         13    1    3    3    0    0  0.15289773068E+03  0.10304646244E+03 -0.62668795906E+03  0.65324887103E+03  0.00000000000E+00 0.  1.
        -13    1    3    3    0    0  0.37252068125E+03  0.11230823212E+03 -0.14668635571E+04  0.15175880509E+04  0.00000000000E+00 0. -1.
          4    1    6    6  502    0 -0.98770993464E+02 -0.44057297283E+03  0.41367310376E+03  0.61236075177E+03  0.00000000000E+00 0. -1.
          3    1    5    5  503    0 -0.21394123512E+03  0.17453554085E+03  0.35807196892E+02  0.27841634731E+03  0.00000000000E+00 0. -1.
         -4    1    5    5    0  503 -0.21279062185E+03  0.91146710386E+02  0.64892677673E+02  0.24041345881E+03  0.00000000000E+00 0.  1.
         -3    1    6    6    0  502  0.84438496701E-01 -0.40463972967E+02  0.73971016909E+02  0.84315191874E+02  0.00000000000E+00 0.  1.
<mgrwt>
<rscale>  0 0.30334250E+04</rscale>
<asrwt>0</asrwt>
<pdfrwt beam="1">  1        2 0.37627309E+00 0.30334250E+04</pdfrwt>
<pdfrwt beam="2">  1       -2 0.14470270E+00 0.30334250E+04</pdfrwt>
<totfact> 0.10521500E+00</totfact>
</mgrwt>
</event>
<event>
12    1  0.2214165E-007  0.5318872E+04  0.7818608E-02  0.7781116E-01
         -2   -1    0    0    0  501 -0.00000000000E+00  0.00000000000E+00  0.45093765806E+04  0.45093765806E+04  0.00000000000E+00 0. -1.
          2   -1    0    0  501    0  0.00000000000E+00 -0.00000000000E+00 -0.15684205977E+04  0.15684205977E+04  0.00000000000E+00 0.  1.
         23    2    1    2    0    0  0.22066564266E+04 -0.10150794964E+04  0.24312374045E+04  0.34378142445E+04  0.89064546612E+02 0.  0.
        254    2    1    2    0    0 -0.22066564266E+04  0.10150794964E+04  0.50971857841E+03  0.26399829338E+04  0.89998771805E+03 0.  0.
        -24    2    4    4    0    0 -0.79645752217E+02 -0.13516152216E+02  0.23376562026E+03  0.25990264294E+03  0.79855409152E+02 0.  0.
         24    2    4    4    0    0 -0.21270106743E+04  0.10285956486E+04  0.27595295815E+03  0.23800802908E+04  0.80304039056E+02 0.  0.
         11    1    3    3    0    0  0.15726433970E+04 -0.74142102625E+03  0.16876074596E+04  0.24230004808E+04  0.00000000000E+00 0. -1.
        -11    1    3    3    0    0  0.63401302952E+03 -0.27365847011E+03  0.74362994492E+03  0.10148137636E+04  0.00000000000E+00 0.  1.
          2    1    6    6  502    0 -0.19161099721E+03  0.11014724271E+03  0.84695326999E+01  0.22117622457E+03  0.00000000000E+00 0. -1.
          1    1    5    5  503    0  0.15851228631E+02  0.11695309915E+01  0.22043404034E+02  0.27176109237E+02  0.00000000000E+00 0. -1.
         -2    1    5    5    0  503 -0.95496980848E+02 -0.14685683207E+02  0.21172221623E+03  0.23272653370E+03  0.00000000000E+00 0.  1.
         -1    1    6    6    0  502 -0.19353996771E+04  0.91844840586E+03  0.26748342545E+03  0.21589040663E+04  0.00000000000E+00 0.  1.
<mgrwt>
<rscale>  0 0.53188717E+04</rscale>
<asrwt>0</asrwt>
<pdfrwt beam="1">  1        2 0.24129548E+00 0.53188717E+04</pdfrwt>
<pdfrwt beam="2">  1       -2 0.69375024E+00 0.53188717E+04</pdfrwt>
<totfact> 0.19978258E-03</totfact>
</mgrwt>
</event>
<event>
12    1  0.3311012E-007  0.3459056E+04  0.7818608E-02  0.8123562E-01
         -2   -1    0    0    0  501 -0.00000000000E+00  0.00000000000E+00  0.14606978755E+04  0.14606978755E+04  0.00000000000E+00 0.  1.
          2   -1    0    0  501    0  0.00000000000E+00 -0.00000000000E+00 -0.20478344319E+04  0.20478344319E+04  0.00000000000E+00 0. -1.
         23    2    1    2    0    0  0.12706906045E+04  0.98956181759E+03 -0.23630981435E+03  0.16303117582E+04  0.90481474798E+02 0.  0.
        254    2    1    2    0    0 -0.12706906045E+04 -0.98956181759E+03 -0.35082674213E+03  0.18782205492E+04  0.90041425197E+03 0.  0.
        -24    2    4    4    0    0 -0.12044902205E+04 -0.61750293685E+03  0.10280274325E+01  0.13558835472E+04  0.79451673778E+02 0.  0.
         24    2    4    4    0    0 -0.66200384073E+02 -0.37205888074E+03 -0.35185476957E+03  0.52233700202E+03  0.78891464829E+02 0.  0.
         11    1    3    3    0    0  0.29848799678E+03  0.27764013152E+03 -0.43033293809E+02  0.40991583432E+03  0.00000000000E+00 0. -1.
        -11    1    3    3    0    0  0.97220260777E+03  0.71192168606E+03 -0.19327652054E+03  0.12203959239E+04  0.00000000000E+00 0.  1.
          2    1    6    6  502    0 -0.19243151802E+02 -0.16833482822E+03 -0.10708284319E+03  0.20043365134E+03  0.00000000000E+00 0. -1.
          1    1    5    5  503    0 -0.92429132973E+02 -0.33972486164E+02 -0.16789985172E+02  0.99895835951E+02  0.00000000000E+00 0. -1.
         -2    1    5    5    0  503 -0.11120610875E+04 -0.58353045068E+03  0.17818012604E+02  0.12559877112E+04  0.00000000000E+00 0.  1.
         -1    1    6    6    0  502 -0.46957232271E+02 -0.20372405252E+03 -0.24477192638E+03  0.32190335068E+03  0.00000000000E+00 0.  1.
<mgrwt>
<rscale>  0 0.34590562E+04</rscale>
<asrwt>0</asrwt>
<pdfrwt beam="1">  1        2 0.31505145E+00 0.34590562E+04</pdfrwt>
<pdfrwt beam="2">  1       -2 0.22472275E+00 0.34590562E+04</pdfrwt>
<totfact> 0.47805747E-01</totfact>
</mgrwt>
</event>
<event>
12    1  0.2331209E-007  0.1897470E+04  0.7818608E-02  0.8656117E-01
          1   -1    0    0  501    0  0.00000000000E+00  0.00000000000E+00  0.20519008709E+04  0.20519008709E+04  0.00000000000E+00 0.  1.
         -1   -1    0    0    0  501 -0.00000000000E+00 -0.00000000000E+00 -0.43866528689E+03  0.43866528689E+03  0.00000000000E+00 0. -1.
         23    2    1    2    0    0 -0.64671509385E+03  0.32554613102E+03  0.49418172138E+03  0.88156901009E+03  0.93421891323E+02 0.  0.
        254    2    1    2    0    0  0.64671509385E+03 -0.32554613102E+03  0.11190538626E+04  0.16089971477E+04  0.90131547072E+03 0.  0.
        -24    2    4    4    0    0 -0.50384497047E+02 -0.36096266955E+03  0.69418469915E+03  0.78796937860E+03  0.78553795166E+02 0.  0.
         24    2    4    4    0    0  0.69709959090E+03  0.35416538531E+02  0.42486916346E+03  0.82102776906E+03  0.79816168102E+02 0.  0.
         13    1    3    3    0    0 -0.36045200653E+03  0.23158403465E+03  0.30271797784E+03  0.52459030512E+03  0.00000000000E+00 0. -1.
        -13    1    3    3    0    0 -0.28626308732E+03  0.93962096368E+02  0.19146374354E+03  0.35697870497E+03  0.00000000000E+00 0.  1.
          4    1    6    6  502    0  0.34760154701E+03  0.57400534068E+02  0.20820031855E+03  0.40922980028E+03  0.00000000000E+00 0. -1.
          3    1    5    5  503    0 -0.10035724155E+02 -0.26162321109E+03  0.43852694295E+03  0.51073799549E+03  0.00000000000E+00 0. -1.
         -4    1    5    5    0  503 -0.40348772892E+02 -0.99339458458E+02  0.25565775620E+03  0.27723138312E+03  0.00000000000E+00 0.  1.
         -3    1    6    6    0  502  0.34949804389E+03 -0.21983995538E+02  0.21666884491E+03  0.41179796879E+03  0.00000000000E+00 0.  1.
<mgrwt>
<rscale>  0 0.18974696E+04</rscale>
<asrwt>0</asrwt>
<pdfrwt beam="1">  1        1 0.31567705E+00 0.18974696E+04</pdfrwt>
<pdfrwt beam="2">  1       -1 0.67486969E-01 0.18974696E+04</pdfrwt>
<totfact> 0.57180486E+00</totfact>
</mgrwt>
</event>
<event>
12    1  0.2214165E-007  0.2371102E+04  0.7818608E-02  0.8450403E-01
          1   -1    0    0  501    0  0.00000000000E+00  0.00000000000E+00  0.84969642633E+03  0.84969642633E+03  0.00000000000E+00 0. -1.
         -1   -1    0    0    0  501 -0.00000000000E+00 -0.00000000000E+00 -0.16541562573E+04  0.16541562573E+04  0.00000000000E+00 0.  1.
         23    2    1    2    0    0  0.92971764855E+03 -0.30293892191E+03 -0.62722890523E+03  0.11651658577E+04  0.89713321070E+02 0.  0.
        254    2    1    2    0    0 -0.92971764855E+03  0.30293892191E+03 -0.17723092576E+03  0.13386868259E+04  0.89695302020E+03 0.  0.
        -24    2    4    4    0    0 -0.30986033696E+03 -0.19108098973E+03 -0.36189140477E+03  0.52094782184E+03  0.88858714689E+02 0.  0.
         24    2    4    4    0    0 -0.61985731159E+03  0.49401991164E+03  0.18466047901E+03  0.81773900409E+03  0.79491046487E+02 0.  0.
         11    1    3    3    0    0  0.69473202614E+02 -0.13587852850E+00 -0.35309673243E+02  0.77931491510E+02  0.00000000000E+00 0. -1.
        -11    1    3    3    0    0  0.86024444594E+03 -0.30280304338E+03 -0.59191923198E+03  0.10872343662E+04  0.00000000000E+00 0.  1.
          4    1    6    6  502    0 -0.45656907310E+03  0.33133028669E+03  0.15713858018E+03  0.58560021411E+03  0.00000000000E+00 0. -1.
          3    1    5    5  503    0 -0.29788349633E+03 -0.19697664565E+03 -0.36064203209E+03  0.50754019706E+03  0.00000000000E+00 0. -1.
         -4    1    5    5    0  503 -0.11976840628E+02  0.58956559200E+01 -0.12493726758E+01  0.13407624780E+02  0.00000000000E+00 0.  1.
         -3    1    6    6    0  502 -0.16328823849E+03  0.16268962495E+03  0.27521898828E+02  0.23213878998E+03  0.00000000000E+00 0.  1.
<mgrwt>
<rscale>  0 0.23711016E+04</rscale>
<asrwt>0</asrwt>
<pdfrwt beam="1">  1        1 0.13072253E+00 0.23711016E+04</pdfrwt>
<pdfrwt beam="2">  1       -1 0.25448558E+00 0.23711016E+04</pdfrwt>
<totfact> 0.11732475E+00</totfact>
</mgrwt>
</event>
<event>
12    1  0.2214165E-007  0.3635450E+04  0.7818608E-02  0.8082419E-01
         -1   -1    0    0    0  501 -0.00000000000E+00  0.00000000000E+00  0.23501792162E+04  0.23501792162E+04  0.00000000000E+00 0.  1.
          1   -1    0    0  501    0  0.00000000000E+00 -0.00000000000E+00 -0.14059032901E+04  0.14059032901E+04  0.00000000000E+00 0. -1.
         23    2    1    2    0    0 -0.16334684649E+04  0.42627388462E+03  0.69125396214E+03  0.18263983768E+04  0.89276762720E+02 0.  0.
        254    2    1    2    0    0  0.16334684649E+04 -0.42627388462E+03  0.25302196401E+03  0.19296841295E+04  0.89985114040E+03 0.  0.
        -24    2    4    4    0    0  0.44687130964E+03 -0.48307061793E+03 -0.13618882250E+03  0.67672977616E+03  0.79778476279E+02 0.  0.
         24    2    4    4    0    0  0.11865971552E+04  0.56796733311E+02  0.38921078651E+03  0.12529543533E+04  0.84681151838E+02 0.  0.
         13    1    3    3    0    0 -0.27052890476E+03  0.10504948645E+03  0.12349061277E+03  0.31539057430E+03  0.00000000000E+00 0. -1.
        -13    1    3    3    0    0 -0.13629395601E+04  0.32122439817E+03  0.56776334937E+03  0.15110078025E+04  0.00000000000E+00 0.  1.
          2    1    6    6  502    0  0.79970450225E+03  0.64887447535E+00  0.24774817246E+03  0.83720180895E+03  0.00000000000E+00 0. -1.
          1    1    5    5  503    0  0.67338610156E+02 -0.11140724806E+03 -0.45121609084E+02  0.13777526246E+03  0.00000000000E+00 0. -1.
         -2    1    5    5    0  503  0.37953269949E+03 -0.37166336987E+03 -0.91067213417E+02  0.53895451370E+03  0.00000000000E+00 0.  1.
         -1    1    6    6    0  502  0.38689265297E+03  0.56147858835E+02  0.14146261404E+03  0.41575254437E+03  0.00000000000E+00 0.  1.
<mgrwt>
<rscale>  0 0.36354503E+04</rscale>
<asrwt>0</asrwt>
<pdfrwt beam="1">  1        1 0.21629281E+00 0.36354503E+04</pdfrwt>
<pdfrwt beam="2">  1       -1 0.36156603E+00 0.36354503E+04</pdfrwt>
<totfact> 0.79840829E-02</totfact>
</mgrwt>
</event>
<event>
12    1  0.2214165E-007  0.2994499E+04  0.7818608E-02  0.8245304E-01
         -1   -1    0    0    0  501 -0.00000000000E+00  0.00000000000E+00  0.63093645948E+03  0.63093645948E+03  0.00000000000E+00 0.  1.
          1   -1    0    0  501    0  0.00000000000E+00 -0.00000000000E+00 -0.35530608832E+04  0.35530608832E+04  0.00000000000E+00 0. -1.
         23    2    1    2    0    0  0.13486344501E+04  0.89940218950E+02 -0.15455728095E+04  0.20552474888E+04  0.91338972318E+02 0.  0.
        254    2    1    2    0    0 -0.13486344501E+04 -0.89940218950E+02 -0.13765516143E+04  0.21287498539E+04  0.89987636425E+03 0.  0.
        -24    2    4    4    0    0 -0.82897148999E+03 -0.47306169830E+03 -0.96132005862E+03  0.13570032021E+04  0.79626213194E+02 0.  0.
         24    2    4    4    0    0 -0.51966296008E+03  0.38312147935E+03 -0.41523155563E+03  0.77174665180E+03  0.79649166687E+02 0.  0.
         13    1    3    3    0    0  0.85114398418E+03  0.79237125379E+02 -0.91869274158E+03  0.12548788616E+04  0.00000000000E+00 0.  1.
        -13    1    3    3    0    0  0.49749046589E+03  0.10703093571E+02 -0.62688006794E+03  0.80036862722E+03  0.00000000000E+00 0. -1.
          4    1    6    6  502    0 -0.14360101523E+03  0.64791585097E+02 -0.91074929064E+02  0.18197209616E+03  0.00000000000E+00 0. -1.
          3    1    5    5  503    0 -0.82338200854E+02 -0.27538706203E+02 -0.11033090680E+03  0.14039540112E+03  0.00000000000E+00 0. -1.
         -4    1    5    5    0  503 -0.74663328913E+03 -0.44552299210E+03 -0.85098915182E+03  0.12166078010E+04  0.00000000000E+00 0.  1.
         -3    1    6    6    0  502 -0.37606194484E+03  0.31832989425E+03 -0.32415662656E+03  0.58977455564E+03  0.00000000000E+00 0.  1.
<mgrwt>
<rscale>  0 0.29944987E+04</rscale>
<asrwt>0</asrwt>
<pdfrwt beam="1">  1        1 0.54662474E+00 0.29944987E+04</pdfrwt>
<pdfrwt beam="2">  1       -1 0.97067150E-01 0.29944987E+04</pdfrwt>
<totfact> 0.19681881E-01</totfact>
</mgrwt>
</event>
<event>
12    1  0.2214165E-007  0.3532751E+04  0.7818608E-02  0.8106072E-01
          2   -1    0    0  501    0  0.00000000000E+00  0.00000000000E+00  0.28565928918E+04  0.28565928918E+04  0.00000000000E+00 0. -1.
         -2   -1    0    0    0  501 -0.00000000000E+00 -0.00000000000E+00 -0.10922392765E+04  0.10922392765E+04  0.00000000000E+00 0.  1.
         23    2    1    2    0    0  0.13571979310E+04  0.10014293489E+02 -0.22492079533E+03  0.13788555971E+04  0.92557460357E+02 0.  0.
        254    2    1    2    0    0 -0.13571979310E+04 -0.10014293489E+02  0.19892744106E+04  0.25699765712E+04  0.89748559072E+03 0.  0.
        -24    2    4    4    0    0 -0.14614649135E+04 -0.93909162110E+02  0.18438824014E+04  0.23560883070E+04  0.80939336391E+02 0.  0.
         24    2    4    4    0    0  0.10426698250E+03  0.83894868621E+02  0.14539200924E+03  0.21388826415E+03  0.81849866037E+02 0.  0.
         13    1    3    3    0    0  0.80807510974E+03  0.48646622794E+02 -0.14963469676E+03  0.82325112776E+03  0.00000000000E+00 0.  1.
        -13    1    3    3    0    0  0.54912282129E+03 -0.38632329305E+02 -0.75286098572E+02  0.55560446935E+03  0.00000000000E+00 0. -1.
          4    1    6    6  502    0  0.45622024508E+02  0.69258976447E+02  0.12516858707E+03  0.15015109100E+03  0.00000000000E+00 0. -1.
          3    1    5    5  503    0 -0.10236553296E+04 -0.39049640862E+02  0.12467469034E+04  0.16136210675E+04  0.00000000000E+00 0. -1.
         -4    1    5    5    0  503 -0.43780958388E+03 -0.54859521248E+02  0.59713549794E+03  0.74246723949E+03  0.00000000000E+00 0.  1.
         -3    1    6    6    0  502  0.58644957988E+02  0.14635892174E+02  0.20223422170E+02  0.63737173152E+02  0.00000000000E+00 0.  1.
<mgrwt>
<rscale>  0 0.35327513E+04</rscale>
<asrwt>0</asrwt>
<pdfrwt beam="1">  1        2 0.43947583E+00 0.35327513E+04</pdfrwt>
<pdfrwt beam="2">  1       -2 0.16803681E+00 0.35327513E+04</pdfrwt>
<totfact> 0.38517380E-01</totfact>
</mgrwt>
</event>
<event>
12    1  0.2214165E-007  0.2089299E+04  0.7818608E-02  0.8565972E-01
         -2   -1    0    0    0  501 -0.00000000000E+00  0.00000000000E+00  0.93515047080E+03  0.93515047080E+03  0.00000000000E+00 0.  1.
          2   -1    0    0  501    0  0.00000000000E+00 -0.00000000000E+00 -0.11669705793E+04  0.11669705793E+04  0.00000000000E+00 0. -1.
         23    2    1    2    0    0  0.77658846953E+03 -0.29850544778E+03 -0.25764379057E+03  0.87601860678E+03  0.93984696864E+02 0.  0.
        254    2    1    2    0    0 -0.77658846953E+03  0.29850544778E+03  0.25823682074E+02  0.12261024433E+04  0.90025839933E+03 0.  0.
        -24    2    4    4    0    0 -0.45643295286E+03  0.57210448117E+03  0.19870056750E+03  0.76250349295E+03  0.79341561687E+02 0.  0.
         24    2    4    4    0    0 -0.32015551666E+03 -0.27359903338E+03 -0.17287688542E+03  0.46359895036E+03  0.87644642402E+02 0.  0.
         13    1    3    3    0    0  0.33053212347E+03 -0.78394718279E+02 -0.11308562919E+03  0.35803013285E+03  0.00000000000E+00 0.  1.
        -13    1    3    3    0    0  0.44605634606E+03 -0.22011072951E+03 -0.14455816137E+03  0.51798847393E+03  0.00000000000E+00 0. -1.
          2    1    6    6  502    0 -0.14856014979E+03 -0.17911341601E+03 -0.74122900510E+02  0.24422517946E+03  0.00000000000E+00 0. -1.
          3    1    5    5  503    0 -0.88067534401E+02  0.16304308902E+03  0.39533701119E+02  0.18947784308E+03  0.00000000000E+00 0. -1.
         -4    1    5    5    0  503 -0.36836541846E+03  0.40906139215E+03  0.15916686638E+03  0.57302564988E+03  0.00000000000E+00 0.  1.
         -1    1    6    6    0  502 -0.17159536688E+03 -0.94485617368E+02 -0.98753984912E+02  0.21937377090E+03  0.00000000000E+00 0.  1.
<mgrwt>
<rscale>  0 0.20892995E+04</rscale>
<asrwt>0</asrwt>
<pdfrwt beam="1">  1        2 0.17953393E+00 0.20892995E+04</pdfrwt>
<pdfrwt beam="2">  1       -2 0.14386930E+00 0.20892995E+04</pdfrwt>
<totfact> 0.61173644E+00</totfact>
</mgrwt>
</event>
<event>
12    1  0.2214165E-007  0.2528162E+04  0.7818608E-02  0.8393021E-01
          1   -1    0    0  501    0  0.00000000000E+00  0.00000000000E+00  0.18166377411E+04  0.18166377411E+04  0.00000000000E+00 0. -1.
         -1   -1    0    0    0  501 -0.00000000000E+00 -0.00000000000E+00 -0.87959215035E+03  0.87959215035E+03  0.00000000000E+00 0.  1.
         23    2    1    2    0    0  0.48088414831E+03  0.61265745677E+03 -0.42044365844E+03  0.88928573621E+03  0.86356975804E+02 0.  0.
        254    2    1    2    0    0 -0.48088414831E+03 -0.61265745677E+03  0.13574892492E+04  0.18069441552E+04  0.90314527904E+03 0.  0.
        -24    2    4    4    0    0  0.13639336311E+03  0.30546501834E+02 -0.21212846180E+02  0.16314397554E+03  0.81423176295E+02 0.  0.
         24    2    4    4    0    0 -0.61727751143E+03 -0.64320395860E+03  0.13787020953E+04  0.16438001797E+04  0.80726108021E+02 0.  0.
         11    1    3    3    0    0  0.92269430512E+02  0.12426524533E+03 -0.46107514431E+02  0.16149737426E+03  0.00000000000E+00 0. -1.
        -11    1    3    3    0    0  0.38861471780E+03  0.48839221143E+03 -0.37433614401E+03  0.72778836195E+03  0.00000000000E+00 0.  1.
          2    1    6    6  502    0 -0.45582221854E+03 -0.42883890533E+03  0.93012545032E+03  0.11210754011E+04  0.00000000000E+00 0. -1.
          1    1    5    5  503    0  0.73631423543E+02  0.18345649491E+02 -0.52190693950E+02  0.92097871437E+02  0.00000000000E+00 0. -1.
         -2    1    5    5    0  503  0.62761939570E+02  0.12200852344E+02  0.30977847770E+02  0.71046104108E+02  0.00000000000E+00 0.  1.
         -1    1    6    6    0  502 -0.16145529289E+03 -0.21436505327E+03  0.44857664501E+03  0.52272477855E+03  0.00000000000E+00 0.  1.
<mgrwt>
<rscale>  0 0.25281616E+04</rscale>
<asrwt>0</asrwt>
<pdfrwt beam="1">  1        1 0.27948273E+00 0.25281616E+04</pdfrwt>
<pdfrwt beam="2">  1       -1 0.13532187E+00 0.25281616E+04</pdfrwt>
<totfact> 0.16104162E+00</totfact>
</mgrwt>
</event>
<event>
12    1  0.2214165E-007  0.2115432E+04  0.7818608E-02  0.8554476E-01
         -1   -1    0    0    0  501 -0.00000000000E+00  0.00000000000E+00  0.78286777129E+03  0.78286777129E+03  0.00000000000E+00 0.  1.
          1   -1    0    0  501    0  0.00000000000E+00 -0.00000000000E+00 -0.14290570295E+04  0.14290570295E+04  0.00000000000E+00 0. -1.
         23    2    1    2    0    0  0.58520491823E+02 -0.80034216741E+03 -0.60090637137E+03  0.10067899243E+04  0.92548644390E+02 0.  0.
        254    2    1    2    0    0 -0.58520491823E+02  0.80034216741E+03 -0.45282886878E+02  0.12051348765E+04  0.89795729181E+03 0.  0.
        -24    2    4    4    0    0  0.15419420859E+03 -0.77691028379E+02  0.18932834250E+03  0.26834708534E+03  0.79706882268E+02 0.  0.
         24    2    4    4    0    0 -0.21271470042E+03  0.87803319579E+03 -0.23461122938E+03  0.93678779120E+03  0.79618465912E+02 0.  0.
         11    1    3    3    0    0 -0.19465281015E+02 -0.99094484744E+02 -0.94412733445E+02  0.13824752550E+03  0.00000000000E+00 0. -1.
        -11    1    3    3    0    0  0.77985772838E+02 -0.70124768267E+03 -0.50649363792E+03  0.86854239877E+03  0.00000000000E+00 0.  1.
          4    1    6    6  502    0 -0.24854948140E+02  0.76706058386E+02  0.11260843610E+01  0.80640287116E+02  0.00000000000E+00 0. -1.
          1    1    5    5  503    0 -0.26775753367E+01  0.96435990322E-01  0.34528274117E+02  0.34632072175E+02  0.00000000000E+00 0. -1.
         -2    1    5    5    0  503  0.15687178393E+03 -0.77787464370E+02  0.15480006839E+03  0.23371501317E+03  0.00000000000E+00 0.  1.
         -3    1    6    6    0  502 -0.18785975228E+03  0.80132713740E+03 -0.23573731374E+03  0.85614750409E+03  0.00000000000E+00 0.  1.
<mgrwt>
<rscale>  0 0.21154316E+04</rscale>
<asrwt>0</asrwt>
<pdfrwt beam="1">  1        1 0.21985493E+00 0.21154316E+04</pdfrwt>
<pdfrwt beam="2">  1       -1 0.12044120E+00 0.21154316E+04</pdfrwt>
<totfact> 0.41307784E+00</totfact>
</mgrwt>
</event>
<event>
12    1  0.2214165E-007  0.1847262E+04  0.7818608E-02  0.8681562E-01
          2   -1    0    0  501    0  0.00000000000E+00  0.00000000000E+00  0.18761544949E+04  0.18761544949E+04  0.00000000000E+00 0. -1.
         -2   -1    0    0    0  501 -0.00000000000E+00 -0.00000000000E+00 -0.45470340334E+03  0.45470340334E+03  0.00000000000E+00 0.  1.
         23    2    1    2    0    0 -0.25656928832E+03 -0.64924300212E+02 -0.27653979077E+03  0.39310908545E+03  0.89540676354E+02 0.  0.
        254    2    1    2    0    0  0.25656928832E+03  0.64924300212E+02  0.16979908824E+04  0.19377488128E+04  0.89535158488E+03 0.  0.
        -24    2    4    4    0    0  0.43833921074E+03 -0.97617678673E+02  0.15976911478E+04  0.16615240537E+04  0.79841731691E+02 0.  0.
         24    2    4    4    0    0 -0.18176992242E+03  0.16254197888E+03  0.10029973451E+03  0.27622475916E+03  0.82340034206E+02 0.  0.
         11    1    3    3    0    0 -0.15314184299E+03 -0.25555905560E+02 -0.21878947017E+03  0.26828037692E+03  0.00000000000E+00 0.  1.
        -11    1    3    3    0    0 -0.10342744533E+03 -0.39368394652E+02 -0.57750320597E+02  0.12482870853E+03  0.00000000000E+00 0. -1.
          4    1    6    6  502    0 -0.11370176437E+01  0.35727515609E+02  0.61166217254E+01  0.36265151896E+02  0.00000000000E+00 0. -1.
          3    1    5    5  503    0  0.52358186272E+02 -0.98754397759E+01  0.11232829277E+03  0.12432437146E+03  0.00000000000E+00 0. -1.
         -4    1    5    5    0  503  0.38598102447E+03 -0.87742238897E+02  0.14853628551E+04  0.15371996822E+04  0.00000000000E+00 0.  1.
         -3    1    6    6    0  502 -0.18063290478E+03  0.12681446328E+03  0.94183112782E+02  0.23995960726E+03  0.00000000000E+00 0.  1.
<mgrwt>
<rscale>  0 0.18472616E+04</rscale>
<asrwt>0</asrwt>
<pdfrwt beam="1">  1        2 0.28863915E+00 0.18472616E+04</pdfrwt>
<pdfrwt beam="2">  1       -2 0.69954371E-01 0.18472616E+04</pdfrwt>
<totfact> 0.13704938E+01</totfact>
</mgrwt>
</event>
<event>
12    1  0.2214165E-007  0.2067105E+04  0.7818608E-02  0.8575874E-01
          2   -1    0    0  501    0  0.00000000000E+00  0.00000000000E+00  0.56386375111E+03  0.56386375111E+03  0.00000000000E+00 0. -1.
         -2   -1    0    0    0  501 -0.00000000000E+00 -0.00000000000E+00 -0.18944842365E+04  0.18944842365E+04  0.00000000000E+00 0.  1.
         23    2    1    2    0    0  0.81771293852E+03  0.22582522900E+02 -0.75364678917E+03  0.11158468730E+04  0.89254361002E+02 0.  0.
        254    2    1    2    0    0 -0.81771293852E+03 -0.22582522900E+02 -0.57697369626E+03  0.13425011147E+04  0.89456479728E+03 0.  0.
        -24    2    4    4    0    0 -0.46906981947E+02 -0.11780859739E+03 -0.54101729557E+03  0.56095223944E+03  0.76737020126E+02 0.  0.
         24    2    4    4    0    0 -0.77080595657E+03  0.95226074494E+02 -0.35956400686E+02  0.78154887521E+03  0.79472974342E+02 0.  0.
         13    1    3    3    0    0  0.28529770955E+03  0.44849591155E+02 -0.23648023452E+03  0.37326822825E+03  0.00000000000E+00 0.  1.
        -13    1    3    3    0    0  0.53241522897E+03 -0.22267068255E+02 -0.51716655465E+03  0.74257864474E+03  0.00000000000E+00 0. -1.
          4    1    6    6  502    0 -0.53132970272E+03  0.32264601511E+02 -0.40977213642E+02  0.53388331079E+03  0.00000000000E+00 0. -1.
          3    1    5    5  503    0  0.15805971030E+02 -0.13475451198E+01 -0.52496101302E+02  0.54840543852E+02  0.00000000000E+00 0. -1.
         -4    1    5    5    0  503 -0.62712952977E+02 -0.11646105227E+03 -0.48852119427E+03  0.50611169559E+03  0.00000000000E+00 0.  1.
         -3    1    6    6    0  502 -0.23947625385E+03  0.62961472984E+02  0.50208129556E+01  0.24766556442E+03  0.00000000000E+00 0.  1.
<mgrwt>
<rscale>  0 0.20671052E+04</rscale>
<asrwt>0</asrwt>
<pdfrwt beam="1">  1        2 0.86748270E-01 0.20671052E+04</pdfrwt>
<pdfrwt beam="2">  1       -2 0.29145911E+00 0.20671052E+04</pdfrwt>
<totfact> 0.17713513E+00</totfact>
</mgrwt>
</event>
<event>
12    1  0.2214165E-007  0.1476101E+04  0.7818608E-02  0.8900503E-01
         -2   -1    0    0    0  501 -0.00000000000E+00  0.00000000000E+00  0.31965546357E+03  0.31965546357E+03  0.00000000000E+00 0.  1.
          2   -1    0    0  501    0  0.00000000000E+00 -0.00000000000E+00 -0.17040797639E+04  0.17040797639E+04  0.00000000000E+00 0. -1.
         23    2    1    2    0    0 -0.33719939424E+03 -0.16234835921E+03 -0.79604244561E+03  0.88442853606E+03  0.92031728025E+02 0.  0.
        254    2    1    2    0    0  0.33719939424E+03  0.16234835921E+03 -0.58838185470E+03  0.11393066914E+04  0.90098063736E+03 0.  0.
        -24    2    4    4    0    0 -0.18304040581E+03 -0.22252384665E+03 -0.30923819701E+03  0.42997816612E+03  0.78944970426E+02 0.  0.
         24    2    4    4    0    0  0.52023980005E+03  0.38487220586E+03 -0.27914365769E+03  0.70932852528E+03  0.80310091139E+02 0.  0.
         13    1    3    3    0    0 -0.28303765299E+03 -0.12798036536E+03 -0.72482803976E+03  0.78858415794E+03  0.00000000000E+00 0. -1.
        -13    1    3    3    0    0 -0.54161741245E+02 -0.34367993847E+02 -0.71214405847E+02  0.95844378113E+02  0.00000000000E+00 0.  1.
          2    1    6    6  502    0  0.16736137888E+03  0.17193006919E+03 -0.10423424482E+03  0.26159999546E+03  0.00000000000E+00 0. -1.
          1    1    5    5  503    0 -0.43348026626E+01  0.59037651331E+01 -0.22657260308E+01  0.76667118974E+01  0.00000000000E+00 0. -1.
         -2    1    5    5    0  503 -0.17870560315E+03 -0.22842761179E+03 -0.30697247098E+03  0.42231145422E+03  0.00000000000E+00 0.  1.
         -1    1    6    6    0  502  0.35287842117E+03  0.21294213667E+03 -0.17490941287E+03  0.44772852982E+03  0.00000000000E+00 0.  1.
<mgrwt>
<rscale>  0 0.14761008E+04</rscale>
<asrwt>0</asrwt>
<pdfrwt beam="1">  1        2 0.26216612E+00 0.14761008E+04</pdfrwt>
<pdfrwt beam="2">  1       -2 0.49177763E-01 0.14761008E+04</pdfrwt>
<totfact> 0.36958584E+01</totfact>
</mgrwt>
</event>
<event>
12    1  0.2214165E-007  0.1408466E+04  0.7818608E-02  0.8947713E-01
         -2   -1    0    0    0  501 -0.00000000000E+00  0.00000000000E+00  0.52264618044E+03  0.52264618044E+03  0.00000000000E+00 0.  1.
          2   -1    0    0  501    0  0.00000000000E+00 -0.00000000000E+00 -0.94890940403E+03  0.94890940403E+03  0.00000000000E+00 0. -1.
         23    2    1    2    0    0 -0.10073493230E+03  0.39221190964E+03 -0.18911789701E+03  0.45626166007E+03  0.91822735935E+02 0.  0.
        254    2    1    2    0    0  0.10073493230E+03 -0.39221190964E+03 -0.23714532659E+03  0.10152939244E+04  0.90033668055E+03 0.  0.
        -24    2    4    4    0    0  0.29916937341E+03 -0.48480876699E+03 -0.42596032203E+03  0.71582453742E+03  0.80129382217E+02 0.  0.
         24    2    4    4    0    0 -0.19843444111E+03  0.92596857354E+02  0.18881499544E+03  0.29946938697E+03  0.77976956980E+02 0.  0.
         13    1    3    3    0    0 -0.95394894280E+02  0.22028833800E+03 -0.13764441615E+03  0.27671849055E+03  0.00000000000E+00 0. -1.
        -13    1    3    3    0    0 -0.53400380238E+01  0.17192357164E+03 -0.51473480857E+02  0.17954316953E+03  0.00000000000E+00 0.  1.
          4    1    6    6  502    0 -0.35144998825E+02  0.27137165710E+02  0.83124407012E+02  0.94240457057E+02  0.00000000000E+00 0. -1.
          3    1    5    5  503    0  0.19239999398E+03 -0.29558184903E+03 -0.30992495660E+03  0.46951024044E+03  0.00000000000E+00 0. -1.
         -4    1    5    5    0  503  0.10676937944E+03 -0.18922691796E+03 -0.11603536543E+03  0.24631429698E+03  0.00000000000E+00 0.  1.
         -3    1    6    6    0  502 -0.16328944229E+03  0.65459691643E+02  0.10569058843E+03  0.20522892992E+03  0.00000000000E+00 0.  1.
<mgrwt>
<rscale>  0 0.14084657E+04</rscale>
<asrwt>0</asrwt>
<pdfrwt beam="1">  1        2 0.14598606E+00 0.14084657E+04</pdfrwt>
<pdfrwt beam="2">  1       -2 0.80407106E-01 0.14084657E+04</pdfrwt>
<totfact> 0.36160685E+01</totfact>
</mgrwt>
</event>
<event>
12    1  0.2214165E-007  0.1045933E+04  0.7818608E-02  0.9259553E-01
         -1   -1    0    0    0  501 -0.00000000000E+00  0.00000000000E+00  0.17363013746E+03  0.17363013746E+03  0.00000000000E+00 0.  1.
          1   -1    0    0  501    0  0.00000000000E+00 -0.00000000000E+00 -0.15751516082E+04  0.15751516082E+04  0.00000000000E+00 0. -1.
         23    2    1    2    0    0  0.62140250689E+02 -0.21808590547E+02 -0.58531923760E+02  0.12639369617E+03  0.90622044534E+02 0.  0.
        254    2    1    2    0    0 -0.62140250689E+02  0.21808590547E+02 -0.13429895470E+04  0.16223880495E+04  0.90784637162E+03 0.  0.
        -24    2    4    4    0    0  0.33217239331E+03 -0.21910208040E+03 -0.40418965406E+03  0.57297737510E+03  0.81176199826E+02 0.  0.
         24    2    4    4    0    0 -0.39431264399E+03  0.24091067095E+03 -0.93879989290E+03  0.10494106744E+04  0.79981947955E+02 0.  0.
         11    1    3    3    0    0  0.62729559731E+02 -0.41108322910E+02 -0.11919816956E+02  0.75940594630E+02  0.00000000000E+00 0.  1.
        -11    1    3    3    0    0 -0.58930904194E+00  0.19299732363E+02 -0.46612106804E+02  0.50453101542E+02  0.00000000000E+00 0. -1.
          4    1    6    6  502    0 -0.20857346389E+03  0.92395869268E+02 -0.40035380992E+03  0.46078526410E+03  0.00000000000E+00 0. -1.
          1    1    5    5  503    0  0.55544391142E+02 -0.63487630057E+02 -0.12170866970E+03  0.14808395875E+03  0.00000000000E+00 0. -1.
         -2    1    5    5    0  503  0.27662800216E+03 -0.15561445034E+03 -0.28248098436E+03  0.42489341635E+03  0.00000000000E+00 0.  1.
         -3    1    6    6    0  502 -0.18573918010E+03  0.14851480168E+03 -0.53844608299E+03  0.58862541028E+03  0.00000000000E+00 0.  1.
<mgrwt>
<rscale>  0 0.10459327E+04</rscale>
<asrwt>0</asrwt>
<pdfrwt beam="1">  1        1 0.24233103E+00 0.10459327E+04</pdfrwt>
<pdfrwt beam="2">  1       -1 0.26712328E-01 0.10459327E+04</pdfrwt>
<totfact> 0.72527088E+01</totfact>
</mgrwt>
</event>
<event>
12    1  0.2214165E-007  0.1093481E+04  0.7818608E-02  0.9211569E-01
         -1   -1    0    0    0  501 -0.00000000000E+00  0.00000000000E+00  0.23511077384E+03  0.23511077384E+03  0.00000000000E+00 0.  1.
          1   -1    0    0  501    0  0.00000000000E+00 -0.00000000000E+00 -0.12714218116E+04  0.12714218116E+04  0.00000000000E+00 0. -1.
         23    2    1    2    0    0 -0.46347808759E+02 -0.14707728125E+03 -0.16566073068E+03  0.24446017353E+03  0.92398337188E+02 0.  0.
        254    2    1    2    0    0  0.46347808759E+02  0.14707728125E+03 -0.87065030705E+03  0.12620724119E+04  0.90056369550E+03 0.  0.
        -24    2    4    4    0    0  0.42144784904E+03 -0.51715071899E+02 -0.22899971277E+03  0.48866547930E+03  0.77848211825E+02 0.  0.
         24    2    4    4    0    0 -0.37510004029E+03  0.19879235315E+03 -0.64165059428E+03  0.77340693259E+03  0.78894602753E+02 0.  0.
         13    1    3    3    0    0 -0.72759851541E+02 -0.10223587704E+03 -0.98671883485E+02  0.15963179865E+03  0.00000000000E+00 0. -1.
        -13    1    3    3    0    0  0.26412042782E+02 -0.44841404211E+02 -0.66988847199E+02  0.84828374879E+02  0.00000000000E+00 0.  1.
          2    1    6    6  502    0 -0.23805251150E+02 -0.54764732818E+01 -0.49942761031E+02  0.55596412846E+02  0.00000000000E+00 0. -1.
          1    1    5    5  503    0  0.10871943190E+03 -0.24293628194E+02 -0.24678044483E+02  0.11410127573E+03  0.00000000000E+00 0. -1.
         -2    1    5    5    0  503  0.31272841715E+03 -0.27421443705E+02 -0.20432166829E+03  0.37456420357E+03  0.00000000000E+00 0.  1.
         -3    1    6    6    0  502 -0.35129478914E+03  0.20426882643E+03 -0.59170783325E+03  0.71781051974E+03  0.00000000000E+00 0.  1.
<mgrwt>
<rscale>  0 0.10934806E+04</rscale>
<asrwt>0</asrwt>
<pdfrwt beam="1">  1        1 0.19560335E+00 0.10934806E+04</pdfrwt>
<pdfrwt beam="2">  1       -1 0.36170889E-01 0.10934806E+04</pdfrwt>
<totfact> 0.69091332E+01</totfact>
</mgrwt>
</event>
<event>
12    1  0.2214165E-007  0.1343477E+04  0.7818608E-02  0.8995781E-01
          1   -1    0    0  501    0  0.00000000000E+00  0.00000000000E+00  0.72546080841E+03  0.72546080841E+03  0.00000000000E+00 0. -1.
         -1   -1    0    0    0  501 -0.00000000000E+00 -0.00000000000E+00 -0.62199404791E+03  0.62199404791E+03  0.00000000000E+00 0.  1.
         23    2    1    2    0    0 -0.14952343018E+03 -0.20964610910E+03  0.28266330704E+03  0.39396831135E+03  0.94888028547E+02 0.  0.
        254    2    1    2    0    0  0.14952343018E+03  0.20964610910E+03 -0.17919654654E+03  0.95348654498E+03  0.90039793532E+03 0.  0.
        -24    2    4    4    0    0 -0.29562577131E+03  0.96098998863E+01  0.16805714582E+03  0.34945427812E+03  0.79925849367E+02 0.  0.
         24    2    4    4    0    0  0.44514920149E+03  0.20003620922E+03 -0.34725369236E+03  0.60403226686E+03  0.78086848843E+02 0.  0.
         11    1    3    3    0    0 -0.13573562566E+03 -0.14761786087E+03  0.25565975092E+03  0.32492630113E+03  0.00000000000E+00 0. -1.
        -11    1    3    3    0    0 -0.13787804520E+02 -0.62028248233E+02  0.27003556124E+02  0.69042010223E+02  0.00000000000E+00 0.  1.
          4    1    6    6  502    0  0.74630450546E+02  0.66108406438E+02 -0.81870092138E+02  0.12900673446E+03  0.00000000000E+00 0. -1.
          1    1    5    5  503    0 -0.41098021532E+02  0.78792851449E+01 -0.42820085469E+01  0.42065022351E+02  0.00000000000E+00 0. -1.
         -2    1    5    5    0  503 -0.25452774978E+03  0.17306147414E+01  0.17233915436E+03  0.30738925577E+03  0.00000000000E+00 0.  1.
         -3    1    6    6    0  502  0.37051875095E+03  0.13392780278E+03 -0.26538360022E+03  0.47502553239E+03  0.00000000000E+00 0.  1.
<mgrwt>
<rscale>  0 0.13434765E+04</rscale>
<asrwt>0</asrwt>
<pdfrwt beam="1">  1        1 0.11160936E+00 0.13434765E+04</pdfrwt>
<pdfrwt beam="2">  1       -1 0.95691392E-01 0.13434765E+04</pdfrwt>
<totfact> 0.26619918E+01</totfact>
</mgrwt>
</event>
<event>
12    1  0.2214165E-007  0.1613011E+04  0.7818608E-02  0.8812595E-01
         -1   -1    0    0    0  501 -0.00000000000E+00  0.00000000000E+00  0.46444916185E+03  0.46444916185E+03  0.00000000000E+00 0.  1.
          1   -1    0    0  501    0  0.00000000000E+00 -0.00000000000E+00 -0.14004779111E+04  0.14004779111E+04  0.00000000000E+00 0. -1.
         23    2    1    2    0    0 -0.71639452090E+02  0.10850282934E+03 -0.94496505417E+03  0.95817904055E+03  0.90791216999E+02 0.  0.
        254    2    1    2    0    0  0.71639452090E+02 -0.10850282934E+03  0.89363049397E+01  0.90674803238E+03  0.89733330575E+03 0.  0.
        -24    2    4    4    0    0 -0.81583826153E+02 -0.42629589478E+02 -0.42127872063E+03  0.43845554313E+03  0.79336626237E+02 0.  0.
         24    2    4    4    0    0  0.15322327824E+03 -0.65873239863E+02  0.43021502557E+03  0.46829248924E+03  0.79976437367E+02 0.  0.
         11    1    3    3    0    0 -0.86094497804E+02  0.93615559406E+02 -0.64037869559E+03  0.65288667415E+03  0.00000000000E+00 0.  1.
        -11    1    3    3    0    0  0.14455045714E+02  0.14887269935E+02 -0.30458635857E+03  0.30529236640E+03  0.00000000000E+00 0. -1.
          4    1    6    6  502    0  0.74488030040E+02  0.19129079486E+01  0.12113112847E+03  0.14221419100E+03  0.00000000000E+00 0. -1.
          3    1    5    5  503    0 -0.33900636082E+02 -0.24800264690E+02 -0.57916661958E+02  0.71544713206E+02  0.00000000000E+00 0. -1.
         -4    1    5    5    0  503 -0.47683190072E+02 -0.17829324789E+02 -0.36336205867E+03  0.36691082993E+03  0.00000000000E+00 0.  1.
         -3    1    6    6    0  502  0.78735248204E+02 -0.67786147812E+02  0.30908389709E+03  0.32607829825E+03  0.00000000000E+00 0.  1.
<mgrwt>
<rscale>  0 0.16130106E+04</rscale>
<asrwt>0</asrwt>
<pdfrwt beam="1">  1        1 0.21545814E+00 0.16130106E+04</pdfrwt>
<pdfrwt beam="2">  1       -1 0.71453716E-01 0.16130106E+04</pdfrwt>
<totfact> 0.14551452E+01</totfact>
</mgrwt>
</event>
<event>
12    1  0.2238632E-007  0.3188916E+04  0.7818608E-02  0.8191751E-01
         -1   -1    0    0    0  501 -0.00000000000E+00  0.00000000000E+00  0.10728494965E+04  0.10728494965E+04  0.00000000000E+00 0.  1.
          1   -1    0    0  501    0  0.00000000000E+00 -0.00000000000E+00 -0.23696667840E+04  0.23696667840E+04  0.00000000000E+00 0. -1.
         23    2    1    2    0    0  0.11993593631E+04  0.78360133280E+03 -0.93269497711E+03  0.17120022853E+04  0.92401157684E+02 0.  0.
        254    2    1    2    0    0 -0.11993593631E+04 -0.78360133280E+03 -0.36412231036E+03  0.17305139952E+04  0.89977758381E+03 0.  0.
        -24    2    4    4    0    0  0.13090584626E+03 -0.10640411432E+03  0.18616546148E+02  0.18745386149E+03  0.79587676626E+02 0.  0.
         24    2    4    4    0    0 -0.13302652093E+04 -0.67719721848E+03 -0.38273885651E+03  0.15430601337E+04  0.79648881208E+02 0.  0.
         11    1    3    3    0    0  0.15635674743E+03  0.13776009625E+03 -0.12017903034E+03  0.24055825888E+03  0.00000000000E+00 0. -1.
        -11    1    3    3    0    0  0.10430026156E+04  0.64584123655E+03 -0.81251594677E+03  0.14714440264E+04  0.00000000000E+00 0.  1.
          2    1    6    6  502    0 -0.11236130011E+04 -0.55743724736E+03 -0.29419427067E+03  0.12883294337E+04  0.00000000000E+00 0. -1.
          1    1    5    5  503    0  0.13052895636E+03 -0.77655386190E+02 -0.22995212028E+01  0.15189949062E+03  0.00000000000E+00 0. -1.
         -2    1    5    5    0  503  0.37688989872E+00 -0.28748728129E+02  0.20916067351E+02  0.35554370877E+02  0.00000000000E+00 0.  1.
         -1    1    6    6    0  502 -0.20665220824E+03 -0.11975997111E+03 -0.88544585840E+02  0.25473070002E+03  0.00000000000E+00 0.  1.
<mgrwt>
<rscale>  0 0.31889157E+04</rscale>
<asrwt>0</asrwt>
<pdfrwt beam="1">  1        1 0.36456412E+00 0.31889157E+04</pdfrwt>
<pdfrwt beam="2">  1       -1 0.16505377E+00 0.31889157E+04</pdfrwt>
<totfact> 0.37369011E-01</totfact>
</mgrwt>
</event>
<event>
12    1  0.2214165E-007  0.2232826E+04  0.7818608E-02  0.8504888E-01
          1   -1    0    0  501    0  0.00000000000E+00  0.00000000000E+00  0.13030321502E+04  0.13030321502E+04  0.00000000000E+00 0. -1.
         -1   -1    0    0    0  501 -0.00000000000E+00 -0.00000000000E+00 -0.95652086619E+03  0.95652086619E+03  0.00000000000E+00 0.  1.
         23    2    1    2    0    0 -0.15636419783E+03 -0.91357625421E+03  0.18790338950E+03  0.95011501172E+03  0.91320956513E+02 0.  0.
        254    2    1    2    0    0  0.15636419783E+03  0.91357625421E+03  0.15860789451E+03  0.13094380047E+04  0.91126290896E+03 0.  0.
        -24    2    4    4    0    0  0.10939328266E+03  0.13846495935E+03  0.43939954607E+03  0.47995257935E+03  0.78377816265E+02 0.  0.
         24    2    4    4    0    0  0.46970915171E+02  0.77511129485E+03 -0.28079165155E+03  0.82948542531E+03  0.78729492198E+02 0.  0.
         13    1    3    3    0    0 -0.23565110953E+02 -0.37661083840E+03  0.56210217919E+02  0.38151097842E+03  0.00000000000E+00 0. -1.
        -13    1    3    3    0    0 -0.13279908688E+03 -0.53696541580E+03  0.13169317158E+03  0.56860403330E+03  0.00000000000E+00 0.  1.
          2    1    6    6  502    0  0.51507693828E+02  0.47092175175E+03 -0.20355100988E+03  0.51560968999E+03  0.00000000000E+00 0. -1.
          1    1    5    5  503    0  0.29386933449E+02  0.90760246464E+02  0.27392066854E+03  0.29005783363E+03  0.00000000000E+00 0. -1.
         -2    1    5    5    0  503  0.80006349208E+02  0.47704712888E+02  0.16547887753E+03  0.18989474572E+03  0.00000000000E+00 0.  1.
         -1    1    6    6    0  502 -0.45367786570E+01  0.30418954311E+03 -0.77240641676E+02  0.31387573532E+03  0.00000000000E+00 0.  1.
<mgrwt>
<rscale>  0 0.22328255E+04</rscale>
<asrwt>0</asrwt>
<pdfrwt beam="1">  1        1 0.20046648E+00 0.22328255E+04</pdfrwt>
<pdfrwt beam="2">  1       -1 0.14715706E+00 0.22328255E+04</pdfrwt>
<totfact> 0.30058646E+00</totfact>
</mgrwt>
</event>
<event>
12    1  0.2214165E-007  0.1551252E+04  0.7818608E-02  0.8851069E-01
         -1   -1    0    0    0  501 -0.00000000000E+00  0.00000000000E+00  0.70506620747E+03  0.70506620747E+03  0.00000000000E+00 0. -1.
          1   -1    0    0  501    0  0.00000000000E+00 -0.00000000000E+00 -0.85324658621E+03  0.85324658621E+03  0.00000000000E+00 0.  1.
         23    2    1    2    0    0 -0.39138339901E+03  0.13106804588E+03  0.25095136905E+03  0.49130623672E+03  0.89696326223E+02 0.  0.
        254    2    1    2    0    0  0.39138339901E+03 -0.13106804588E+03 -0.39913174778E+03  0.10670065570E+04  0.89935368062E+03 0.  0.
        -24    2    4    4    0    0 -0.15109275189E+03  0.72328116679E+02  0.16976810826E+03  0.25099253899E+03  0.78202735967E+02 0.  0.
         24    2    4    4    0    0  0.54247615090E+03 -0.20339616256E+03 -0.56889985604E+03  0.81601401797E+03  0.81126186113E+02 0.  0.
         13    1    3    3    0    0 -0.26529683229E+03  0.46580343343E+02  0.17843454926E+03  0.32309600118E+03  0.00000000000E+00 0. -1.
        -13    1    3    3    0    0 -0.12608656672E+03  0.84487702535E+02  0.72516819792E+02  0.16821023554E+03  0.00000000000E+00 0.  1.
          4    1    6    6  502    0  0.25452769998E+03 -0.13371230058E+03 -0.30668123423E+03  0.42037686522E+03  0.00000000000E+00 0. -1.
          1    1    5    5  503    0 -0.16385958397E+02  0.37833260646E+02  0.64650152510E+02  0.76677881187E+02  0.00000000000E+00 0. -1.
         -2    1    5    5    0  503 -0.13470679349E+03  0.34494856033E+02  0.10511795575E+03  0.17431465781E+03  0.00000000000E+00 0.  1.
         -3    1    6    6    0  502  0.28794845092E+03 -0.69683861976E+02 -0.26221862181E+03  0.39563715274E+03  0.00000000000E+00 0.  1.
<mgrwt>
<rscale>  0 0.15512515E+04</rscale>
<asrwt>0</asrwt>
<pdfrwt beam="1">  1        1 0.13126871E+00 0.15512515E+04</pdfrwt>
<pdfrwt beam="2">  1       -1 0.10847172E+00 0.15512515E+04</pdfrwt>
<totfact> 0.15128484E+01</totfact>
</mgrwt>
</event>
<event>
12    1  0.2214165E-007  0.1243591E+04  0.7818608E-02  0.9075534E-01
         -2   -1    0    0    0  501 -0.00000000000E+00  0.00000000000E+00  0.45524677083E+03  0.45524677083E+03  0.00000000000E+00 0.  1.
          2   -1    0    0  501    0  0.00000000000E+00 -0.00000000000E+00 -0.84927471914E+03  0.84927471914E+03  0.00000000000E+00 0. -1.
         23    2    1    2    0    0 -0.20840293759E+03 -0.11624608031E+03 -0.26928990372E+03  0.36945090161E+03  0.83856907114E+02 0.  0.
        254    2    1    2    0    0  0.20840293759E+03  0.11624608031E+03 -0.12473804460E+03  0.93507058836E+03  0.89546216551E+03 0.  0.
        -24    2    4    4    0    0 -0.14101792847E+03 -0.31247339571E+03  0.34425751289E+02  0.35401931899E+03  0.81356417640E+02 0.  0.
         24    2    4    4    0    0  0.34942086606E+03  0.42871947602E+03 -0.15916379589E+03  0.58105126937E+03  0.79950815897E+02 0.  0.
         11    1    3    3    0    0 -0.12330229844E+03 -0.10461439113E+03 -0.13811881430E+03  0.21266037359E+03  0.00000000000E+00 0.  1.
        -11    1    3    3    0    0 -0.85100639146E+02 -0.11631689183E+02 -0.13117108942E+03  0.15679052802E+03  0.00000000000E+00 0. -1.
          4    1    6    6  502    0  0.22150978034E+03  0.28908361904E+03 -0.14204712814E+03  0.39091342800E+03  0.00000000000E+00 0. -1.
          3    1    5    5  503    0 -0.11849092822E+03 -0.30402614028E+03  0.41532199233E+02  0.32893299867E+03  0.00000000000E+00 0. -1.
         -4    1    5    5    0  503 -0.22527000254E+02 -0.84472554294E+01 -0.71064479438E+01  0.25086320318E+02  0.00000000000E+00 0.  1.
         -3    1    6    6    0  502  0.12791108572E+03  0.13963585698E+03 -0.17116667748E+02  0.19013784137E+03  0.00000000000E+00 0.  1.
<mgrwt>
<rscale>  0 0.12435909E+04</rscale>
<asrwt>0</asrwt>
<pdfrwt beam="1">  1        2 0.13065765E+00 0.12435909E+04</pdfrwt>
<pdfrwt beam="2">  1       -2 0.70037966E-01 0.12435909E+04</pdfrwt>
<totfact> 0.58072613E+01</totfact>
</mgrwt>
</event>
<event>
12    1  0.2214165E-007  0.2223032E+04  0.7818608E-02  0.8508902E-01
         -1   -1    0    0    0  501 -0.00000000000E+00  0.00000000000E+00  0.89757907238E+03  0.89757907238E+03  0.00000000000E+00 0.  1.
          1   -1    0    0  501    0  0.00000000000E+00 -0.00000000000E+00 -0.13764446575E+04  0.13764446575E+04  0.00000000000E+00 0. -1.
         23    2    1    2    0    0  0.89044456256E+03 -0.19261156570E+01 -0.46293692977E+03  0.10077793034E+04  0.91724012596E+02 0.  0.
        254    2    1    2    0    0 -0.89044456256E+03  0.19261156570E+01 -0.15928655334E+02  0.12662444265E+04  0.90012554490E+03 0.  0.
        -24    2    4    4    0    0 -0.16704374827E+03  0.34150315670E+02  0.38887764337E+03  0.43276861387E+03  0.83624121783E+02 0.  0.
         24    2    4    4    0    0 -0.72340081430E+03 -0.32224200013E+02 -0.40480629871E+03  0.83347581259E+03  0.80415505421E+02 0.  0.
         11    1    3    3    0    0  0.47344679644E+03 -0.13416648096E+02 -0.29560628441E+03  0.55831438356E+03  0.00000000000E+00 0. -1.
        -11    1    3    3    0    0  0.41699776613E+03  0.11490532439E+02 -0.16733064536E+03  0.44946491984E+03  0.00000000000E+00 0.  1.
          2    1    6    6  502    0 -0.64863889302E+03 -0.10964403610E+02 -0.38026848745E+03  0.75196858593E+03  0.00000000000E+00 0. -1.
          3    1    5    5  503    0 -0.16873374596E+03  0.47918622143E+02  0.36850776069E+03  0.40812405107E+03  0.00000000000E+00 0. -1.
         -4    1    5    5    0  503  0.16899976892E+01 -0.13768306473E+02  0.20369882677E+02  0.24644562800E+02  0.00000000000E+00 0.  1.
         -1    1    6    6    0  502 -0.74761921283E+02 -0.21259796403E+02 -0.24537811255E+02  0.81507226662E+02  0.00000000000E+00 0.  1.
<mgrwt>
<rscale>  0 0.22230321E+04</rscale>
<asrwt>0</asrwt>
<pdfrwt beam="1">  1        1 0.21176072E+00 0.22230321E+04</pdfrwt>
<pdfrwt beam="2">  1       -1 0.13808909E+00 0.22230321E+04</pdfrwt>
<totfact> 0.31557344E+00</totfact>
</mgrwt>
</event>
<event>
12    1  0.2214165E-007  0.2890519E+04  0.7818608E-02  0.8275704E-01
          1   -1    0    0  501    0  0.00000000000E+00  0.00000000000E+00  0.35842457109E+04  0.35842457109E+04  0.00000000000E+00 0. -1.
         -1   -1    0    0    0  501 -0.00000000000E+00 -0.00000000000E+00 -0.58276564206E+03  0.58276564206E+03  0.00000000000E+00 0.  1.
         23    2    1    2    0    0  0.91153508785E+03 -0.56174779449E+03  0.24287902672E+04  0.26559028297E+04  0.91328406197E+02 0.  0.
        254    2    1    2    0    0 -0.91153508785E+03  0.56174779449E+03  0.57268980170E+03  0.15111085233E+04  0.89945458990E+03 0.  0.
        -24    2    4    4    0    0 -0.67737527402E+03 -0.87937753765E+02  0.39540182895E+03  0.79334081972E+03  0.80478192713E+02 0.  0.
         24    2    4    4    0    0 -0.23415981383E+03  0.64968554825E+03  0.17728797274E+03  0.71776770360E+03  0.82688094879E+02 0.  0.
         11    1    3    3    0    0  0.56062668160E+03 -0.29298082725E+03  0.14409221083E+04  0.15736570667E+04  0.00000000000E+00 0.  1.
        -11    1    3    3    0    0  0.35090840625E+03 -0.26876696724E+03  0.98786815887E+03  0.10822457630E+04  0.00000000000E+00 0. -1.
          2    1    6    6  502    0 -0.18938073030E+03  0.59695942129E+03  0.15650894251E+03  0.64553904666E+03  0.00000000000E+00 0. -1.
          3    1    5    5  503    0 -0.55663434592E+03 -0.64715749473E+02  0.35737715378E+03  0.66464152242E+03  0.00000000000E+00 0. -1.
         -4    1    5    5    0  503 -0.12074092810E+03 -0.23222004292E+02  0.38024675172E+02  0.12869929730E+03  0.00000000000E+00 0.  1.
         -1    1    6    6    0  502 -0.44779083533E+02  0.52726126961E+02  0.20779030238E+02  0.72228656945E+02  0.00000000000E+00 0.  1.
<mgrwt>
<rscale>  0 0.28905192E+04</rscale>
<asrwt>0</asrwt>
<pdfrwt beam="1">  1        1 0.55142240E+00 0.28905192E+04</pdfrwt>
<pdfrwt beam="2">  1       -1 0.89656256E-01 0.28905192E+04</pdfrwt>
<totfact> 0.22400612E-01</totfact>
</mgrwt>
</event>
<event>
12    1  0.2214165E-007  0.1322241E+04  0.7818608E-02  0.9012111E-01
         -1   -1    0    0    0  501 -0.00000000000E+00  0.00000000000E+00  0.23085089106E+03  0.23085089106E+03  0.00000000000E+00 0.  1.
          1   -1    0    0  501    0  0.00000000000E+00 -0.00000000000E+00 -0.18933447777E+04  0.18933447777E+04  0.00000000000E+00 0. -1.
         23    2    1    2    0    0 -0.20906927229E+02  0.24525378607E+03 -0.62589818907E+02  0.27086313770E+03  0.94142629784E+02 0.  0.
        254    2    1    2    0    0  0.20906927229E+02 -0.24525378607E+03 -0.15999040677E+04  0.18533325311E+04  0.90253084467E+03 0.  0.
        -24    2    4    4    0    0 -0.33186899615E+03 -0.60760748286E+02 -0.21045757026E+03  0.40575791725E+03  0.80735366446E+02 0.  0.
         24    2    4    4    0    0  0.35277592338E+03 -0.18449303779E+03 -0.13894464975E+04  0.14475746138E+04  0.80138381146E+02 0.  0.
         13    1    3    3    0    0  0.10795466410E+02  0.14812710584E+03  0.45811422591E+01  0.14859060685E+03  0.00000000000E+00 0.  1.
        -13    1    3    3    0    0 -0.31702393639E+02  0.97126680229E+02 -0.67170961166E+02  0.12227253084E+03  0.00000000000E+00 0. -1.
          4    1    6    6  502    0  0.17601957413E+03 -0.12463896879E+03 -0.84246957576E+03  0.86963943626E+03  0.00000000000E+00 0. -1.
          1    1    5    5  503    0 -0.29225480270E+03 -0.55887867765E+02 -0.14975936469E+03  0.33311287993E+03  0.00000000000E+00 0. -1.
         -2    1    5    5    0  503 -0.39614193445E+02 -0.48728805216E+01 -0.60698205575E+02  0.72645037317E+02  0.00000000000E+00 0.  1.
         -3    1    6    6    0  502  0.17675634925E+03 -0.59854068995E+02 -0.54697692170E+03  0.57793517755E+03  0.00000000000E+00 0.  1.
<mgrwt>
<rscale>  0 0.13222410E+04</rscale>
<asrwt>0</asrwt>
<pdfrwt beam="1">  1        1 0.29128382E+00 0.13222410E+04</pdfrwt>
<pdfrwt beam="2">  1       -1 0.35515520E-01 0.13222410E+04</pdfrwt>
<totfact> 0.26121479E+01</totfact>
</mgrwt>
</event>
<event>
12    1  0.2214165E-007  0.1583258E+04  0.7818608E-02  0.8830900E-01
         -2   -1    0    0    0  501 -0.00000000000E+00  0.00000000000E+00  0.33378428340E+03  0.33378428340E+03  0.00000000000E+00 0.  1.
          2   -1    0    0  501    0  0.00000000000E+00 -0.00000000000E+00 -0.18774896206E+04  0.18774896206E+04  0.00000000000E+00 0. -1.
         23    2    1    2    0    0  0.21646175074E+03 -0.29070204198E+03 -0.10647506936E+04  0.11284653358E+04  0.91523809310E+02 0.  0.
        254    2    1    2    0    0 -0.21646175074E+03  0.29070204198E+03 -0.47895464351E+03  0.10828085682E+04  0.90095142936E+03 0.  0.
        -24    2    4    4    0    0  0.33371083050E+03  0.19085615133E+03 -0.28564216479E+03  0.48567593714E+03  0.80626798978E+02 0.  0.
         24    2    4    4    0    0 -0.55017258124E+03  0.99845890646E+02 -0.19331247872E+03  0.59713263105E+03  0.80861570679E+02 0.  0.
         11    1    3    3    0    0  0.20523403391E+03 -0.28621546756E+03 -0.10569307654E+04  0.11140659520E+04  0.00000000000E+00 0. -1.
        -11    1    3    3    0    0  0.11227716830E+02 -0.44865744225E+01 -0.78199282387E+01  0.14399383769E+02  0.00000000000E+00 0.  1.
          4    1    6    6  502    0 -0.27484775256E+03  0.10803636996E+02 -0.10738386614E+03  0.29527834389E+03  0.00000000000E+00 0. -1.
          1    1    5    5  503    0  0.22989129646E+03  0.15273388212E+03 -0.24098328163E+03  0.36640222292E+03  0.00000000000E+00 0. -1.
         -2    1    5    5    0  503  0.10381953404E+03  0.38122269210E+02 -0.44658883163E+02  0.11927371422E+03  0.00000000000E+00 0.  1.
         -3    1    6    6    0  502 -0.27532482868E+03  0.89042253649E+02 -0.85928612580E+02  0.30185428717E+03  0.00000000000E+00 0.  1.
<mgrwt>
<rscale>  0 0.15832581E+04</rscale>
<asrwt>0</asrwt>
<pdfrwt beam="1">  1        2 0.28884455E+00 0.15832581E+04</pdfrwt>
<pdfrwt beam="2">  1       -2 0.51351429E-01 0.15832581E+04</pdfrwt>
<totfact> 0.26887207E+01</totfact>
</mgrwt>
</event>
<event>
12    1  0.2214165E-007  0.1687610E+04  0.7818608E-02  0.8768463E-01
          2   -1    0    0  501    0  0.00000000000E+00  0.00000000000E+00  0.16782881051E+04  0.16782881051E+04  0.00000000000E+00 0. -1.
         -2   -1    0    0    0  501 -0.00000000000E+00 -0.00000000000E+00 -0.42424580127E+03  0.42424580127E+03  0.00000000000E+00 0.  1.
         23    2    1    2    0    0  0.21786696018E+03 -0.53026820547E+03  0.23740884360E+03  0.62724324261E+03  0.91764613593E+02 0.  0.
        254    2    1    2    0    0 -0.21786696018E+03  0.53026820547E+03  0.10166334602E+04  0.14752906637E+04  0.90237939252E+03 0.  0.
        -24    2    4    4    0    0  0.18451413241E+03  0.22647730267E+03 -0.36537828690E+02  0.30487609435E+03  0.79227433995E+02 0.  0.
         24    2    4    4    0    0 -0.40238109259E+03  0.30379090280E+03  0.10531712889E+04  0.11704145694E+04  0.80629053034E+02 0.  0.
         11    1    3    3    0    0  0.13330047971E+03 -0.20679814041E+03  0.10877106034E+03  0.26900861015E+03  0.00000000000E+00 0.  1.
        -11    1    3    3    0    0  0.84566480468E+02 -0.32347006507E+03  0.12863778326E+03  0.35823463246E+03  0.00000000000E+00 0. -1.
          4    1    6    6  502    0 -0.26702002131E+03  0.24497126031E+03  0.77422391800E+03  0.85482938962E+03  0.00000000000E+00 0. -1.
          1    1    5    5  503    0  0.10008698301E+03  0.92877779917E+02 -0.51939527156E+02  0.14608696264E+03  0.00000000000E+00 0. -1.
         -2    1    5    5    0  503  0.84427149399E+02  0.13359952276E+03  0.15401698465E+02  0.15878913172E+03  0.00000000000E+00 0.  1.
         -3    1    6    6    0  502 -0.13536107128E+03  0.58819642487E+02  0.27894737088E+03  0.31558517975E+03  0.00000000000E+00 0.  1.
<mgrwt>
<rscale>  0 0.16876098E+04</rscale>
<asrwt>0</asrwt>
<pdfrwt beam="1">  1        2 0.25819817E+00 0.16876098E+04</pdfrwt>
<pdfrwt beam="2">  1       -2 0.65268586E-01 0.16876098E+04</pdfrwt>
<totfact> 0.20780489E+01</totfact>
</mgrwt>
</event>
<event>
12    1  0.2214165E-007  0.1599811E+04  0.7818608E-02  0.8820664E-01
         -2   -1    0    0    0  501 -0.00000000000E+00  0.00000000000E+00  0.13010042712E+04  0.13010042712E+04  0.00000000000E+00 0.  1.
          2   -1    0    0  501    0  0.00000000000E+00 -0.00000000000E+00 -0.49181118950E+03  0.49181118950E+03  0.00000000000E+00 0. -1.
         23    2    1    2    0    0 -0.15906436323E+03  0.34971981540E+03 -0.15064060510E+03  0.42257556044E+03  0.90951038698E+02 0.  0.
        254    2    1    2    0    0  0.15906436323E+03 -0.34971981540E+03  0.95983368678E+03  0.13702399002E+04  0.89926150647E+03 0.  0.
        -24    2    4    4    0    0  0.85274469062E+02 -0.13371368955E+03 -0.15100116115E+03  0.23341326898E+03  0.80804193072E+02 0.  0.
         24    2    4    4    0    0  0.73789894166E+02 -0.21600612585E+03  0.11108348479E+04  0.11368266313E+04  0.79480408199E+02 0.  0.
         11    1    3    3    0    0 -0.84994244209E+02  0.16263025877E+03 -0.24603749262E+02  0.18514309896E+03  0.00000000000E+00 0.  1.
        -11    1    3    3    0    0 -0.74070119019E+02  0.18708955664E+03 -0.12603685584E+03  0.23743246148E+03  0.00000000000E+00 0. -1.
          2    1    6    6  502    0  0.11388361843E+02  0.21030015428E+01  0.25081258636E+02  0.27625838191E+02  0.00000000000E+00 0. -1.
          1    1    5    5  503    0 -0.29898176322E+01 -0.22837956690E+02  0.40147059683E+01  0.23380101353E+02  0.00000000000E+00 0. -1.
         -2    1    5    5    0  503  0.88264286694E+02 -0.11087573286E+03 -0.15501586712E+03  0.21003316763E+03  0.00000000000E+00 0.  1.
         -1    1    6    6    0  502  0.62401532324E+02 -0.21810912740E+03  0.10857535893E+04  0.11092007931E+04  0.00000000000E+00 0.  1.
<mgrwt>
<rscale>  0 0.15998106E+04</rscale>
<asrwt>0</asrwt>
<pdfrwt beam="1">  1        2 0.75663261E-01 0.15998106E+04</pdfrwt>
<pdfrwt beam="2">  1       -2 0.20015450E+00 0.15998106E+04</pdfrwt>
<totfact> 0.79796439E+00</totfact>
</mgrwt>
</event>
<event>
12    1  0.2214165E-007  0.1612934E+04  0.7818608E-02  0.8812641E-01
         -2   -1    0    0    0  501 -0.00000000000E+00  0.00000000000E+00  0.31603628931E+03  0.31603628931E+03  0.00000000000E+00 0.  1.
          2   -1    0    0  501    0  0.00000000000E+00 -0.00000000000E+00 -0.20579569651E+04  0.20579569651E+04  0.00000000000E+00 0. -1.
         23    2    1    2    0    0 -0.54317367285E+03 -0.35915079777E+02 -0.71389101879E+03  0.90242105777E+03  0.91628854358E+02 0.  0.
        254    2    1    2    0    0  0.54317367285E+03  0.35915079777E+02 -0.10280296570E+04  0.14715721966E+04  0.90130584291E+03 0.  0.
        -24    2    4    4    0    0 -0.19879216912E+03 -0.45497817622E+02 -0.52279236699E+03  0.56668620228E+03  0.78949445560E+02 0.  0.
         24    2    4    4    0    0  0.74196584197E+03  0.81412897399E+02 -0.50523729000E+03  0.90488599437E+03  0.80078543313E+02 0.  0.
         13    1    3    3    0    0 -0.84179708690E+02  0.27305909344E+02 -0.12340269708E+03  0.15185539729E+03  0.00000000000E+00 0. -1.
        -13    1    3    3    0    0 -0.45899396416E+03 -0.63220989121E+02 -0.59048832172E+03  0.75056566048E+03  0.00000000000E+00 0.  1.
          4    1    6    6  502    0  0.63810006286E+03  0.41555950310E+02 -0.43038877410E+03  0.77080028808E+03  0.00000000000E+00 0. -1.
          3    1    5    5  503    0 -0.51674010589E+02  0.21353356384E+02 -0.16142063272E+03  0.17082971014E+03  0.00000000000E+00 0. -1.
         -4    1    5    5    0  503 -0.14711815853E+03 -0.66851174005E+02 -0.36137173427E+03  0.39585649214E+03  0.00000000000E+00 0.  1.
         -3    1    6    6    0  502  0.10386577910E+03  0.39856947089E+02 -0.74848515899E+02  0.13408570629E+03  0.00000000000E+00 0.  1.
<mgrwt>
<rscale>  0 0.16129341E+04</rscale>
<asrwt>0</asrwt>
<pdfrwt beam="1">  1        2 0.31660876E+00 0.16129341E+04</pdfrwt>
<pdfrwt beam="2">  1       -2 0.48620968E-01 0.16129341E+04</pdfrwt>
<totfact> 0.23811759E+01</totfact>
</mgrwt>
</event>
<event>
12    1  0.2214165E-007  0.1610273E+04  0.7818608E-02  0.8814262E-01
         -1   -1    0    0    0  501 -0.00000000000E+00  0.00000000000E+00  0.54839556928E+03  0.54839556928E+03  0.00000000000E+00 0.  1.
          1   -1    0    0  501    0  0.00000000000E+00 -0.00000000000E+00 -0.11820746913E+04  0.11820746913E+04  0.00000000000E+00 0. -1.
         23    2    1    2    0    0 -0.51325554158E+03  0.16496138229E+03 -0.98383767123E+02  0.55541797215E+03  0.90367303474E+02 0.  0.
        254    2    1    2    0    0  0.51325554158E+03 -0.16496138229E+03 -0.53529535490E+03  0.11750522884E+04  0.89641689797E+03 0.  0.
        -24    2    4    4    0    0  0.65883544047E+02 -0.46144481695E+03 -0.39158177433E+03  0.61391630239E+03  0.79277865065E+02 0.  0.
         24    2    4    4    0    0  0.44737199754E+03  0.29648343466E+03 -0.14371358057E+03  0.56113598604E+03  0.78586706120E+02 0.  0.
         13    1    3    3    0    0 -0.20447823723E+03  0.84313642235E+02 -0.81905653016E+02  0.23585732077E+03  0.00000000000E+00 0. -1.
        -13    1    3    3    0    0 -0.30877730436E+03  0.80647740055E+02 -0.16478114107E+02  0.31956065137E+03  0.00000000000E+00 0.  1.
          4    1    6    6  502    0  0.27766664537E+03  0.14441152683E+03 -0.62010249397E+02  0.31905912629E+03  0.00000000000E+00 0. -1.
          1    1    5    5  503    0  0.38891301673E+02 -0.41538292556E+03 -0.36475315114E+03  0.55416637345E+03  0.00000000000E+00 0. -1.
         -2    1    5    5    0  503  0.26992242374E+02 -0.46061891389E+02 -0.26828623194E+02  0.59749928947E+02  0.00000000000E+00 0.  1.
         -3    1    6    6    0  502  0.16970535216E+03  0.15207190783E+03 -0.81703331176E+02  0.24207685975E+03  0.00000000000E+00 0.  1.
<mgrwt>
<rscale>  0 0.16102727E+04</rscale>
<asrwt>0</asrwt>
<pdfrwt beam="1">  1        1 0.18185764E+00 0.16102727E+04</pdfrwt>
<pdfrwt beam="2">  1       -1 0.84368550E-01 0.16102727E+04</pdfrwt>
<totfact> 0.14694619E+01</totfact>
</mgrwt>
</event>
<event>
12    1  0.2214165E-007  0.1612868E+04  0.7818608E-02  0.8812681E-01
         -2   -1    0    0    0  501 -0.00000000000E+00  0.00000000000E+00  0.10802881723E+04  0.10802881723E+04  0.00000000000E+00 0.  1.
          2   -1    0    0  501    0  0.00000000000E+00 -0.00000000000E+00 -0.60200234132E+03  0.60200234132E+03  0.00000000000E+00 0. -1.
         23    2    1    2    0    0  0.52540272247E+03 -0.31295771888E+02 -0.38716533627E+01  0.53251390942E+03  0.80799925220E+02 0.  0.
        254    2    1    2    0    0 -0.52540272247E+03  0.31295771888E+02  0.48215748434E+03  0.11497766042E+04  0.90137836326E+03 0.  0.
        -24    2    4    4    0    0 -0.68225868863E+03 -0.22181238365E+03  0.42034439130E+03  0.83540541989E+03  0.80840315000E+02 0.  0.
         24    2    4    4    0    0  0.15685596617E+03  0.25310815554E+03  0.61813093041E+02  0.31437118431E+03  0.79629457714E+02 0.  0.
         13    1    3    3    0    0  0.41078806489E+03 -0.30115188176E+02  0.30032683715E+02  0.41298392330E+03  0.00000000000E+00 0.  1.
        -13    1    3    3    0    0  0.11461465758E+03 -0.11805837114E+01 -0.33904337078E+02  0.11952998612E+03  0.00000000000E+00 0. -1.
          4    1    6    6  502    0  0.14791189700E+03  0.24144588629E+03  0.37034708677E+02  0.28556192835E+03  0.00000000000E+00 0. -1.
          1    1    5    5  503    0 -0.42371965458E+03 -0.10685652757E+03  0.28540316505E+03  0.52193067526E+03  0.00000000000E+00 0. -1.
         -2    1    5    5    0  503 -0.25853903405E+03 -0.11495585608E+03  0.13494122625E+03  0.31347474463E+03  0.00000000000E+00 0.  1.
         -3    1    6    6    0  502  0.89440691688E+01  0.11662269247E+02  0.24778384364E+02  0.28809255960E+02  0.00000000000E+00 0.  1.
<mgrwt>
<rscale>  0 0.16128683E+04</rscale>
<asrwt>0</asrwt>
<pdfrwt beam="1">  1        2 0.92615745E-01 0.16128683E+04</pdfrwt>
<pdfrwt beam="2">  1       -2 0.16619818E+00 0.16128683E+04</pdfrwt>
<totfact> 0.10729755E+01</totfact>
</mgrwt>
</event>
<event>
12    1  0.2214165E-007  0.4171653E+04  0.7818608E-02  0.7970786E-01
         -2   -1    0    0    0  501 -0.00000000000E+00  0.00000000000E+00  0.17769194269E+04  0.17769194269E+04  0.00000000000E+00 0.  1.
          2   -1    0    0  501    0  0.00000000000E+00 -0.00000000000E+00 -0.24484350860E+04  0.24484350860E+04  0.00000000000E+00 0. -1.
         23    2    1    2    0    0 -0.15572951997E+04  0.97996397644E+03  0.44220852956E+03  0.18945913604E+04  0.91816693053E+02 0.  0.
        254    2    1    2    0    0  0.15572951997E+04 -0.97996397644E+03 -0.11137241887E+04  0.23307631525E+04  0.89809663739E+03 0.  0.
        -24    2    4    4    0    0  0.19120562679E+03 -0.56960005620E+03 -0.45386053094E+03  0.75719774147E+03  0.79719648776E+02 0.  0.
         24    2    4    4    0    0  0.13660895730E+04 -0.41036392024E+03 -0.65986365775E+03  0.15735654110E+04  0.78030682743E+02 0.  0.
         13    1    3    3    0    0 -0.56374769810E+03  0.40703358670E+03  0.16202371664E+03  0.71396042787E+03  0.00000000000E+00 0.  1.
        -13    1    3    3    0    0 -0.99354750165E+03  0.57293038973E+03  0.28018481292E+03  0.11806309326E+04  0.00000000000E+00 0. -1.
          4    1    6    6  502    0  0.81739828305E+03 -0.22536521833E+03 -0.42840633969E+03  0.94997969802E+03  0.00000000000E+00 0. -1.
          3    1    5    5  503    0  0.61382728792E+02 -0.19602720450E+03 -0.10938177626E+03  0.23272059917E+03  0.00000000000E+00 0. -1.
         -4    1    5    5    0  503  0.12982289800E+03 -0.37357285170E+03 -0.34447875468E+03  0.52447714230E+03  0.00000000000E+00 0.  1.
         -3    1    6    6    0  502  0.54869128991E+03 -0.18499870190E+03 -0.23145731806E+03  0.62358571296E+03  0.00000000000E+00 0.  1.
<mgrwt>
<rscale>  0 0.41716528E+04</rscale>
<asrwt>0</asrwt>
<pdfrwt beam="1">  1        2 0.37668232E+00 0.41716528E+04</pdfrwt>
<pdfrwt beam="2">  1       -2 0.27337222E+00 0.41716528E+04</pdfrwt>
<totfact> 0.13409396E-01</totfact>
</mgrwt>
</event>
<event>
12    1  0.2214165E-007  0.2309449E+04  0.7818608E-02  0.8474205E-01
         -1   -1    0    0    0  501 -0.00000000000E+00  0.00000000000E+00  0.10900591692E+04  0.10900591692E+04  0.00000000000E+00 0.  1.
          1   -1    0    0  501    0  0.00000000000E+00 -0.00000000000E+00 -0.12232261421E+04  0.12232261421E+04  0.00000000000E+00 0. -1.
         23    2    1    2    0    0 -0.43238723492E+03  0.85753276599E+03 -0.24284331121E+03  0.99272270485E+03  0.64840799323E+02 0.  0.
        254    2    1    2    0    0  0.43238723492E+03 -0.85753276599E+03  0.10967633829E+03  0.13205626065E+04  0.89974192564E+03 0.  0.
        -24    2    4    4    0    0  0.23695738888E+03 -0.78067028788E+03  0.43261115411E+03  0.92703239660E+03  0.81496939563E+02 0.  0.
         24    2    4    4    0    0  0.19542984604E+03 -0.76862478113E+02 -0.32293481582E+03  0.39353020987E+03  0.80488915675E+02 0.  0.
         13    1    3    3    0    0 -0.63650968446E+02  0.18383812535E+03 -0.47087040119E+02  0.20016266252E+03  0.00000000000E+00 0.  1.
        -13    1    3    3    0    0 -0.36873626647E+03  0.67369464064E+03 -0.19575627109E+03  0.79256004234E+03  0.00000000000E+00 0. -1.
          2    1    6    6  502    0  0.16050869299E+03 -0.80872802323E+02 -0.21617063018E+03  0.28112842623E+03  0.00000000000E+00 0. -1.
          3    1    5    5  503    0  0.20944955790E+03 -0.61983795254E+03  0.37422896504E+03  0.75373438490E+03  0.00000000000E+00 0. -1.
         -4    1    5    5    0  503  0.27507830984E+02 -0.16083233534E+03  0.58382189070E+02  0.17329801169E+03  0.00000000000E+00 0.  1.
         -1    1    6    6    0  502  0.34921153051E+02  0.40103242099E+01 -0.10676418564E+03  0.11240178364E+03  0.00000000000E+00 0.  1.
<mgrwt>
<rscale>  0 0.23094492E+04</rscale>
<asrwt>0</asrwt>
<pdfrwt beam="1">  1        1 0.18818864E+00 0.23094492E+04</pdfrwt>
<pdfrwt beam="2">  1       -1 0.16770141E+00 0.23094492E+04</pdfrwt>
<totfact> 0.23749356E+00</totfact>
</mgrwt>
</event>
<event>
12    1  0.2214165E-007  0.1280141E+04  0.7818608E-02  0.9045464E-01
          2   -1    0    0  501    0  0.00000000000E+00  0.00000000000E+00  0.13366462197E+04  0.13366462197E+04  0.00000000000E+00 0.  1.
         -2   -1    0    0    0  501 -0.00000000000E+00 -0.00000000000E+00 -0.30650596991E+03  0.30650596991E+03  0.00000000000E+00 0. -1.
         23    2    1    2    0    0  0.23270330483E+03 -0.20157770651E+03  0.27211778246E+03  0.42088123515E+03  0.91151120270E+02 0.  0.
        254    2    1    2    0    0 -0.23270330483E+03  0.20157770651E+03  0.75802246731E+03  0.12222709544E+04  0.90805496821E+03 0.  0.
        -24    2    4    4    0    0 -0.23289360479E+03  0.38771072600E+03  0.87510939362E+03  0.98841281927E+03  0.81144391625E+02 0.  0.
         24    2    4    4    0    0  0.19029995814E+00 -0.18613301948E+03 -0.11708692631E+03  0.23385813517E+03  0.79591091945E+02 0.  0.
         11    1    3    3    0    0  0.12924252238E+03 -0.94784662694E+02  0.19800942254E+03  0.25474593871E+03  0.00000000000E+00 0. -1.
        -11    1    3    3    0    0  0.10346078245E+03 -0.10679304382E+03  0.74108359920E+02  0.16613529644E+03  0.00000000000E+00 0.  1.
          4    1    6    6  502    0  0.20298710026E+02 -0.15257283712E+03 -0.61199937820E+02  0.16563798068E+03  0.00000000000E+00 0. -1.
          3    1    5    5  503    0 -0.20904218711E+03  0.34856658871E+03  0.82962671594E+03  0.92383861716E+03  0.00000000000E+00 0. -1.
         -4    1    5    5    0  503 -0.23851417682E+02  0.39144137289E+02  0.45482677687E+02  0.64574202117E+02  0.00000000000E+00 0.  1.
         -3    1    6    6    0  502 -0.20108410068E+02 -0.33560182363E+02 -0.55886988494E+02  0.68220154490E+02  0.00000000000E+00 0.  1.
<mgrwt>
<rscale>  0 0.12801407E+04</rscale>
<asrwt>0</asrwt>
<pdfrwt beam="1">  1        2 0.20563788E+00 0.12801407E+04</pdfrwt>
<pdfrwt beam="2">  1       -2 0.47154765E-01 0.12801407E+04</pdfrwt>
<totfact> 0.65827498E+01</totfact>
</mgrwt>
</event>
<event>
12    1  0.2214165E-007  0.1714761E+04  0.7818608E-02  0.8752990E-01
         -1   -1    0    0    0  501 -0.00000000000E+00  0.00000000000E+00  0.11743842388E+04  0.11743842388E+04  0.00000000000E+00 0.  1.
          1   -1    0    0  501    0  0.00000000000E+00 -0.00000000000E+00 -0.62594607842E+03  0.62594607842E+03  0.00000000000E+00 0. -1.
         23    2    1    2    0    0  0.12467054782E+03  0.10346903589E+03  0.81663362032E+03  0.83777640374E+03  0.93435785110E+02 0.  0.
        254    2    1    2    0    0 -0.12467054782E+03 -0.10346903589E+03 -0.26819545999E+03  0.96255391344E+03  0.91012781775E+03 0.  0.
        -24    2    4    4    0    0  0.26883278761E+03  0.23395212595E+02 -0.42847227391E+03  0.51258361032E+03  0.79593117735E+02 0.  0.
         24    2    4    4    0    0 -0.39350333543E+03 -0.12686424848E+03  0.16027681393E+03  0.44997030312E+03  0.76453934278E+02 0.  0.
         11    1    3    3    0    0  0.25720704280E+02 -0.15130575957E+02  0.87065058254E+02  0.92037021498E+02  0.00000000000E+00 0. -1.
        -11    1    3    3    0    0  0.98949843542E+02  0.11859961184E+03  0.72956856207E+03  0.74573938224E+03  0.00000000000E+00 0.  1.
          4    1    6    6  502    0 -0.26173253940E+03 -0.95680289434E+02  0.70338058584E+02  0.28741273885E+03  0.00000000000E+00 0. -1.
          3    1    5    5  503    0  0.16335645977E+03  0.30314095661E+02 -0.32318462145E+03  0.36339039184E+03  0.00000000000E+00 0. -1.
         -4    1    5    5    0  503  0.10547632785E+03 -0.69188830660E+01 -0.10528765247E+03  0.14919321848E+03  0.00000000000E+00 0.  1.
         -3    1    6    6    0  502 -0.13177079604E+03 -0.31183959047E+02  0.89938755342E+02  0.16255756427E+03  0.00000000000E+00 0.  1.
<mgrwt>
<rscale>  0 0.17147609E+04</rscale>
<asrwt>0</asrwt>
<pdfrwt beam="1">  1        1 0.96299396E-01 0.17147609E+04</pdfrwt>
<pdfrwt beam="2">  1       -1 0.18067450E+00 0.17147609E+04</pdfrwt>
<totfact> 0.62974016E+00</totfact>
</mgrwt>
</event>
<event>
12    1  0.2214165E-007  0.2248163E+04  0.7818608E-02  0.8498645E-01
          2   -1    0    0  501    0  0.00000000000E+00  0.00000000000E+00  0.18246650080E+04  0.18246650080E+04  0.00000000000E+00 0.  1.
         -2   -1    0    0    0  501 -0.00000000000E+00 -0.00000000000E+00 -0.69248844692E+03  0.69248844692E+03  0.00000000000E+00 0. -1.
         23    2    1    2    0    0 -0.47157633339E+03 -0.79947849782E+02  0.13843695617E+04  0.14672203186E+04  0.86489786144E+02 0.  0.
        254    2    1    2    0    0  0.47157633339E+03  0.79947849782E+02 -0.25219300063E+03  0.10499331363E+04  0.89999021340E+03 0.  0.
        -24    2    4    4    0    0  0.20397536070E+03 -0.39745452739E+03 -0.19401591017E+03  0.49368708949E+03  0.80676637379E+02 0.  0.
         24    2    4    4    0    0  0.26760097269E+03  0.47740237717E+03 -0.58177090457E+02  0.55624604680E+03  0.80633618385E+02 0.  0.
         13    1    3    3    0    0 -0.36920634758E+03 -0.77207234036E+02  0.11766463890E+04  0.12356257560E+04  0.00000000000E+00 0.  1.
        -13    1    3    3    0    0 -0.10236998581E+03 -0.27406157458E+01  0.20772317269E+03  0.23159456264E+03  0.00000000000E+00 0. -1.
          4    1    6    6  502    0  0.22394310967E+03  0.40945385242E+03 -0.77793047438E+02  0.47313289027E+03  0.00000000000E+00 0. -1.
          1    1    5    5  503    0  0.11681788449E+03 -0.26738418116E+03 -0.16246005077E+03  0.33396704413E+03  0.00000000000E+00 0. -1.
         -2    1    5    5    0  503  0.87157476212E+02 -0.13007034623E+03 -0.31555859403E+02  0.15972004536E+03  0.00000000000E+00 0.  1.
         -3    1    6    6    0  502  0.43657863023E+02  0.67948524749E+02  0.19615956981E+02  0.83113156525E+02  0.00000000000E+00 0.  1.
<mgrwt>
<rscale>  0 0.22481632E+04</rscale>
<asrwt>0</asrwt>
<pdfrwt beam="1">  1        2 0.28071769E+00 0.22481632E+04</pdfrwt>
<pdfrwt beam="2">  1       -2 0.10653668E+00 0.22481632E+04</pdfrwt>
<totfact> 0.54035155E+00</totfact>
</mgrwt>
</event>
<event>
12    1  0.2214165E-007  0.2927008E+04  0.7818608E-02  0.8264887E-01
         -2   -1    0    0    0  501 -0.00000000000E+00  0.00000000000E+00  0.81047681230E+03  0.81047681230E+03  0.00000000000E+00 0.  1.
          2   -1    0    0  501    0  0.00000000000E+00 -0.00000000000E+00 -0.26426958085E+04  0.26426958085E+04  0.00000000000E+00 0. -1.
         23    2    1    2    0    0 -0.93703039679E+03 -0.40890684615E+03 -0.18211532386E+04  0.20904094566E+04  0.89340943010E+02 0.  0.
        254    2    1    2    0    0  0.93703039679E+03  0.40890684615E+03 -0.11065757606E+02  0.13627631643E+04  0.90098291750E+03 0.  0.
        -24    2    4    4    0    0  0.11051253830E+04  0.37439984754E+03  0.24621409727E+02  0.11699712586E+04  0.82153357152E+02 0.  0.
         24    2    4    4    0    0 -0.16809498623E+03  0.34506998618E+02 -0.35687167334E+02  0.19279190570E+03  0.80302475946E+02 0.  0.
         13    1    3    3    0    0 -0.15620356620E+03 -0.98134628376E+02 -0.28754356247E+03  0.34163029681E+03  0.00000000000E+00 0. -1.
        -13    1    3    3    0    0 -0.78082683059E+03 -0.31077221778E+03 -0.15336096762E+04  0.17487791598E+04  0.00000000000E+00 0.  1.
          2    1    6    6  502    0 -0.79732967909E+00 -0.18215840579E+01  0.14307223890E+02  0.14444741553E+02  0.00000000000E+00 0. -1.
          1    1    5    5  503    0  0.24257942044E+03  0.48741708398E+02  0.16195299080E+02  0.24795728880E+03  0.00000000000E+00 0. -1.
         -2    1    5    5    0  503  0.86254596258E+03  0.32565813914E+03  0.84261106472E+01  0.92201396979E+03  0.00000000000E+00 0.  1.
         -3    1    6    6    0  502 -0.16729765655E+03  0.36328582676E+02 -0.49994391224E+02  0.17834716415E+03  0.00000000000E+00 0.  1.
<mgrwt>
<rscale>  0 0.29270078E+04</rscale>
<asrwt>0</asrwt>
<pdfrwt beam="1">  1        2 0.40656859E+00 0.29270078E+04</pdfrwt>
<pdfrwt beam="2">  1       -2 0.12468874E+00 0.29270078E+04</pdfrwt>
<totfact> 0.11928934E+00</totfact>
</mgrwt>
</event>
<event>
12    1  0.2214165E-007  0.1675278E+04  0.7818608E-02  0.8775591E-01
         -2   -1    0    0    0  501 -0.00000000000E+00  0.00000000000E+00  0.13312779043E+04  0.13312779043E+04  0.00000000000E+00 0.  1.
          2   -1    0    0  501    0  0.00000000000E+00 -0.00000000000E+00 -0.52704200732E+03  0.52704200732E+03  0.00000000000E+00 0. -1.
         23    2    1    2    0    0  0.26546350819E+03 -0.45062909133E+03 -0.21109500451E+02  0.53127444779E+03  0.90936657790E+02 0.  0.
        254    2    1    2    0    0 -0.26546350819E+03  0.45062909133E+03  0.82534539743E+03  0.13270454638E+04  0.89795166121E+03 0.  0.
        -24    2    4    4    0    0 -0.11462797692E+02  0.45052257489E+03  0.93328549396E+03  0.10395698411E+04  0.81127400512E+02 0.  0.
         24    2    4    4    0    0 -0.25400071049E+03  0.10651644167E+00 -0.10794009653E+03  0.28747562271E+03  0.80466122917E+02 0.  0.
         11    1    3    3    0    0 -0.22843424489E+01 -0.72238398712E+01  0.97903442919E+01  0.12379536512E+02  0.00000000000E+00 0.  1.
        -11    1    3    3    0    0  0.26774785063E+03 -0.44340525146E+03 -0.30899844742E+02  0.51889491127E+03  0.00000000000E+00 0. -1.
          2    1    6    6  502    0 -0.25214167801E+03 -0.86479843284E+00 -0.87448789364E+02  0.26687724599E+03  0.00000000000E+00 0. -1.
          3    1    5    5  503    0  0.13316530413E+02  0.33051989571E+03  0.74211910107E+03  0.81250322561E+03  0.00000000000E+00 0. -1.
         -4    1    5    5    0  503 -0.24779328105E+02  0.12000267918E+03  0.19116639288E+03  0.22706661551E+03  0.00000000000E+00 0.  1.
         -1    1    6    6    0  502 -0.18590324875E+01  0.97131487451E+00 -0.20491307164E+02  0.20598376724E+02  0.00000000000E+00 0.  1.
<mgrwt>
<rscale>  0 0.16752783E+04</rscale>
<asrwt>0</asrwt>
<pdfrwt beam="1">  1        2 0.81083386E-01 0.16752783E+04</pdfrwt>
<pdfrwt beam="2">  1       -2 0.20481198E+00 0.16752783E+04</pdfrwt>
<totfact> 0.68222791E+00</totfact>
</mgrwt>
</event>
<event>
12    1  0.2214165E-007  0.1181561E+04  0.7818608E-02  0.9129151E-01
          1   -1    0    0  501    0  0.00000000000E+00  0.00000000000E+00  0.79171546694E+03  0.79171546694E+03  0.00000000000E+00 0. -1.
         -1   -1    0    0    0  501 -0.00000000000E+00 -0.00000000000E+00 -0.44084237087E+03  0.44084237087E+03  0.00000000000E+00 0.  1.
         23    2    1    2    0    0 -0.16462017295E+03 -0.67348010078E+01  0.24606491872E+03  0.31007858401E+03  0.91954473267E+02 0.  0.
        254    2    1    2    0    0  0.16462017295E+03  0.67348010078E+01  0.10480817735E+03  0.92247925380E+03  0.90157532174E+03 0.  0.
        -24    2    4    4    0    0  0.34958969770E+03 -0.34827131680E+03  0.11370137347E+03  0.51284600633E+03  0.81099673448E+02 0.  0.
         24    2    4    4    0    0 -0.18496952475E+03  0.35500611780E+03 -0.88931961206E+01  0.40963324748E+03  0.86471034090E+02 0.  0.
         13    1    3    3    0    0 -0.12537803297E+03  0.22565159158E+02  0.22093999913E+03  0.25503592056E+03  0.00000000000E+00 0. -1.
        -13    1    3    3    0    0 -0.39242139982E+02 -0.29299960166E+02  0.25124919587E+02  0.55042663456E+02  0.00000000000E+00 0.  1.
          2    1    6    6  502    0 -0.16194883826E+03  0.30623380709E+03 -0.37742757396E+02  0.34846963506E+03  0.00000000000E+00 0. -1.
          3    1    5    5  503    0  0.19870975317E+03 -0.20011663484E+03  0.10590461930E+03  0.30124412349E+03  0.00000000000E+00 0. -1.
         -4    1    5    5    0  503  0.15087994453E+03 -0.14815468195E+03  0.77967541750E+01  0.21160188284E+03  0.00000000000E+00 0.  1.
         -1    1    6    6    0  502 -0.23020686491E+02  0.48772310712E+02  0.28849561275E+02  0.61163612422E+02  0.00000000000E+00 0.  1.
<mgrwt>
<rscale>  0 0.11815612E+04</rscale>
<asrwt>0</asrwt>
<pdfrwt beam="1">  1        1 0.12180238E+00 0.11815612E+04</pdfrwt>
<pdfrwt beam="2">  1       -1 0.67821903E-01 0.11815612E+04</pdfrwt>
<totfact> 0.49058049E+01</totfact>
</mgrwt>
</event>
<event>
12    1  0.2214165E-007  0.1998199E+04  0.7818608E-02  0.8607463E-01
          2   -1    0    0  501    0  0.00000000000E+00  0.00000000000E+00  0.24336659231E+04  0.24336659231E+04  0.00000000000E+00 0. -1.
         -2   -1    0    0    0  501 -0.00000000000E+00 -0.00000000000E+00 -0.41016297812E+03  0.41016297812E+03  0.00000000000E+00 0.  1.
         23    2    1    2    0    0 -0.66239510139E+03 -0.42463959614E+03  0.96023286821E+03  0.12447804627E+04  0.91351968901E+02 0.  0.
        254    2    1    2    0    0  0.66239510139E+03  0.42463959614E+03  0.10632700767E+04  0.15990484385E+04  0.89851354778E+03 0.  0.
        -24    2    4    4    0    0  0.10169045091E+03  0.33657364881E+03  0.94790707188E+03  0.10142397240E+04  0.80818512083E+02 0.  0.
         24    2    4    4    0    0  0.56070465048E+03  0.88065947323E+02  0.11536300486E+03  0.58480871449E+03  0.80915347800E+02 0.  0.
         11    1    3    3    0    0 -0.13578484168E+03 -0.10969824248E+03  0.26696002823E+03  0.31896533401E+03  0.00000000000E+00 0. -1.
        -11    1    3    3    0    0 -0.52661025971E+03 -0.31494135366E+03  0.69327283999E+03  0.92581512871E+03  0.00000000000E+00 0.  1.
          4    1    6    6  502    0  0.24730277012E+03  0.30603869706E+02  0.10647922825E+02  0.24941658969E+03  0.00000000000E+00 0. -1.
          3    1    5    5  503    0  0.88685493839E+02  0.18641368567E+03  0.47568331754E+03  0.51854584908E+03  0.00000000000E+00 0. -1.
         -4    1    5    5    0  503  0.13004957070E+02  0.15015996315E+03  0.47222375434E+03  0.49569387489E+03  0.00000000000E+00 0.  1.
         -3    1    6    6    0  502  0.31340188036E+03  0.57462077618E+02  0.10471508204E+03  0.33539212481E+03  0.00000000000E+00 0.  1.
<mgrwt>
<rscale>  0 0.19981989E+04</rscale>
<asrwt>0</asrwt>
<pdfrwt beam="1">  1        2 0.37441013E+00 0.19981989E+04</pdfrwt>
<pdfrwt beam="2">  1       -2 0.63101998E-01 0.19981989E+04</pdfrwt>
<totfact> 0.82230230E+00</totfact>
</mgrwt>
</event>
<event>
12    1  0.2214165E-007  0.2485220E+04  0.7818608E-02  0.8408270E-01
         -2   -1    0    0    0  501 -0.00000000000E+00  0.00000000000E+00  0.10693558335E+04  0.10693558335E+04  0.00000000000E+00 0.  1.
          2   -1    0    0  501    0  0.00000000000E+00 -0.00000000000E+00 -0.14439343420E+04  0.14439343420E+04  0.00000000000E+00 0. -1.
         23    2    1    2    0    0 -0.86234513781E+03  0.60001402797E+03  0.79496916409E+02  0.10569469179E+04  0.84623028837E+02 0.  0.
        254    2    1    2    0    0  0.86234513781E+03 -0.60001402797E+03 -0.45407542498E+03  0.14563432576E+04  0.90060825109E+03 0.  0.
        -24    2    4    4    0    0  0.40145016718E+03 -0.77794217173E+03 -0.23299427933E+03  0.90933405069E+03  0.79030514651E+02 0.  0.
         24    2    4    4    0    0  0.46089497064E+03  0.17792814376E+03 -0.22108114564E+03  0.54700920692E+03  0.79117641481E+02 0.  0.
         11    1    3    3    0    0 -0.78429580500E+02  0.85189231715E+02  0.79317370564E+00  0.11579738090E+03  0.00000000000E+00 0.  1.
        -11    1    3    3    0    0 -0.78391555731E+03  0.51482479626E+03  0.78703742704E+02  0.94114953698E+03  0.00000000000E+00 0. -1.
          4    1    6    6  502    0  0.25479547391E+03  0.13772891559E+03 -0.14260486771E+03  0.32284072855E+03  0.00000000000E+00 0. -1.
          3    1    5    5  503    0  0.57354160283E+02 -0.64177310798E+02 -0.13552436256E+02  0.87131483698E+02  0.00000000000E+00 0. -1.
         -4    1    5    5    0  503  0.34409600689E+03 -0.71376486094E+03 -0.21944184308E+03  0.82220256699E+03  0.00000000000E+00 0.  1.
         -3    1    6    6    0  502  0.20609949673E+03  0.40199228171E+02 -0.78476277933E+02  0.22416847837E+03  0.00000000000E+00 0.  1.
<mgrwt>
<rscale>  0 0.24852200E+04</rscale>
<asrwt>0</asrwt>
<pdfrwt beam="1">  1        2 0.22214375E+00 0.24852200E+04</pdfrwt>
<pdfrwt beam="2">  1       -2 0.16451628E+00 0.24852200E+04</pdfrwt>
<totfact> 0.28470100E+00</totfact>
</mgrwt>
</event>
<event>
12    1  0.2214165E-007  0.1346068E+04  0.7818608E-02  0.8993810E-01
         -2   -1    0    0    0  501 -0.00000000000E+00  0.00000000000E+00  0.25516168997E+03  0.25516168997E+03  0.00000000000E+00 0.  1.
          2   -1    0    0  501    0  0.00000000000E+00 -0.00000000000E+00 -0.17752469412E+04  0.17752469412E+04  0.00000000000E+00 0. -1.
         23    2    1    2    0    0 -0.26036869149E+03 -0.24849369426E+03 -0.50844198624E+03  0.62987618071E+03  0.93218979053E+02 0.  0.
        254    2    1    2    0    0  0.26036869149E+03  0.24849369426E+03 -0.10116432650E+04  0.14005324504E+04  0.89918189349E+03 0.  0.
        -24    2    4    4    0    0  0.78886493102E+02  0.57509328948E+03 -0.59942960993E+03  0.83840472061E+03  0.81555183090E+02 0.  0.
         24    2    4    4    0    0  0.18148219838E+03 -0.32659959522E+03 -0.41221365504E+03  0.56212772983E+03  0.80401513125E+02 0.  0.
         11    1    3    3    0    0 -0.17106950311E+03 -0.10187564601E+03 -0.24972951830E+03  0.31938731104E+03  0.00000000000E+00 0. -1.
        -11    1    3    3    0    0 -0.89299188375E+02 -0.14661804825E+03 -0.25871246794E+03  0.31048886966E+03  0.00000000000E+00 0.  1.
          2    1    6    6  502    0  0.34108764998E+02 -0.23285372168E+02 -0.72632542356E+02  0.83552992859E+02  0.00000000000E+00 0. -1.
          3    1    5    5  503    0  0.28842510577E+02  0.86650137081E+02 -0.61592086898E+02  0.11015317445E+03  0.00000000000E+00 0. -1.
         -4    1    5    5    0  503  0.50043982525E+02  0.48844315240E+03 -0.53783752303E+03  0.72825154616E+03  0.00000000000E+00 0.  1.
         -1    1    6    6    0  502  0.14737343339E+03 -0.30331422305E+03 -0.33958111269E+03  0.47857473697E+03  0.00000000000E+00 0.  1.
<mgrwt>
<rscale>  0 0.13460684E+04</rscale>
<asrwt>0</asrwt>
<pdfrwt beam="1">  1        2 0.27311492E+00 0.13460684E+04</pdfrwt>
<pdfrwt beam="2">  1       -2 0.39255643E-01 0.13460684E+04</pdfrwt>
<totfact> 0.53392633E+01</totfact>
</mgrwt>
</event>
<event>
12    1  0.2214165E-007  0.4327662E+04  0.7818608E-02  0.7941523E-01
          1   -1    0    0  501    0  0.00000000000E+00  0.00000000000E+00  0.13616940282E+04  0.13616940282E+04  0.00000000000E+00 0. -1.
         -1   -1    0    0    0  501 -0.00000000000E+00 -0.00000000000E+00 -0.34384847530E+04  0.34384847530E+04  0.00000000000E+00 0.  1.
         23    2    1    2    0    0 -0.19932142362E+04 -0.97947044228E+02 -0.15988696679E+04  0.25587392335E+04  0.90915538202E+02 0.  0.
        254    2    1    2    0    0  0.19932142362E+04  0.97947044228E+02 -0.47792105694E+03  0.22414395477E+04  0.90174613644E+03 0.  0.
        -24    2    4    4    0    0 -0.12131885886E+02 -0.82801442430E+02  0.87803290593E+02  0.14849731073E+03  0.85666632537E+02 0.  0.
         24    2    4    4    0    0  0.20053461221E+04  0.18074848666E+03 -0.56572434754E+03  0.20929422370E+04  0.79246988812E+02 0.  0.
         11    1    3    3    0    0 -0.16752435227E+04 -0.11230102922E+03 -0.13623952106E+04  0.21622148578E+04  0.00000000000E+00 0. -1.
        -11    1    3    3    0    0 -0.31797071347E+03  0.14353984993E+02 -0.23647445737E+03  0.39652437567E+03  0.00000000000E+00 0.  1.
          4    1    6    6  502    0  0.14398880082E+04  0.98637186758E+02 -0.42362150837E+03  0.15041482484E+04  0.00000000000E+00 0. -1.
          1    1    5    5  503    0  0.23559495476E+02 -0.53488133475E+01  0.49354114576E+02  0.54949870399E+02  0.00000000000E+00 0. -1.
         -2    1    5    5    0  503 -0.35691381362E+02 -0.77452629082E+02  0.38449176017E+02  0.93547440327E+02  0.00000000000E+00 0.  1.
         -3    1    6    6    0  502  0.56545811388E+03  0.82111299900E+02 -0.14210283917E+03  0.58879398861E+03  0.00000000000E+00 0.  1.
<mgrwt>
<rscale>  0 0.43276618E+04</rscale>
<asrwt>0</asrwt>
<pdfrwt beam="1">  1        1 0.20949139E+00 0.43276618E+04</pdfrwt>
<pdfrwt beam="2">  1       -1 0.52899766E+00 0.43276618E+04</pdfrwt>
<totfact> 0.61609535E-03</totfact>
</mgrwt>
</event>
<event>
12    1  0.2214165E-007  0.2684834E+04  0.7818608E-02  0.8339943E-01
          1   -1    0    0  501    0  0.00000000000E+00  0.00000000000E+00  0.18088218849E+04  0.18088218849E+04  0.00000000000E+00 0. -1.
         -1   -1    0    0    0  501 -0.00000000000E+00 -0.00000000000E+00 -0.99627464829E+03  0.99627464829E+03  0.00000000000E+00 0.  1.
         23    2    1    2    0    0  0.45207946228E+02  0.11826185975E+04  0.20920436491E+03  0.12053269463E+04  0.91739171957E+02 0.  0.
        254    2    1    2    0    0 -0.45207946228E+02 -0.11826185975E+04  0.60334287173E+03  0.15997695869E+04  0.89140877542E+03 0.  0.
        -24    2    4    4    0    0  0.84641983623E+02 -0.84350049268E+03 -0.44156484572E+02  0.85266134423E+03  0.80151271134E+02 0.  0.
         24    2    4    4    0    0 -0.12984992985E+03 -0.33911810479E+03  0.64749935630E+03  0.74710824270E+03  0.83983430582E+02 0.  0.
         13    1    3    3    0    0 -0.44280809560E+01  0.82635631905E+03  0.16798599865E+03  0.84326963047E+03  0.00000000000E+00 0. -1.
        -13    1    3    3    0    0  0.49636027184E+02  0.35626227842E+03  0.41218366257E+02  0.36205731582E+03  0.00000000000E+00 0.  1.
          2    1    6    6  502    0 -0.17308353191E+01 -0.16026505387E+01  0.42627941054E+02  0.42693156807E+02  0.00000000000E+00 0. -1.
          3    1    5    5  503    0  0.18898968259E+02 -0.51661666561E+03 -0.48228770014E+02  0.51920705354E+03  0.00000000000E+00 0. -1.
         -4    1    5    5    0  503  0.65743015364E+02 -0.32688382707E+03  0.40722854416E+01  0.33345429069E+03  0.00000000000E+00 0.  1.
         -1    1    6    6    0  502 -0.12811909453E+03 -0.33751545425E+03  0.60487141525E+03  0.70441508589E+03  0.00000000000E+00 0.  1.
<mgrwt>
<rscale>  0 0.26848340E+04</rscale>
<asrwt>0</asrwt>
<pdfrwt beam="1">  1        1 0.27828029E+00 0.26848340E+04</pdfrwt>
<pdfrwt beam="2">  1       -1 0.15327302E+00 0.26848340E+04</pdfrwt>
<totfact> 0.11559335E+00</totfact>
</mgrwt>
</event>
<event>
12    1  0.2214165E-007  0.1615500E+04  0.7818608E-02  0.8811082E-01
          2   -1    0    0  501    0  0.00000000000E+00  0.00000000000E+00  0.10205693541E+04  0.10205693541E+04  0.00000000000E+00 0. -1.
         -2   -1    0    0    0  501 -0.00000000000E+00 -0.00000000000E+00 -0.63930995412E+03  0.63930995412E+03  0.00000000000E+00 0.  1.
         23    2    1    2    0    0 -0.68561959126E+02  0.22309602251E+03 -0.38119710545E+03  0.45526072725E+03  0.86478431261E+02 0.  0.
        254    2    1    2    0    0  0.68561959126E+02 -0.22309602251E+03  0.76245650544E+03  0.12046185810E+04  0.90293600297E+03 0.  0.
        -24    2    4    4    0    0 -0.33927480219E+03  0.47397980202E+02  0.78370257231E+02  0.35955873394E+03  0.76069875817E+02 0.  0.
         24    2    4    4    0    0  0.40783676131E+03 -0.27049400271E+03  0.68408624821E+03  0.84505984704E+03  0.81574019803E+02 0.  0.
         11    1    3    3    0    0 -0.81722581515E+02  0.19803168043E+03 -0.29534332842E+03  0.36485998469E+03  0.00000000000E+00 0. -1.
        -11    1    3    3    0    0  0.13160622389E+02  0.25064342079E+02 -0.85853777030E+02  0.90400742562E+02  0.00000000000E+00 0.  1.
          2    1    6    6  502    0  0.31825182424E+03 -0.23415752487E+03  0.59059054171E+03  0.71057100845E+03  0.00000000000E+00 0. -1.
          1    1    5    5  503    0 -0.30194897270E+03  0.17357616134E+02  0.60614205636E+02  0.30846158736E+03  0.00000000000E+00 0. -1.
         -2    1    5    5    0  503 -0.37325829490E+02  0.30040364067E+02  0.17756051596E+02  0.51097146581E+02  0.00000000000E+00 0.  1.
         -1    1    6    6    0  502  0.89584937075E+02 -0.36336477843E+02  0.93495706497E+02  0.13448883859E+03  0.00000000000E+00 0.  1.
<mgrwt>
<rscale>  0 0.16155001E+04</rscale>
<asrwt>0</asrwt>
<pdfrwt beam="1">  1        2 0.15701067E+00 0.16155001E+04</pdfrwt>
<pdfrwt beam="2">  1       -2 0.98355377E-01 0.16155001E+04</pdfrwt>
<totfact> 0.20109097E+01</totfact>
</mgrwt>
</event>
<event>
12    1  0.2214165E-007  0.1393768E+04  0.7818608E-02  0.8958342E-01
         -2   -1    0    0    0  501 -0.00000000000E+00  0.00000000000E+00  0.36415907903E+03  0.36415907903E+03  0.00000000000E+00 0.  1.
          2   -1    0    0  501    0  0.00000000000E+00 -0.00000000000E+00 -0.13336137719E+04  0.13336137719E+04  0.00000000000E+00 0. -1.
         23    2    1    2    0    0 -0.21591093530E+03  0.26164465112E+03 -0.28837043082E+02  0.35250008541E+03  0.91374393137E+02 0.  0.
        254    2    1    2    0    0  0.21591093530E+03 -0.26164465112E+03 -0.94061764984E+03  0.13452727656E+04  0.89995655182E+03 0.  0.
        -24    2    4    4    0    0 -0.33810592779E+03 -0.37164959520E+02 -0.25809859231E+03  0.43452567100E+03  0.80627680008E+02 0.  0.
         24    2    4    4    0    0  0.55401686309E+03 -0.22447969160E+03 -0.68251905753E+03  0.91074709457E+03  0.79386332940E+02 0.  0.
         13    1    3    3    0    0 -0.21203318854E+03  0.22349949622E+03 -0.65354680334E+01  0.30814413867E+03  0.00000000000E+00 0.  1.
        -13    1    3    3    0    0 -0.38777467634E+01  0.38145154895E+02 -0.22301575049E+02  0.44355946744E+02  0.00000000000E+00 0. -1.
          4    1    6    6  502    0  0.14003040253E+03 -0.37904573226E+02 -0.12333210370E+03  0.19041028887E+03  0.00000000000E+00 0. -1.
          1    1    5    5  503    0 -0.26743933927E+03 -0.10562356604E+02 -0.23328371771E+03  0.35504458384E+03  0.00000000000E+00 0. -1.
         -2    1    5    5    0  503 -0.70666588516E+02 -0.26602602916E+02 -0.24814874603E+02  0.79481087159E+02  0.00000000000E+00 0.  1.
         -1    1    6    6    0  502  0.41398646056E+03 -0.18657511837E+03 -0.55918695382E+03  0.72033680570E+03  0.00000000000E+00 0.  1.
<mgrwt>
<rscale>  0 0.13937684E+04</rscale>
<asrwt>0</asrwt>
<pdfrwt beam="1">  1        2 0.20517134E+00 0.13937684E+04</pdfrwt>
<pdfrwt beam="2">  1       -2 0.56024475E-01 0.13937684E+04</pdfrwt>
<totfact> 0.46029739E+01</totfact>
</mgrwt>
</event>
<event>
12    1  0.2214165E-007  0.4614125E+04  0.7818608E-02  0.7890956E-01
         -2   -1    0    0    0  501 -0.00000000000E+00  0.00000000000E+00  0.29264309021E+04  0.29264309021E+04  0.00000000000E+00 0.  1.
          2   -1    0    0  501    0  0.00000000000E+00 -0.00000000000E+00 -0.18187810308E+04  0.18187810308E+04  0.00000000000E+00 0. -1.
         23    2    1    2    0    0  0.14216819825E+04  0.16809844982E+04  0.81405098086E+03  0.23489814849E+04  0.90257822743E+02 0.  0.
        254    2    1    2    0    0 -0.14216819825E+04 -0.16809844982E+04  0.29359889039E+03  0.23962304480E+04  0.89935060407E+03 0.  0.
        -24    2    4    4    0    0 -0.14321055500E+04 -0.11575972910E+04  0.15149130822E+03  0.18492709492E+04  0.76783024041E+02 0.  0.
         24    2    4    4    0    0  0.10423567523E+02 -0.52338720719E+03  0.14210758217E+03  0.54695949877E+03  0.70194793029E+02 0.  0.
         13    1    3    3    0    0  0.33263958815E+03  0.40860883221E+03  0.23483520842E+03  0.57685166939E+03  0.00000000000E+00 0. -1.
        -13    1    3    3    0    0  0.10890423943E+04  0.12723756660E+04  0.57921577244E+03  0.17721298155E+04  0.00000000000E+00 0.  1.
          4    1    6    6  502    0  0.12601561227E+02 -0.51758367071E+03  0.13070475228E+03  0.53398069984E+03  0.00000000000E+00 0. -1.
          1    1    5    5  503    0 -0.13306483920E+04 -0.10664020645E+04  0.12127436311E+03  0.17095455470E+04  0.00000000000E+00 0. -1.
         -2    1    5    5    0  503 -0.10145715800E+03 -0.91195226498E+02  0.30216945108E+02  0.13972540219E+03  0.00000000000E+00 0.  1.
         -3    1    6    6    0  502 -0.21779937038E+01 -0.58035364829E+01  0.11402829881E+02  0.12978798927E+02  0.00000000000E+00 0.  1.
<mgrwt>
<rscale>  0 0.46141248E+04</rscale>
<asrwt>0</asrwt>
<pdfrwt beam="1">  1        2 0.27981247E+00 0.46141248E+04</pdfrwt>
<pdfrwt beam="2">  1       -2 0.45022014E+00 0.46141248E+04</pdfrwt>
<totfact> 0.21914516E-02</totfact>
</mgrwt>
</event>
<event>
12    1  0.2214165E-007  0.1496459E+04  0.7818608E-02  0.8886811E-01
         -1   -1    0    0    0  501 -0.00000000000E+00  0.00000000000E+00  0.33702469856E+03  0.33702469856E+03  0.00000000000E+00 0.  1.
          1   -1    0    0  501    0  0.00000000000E+00 -0.00000000000E+00 -0.16611462470E+04  0.16611462470E+04  0.00000000000E+00 0. -1.
         23    2    1    2    0    0 -0.36941443509E+03 -0.21863713333E+03 -0.16531474023E+03  0.46906100804E+03  0.91760803204E+02 0.  0.
        254    2    1    2    0    0  0.36941443509E+03  0.21863713333E+03 -0.11588068082E+04  0.15291099375E+04  0.90059689171E+03 0.  0.
        -24    2    4    4    0    0 -0.19296030764E+03 -0.23344919163E+02 -0.77312608860E+03  0.80128456531E+03  0.80958879410E+02 0.  0.
         24    2    4    4    0    0  0.56237474273E+03  0.24198205249E+03 -0.38568071961E+03  0.72782537221E+03  0.78482418222E+02 0.  0.
         11    1    3    3    0    0 -0.12358582990E+03 -0.34107918448E+02 -0.22670480820E+02  0.13019507730E+03  0.00000000000E+00 0.  1.
        -11    1    3    3    0    0 -0.24582860519E+03 -0.18452921488E+03 -0.14264425941E+03  0.33886593074E+03  0.00000000000E+00 0. -1.
          4    1    6    6  502    0  0.26393928392E+03  0.15572309134E+03 -0.18402818640E+03  0.35746328506E+03  0.00000000000E+00 0. -1.
          1    1    5    5  503    0 -0.60316649071E+02 -0.40025827436E+02 -0.19779778026E+03  0.21062793474E+03  0.00000000000E+00 0. -1.
         -2    1    5    5    0  503 -0.13264365857E+03  0.16680908273E+02 -0.57532830834E+03  0.59065663057E+03  0.00000000000E+00 0.  1.
         -3    1    6    6    0  502  0.29843545881E+03  0.86258961150E+02 -0.20165253320E+03  0.37036208715E+03  0.00000000000E+00 0.  1.
<mgrwt>
<rscale>  0 0.14964589E+04</rscale>
<asrwt>0</asrwt>
<pdfrwt beam="1">  1        1 0.25556096E+00 0.14964589E+04</pdfrwt>
<pdfrwt beam="2">  1       -1 0.51849955E-01 0.14964589E+04</pdfrwt>
<totfact> 0.18357073E+01</totfact>
</mgrwt>
</event>
<event>
12    1  0.2214165E-007  0.2269103E+04  0.7818608E-02  0.8490204E-01
          2   -1    0    0  501    0  0.00000000000E+00  0.00000000000E+00  0.80570542110E+03  0.80570542110E+03  0.00000000000E+00 0. -1.
         -2   -1    0    0    0  501 -0.00000000000E+00 -0.00000000000E+00 -0.15976145391E+04  0.15976145391E+04  0.00000000000E+00 0.  1.
         23    2    1    2    0    0 -0.30761273861E+03 -0.70911373190E+03 -0.92690114140E+03  0.12103715915E+04  0.91573914137E+02 0.  0.
        254    2    1    2    0    0  0.30761273861E+03  0.70911373190E+03  0.13499202340E+03  0.11929483687E+04  0.89857391592E+03 0.  0.
        -24    2    4    4    0    0  0.27593540125E+03  0.88794490546E+03 -0.33099881058E+02  0.93377298636E+03  0.79056227586E+02 0.  0.
         24    2    4    4    0    0  0.31677337360E+02 -0.17883117357E+03  0.16809190446E+03  0.25917538238E+03  0.77025633051E+02 0.  0.
         13    1    3    3    0    0 -0.27960965041E+03 -0.61931930062E+03 -0.76570006314E+03  0.10237355808E+04  0.00000000000E+00 0. -1.
        -13    1    3    3    0    0 -0.28003088203E+02 -0.89794431275E+02 -0.16120107826E+03  0.18663601064E+03  0.00000000000E+00 0.  1.
          4    1    6    6  502    0 -0.35394064467E+01 -0.76055986095E+01 -0.76094178515E+01  0.11325889291E+02  0.00000000000E+00 0. -1.
          3    1    5    5  503    0  0.11002212419E+03  0.23482987188E+03 -0.97602939755E+01  0.25950953716E+03  0.00000000000E+00 0. -1.
         -4    1    5    5    0  503  0.16591327707E+03  0.65311503358E+03 -0.23339587083E+02  0.67426344920E+03  0.00000000000E+00 0.  1.
         -3    1    6    6    0  502  0.35216743806E+02 -0.17122557496E+03  0.17570132231E+03  0.24784949309E+03  0.00000000000E+00 0.  1.
<mgrwt>
<rscale>  0 0.22691026E+04</rscale>
<asrwt>0</asrwt>
<pdfrwt beam="1">  1        2 0.12395468E+00 0.22691026E+04</pdfrwt>
<pdfrwt beam="2">  1       -2 0.24578685E+00 0.22691026E+04</pdfrwt>
<totfact> 0.21152177E+00</totfact>
</mgrwt>
</event>
<event>
12    1  0.2214165E-007  0.1142950E+04  0.7818608E-02  0.9164312E-01
          1   -1    0    0  501    0  0.00000000000E+00  0.00000000000E+00  0.18285052339E+04  0.18285052339E+04  0.00000000000E+00 0. -1.
         -1   -1    0    0    0  501 -0.00000000000E+00 -0.00000000000E+00 -0.17860683522E+03  0.17860683522E+03  0.00000000000E+00 0.  1.
         23    2    1    2    0    0  0.10808183186E+03 -0.16864162293E+03  0.32611852713E+03  0.39362888539E+03  0.92025682913E+02 0.  0.
        254    2    1    2    0    0 -0.10808183186E+03  0.16864162293E+03  0.13237798715E+04  0.16134831837E+04  0.90045164029E+03 0.  0.
        -24    2    4    4    0    0 -0.15902672105E+03 -0.27323538327E+03  0.10129535855E+04  0.10641132429E+04  0.79466689388E+02 0.  0.
         24    2    4    4    0    0  0.50944889190E+02  0.44187700619E+03  0.31082628607E+03  0.54936994083E+03  0.85695282459E+02 0.  0.
         11    1    3    3    0    0  0.90518115487E+02 -0.12613874027E+03  0.16710142828E+03  0.22809515199E+03  0.00000000000E+00 0.  1.
        -11    1    3    3    0    0  0.17563716375E+02 -0.42502882652E+02  0.15901709885E+03  0.16553373340E+03  0.00000000000E+00 0. -1.
          4    1    6    6  502    0 -0.12809813541E+02  0.26482519777E+02  0.39048843442E+02  0.48889951430E+02  0.00000000000E+00 0. -1.
          3    1    5    5  503    0 -0.47179811929E+02 -0.36123097368E+02  0.12756325507E+03  0.14072383188E+03  0.00000000000E+00 0. -1.
         -4    1    5    5    0  503 -0.11184690912E+03 -0.23711228590E+03  0.88539033040E+03  0.92338941101E+03  0.00000000000E+00 0.  1.
         -3    1    6    6    0  502  0.63754702731E+02  0.41539448641E+03  0.27177744263E+03  0.50047998939E+03  0.00000000000E+00 0.  1.
<mgrwt>
<rscale>  0 0.11429498E+04</rscale>
<asrwt>0</asrwt>
<pdfrwt beam="1">  1        1 0.28130848E+00 0.11429498E+04</pdfrwt>
<pdfrwt beam="2">  1       -1 0.27477976E-01 0.11429498E+04</pdfrwt>
<totfact> 0.46113898E+01</totfact>
</mgrwt>
</event>
<event>
12    1  0.2214165E-007  0.3288363E+04  0.7818608E-02  0.8165863E-01
          2   -1    0    0  501    0  0.00000000000E+00  0.00000000000E+00  0.20888029771E+04  0.20888029771E+04  0.00000000000E+00 0. -1.
         -2   -1    0    0    0  501 -0.00000000000E+00 -0.00000000000E+00 -0.12942016616E+04  0.12942016616E+04  0.00000000000E+00 0.  1.
         23    2    1    2    0    0 -0.61384851811E+03  0.13890428230E+04  0.31344263696E+03  0.15534236239E+04  0.92890802383E+02 0.  0.
        254    2    1    2    0    0  0.61384851811E+03 -0.13890428230E+04  0.48115867847E+03  0.18295810149E+04  0.89977944452E+03 0.  0.
        -24    2    4    4    0    0  0.14683961816E+03 -0.86850837383E+03 -0.13422823618E+03  0.89467400134E+03  0.80967156340E+02 0.  0.
         24    2    4    4    0    0  0.46700889995E+03 -0.52053444917E+03  0.61538691466E+03  0.93490701353E+03  0.79351394521E+02 0.  0.
         13    1    3    3    0    0 -0.34775819115E+03  0.75517349013E+03  0.12616961253E+03  0.84091707726E+03  0.00000000000E+00 0. -1.
        -13    1    3    3    0    0 -0.26609032696E+03  0.63386933288E+03  0.18727302443E+03  0.71250654659E+03  0.00000000000E+00 0.  1.
          2    1    6    6  502    0  0.16712356339E+03 -0.19562942830E+03  0.27755228338E+03  0.37846588838E+03  0.00000000000E+00 0. -1.
          3    1    5    5  503    0  0.13142662506E+03 -0.56427679924E+03 -0.73014307796E+02  0.58396262986E+03  0.00000000000E+00 0. -1.
         -4    1    5    5    0  503  0.15412993099E+02 -0.30423157460E+03 -0.61213928388E+02  0.31071137148E+03  0.00000000000E+00 0.  1.
         -1    1    6    6    0  502  0.29988533656E+03 -0.32490502087E+03  0.33783463128E+03  0.55644112516E+03  0.00000000000E+00 0.  1.
<mgrwt>
<rscale>  0 0.32883627E+04</rscale>
<asrwt>0</asrwt>
<pdfrwt beam="1">  1        2 0.32135430E+00 0.32883627E+04</pdfrwt>
<pdfrwt beam="2">  1       -2 0.19910795E+00 0.32883627E+04</pdfrwt>
<totfact> 0.67186223E-01</totfact>
</mgrwt>
</event>
<event>
12    1  0.2214165E-007  0.1894015E+04  0.7818608E-02  0.8657841E-01
          1   -1    0    0  501    0  0.00000000000E+00  0.00000000000E+00  0.13117103697E+04  0.13117103697E+04  0.00000000000E+00 0. -1.
         -1   -1    0    0    0  501 -0.00000000000E+00 -0.00000000000E+00 -0.68370485067E+03  0.68370485067E+03  0.00000000000E+00 0.  1.
         23    2    1    2    0    0 -0.18784662946E+03 -0.69138543229E+03  0.39056130653E+03  0.82075253872E+03  0.88297358224E+02 0.  0.
        254    2    1    2    0    0  0.18784662946E+03  0.69138543229E+03  0.23744421247E+03  0.11746626816E+04  0.90008471233E+03 0.  0.
        -24    2    4    4    0    0  0.11134359054E+03  0.34872882526E+03  0.57143230651E+03  0.68356862931E+03  0.81987812144E+02 0.  0.
         24    2    4    4    0    0  0.76503038922E+02  0.34265660703E+03 -0.33398809404E+03  0.49109405231E+03  0.79743689071E+02 0.  0.
         13    1    3    3    0    0 -0.17441399780E+03 -0.49553104222E+03  0.29339874413E+03  0.60170929815E+03  0.00000000000E+00 0. -1.
        -13    1    3    3    0    0 -0.13432631667E+02 -0.19585439007E+03  0.97162562396E+02  0.21904324056E+03  0.00000000000E+00 0.  1.
          4    1    6    6  502    0  0.46446168801E+02  0.25852209253E+03 -0.20038434907E+03  0.33037071038E+03  0.00000000000E+00 0. -1.
          3    1    5    5  503    0  0.29768591543E+02  0.19271588315E+03  0.24973851319E+03  0.31685155141E+03  0.00000000000E+00 0. -1.
         -4    1    5    5    0  503  0.81574998998E+02  0.15601294211E+03  0.32169379331E+03  0.36671707790E+03  0.00000000000E+00 0.  1.
         -1    1    6    6    0  502  0.30056870120E+02  0.84134514498E+02 -0.13360374497E+03  0.16072334193E+03  0.00000000000E+00 0.  1.
<mgrwt>
<rscale>  0 0.18940145E+04</rscale>
<asrwt>0</asrwt>
<pdfrwt beam="1">  1        1 0.20180159E+00 0.18940145E+04</pdfrwt>
<pdfrwt beam="2">  1       -1 0.10518536E+00 0.18940145E+04</pdfrwt>
<totfact> 0.70426128E+00</totfact>
</mgrwt>
</event>
<event>
12    1  0.2214165E-007  0.3659543E+04  0.7818608E-02  0.8076987E-01
         -2   -1    0    0    0  501 -0.00000000000E+00  0.00000000000E+00  0.19978287400E+04  0.19978287400E+04  0.00000000000E+00 0. -1.
          2   -1    0    0  501    0  0.00000000000E+00 -0.00000000000E+00 -0.16758513664E+04  0.16758513664E+04  0.00000000000E+00 0.  1.
         23    2    1    2    0    0 -0.48219783986E+03 -0.16479355504E+04  0.96068802226E+02  0.17221527960E+04  0.91513402528E+02 0.  0.
        254    2    1    2    0    0  0.48219783986E+03  0.16479355504E+04  0.22590857135E+03  0.19515273104E+04  0.89956535360E+03 0.  0.
        -24    2    4    4    0    0 -0.25586500244E+03  0.56823387664E+03  0.70021129305E+02  0.63191538543E+03  0.77829671410E+02 0.  0.
         24    2    4    4    0    0  0.73806284230E+03  0.10797016738E+04  0.15588744204E+03  0.13196119249E+04  0.81131216673E+02 0.  0.
         11    1    3    3    0    0 -0.18570464160E+03 -0.62403104854E+03 -0.79129398548E+01  0.65112485597E+03  0.00000000000E+00 0.  1.
        -11    1    3    3    0    0 -0.29649319826E+03 -0.10239045019E+04  0.10398174208E+03  0.10710279400E+04  0.00000000000E+00 0. -1.
          4    1    6    6  502    0  0.14919380141E+03  0.26524355121E+03  0.14446295796E+02  0.30466641971E+03  0.00000000000E+00 0. -1.
          1    1    5    5  503    0 -0.43481149434E+01  0.85658246541E+00  0.67457505333E+01  0.80712444727E+01  0.00000000000E+00 0. -1.
         -2    1    5    5    0  503 -0.25151688750E+03  0.56737729418E+03  0.63275378771E+02  0.62384414096E+03  0.00000000000E+00 0.  1.
         -3    1    6    6    0  502  0.58886904089E+03  0.81445812257E+03  0.14144114625E+03  0.10149455052E+04  0.00000000000E+00 0.  1.
<mgrwt>
<rscale>  0 0.36595432E+04</rscale>
<asrwt>0</asrwt>
<pdfrwt beam="1">  1        2 0.25782329E+00 0.36595432E+04</pdfrwt>
<pdfrwt beam="2">  1       -2 0.30735827E+00 0.36595432E+04</pdfrwt>
<totfact> 0.23500306E-01</totfact>
</mgrwt>
</event>
<event>
12    1  0.3616198E-007  0.3105601E+04  0.7818608E-02  0.8214203E-01
         -2   -1    0    0    0  501 -0.00000000000E+00  0.00000000000E+00  0.12568302123E+04  0.12568302123E+04  0.00000000000E+00 0.  1.
          2   -1    0    0  501    0  0.00000000000E+00 -0.00000000000E+00 -0.19184682608E+04  0.19184682608E+04  0.00000000000E+00 0. -1.
         23    2    1    2    0    0  0.13315321464E+04 -0.48456392260E+03 -0.19639471132E+03  0.14334324576E+04  0.91529643771E+02 0.  0.
        254    2    1    2    0    0 -0.13315321464E+04  0.48456392260E+03 -0.46524333715E+03  0.17418660156E+04  0.89992544213E+03 0.  0.
        -24    2    4    4    0    0 -0.12293559253E+04  0.11843176471E+03 -0.16062636174E+03  0.12482655491E+04  0.83809182209E+02 0.  0.
         24    2    4    4    0    0 -0.10217622120E+03  0.36613215789E+03 -0.30461697541E+03  0.49360046653E+03  0.79731936097E+02 0.  0.
         13    1    3    3    0    0  0.74009397463E+03 -0.31390994690E+03 -0.93659294087E+02  0.80935196881E+03  0.00000000000E+00 0.  1.
        -13    1    3    3    0    0  0.59143817181E+03 -0.17065397570E+03 -0.10273541723E+03  0.62408048876E+03  0.00000000000E+00 0. -1.
          4    1    6    6  502    0 -0.41663069753E+02  0.44346142699E+02 -0.43335188478E+02  0.74701608509E+02  0.00000000000E+00 0. -1.
          3    1    5    5  503    0 -0.21994680069E+03 -0.57677316039E+01 -0.11007341161E+02  0.22029757924E+03  0.00000000000E+00 0. -1.
         -4    1    5    5    0  503 -0.10094091246E+04  0.12419949631E+03 -0.14961902057E+03  0.10279679698E+04  0.00000000000E+00 0.  1.
         -1    1    6    6    0  502 -0.60513151443E+02  0.32178601519E+03 -0.26128178693E+03  0.41889885802E+03  0.00000000000E+00 0.  1.
<mgrwt>
<rscale>  0 0.31056007E+04</rscale>
<asrwt>0</asrwt>
<pdfrwt beam="1">  1        2 0.29514896E+00 0.31056007E+04</pdfrwt>
<pdfrwt beam="2">  1       -2 0.19335849E+00 0.31056007E+04</pdfrwt>
<totfact> 0.92637895E-01</totfact>
</mgrwt>
</event>
<event>
12    1  0.2462927E-007  0.3362608E+04  0.7818608E-02  0.8147145E-01
          1   -1    0    0  501    0  0.00000000000E+00  0.00000000000E+00  0.22261008948E+04  0.22261008948E+04  0.00000000000E+00 0. -1.
         -1   -1    0    0    0  501 -0.00000000000E+00 -0.00000000000E+00 -0.12698362169E+04  0.12698362169E+04  0.00000000000E+00 0.  1.
         23    2    1    2    0    0  0.15572737778E+04 -0.13711811107E+02  0.34662005516E+03  0.15983481154E+04  0.96341074026E+02 0.  0.
        254    2    1    2    0    0 -0.15572737778E+04  0.13711811107E+02  0.60964462275E+03  0.18975889963E+04  0.89659790327E+03 0.  0.
        -24    2    4    4    0    0 -0.16517816957E+04  0.51741517824E+02  0.50115356565E+03  0.17287842414E+04  0.80499080886E+02 0.  0.
         24    2    4    4    0    0  0.94507917854E+02 -0.38029706717E+02  0.10849105711E+03  0.16880475497E+03  0.79666371197E+02 0.  0.
         13    1    3    3    0    0  0.99739208767E+03 -0.54095234480E+02  0.23130096035E+03  0.10252889374E+04  0.00000000000E+00 0. -1.
        -13    1    3    3    0    0  0.55988169015E+03  0.40383423373E+02  0.11531909481E+03  0.57305917799E+03  0.00000000000E+00 0.  1.
          4    1    6    6  502    0 -0.73439320380E+01  0.35628531143E-02  0.39195638695E+02  0.39877706092E+02  0.00000000000E+00 0. -1.
          1    1    5    5  503    0 -0.11616912319E+03  0.12325275812E+02  0.16232865652E+02  0.11794356080E+03  0.00000000000E+00 0. -1.
         -2    1    5    5    0  503 -0.15356125725E+04  0.39416242012E+02  0.48492070000E+03  0.16108406806E+04  0.00000000000E+00 0.  1.
         -3    1    6    6    0  502  0.10185184989E+03 -0.38033269570E+02  0.69295418412E+02  0.12892704888E+03  0.00000000000E+00 0.  1.
<mgrwt>
<rscale>  0 0.33626082E+04</rscale>
<asrwt>0</asrwt>
<pdfrwt beam="1">  1        1 0.34247706E+00 0.33626082E+04</pdfrwt>
<pdfrwt beam="2">  1       -1 0.19535942E+00 0.33626082E+04</pdfrwt>
<totfact> 0.27968514E-01</totfact>
</mgrwt>
</event>
<event>
12    1  0.2214165E-007  0.1438278E+04  0.7818608E-02  0.8926568E-01
          2   -1    0    0  501    0  0.00000000000E+00  0.00000000000E+00  0.12868444897E+04  0.12868444897E+04  0.00000000000E+00 0. -1.
         -2   -1    0    0    0  501 -0.00000000000E+00 -0.00000000000E+00 -0.40188282086E+03  0.40188282086E+03  0.00000000000E+00 0.  1.
         23    2    1    2    0    0 -0.40750789454E+03  0.34386723256E+02  0.42839460418E+03  0.59919244649E+03  0.90909406477E+02 0.  0.
        254    2    1    2    0    0  0.40750789454E+03 -0.34386723256E+02  0.45656706464E+03  0.10895348641E+04  0.90077056159E+03 0.  0.
        -24    2    4    4    0    0  0.58714933821E+03  0.11142944329E+03  0.37006393126E+02  0.60395418534E+03  0.78932367663E+02 0.  0.
         24    2    4    4    0    0 -0.17964144367E+03 -0.14581616655E+03  0.41956067151E+03  0.48558067872E+03  0.78892558301E+02 0.  0.
         11    1    3    3    0    0 -0.16863447714E+03 -0.16368639051E+02  0.22321430366E+03  0.28023230467E+03  0.00000000000E+00 0.  1.
        -11    1    3    3    0    0 -0.23887341740E+03  0.50755362307E+02  0.20518030053E+03  0.31896014182E+03  0.00000000000E+00 0. -1.
          2    1    6    6  502    0 -0.13891045994E+03 -0.12450645694E+03  0.38584715316E+03  0.42857438013E+03  0.00000000000E+00 0. -1.
          3    1    5    5  503    0  0.46394507566E+03  0.85139539572E+02 -0.32399976112E+01  0.47170358491E+03  0.00000000000E+00 0. -1.
         -4    1    5    5    0  503  0.12320426255E+03  0.26289903718E+02  0.40246390737E+02  0.13225060044E+03  0.00000000000E+00 0.  1.
         -1    1    6    6    0  502 -0.40730983732E+02 -0.21309709609E+02  0.33713518350E+02  0.57006298590E+02  0.00000000000E+00 0.  1.
<mgrwt>
<rscale>  0 0.14382777E+04</rscale>
<asrwt>0</asrwt>
<pdfrwt beam="1">  1        2 0.19797607E+00 0.14382777E+04</pdfrwt>
<pdfrwt beam="2">  1       -2 0.61828127E-01 0.14382777E+04</pdfrwt>
<totfact> 0.39686247E+01</totfact>
</mgrwt>
</event>
<event>
12    1  0.2214165E-007  0.1889019E+04  0.7818608E-02  0.8660342E-01
          1   -1    0    0  501    0  0.00000000000E+00  0.00000000000E+00  0.69569690800E+03  0.69569690800E+03  0.00000000000E+00 0. -1.
         -1   -1    0    0    0  501 -0.00000000000E+00 -0.00000000000E+00 -0.12823090144E+04  0.12823090144E+04  0.00000000000E+00 0.  1.
         23    2    1    2    0    0  0.12111199550E+03  0.71443407924E+03 -0.28540676974E+03  0.78416539716E+03  0.91510528695E+02 0.  0.
        254    2    1    2    0    0 -0.12111199550E+03 -0.71443407924E+03 -0.30120533666E+03  0.11938405252E+04  0.89969237844E+03 0.  0.
        -24    2    4    4    0    0 -0.34128193122E+03 -0.97258699860E+02  0.15124202345E+03  0.39399980839E+03  0.80181594386E+02 0.  0.
         24    2    4    4    0    0  0.22016993572E+03 -0.61717537938E+03 -0.45244736011E+03  0.79984071685E+03  0.75208438035E+02 0.  0.
         11    1    3    3    0    0  0.41472282275E+02  0.91572439057E+02 -0.59603976686E+02  0.11686785627E+03  0.00000000000E+00 0. -1.
        -11    1    3    3    0    0  0.79639713221E+02  0.62286164018E+03 -0.22580279305E+03  0.66729754089E+03  0.00000000000E+00 0.  1.
          2    1    6    6  502    0  0.21672544153E+03 -0.60225096371E+03 -0.42469409175E+03  0.76814140096E+03  0.00000000000E+00 0. -1.
          1    1    5    5  503    0 -0.32223263961E+03 -0.10986007749E+03  0.13635666757E+03  0.36673730577E+03  0.00000000000E+00 0. -1.
         -2    1    5    5    0  503 -0.19049291608E+02  0.12601377633E+02  0.14885355879E+02  0.27262502612E+02  0.00000000000E+00 0.  1.
         -1    1    6    6    0  502  0.34444941910E+01 -0.14924415666E+02 -0.27753268361E+02  0.31699315891E+02  0.00000000000E+00 0.  1.
<mgrwt>
<rscale>  0 0.18890192E+04</rscale>
<asrwt>0</asrwt>
<pdfrwt beam="1">  1        1 0.10703029E+00 0.18890192E+04</pdfrwt>
<pdfrwt beam="2">  1       -1 0.19727831E+00 0.18890192E+04</pdfrwt>
<totfact> 0.40473993E+00</totfact>
</mgrwt>
</event>
<event>
12    1  0.2214165E-007  0.1311770E+04  0.7818608E-02  0.9020283E-01
         -1   -1    0    0    0  501 -0.00000000000E+00  0.00000000000E+00  0.24589329108E+03  0.24589329108E+03  0.00000000000E+00 0.  1.
          1   -1    0    0  501    0  0.00000000000E+00 -0.00000000000E+00 -0.17494792518E+04  0.17494792518E+04  0.00000000000E+00 0. -1.
         23    2    1    2    0    0 -0.25534124214E+03 -0.92747763470E+02 -0.91583677909E+02  0.29824326349E+03  0.82220293065E+02 0.  0.
        254    2    1    2    0    0  0.25534124214E+03  0.92747763470E+02 -0.14120022828E+04  0.16971292794E+04  0.90149655946E+03 0.  0.
        -24    2    4    4    0    0 -0.16279069205E+03 -0.28404109507E+03 -0.76394685508E+03  0.83504075287E+03  0.80610845809E+02 0.  0.
         24    2    4    4    0    0  0.41813193419E+03  0.37678885854E+03 -0.64805542775E+03  0.86208852653E+03  0.80103881552E+02 0.  0.
         13    1    3    3    0    0 -0.13616661401E+03 -0.12479225833E+02 -0.21643980854E+02  0.13843966106E+03  0.00000000000E+00 0.  1.
        -13    1    3    3    0    0 -0.11917462813E+03 -0.80268537637E+02 -0.69939697055E+02  0.15980360243E+03  0.00000000000E+00 0. -1.
          4    1    6    6  502    0  0.32408487968E+03  0.33238967891E+03 -0.51859230869E+03  0.69602578294E+03  0.00000000000E+00 0. -1.
          3    1    5    5  503    0 -0.10123981720E+03 -0.24260049139E+03 -0.58797629764E+03  0.64406569975E+03  0.00000000000E+00 0. -1.
         -4    1    5    5    0  503 -0.61550874846E+02 -0.41440603671E+02 -0.17597055744E+03  0.19097505311E+03  0.00000000000E+00 0.  1.
         -1    1    6    6    0  502  0.94047054513E+02  0.44399179623E+02 -0.12946311906E+03  0.16606274360E+03  0.00000000000E+00 0.  1.
<mgrwt>
<rscale>  0 0.13117701E+04</rscale>
<asrwt>0</asrwt>
<pdfrwt beam="1">  1        1 0.26915066E+00 0.13117701E+04</pdfrwt>
<pdfrwt beam="2">  1       -1 0.37829736E-01 0.13117701E+04</pdfrwt>
<totfact> 0.29200606E+01</totfact>
</mgrwt>
</event>
<event>
12    1  0.2214165E-007  0.2175131E+04  0.7818608E-02  0.8528851E-01
          1   -1    0    0  501    0  0.00000000000E+00  0.00000000000E+00  0.14237894986E+04  0.14237894986E+04  0.00000000000E+00 0. -1.
         -1   -1    0    0    0  501 -0.00000000000E+00 -0.00000000000E+00 -0.83074013692E+03  0.83074013692E+03  0.00000000000E+00 0.  1.
         23    2    1    2    0    0 -0.33926611146E+03  0.17954507195E+03  0.10893199838E+04  0.11585312412E+04  0.90767188730E+02 0.  0.
        254    2    1    2    0    0  0.33926611146E+03 -0.17954507195E+03 -0.49627062211E+03  0.10959983943E+04  0.89866012637E+03 0.  0.
        -24    2    4    4    0    0  0.19507832376E+03  0.20977822345E+03 -0.59162131926E+03  0.66252767394E+03  0.82853351765E+02 0.  0.
         24    2    4    4    0    0  0.14418778770E+03 -0.38932329540E+03  0.95350697150E+02  0.43347072038E+03  0.80264335251E+02 0.  0.
         13    1    3    3    0    0 -0.10718558799E+03  0.41727096046E+02  0.45209566604E+03  0.46649800864E+03  0.00000000000E+00 0. -1.
        -13    1    3    3    0    0 -0.23208052347E+03  0.13781797590E+03  0.63722431778E+03  0.69203323260E+03  0.00000000000E+00 0.  1.
          4    1    6    6  502    0  0.42943628762E+02 -0.22524137133E+03  0.38916872117E+02  0.23257762907E+03  0.00000000000E+00 0. -1.
          1    1    5    5  503    0  0.18693121019E+03  0.19718823889E+03 -0.49428261411E+03  0.56404058499E+03  0.00000000000E+00 0. -1.
         -2    1    5    5    0  503  0.81471135693E+01  0.12589984565E+02 -0.97338705144E+02  0.98487088950E+02  0.00000000000E+00 0.  1.
         -3    1    6    6    0  502  0.10124415894E+03 -0.16408192407E+03  0.56433825033E+02  0.20089309131E+03  0.00000000000E+00 0.  1.
<mgrwt>
<rscale>  0 0.21751313E+04</rscale>
<asrwt>0</asrwt>
<pdfrwt beam="1">  1        1 0.21904454E+00 0.21751313E+04</pdfrwt>
<pdfrwt beam="2">  1       -1 0.12780617E+00 0.21751313E+04</pdfrwt>
<totfact> 0.35760911E+00</totfact>
</mgrwt>
</event>
<event>
12    1  0.2214165E-007  0.1835473E+04  0.7818608E-02  0.8687660E-01
          2   -1    0    0  501    0  0.00000000000E+00  0.00000000000E+00  0.12005865802E+04  0.12005865802E+04  0.00000000000E+00 0. -1.
         -2   -1    0    0    0  501 -0.00000000000E+00 -0.00000000000E+00 -0.70152369980E+03  0.70152369980E+03  0.00000000000E+00 0.  1.
         23    2    1    2    0    0 -0.47496192523E+03  0.14726330576E+03 -0.31129259632E+03  0.59398263839E+03  0.92935367582E+02 0.  0.
        254    2    1    2    0    0  0.47496192523E+03 -0.14726330576E+03  0.81035547670E+03  0.13081276416E+04  0.89846904032E+03 0.  0.
        -24    2    4    4    0    0  0.69679374130E+03 -0.27705268184E+03  0.64861411125E+03  0.99467355728E+03  0.79971956300E+02 0.  0.
         24    2    4    4    0    0 -0.22183181607E+03  0.12978937608E+03  0.16174136545E+03  0.31345408431E+03  0.77708152115E+02 0.  0.
         13    1    3    3    0    0 -0.35415679881E+03  0.13242371954E+03 -0.27309608021E+03  0.46641671140E+03  0.00000000000E+00 0. -1.
        -13    1    3    3    0    0 -0.12080512642E+03  0.14839586219E+02 -0.38196516110E+02  0.12756592700E+03  0.00000000000E+00 0.  1.
          2    1    6    6  502    0 -0.12709487593E+03  0.34306693463E+02  0.10071148909E+03  0.16574939137E+03  0.00000000000E+00 0. -1.
          3    1    5    5  503    0  0.33387509237E+03 -0.91193816791E+02  0.28483531335E+03  0.44824105708E+03  0.00000000000E+00 0. -1.
         -4    1    5    5    0  503  0.36291864893E+03 -0.18585886505E+03  0.36377879790E+03  0.54643250019E+03  0.00000000000E+00 0.  1.
         -1    1    6    6    0  502 -0.94736940144E+02  0.95482682622E+02  0.61029876365E+02  0.14770469294E+03  0.00000000000E+00 0.  1.
<mgrwt>
<rscale>  0 0.18354726E+04</rscale>
<asrwt>0</asrwt>
<pdfrwt beam="1">  1        2 0.18470563E+00 0.18354726E+04</pdfrwt>
<pdfrwt beam="2">  1       -2 0.10792672E+00 0.18354726E+04</pdfrwt>
<totfact> 0.12259447E+01</totfact>
</mgrwt>
</event>
<event>
12    1  0.2214165E-007  0.2480509E+04  0.7818608E-02  0.8409962E-01
          1   -1    0    0  501    0  0.00000000000E+00  0.00000000000E+00  0.25400285027E+04  0.25400285027E+04  0.00000000000E+00 0. -1.
         -1   -1    0    0    0  501 -0.00000000000E+00 -0.00000000000E+00 -0.60559595584E+03  0.60559595584E+03  0.00000000000E+00 0.  1.
         23    2    1    2    0    0  0.94014286227E+03  0.51110314367E+03  0.71765429748E+03  0.12917692003E+04  0.92438905483E+02 0.  0.
        254    2    1    2    0    0 -0.94014286227E+03 -0.51110314367E+03  0.12167782494E+04  0.18538552582E+04  0.90063032668E+03 0.  0.
        -24    2    4    4    0    0 -0.74892376380E+03 -0.38244883084E+02  0.32043898520E+03  0.81936413167E+03  0.79542202322E+02 0.  0.
         24    2    4    4    0    0 -0.19121909847E+03 -0.47285826058E+03  0.89633926415E+03  0.10344911265E+04  0.81167334620E+02 0.  0.
         13    1    3    3    0    0  0.20530069642E+03  0.78679900561E+02  0.17606100051E+03  0.28166714150E+03  0.00000000000E+00 0. -1.
        -13    1    3    3    0    0  0.73484216585E+03  0.43242324311E+03  0.54159329697E+03  0.10101020588E+04  0.00000000000E+00 0.  1.
          2    1    6    6  502    0  0.70188002167E+01 -0.36902442575E+02  0.65809398685E+02  0.75775528898E+02  0.00000000000E+00 0. -1.
          1    1    5    5  503    0 -0.13430115717E+02 -0.10865750140E+02  0.18741901879E+01  0.17376568221E+02  0.00000000000E+00 0. -1.
         -2    1    5    5    0  503 -0.73549364809E+03 -0.27379132944E+02  0.31856479502E+03  0.80198756344E+03  0.00000000000E+00 0.  1.
         -1    1    6    6    0  502 -0.19823789868E+03 -0.43595581801E+03  0.83052986547E+03  0.95871559764E+03  0.00000000000E+00 0.  1.
<mgrwt>
<rscale>  0 0.24805088E+04</rscale>
<asrwt>0</asrwt>
<pdfrwt beam="1">  1        1 0.39077361E+00 0.24805088E+04</pdfrwt>
<pdfrwt beam="2">  1       -1 0.93168610E-01 0.24805088E+04</pdfrwt>
<totfact> 0.12643953E+00</totfact>
</mgrwt>
</event>
<event>
12    1  0.2214165E-007  0.2507020E+04  0.7818608E-02  0.8400489E-01
         -2   -1    0    0    0  501 -0.00000000000E+00  0.00000000000E+00  0.64979796267E+03  0.64979796267E+03  0.00000000000E+00 0.  1.
          2   -1    0    0  501    0  0.00000000000E+00 -0.00000000000E+00 -0.24181160501E+04  0.24181160501E+04  0.00000000000E+00 0. -1.
         23    2    1    2    0    0  0.52619745177E+03  0.88085878012E+03 -0.32263149037E+03  0.10795002244E+04  0.91835216973E+02 0.  0.
        254    2    1    2    0    0 -0.52619745177E+03 -0.88085878012E+03 -0.14456865971E+04  0.19884137884E+04  0.90054633876E+03 0.  0.
        -24    2    4    4    0    0  0.15756036551E+03  0.91198401870E+01 -0.45829201209E+03  0.49119144796E+03  0.79555200571E+02 0.  0.
         24    2    4    4    0    0 -0.68375781728E+03 -0.88997862030E+03 -0.98739458502E+03  0.14972223405E+04  0.84498361141E+02 0.  0.
         13    1    3    3    0    0  0.33766784140E+03  0.49683170106E+03 -0.21830708366E+03  0.63915514006E+03  0.00000000000E+00 0. -1.
        -13    1    3    3    0    0  0.18852961037E+03  0.38402707906E+03 -0.10432440670E+03  0.44034508430E+03  0.00000000000E+00 0.  1.
          2    1    6    6  502    0 -0.44239058108E+03 -0.61649259508E+03 -0.70727983977E+03  0.10373125458E+04  0.00000000000E+00 0. -1.
          3    1    5    5  503    0  0.14987575723E+03  0.25074365266E+02 -0.35149650891E+03  0.38293767400E+03  0.00000000000E+00 0. -1.
         -4    1    5    5    0  503  0.76846082767E+01 -0.15954525079E+02 -0.10679550318E+03  0.10825377395E+03  0.00000000000E+00 0.  1.
         -1    1    6    6    0  502 -0.24136723620E+03 -0.27348602522E+03 -0.28011474525E+03  0.45990979464E+03  0.00000000000E+00 0.  1.
<mgrwt>
<rscale>  0 0.25070197E+04</rscale>
<asrwt>0</asrwt>
<pdfrwt beam="1">  1        2 0.37201785E+00 0.25070197E+04</pdfrwt>
<pdfrwt beam="2">  1       -2 0.99968919E-01 0.25070197E+04</pdfrwt>
<totfact> 0.28594392E+00</totfact>
</mgrwt>
</event>
<event>
12    1  0.2214165E-007  0.1732454E+04  0.7818608E-02  0.8743068E-01
          2   -1    0    0  501    0  0.00000000000E+00  0.00000000000E+00  0.15904941460E+04  0.15904941460E+04  0.00000000000E+00 0. -1.
         -2   -1    0    0    0  501 -0.00000000000E+00 -0.00000000000E+00 -0.47177138316E+03  0.47177138316E+03  0.00000000000E+00 0.  1.
         23    2    1    2    0    0  0.39661126880E+02 -0.53059240169E+03  0.80650660807E+03  0.97186610664E+03  0.10473546991E+03 0.  0.
        254    2    1    2    0    0 -0.39661126880E+02  0.53059240169E+03  0.31221615479E+03  0.10903994226E+04  0.89910548418E+03 0.  0.
        -24    2    4    4    0    0 -0.38019656556E+03  0.31757079257E+03  0.43400785611E+03  0.66342831305E+03  0.79835271823E+02 0.  0.
         24    2    4    4    0    0  0.34053543868E+03  0.21302160911E+03 -0.12179170132E+03  0.42697110950E+03  0.78284857385E+02 0.  0.
         13    1    3    3    0    0  0.29536348879E+02 -0.84297015763E+02  0.19759503286E+03  0.21684598170E+03  0.00000000000E+00 0. -1.
        -13    1    3    3    0    0  0.10124778001E+02 -0.44629538592E+03  0.60891157522E+03  0.75502012494E+03  0.00000000000E+00 0.  1.
          2    1    6    6  502    0  0.23045347435E+03  0.17783297551E+03 -0.10844192376E+03  0.31063325940E+03  0.00000000000E+00 0. -1.
          3    1    5    5  503    0 -0.21791466219E+03  0.20130102009E+03  0.30644769617E+03  0.42651974301E+03  0.00000000000E+00 0. -1.
         -4    1    5    5    0  503 -0.16228190337E+03  0.11626977248E+03  0.12756015994E+03  0.23690857004E+03  0.00000000000E+00 0.  1.
         -1    1    6    6    0  502  0.11008196433E+03  0.35188633606E+02 -0.13349777559E+02  0.11633785010E+03  0.00000000000E+00 0.  1.
<mgrwt>
<rscale>  0 0.17324545E+04</rscale>
<asrwt>0</asrwt>
<pdfrwt beam="1">  1        2 0.24469140E+00 0.17324545E+04</pdfrwt>
<pdfrwt beam="2">  1       -2 0.72580214E-01 0.17324545E+04</pdfrwt>
<totfact> 0.18395821E+01</totfact>
</mgrwt>
</event>
<event>
12    1  0.2214165E-007  0.1995032E+04  0.7818608E-02  0.8608947E-01
         -2   -1    0    0    0  501 -0.00000000000E+00  0.00000000000E+00  0.27795813901E+03  0.27795813901E+03  0.00000000000E+00 0.  1.
          2   -1    0    0  501    0  0.00000000000E+00 -0.00000000000E+00 -0.35798122162E+04  0.35798122162E+04  0.00000000000E+00 0. -1.
         23    2    1    2    0    0 -0.62363515604E+03 -0.36346310587E+03 -0.69242240395E+03  0.10046482514E+04  0.94037686262E+02 0.  0.
        254    2    1    2    0    0  0.62363515604E+03  0.36346310587E+03 -0.26094316733E+04  0.28531221038E+04  0.90008102113E+03 0.  0.
        -24    2    4    4    0    0  0.77094956579E+03  0.18713390212E+03 -0.24112433205E+04  0.25396543185E+04  0.79795844475E+02 0.  0.
         24    2    4    4    0    0 -0.14731440976E+03  0.17632920375E+03 -0.19818835278E+03  0.31346778526E+03  0.78675954411E+02 0.  0.
         11    1    3    3    0    0 -0.30168987114E+03 -0.19468807237E+03 -0.40498271967E+03  0.54123121409E+03  0.00000000000E+00 0. -1.
        -11    1    3    3    0    0 -0.32194528490E+03 -0.16877503350E+03 -0.28743968428E+03  0.46341703735E+03  0.00000000000E+00 0.  1.
          2    1    6    6  502    0 -0.88396619584E+01  0.52285545987E+02 -0.22250865556E+02  0.57506686225E+02  0.00000000000E+00 0. -1.
          3    1    5    5  503    0  0.73799829752E+02  0.14874151632E+02 -0.31300500328E+03  0.32193133947E+03  0.00000000000E+00 0. -1.
         -4    1    5    5    0  503  0.69714973604E+03  0.17225975049E+03 -0.20982383172E+04  0.22177229791E+04  0.00000000000E+00 0.  1.
         -1    1    6    6    0  502 -0.13847474780E+03  0.12404365776E+03 -0.17593748723E+03  0.25596109904E+03  0.00000000000E+00 0.  1.
<mgrwt>
<rscale>  0 0.19950318E+04</rscale>
<asrwt>0</asrwt>
<pdfrwt beam="1">  1        2 0.55074035E+00 0.19950318E+04</pdfrwt>
<pdfrwt beam="2">  1       -2 0.42762790E-01 0.19950318E+04</pdfrwt>
<totfact> 0.34614217E+00</totfact>
</mgrwt>
</event>
<event>
12    1  0.2214165E-007  0.1750502E+04  0.7818608E-02  0.8733074E-01
          2   -1    0    0  501    0  0.00000000000E+00  0.00000000000E+00  0.73409816709E+03  0.73409816709E+03  0.00000000000E+00 0. -1.
         -2   -1    0    0    0  501 -0.00000000000E+00 -0.00000000000E+00 -0.10435448786E+04  0.10435448786E+04  0.00000000000E+00 0.  1.
         23    2    1    2    0    0  0.57472330314E+03  0.22710914740E+03 -0.27772200947E+03  0.68371888094E+03  0.91959521485E+02 0.  0.
        254    2    1    2    0    0 -0.57472330314E+03 -0.22710914740E+03 -0.31724701990E+02  0.10939241647E+04  0.90209654771E+03 0.  0.
        -24    2    4    4    0    0  0.76332579468E+02  0.14874458043E+03  0.22889739893E+03  0.29442712006E+03  0.79634771906E+02 0.  0.
         24    2    4    4    0    0 -0.65105588261E+03 -0.37585372783E+03 -0.26062210092E+03  0.79949704465E+03  0.78306180516E+02 0.  0.
         13    1    3    3    0    0  0.21748506975E+03  0.39058321401E+02 -0.92447818051E+02  0.23952433508E+03  0.00000000000E+00 0.  1.
        -13    1    3    3    0    0  0.35723823340E+03  0.18805082600E+03 -0.18527419142E+03  0.44419454586E+03  0.00000000000E+00 0. -1.
          2    1    6    6  502    0 -0.52296513135E+03 -0.30100937675E+03 -0.24140206608E+03  0.64990317048E+03  0.00000000000E+00 0. -1.
          3    1    5    5  503    0  0.85786419598E+02  0.15213804398E+03  0.22078324230E+03  0.28151471417E+03  0.00000000000E+00 0. -1.
         -4    1    5    5    0  503 -0.94538401301E+01 -0.33934635538E+01  0.81141566274E+01  0.12912405890E+02  0.00000000000E+00 0.  1.
         -1    1    6    6    0  502 -0.12809075127E+03 -0.74844351076E+02 -0.19220034832E+02  0.14959387416E+03  0.00000000000E+00 0.  1.
<mgrwt>
<rscale>  0 0.17505021E+04</rscale>
<asrwt>0</asrwt>
<pdfrwt beam="1">  1        2 0.11293818E+00 0.17505021E+04</pdfrwt>
<pdfrwt beam="2">  1       -2 0.16054537E+00 0.17505021E+04</pdfrwt>
<totfact> 0.91142132E+00</totfact>
</mgrwt>
</event>
<event>
12    1  0.2214165E-007  0.3361392E+04  0.7818608E-02  0.8147448E-01
          1   -1    0    0  501    0  0.00000000000E+00  0.00000000000E+00  0.15445403761E+04  0.15445403761E+04  0.00000000000E+00 0. -1.
         -1   -1    0    0    0  501 -0.00000000000E+00 -0.00000000000E+00 -0.18288539183E+04  0.18288539183E+04  0.00000000000E+00 0.  1.
         23    2    1    2    0    0 -0.13155520079E+04  0.70613677876E+03  0.31777967436E+03  0.15294477106E+04  0.94446504817E+02 0.  0.
        254    2    1    2    0    0  0.13155520079E+04 -0.70613677876E+03 -0.60209321656E+03  0.18439465839E+04  0.89906425073E+03 0.  0.
        -24    2    4    4    0    0  0.16889902931E+03 -0.54768550617E+03 -0.14467948439E+03  0.59676321270E+03  0.81901667023E+02 0.  0.
         24    2    4    4    0    0  0.11466529786E+04 -0.15845127259E+03 -0.45741373217E+03  0.12471833712E+04  0.79493269300E+02 0.  0.
         13    1    3    3    0    0 -0.82257354851E+03  0.47829439146E+03  0.23477776397E+03  0.98005783812E+03  0.00000000000E+00 0. -1.
        -13    1    3    3    0    0 -0.49297845937E+03  0.22784238729E+03  0.83001910386E+02  0.54938987247E+03  0.00000000000E+00 0.  1.
          2    1    6    6  502    0  0.69948721146E+03 -0.11497404393E+03 -0.31657433395E+03  0.77635088632E+03  0.00000000000E+00 0. -1.
          1    1    5    5  503    0  0.59795110275E+01 -0.13219235273E+03 -0.24553461511E+02  0.13458619968E+03  0.00000000000E+00 0. -1.
         -2    1    5    5    0  503  0.16291951828E+03 -0.41549315344E+03 -0.12012602288E+03  0.46217701302E+03  0.00000000000E+00 0.  1.
         -1    1    6    6    0  502  0.44716576711E+03 -0.43477228659E+02 -0.14083939822E+03  0.47083248484E+03  0.00000000000E+00 0.  1.
<mgrwt>
<rscale>  0 0.33613918E+04</rscale>
<asrwt>0</asrwt>
<pdfrwt beam="1">  1        1 0.23762160E+00 0.33613918E+04</pdfrwt>
<pdfrwt beam="2">  1       -1 0.28136214E+00 0.33613918E+04</pdfrwt>
<totfact> 0.21931972E-01</totfact>
</mgrwt>
</event>
<event>
12    1  0.2214165E-007  0.2341352E+04  0.7818608E-02  0.8461793E-01
          2   -1    0    0  501    0  0.00000000000E+00  0.00000000000E+00  0.81749816119E+03  0.81749816119E+03  0.00000000000E+00 0. -1.
         -2   -1    0    0    0  501 -0.00000000000E+00 -0.00000000000E+00 -0.16764344985E+04  0.16764344985E+04  0.00000000000E+00 0.  1.
         23    2    1    2    0    0 -0.64944145930E+03  0.75391704626E+03 -0.30231299137E+03  0.10439938717E+04  0.91460033581E+02 0.  0.
        254    2    1    2    0    0  0.64944145930E+03 -0.75391704626E+03 -0.55662334591E+03  0.14499387879E+04  0.89572753550E+03 0.  0.
        -24    2    4    4    0    0  0.16081182381E+03  0.92142153790E+02  0.14169662836E+03  0.24651384153E+03  0.79627384712E+02 0.  0.
         24    2    4    4    0    0  0.48862963549E+03 -0.84605920005E+03 -0.69831997427E+03  0.12034249464E+04  0.77496609626E+02 0.  0.
         13    1    3    3    0    0 -0.31277208907E+03  0.39638686276E+03 -0.19527323760E+03  0.54136915501E+03  0.00000000000E+00 0.  1.
        -13    1    3    3    0    0 -0.33666937024E+03  0.35753018350E+03 -0.10703975376E+03  0.50262471672E+03  0.00000000000E+00 0. -1.
          2    1    6    6  502    0  0.42682765161E+02 -0.42295210400E+02 -0.31544447351E+02  0.67865716111E+02  0.00000000000E+00 0. -1.
          3    1    5    5  503    0  0.70362868700E+02  0.81058615746E+02  0.54462132067E+02  0.12036426508E+03  0.00000000000E+00 0. -1.
         -4    1    5    5    0  503  0.90448955112E+02  0.11083538044E+02  0.87234496292E+02  0.12614957646E+03  0.00000000000E+00 0.  1.
         -1    1    6    6    0  502  0.44594687033E+03 -0.80376398965E+03 -0.66677552692E+03  0.11355592303E+04  0.00000000000E+00 0.  1.
<mgrwt>
<rscale>  0 0.23413518E+04</rscale>
<asrwt>0</asrwt>
<pdfrwt beam="1">  1        2 0.12576895E+00 0.23413518E+04</pdfrwt>
<pdfrwt beam="2">  1       -2 0.25791300E+00 0.23413518E+04</pdfrwt>
<totfact> 0.17370895E+00</totfact>
</mgrwt>
</event>
<event>
12    1  0.2214165E-007  0.3437401E+04  0.7818608E-02  0.8128788E-01
         -2   -1    0    0    0  501 -0.00000000000E+00  0.00000000000E+00  0.10731772274E+04  0.10731772274E+04  0.00000000000E+00 0. -1.
          2   -1    0    0  501    0  0.00000000000E+00 -0.00000000000E+00 -0.27525097691E+04  0.27525097691E+04  0.00000000000E+00 0.  1.
         23    2    1    2    0    0 -0.42498224353E+03  0.14884713701E+04 -0.33615669192E+03  0.15865004065E+04  0.88460677038E+02 0.  0.
        254    2    1    2    0    0  0.42498224353E+03 -0.14884713701E+04 -0.13431758498E+04  0.22391865901E+04  0.90204118244E+03 0.  0.
        -24    2    4    4    0    0 -0.21469750225E+03 -0.82639474924E+03 -0.52707396985E+03  0.10065079479E+04  0.78917554207E+02 0.  0.
         24    2    4    4    0    0  0.63967974578E+03 -0.66207662083E+03 -0.81610187994E+03  0.12326786422E+04  0.77063139643E+02 0.  0.
         11    1    3    3    0    0 -0.22940736982E+03  0.73144711622E+03 -0.12594275791E+03  0.77685532979E+03  0.00000000000E+00 0. -1.
        -11    1    3    3    0    0 -0.19557487371E+03  0.75702425386E+03 -0.21021393401E+03  0.80964507669E+03  0.00000000000E+00 0.  1.
          4    1    6    6  502    0  0.15243491893E+03 -0.18001928084E+03 -0.17015806650E+03  0.29085582954E+03  0.00000000000E+00 0. -1.
          3    1    5    5  503    0 -0.12315191665E+02 -0.31790611704E+02 -0.50435632933E+01  0.34463668826E+02  0.00000000000E+00 0. -1.
         -4    1    5    5    0  503 -0.20238231059E+03 -0.79460413754E+03 -0.52203040656E+03  0.97204427904E+03  0.00000000000E+00 0.  1.
         -3    1    6    6    0  502  0.48724482686E+03 -0.48205734000E+03 -0.64594381343E+03  0.94182281266E+03  0.00000000000E+00 0.  1.
<mgrwt>
<rscale>  0 0.34374006E+04</rscale>
<asrwt>0</asrwt>
<pdfrwt beam="1">  1        2 0.42346304E+00 0.34374006E+04</pdfrwt>
<pdfrwt beam="2">  1       -2 0.16510419E+00 0.34374006E+04</pdfrwt>
<totfact> 0.47131819E-01</totfact>
</mgrwt>
</event>
<event>
12    1  0.2427695E-007  0.1929328E+04  0.7818608E-02  0.8640394E-01
         -2   -1    0    0    0  501 -0.00000000000E+00  0.00000000000E+00  0.50621740409E+03  0.50621740409E+03  0.00000000000E+00 0. -1.
          2   -1    0    0  501    0  0.00000000000E+00 -0.00000000000E+00 -0.18382937527E+04  0.18382937527E+04  0.00000000000E+00 0.  1.
         23    2    1    2    0    0 -0.27104508192E+03  0.69674879642E+03 -0.43548435645E+03  0.86983298881E+03  0.89657581806E+02 0.  0.
        254    2    1    2    0    0  0.27104508192E+03 -0.69674879642E+03 -0.89659199214E+03  0.14746781679E+04  0.90104060780E+03 0.  0.
        -24    2    4    4    0    0  0.90521197259E+02 -0.86011058428E+02  0.17297047011E+03  0.22754147184E+03  0.79147637698E+02 0.  0.
         24    2    4    4    0    0  0.18052388466E+03 -0.61073773799E+03 -0.10695624623E+04  0.12471366961E+04  0.76135540772E+02 0.  0.
         13    1    3    3    0    0 -0.10865088125E+03  0.35271803120E+03 -0.17281079958E+03  0.40752741746E+03  0.00000000000E+00 0. -1.
        -13    1    3    3    0    0 -0.16239420067E+03  0.34403076522E+03 -0.26267355686E+03  0.46230557135E+03  0.00000000000E+00 0.  1.
          2    1    6    6  502    0  0.73483207591E+02 -0.13925002407E+03 -0.24282820102E+03  0.28940609221E+03  0.00000000000E+00 0. -1.
          3    1    5    5  503    0 -0.63376990065E+01 -0.39887781040E+02  0.52273613041E+02  0.66058550736E+02  0.00000000000E+00 0. -1.
         -4    1    5    5    0  503  0.96858896266E+02 -0.46123277388E+02  0.12069685707E+03  0.16148292111E+03  0.00000000000E+00 0.  1.
         -1    1    6    6    0  502  0.10704067707E+03 -0.47148771392E+03 -0.82673426124E+03  0.95773060389E+03  0.00000000000E+00 0.  1.
<mgrwt>
<rscale>  0 0.19293276E+04</rscale>
<asrwt>0</asrwt>
<pdfrwt beam="1">  1        2 0.28281442E+00 0.19293276E+04</pdfrwt>
<pdfrwt beam="2">  1       -2 0.77879601E-01 0.19293276E+04</pdfrwt>
<totfact> 0.11270849E+01</totfact>
</mgrwt>
</event>
<event>
12    1  0.2214165E-007  0.1436355E+04  0.7818608E-02  0.8927916E-01
          1   -1    0    0  501    0  0.00000000000E+00  0.00000000000E+00  0.87157713443E+03  0.87157713443E+03  0.00000000000E+00 0. -1.
         -1   -1    0    0    0  501 -0.00000000000E+00 -0.00000000000E+00 -0.59177628402E+03  0.59177628402E+03  0.00000000000E+00 0.  1.
         23    2    1    2    0    0  0.29066300989E+03 -0.29770854448E+03  0.19826795380E+03  0.47037374113E+03  0.93946325442E+02 0.  0.
        254    2    1    2    0    0 -0.29066300989E+03  0.29770854448E+03  0.81532896619E+02  0.99297967732E+03  0.89791183507E+03 0.  0.
        -24    2    4    4    0    0  0.19126122052E+03 -0.19748799344E+03 -0.33105308848E+02  0.28796834712E+03  0.79040783386E+02 0.  0.
         24    2    4    4    0    0 -0.48192423041E+03  0.49519653792E+03  0.11463820547E+03  0.70501133020E+03  0.80177818197E+02 0.  0.
         13    1    3    3    0    0  0.24707910483E+03 -0.26804114753E+03  0.20331453303E+03  0.41740979882E+03  0.00000000000E+00 0. -1.
        -13    1    3    3    0    0  0.43583905065E+02 -0.29667396951E+02 -0.50465792359E+01  0.52963942306E+02  0.00000000000E+00 0.  1.
          4    1    6    6  502    0 -0.42798974274E+03  0.40303392327E+03  0.11025692373E+03  0.59813723544E+03  0.00000000000E+00 0. -1.
          3    1    5    5  503    0  0.14641407092E+03 -0.13298998156E+03 -0.57020657120E+02  0.20585133154E+03  0.00000000000E+00 0. -1.
         -4    1    5    5    0  503  0.44847149603E+02 -0.64498011886E+02  0.23915348272E+02  0.82117015580E+02  0.00000000000E+00 0.  1.
         -3    1    6    6    0  502 -0.53934487678E+02  0.92162614654E+02  0.43812817317E+01  0.10687409476E+03  0.00000000000E+00 0.  1.
<mgrwt>
<rscale>  0 0.14363547E+04</rscale>
<asrwt>0</asrwt>
<pdfrwt beam="1">  1        1 0.13408879E+00 0.14363547E+04</pdfrwt>
<pdfrwt beam="2">  1       -1 0.91042505E-01 0.14363547E+04</pdfrwt>
<totfact> 0.22000554E+01</totfact>
</mgrwt>
</event>
<event>
12    1  0.2214165E-007  0.1545940E+04  0.7818608E-02  0.8854465E-01
          3   -1    0    0  501    0  0.00000000000E+00  0.00000000000E+00  0.84129359442E+03  0.84129359442E+03  0.00000000000E+00 0. -1.
         -3   -1    0    0    0  501 -0.00000000000E+00 -0.00000000000E+00 -0.71019489653E+03  0.71019489653E+03  0.00000000000E+00 0.  1.
         23    2    1    2    0    0 -0.44591230805E+02  0.46720508039E+03 -0.14130498882E+03  0.49884226276E+03  0.92776819515E+02 0.  0.
        254    2    1    2    0    0  0.44591230805E+02 -0.46720508039E+03  0.27240368671E+03  0.10526462282E+04  0.90199298678E+03 0.  0.
        -24    2    4    4    0    0 -0.41031789726E+03 -0.33636419711E+03  0.15012013042E+03  0.55736083529E+03  0.81322796566E+02 0.  0.
         24    2    4    4    0    0  0.45490912807E+03 -0.13084088328E+03  0.12228355629E+03  0.49528539291E+03  0.79326545067E+02 0.  0.
         13    1    3    3    0    0 -0.38663260968E+02  0.23969813834E+03 -0.27377822942E+02  0.24433499639E+03  0.00000000000E+00 0. -1.
        -13    1    3    3    0    0 -0.59279698369E+01  0.22750694205E+03 -0.11392716588E+03  0.25450726636E+03  0.00000000000E+00 0.  1.
          2    1    6    6  502    0  0.79350854055E+02 -0.23446974035E+00  0.22233850723E+00  0.79351511956E+02  0.00000000000E+00 0. -1.
          1    1    5    5  503    0 -0.14878508942E+02  0.16263148180E+01  0.11867101783E+02  0.19100864717E+02  0.00000000000E+00 0. -1.
         -2    1    5    5    0  503 -0.39543938832E+03 -0.33799051193E+03  0.13825302864E+03  0.53825997057E+03  0.00000000000E+00 0.  1.
         -1    1    6    6    0  502  0.37555827401E+03 -0.13060641354E+03  0.12206121778E+03  0.41593388095E+03  0.00000000000E+00 0.  1.
<mgrwt>
<rscale>  0 0.15459397E+04</rscale>
<asrwt>0</asrwt>
<pdfrwt beam="1">  1        3 0.12942978E+00 0.15459397E+04</pdfrwt>
<pdfrwt beam="2">  1       -3 0.10926075E+00 0.15459397E+04</pdfrwt>
<totfact> 0.84023862E-01</totfact>
</mgrwt>
</event>
<event>
12    1  0.2214165E-007  0.3963151E+04  0.7818608E-02  0.8012022E-01
         -2   -1    0    0    0  501 -0.00000000000E+00  0.00000000000E+00  0.28916397544E+04  0.28916397544E+04  0.00000000000E+00 0.  1.
          2   -1    0    0  501    0  0.00000000000E+00 -0.00000000000E+00 -0.13579292944E+04  0.13579292944E+04  0.00000000000E+00 0. -1.
         23    2    1    2    0    0 -0.62189026136E+03 -0.15571287932E+04  0.16351621514E+04  0.23437909488E+04  0.90571377280E+02 0.  0.
        254    2    1    2    0    0  0.62189026136E+03  0.15571287932E+04 -0.10145169139E+03  0.19057781000E+04  0.90016673166E+03 0.  0.
        -24    2    4    4    0    0 -0.34765679519E+02 -0.60820207124E+02 -0.11671676721E+03  0.15754251573E+03  0.79303785833E+02 0.  0.
         24    2    4    4    0    0  0.65665594087E+03  0.16179490003E+04  0.15265075819E+02  0.17482355842E+04  0.84490490923E+02 0.  0.
         13    1    3    3    0    0 -0.13815532468E+03 -0.27013054662E+03  0.32487706377E+03  0.44452504150E+03  0.00000000000E+00 0. -1.
        -13    1    3    3    0    0 -0.48373493668E+03 -0.12869982466E+04  0.13102850876E+04  0.18992659073E+04  0.00000000000E+00 0.  1.
          4    1    6    6  502    0  0.10453039732E+03  0.28982324471E+03 -0.27151080475E+02  0.30929160724E+03  0.00000000000E+00 0. -1.
          3    1    5    5  503    0  0.24654073154E+02 -0.29205901165E+02 -0.47945360453E+02  0.61315296419E+02  0.00000000000E+00 0. -1.
         -4    1    5    5    0  503 -0.59419752673E+02 -0.31614305959E+02 -0.68771406754E+02  0.96227219309E+02  0.00000000000E+00 0.  1.
         -3    1    6    6    0  502  0.55212554356E+03  0.13281257556E+04  0.42416156294E+02  0.14389439770E+04  0.00000000000E+00 0.  1.
<mgrwt>
<rscale>  0 0.39631514E+04</rscale>
<asrwt>0</asrwt>
<pdfrwt beam="1">  1        2 0.20891220E+00 0.39631514E+04</pdfrwt>
<pdfrwt beam="2">  1       -2 0.44486765E+00 0.39631514E+04</pdfrwt>
<totfact> 0.45424456E-02</totfact>
</mgrwt>
</event>
<event>
12    1  0.3004712E-007  0.1805259E+04  0.7818608E-02  0.8703508E-01
          2   -1    0    0  501    0  0.00000000000E+00  0.00000000000E+00  0.16631542423E+04  0.16631542423E+04  0.00000000000E+00 0.  1.
         -2   -1    0    0    0  501 -0.00000000000E+00 -0.00000000000E+00 -0.48987618554E+03  0.48987618554E+03  0.00000000000E+00 0. -1.
         23    2    1    2    0    0 -0.65664158531E+03  0.14824150637E+03  0.48805732342E+03  0.83648461662E+03  0.91393911926E+02 0.  0.
        254    2    1    2    0    0  0.65664158531E+03 -0.14824150637E+03  0.68522073336E+03  0.13165458112E+04  0.90033977136E+03 0.  0.
        -24    2    4    4    0    0  0.83943882147E+03 -0.87495160550E+02  0.34101914587E+03  0.91373528403E+03  0.79405121503E+02 0.  0.
         24    2    4    4    0    0 -0.18279723616E+03 -0.60746345816E+02  0.34420158749E+03  0.40281052721E+03  0.81710708716E+02 0.  0.
         13    1    3    3    0    0 -0.10949222011E+03  0.35599184275E+02  0.12657205466E+03  0.17110328228E+03  0.00000000000E+00 0.  1.
        -13    1    3    3    0    0 -0.54714936521E+03  0.11264232209E+03  0.36148526876E+03  0.66538133435E+03  0.00000000000E+00 0. -1.
          2    1    6    6  502    0 -0.83042134180E+02 -0.34380318092E+02  0.84498827816E+02  0.12336147788E+03  0.00000000000E+00 0. -1.
          3    1    5    5  503    0  0.74529682404E+02 -0.15085708242E+02  0.55206999275E+02  0.93968425130E+02  0.00000000000E+00 0. -1.
         -4    1    5    5    0  503  0.76490913907E+03 -0.72409452307E+02  0.28581214660E+03  0.81976685890E+03  0.00000000000E+00 0.  1.
         -1    1    6    6    0  502 -0.99755101979E+02 -0.26366027724E+02  0.25970275967E+03  0.27944904933E+03  0.00000000000E+00 0.  1.
<mgrwt>
<rscale>  0 0.18052586E+04</rscale>
<asrwt>0</asrwt>
<pdfrwt beam="1">  1        2 0.25586988E+00 0.18052586E+04</pdfrwt>
<pdfrwt beam="2">  1       -2 0.75365568E-01 0.18052586E+04</pdfrwt>
<totfact> 0.15325365E+01</totfact>
</mgrwt>
</event>
<event>
12    1  0.2214165E-007  0.2772358E+04  0.7818608E-02  0.8311902E-01
          2   -1    0    0  501    0  0.00000000000E+00  0.00000000000E+00  0.18340122512E+04  0.18340122512E+04  0.00000000000E+00 0.  1.
         -2   -1    0    0    0  501 -0.00000000000E+00 -0.00000000000E+00 -0.10476985578E+04  0.10476985578E+04  0.00000000000E+00 0. -1.
         23    2    1    2    0    0  0.16764582374E+03  0.10756896888E+04  0.96555253022E+03  0.14580404288E+04  0.91524720909E+02 0.  0.
        254    2    1    2    0    0 -0.16764582374E+03 -0.10756896888E+04 -0.17923883680E+03  0.14236703802E+04  0.89972071333E+03 0.  0.
        -24    2    4    4    0    0 -0.28007152277E+03 -0.11923908053E+04 -0.11682338286E+03  0.12329715052E+04  0.79593589343E+02 0.  0.
         24    2    4    4    0    0  0.11242569903E+03  0.11670111651E+03 -0.62415453938E+02  0.19069887496E+03  0.78814234910E+02 0.  0.
         13    1    3    3    0    0  0.80407137455E+02  0.47837599951E+03  0.49078452333E+03  0.69005677520E+03  0.00000000000E+00 0.  1.
        -13    1    3    3    0    0  0.87238686287E+02  0.59731368930E+03  0.47476800688E+03  0.76798365358E+03  0.00000000000E+00 0. -1.
          2    1    6    6  502    0 -0.49535946928E+01 -0.76695905228E+00  0.87072670952E+01  0.10047030747E+02  0.00000000000E+00 0. -1.
          3    1    5    5  503    0 -0.15930920701E+03 -0.80752047340E+03 -0.10137274790E+03  0.82930402894E+03  0.00000000000E+00 0. -1.
         -4    1    5    5    0  503 -0.12076231575E+03 -0.38487033191E+03 -0.15450634959E+02  0.40366747629E+03  0.00000000000E+00 0.  1.
         -3    1    6    6    0  502  0.11737929372E+03  0.11746807556E+03 -0.71122721033E+02  0.18065184421E+03  0.00000000000E+00 0.  1.
<mgrwt>
<rscale>  0 0.27723578E+04</rscale>
<asrwt>0</asrwt>
<pdfrwt beam="1">  1        2 0.28215573E+00 0.27723578E+04</pdfrwt>
<pdfrwt beam="2">  1       -2 0.16118439E+00 0.27723578E+04</pdfrwt>
<totfact> 0.17790109E+00</totfact>
</mgrwt>
</event>
<event>
12    1  0.2214165E-007  0.1420796E+04  0.7818608E-02  0.8938901E-01
          2   -1    0    0  501    0  0.00000000000E+00  0.00000000000E+00  0.48758967569E+04  0.48758967569E+04  0.00000000000E+00 0. -1.
         -2   -1    0    0    0  501 -0.00000000000E+00 -0.00000000000E+00 -0.10350206186E+03  0.10350206186E+03  0.00000000000E+00 0.  1.
         23    2    1    2    0    0  0.24440151408E+03  0.19077728294E+03  0.45669037343E+03  0.55888612183E+03  0.87518730689E+02 0.  0.
        254    2    1    2    0    0 -0.24440151408E+03 -0.19077728294E+03  0.43157043216E+04  0.44205126969E+04  0.90526274662E+03 0.  0.
        -24    2    4    4    0    0  0.26994324038E+03 -0.36562778170E+02  0.58108910705E+03  0.64663445442E+03  0.79154137875E+02 0.  0.
         24    2    4    4    0    0 -0.51434475446E+03 -0.15421450477E+03  0.37346152145E+04  0.37738782425E+04  0.80458365278E+02 0.  0.
         13    1    3    3    0    0  0.10731307918E+03  0.56968019355E+02  0.11572454683E+03  0.16779041371E+03  0.00000000000E+00 0.  1.
        -13    1    3    3    0    0  0.13708843490E+03  0.13380926359E+03  0.34096582660E+03  0.39109570813E+03  0.00000000000E+00 0. -1.
          2    1    6    6  502    0 -0.49555215801E+03 -0.13835999765E+03  0.36371187056E+04  0.36733292677E+04  0.00000000000E+00 0. -1.
          1    1    5    5  503    0  0.16210766751E+03  0.10299943511E+02  0.28475995341E+03  0.32783107809E+03  0.00000000000E+00 0. -1.
         -2    1    5    5    0  503  0.10783557287E+03 -0.46862721681E+02  0.29632915364E+03  0.31880337633E+03  0.00000000000E+00 0.  1.
         -1    1    6    6    0  502 -0.18792596447E+02 -0.15854507126E+02  0.97496508956E+02  0.10054897481E+03  0.00000000000E+00 0.  1.
<mgrwt>
<rscale>  0 0.14207961E+04</rscale>
<asrwt>0</asrwt>
<pdfrwt beam="1">  1        2 0.75013778E+00 0.14207961E+04</pdfrwt>
<pdfrwt beam="2">  1       -2 0.15923398E-01 0.14207961E+04</pdfrwt>
<totfact> 0.15820367E+00</totfact>
</mgrwt>
</event>
<event>
12    1  0.2214165E-007  0.3168221E+04  0.7818608E-02  0.8197261E-01
         -2   -1    0    0    0  501 -0.00000000000E+00  0.00000000000E+00  0.12163760577E+04  0.12163760577E+04  0.00000000000E+00 0.  1.
          2   -1    0    0  501    0  0.00000000000E+00 -0.00000000000E+00 -0.20630177758E+04  0.20630177758E+04  0.00000000000E+00 0. -1.
         23    2    1    2    0    0 -0.12633374326E+04 -0.23807614232E+03  0.31556232650E+03  0.13270881907E+04  0.94243121052E+02 0.  0.
        254    2    1    2    0    0  0.12633374326E+04  0.23807614232E+03 -0.11622040446E+04  0.19523056427E+04  0.89893123383E+03 0.  0.
        -24    2    4    4    0    0  0.59145778116E+03 -0.30398273875E+03 -0.31456034015E+03  0.73979302609E+03  0.78215736944E+02 0.  0.
         24    2    4    4    0    0  0.67187965147E+03  0.54205888107E+03 -0.84764370442E+03  0.12125126166E+04  0.80230288786E+02 0.  0.
         13    1    3    3    0    0 -0.45666644547E+03 -0.50638491857E+02  0.83100282960E+02  0.46691986069E+03  0.00000000000E+00 0. -1.
        -13    1    3    3    0    0 -0.80667098715E+03 -0.18743765047E+03  0.23246204354E+03  0.86016833004E+03  0.00000000000E+00 0.  1.
          2    1    6    6  502    0  0.61950051570E+03  0.48241934528E+03 -0.74146509756E+03  0.10799443525E+04  0.00000000000E+00 0. -1.
          1    1    5    5  503    0  0.34261205523E+03 -0.15989357501E+03 -0.13867701510E+03  0.40271614101E+03  0.00000000000E+00 0. -1.
         -2    1    5    5    0  503  0.24884572593E+03 -0.14408916374E+03 -0.17588332505E+03  0.33707688507E+03  0.00000000000E+00 0.  1.
         -1    1    6    6    0  502  0.52379135774E+02  0.59639535791E+02 -0.10617860686E+03  0.13256826410E+03  0.00000000000E+00 0.  1.
<mgrwt>
<rscale>  0 0.31682206E+04</rscale>
<asrwt>0</asrwt>
<pdfrwt beam="1">  1        2 0.31738735E+00 0.31682206E+04</pdfrwt>
<pdfrwt beam="2">  1       -2 0.18713478E+00 0.31682206E+04</pdfrwt>
<totfact> 0.84312534E-01</totfact>
</mgrwt>
</event>
<event>
12    1  0.2214165E-007  0.3050578E+04  0.7818608E-02  0.8229434E-01
          1   -1    0    0  501    0  0.00000000000E+00  0.00000000000E+00  0.16121334823E+04  0.16121334823E+04  0.00000000000E+00 0. -1.
         -1   -1    0    0    0  501 -0.00000000000E+00 -0.00000000000E+00 -0.14431232128E+04  0.14431232128E+04  0.00000000000E+00 0.  1.
         23    2    1    2    0    0  0.10310331762E+04  0.72788307218E+03 -0.50758919521E+03  0.13634915650E+04  0.92840075979E+02 0.  0.
        254    2    1    2    0    0 -0.10310331762E+04 -0.72788307218E+03  0.67659946465E+03  0.16917651301E+04  0.90079922445E+03 0.  0.
        -24    2    4    4    0    0 -0.38672569867E+03 -0.80167882774E+03  0.33198209972E+03  0.95324762536E+03  0.78887336561E+02 0.  0.
         24    2    4    4    0    0 -0.64430747749E+03  0.73795755559E+02  0.34461736493E+03  0.73851750474E+03  0.77904027600E+02 0.  0.
         13    1    3    3    0    0  0.54652427423E+03  0.36935365838E+03 -0.21736345361E+03  0.69451981847E+03  0.00000000000E+00 0. -1.
        -13    1    3    3    0    0  0.48450890192E+03  0.35852941380E+03 -0.29022574161E+03  0.66897174656E+03  0.00000000000E+00 0.  1.
          2    1    6    6  502    0 -0.61162590649E+03  0.67765671661E+02  0.34459755726E+03  0.70528427759E+03  0.00000000000E+00 0. -1.
          1    1    5    5  503    0 -0.16272371733E+03 -0.42106601224E+03  0.15156439835E+03  0.47617996776E+03  0.00000000000E+00 0. -1.
         -2    1    5    5    0  503 -0.22400198134E+03 -0.38061281549E+03  0.18041770137E+03  0.47706765760E+03  0.00000000000E+00 0.  1.
         -1    1    6    6    0  502 -0.32681570996E+02  0.60300838989E+01  0.19807668510E-01  0.33233227152E+02  0.00000000000E+00 0.  1.
<mgrwt>
<rscale>  0 0.30505785E+04</rscale>
<asrwt>0</asrwt>
<pdfrwt beam="1">  1        1 0.24802054E+00 0.30505785E+04</pdfrwt>
<pdfrwt beam="2">  1       -1 0.22201896E+00 0.30505785E+04</pdfrwt>
<totfact> 0.49486313E-01</totfact>
</mgrwt>
</event>
<event>
12    1  0.2214165E-007  0.1012706E+04  0.7818608E-02  0.9294718E-01
         -1   -1    0    0    0  501 -0.00000000000E+00  0.00000000000E+00  0.19815358840E+04  0.19815358840E+04  0.00000000000E+00 0.  1.
          1   -1    0    0  501    0  0.00000000000E+00 -0.00000000000E+00 -0.12939124384E+03  0.12939124384E+03  0.00000000000E+00 0. -1.
         23    2    1    2    0    0 -0.24531787483E+02  0.49505764055E+02  0.33065753455E+03  0.34212799597E+03  0.68297373296E+02 0.  0.
        254    2    1    2    0    0  0.24531787483E+02 -0.49505764055E+02  0.15214871056E+04  0.17687991319E+04  0.90037477035E+03 0.  0.
        -24    2    4    4    0    0  0.34696803497E+03 -0.31242785636E+03  0.70850935450E+03  0.85220333583E+03  0.79164622539E+02 0.  0.
         24    2    4    4    0    0 -0.32243624749E+03  0.26292209231E+03  0.81297775114E+03  0.91659579607E+03  0.78242374685E+02 0.  0.
         13    1    3    3    0    0 -0.13925493495E+02  0.59895417429E+02  0.16989270136E+03  0.18067902582E+03  0.00000000000E+00 0.  1.
        -13    1    3    3    0    0 -0.10606293988E+02 -0.10389653375E+02  0.16076483319E+03  0.16144897014E+03  0.00000000000E+00 0. -1.
          4    1    6    6  502    0 -0.25189637999E+03  0.23035832023E+03  0.60610593231E+03  0.69561565763E+03  0.00000000000E+00 0. -1.
          1    1    5    5  503    0  0.23286096538E+03 -0.25515285543E+03  0.53355838168E+03  0.63561919063E+03  0.00000000000E+00 0. -1.
         -2    1    5    5    0  503  0.11410706959E+03 -0.57275000937E+02  0.17495097281E+03  0.21658414520E+03  0.00000000000E+00 0.  1.
         -3    1    6    6    0  502 -0.70539867496E+02  0.32563772076E+02  0.20687181883E+03  0.22098013844E+03  0.00000000000E+00 0.  1.
<mgrwt>
<rscale>  0 0.10127061E+04</rscale>
<asrwt>0</asrwt>
<pdfrwt beam="1">  1        1 0.19906347E-01 0.10127061E+04</pdfrwt>
<pdfrwt beam="2">  1       -1 0.30485165E+00 0.10127061E+04</pdfrwt>
<totfact> 0.82294465E+00</totfact>
</mgrwt>
</event>
<event>
12    1  0.2214165E-007  0.1980618E+04  0.7818608E-02  0.8615737E-01
          2   -1    0    0  501    0  0.00000000000E+00  0.00000000000E+00  0.16338033155E+04  0.16338033155E+04  0.00000000000E+00 0. -1.
         -2   -1    0    0    0  501 -0.00000000000E+00 -0.00000000000E+00 -0.60026291237E+03  0.60026291237E+03  0.00000000000E+00 0.  1.
         23    2    1    2    0    0 -0.51875067631E+03  0.19370904012E+03 -0.21204726539E+03  0.60072077600E+03  0.96311741553E+02 0.  0.
        254    2    1    2    0    0  0.51875067631E+03 -0.19370904012E+03  0.12455876686E+04  0.16333454519E+04  0.89983513423E+03 0.  0.
        -24    2    4    4    0    0 -0.52722191067E+02 -0.42418358391E+03  0.53370191573E+03  0.68835550627E+03  0.79273109411E+02 0.  0.
         24    2    4    4    0    0  0.57147286738E+03  0.23047454380E+03  0.71188575285E+03  0.94498994565E+03  0.80776969346E+02 0.  0.
         11    1    3    3    0    0 -0.34795702092E+03  0.85240666041E+02 -0.15628025587E+03  0.39084981505E+03  0.00000000000E+00 0.  1.
        -11    1    3    3    0    0 -0.17079365539E+03  0.10846837407E+03 -0.55767009524E+02  0.20987096094E+03  0.00000000000E+00 0. -1.
          4    1    6    6  502    0  0.26192441697E+00  0.87203548478E+01  0.99212230812E+01  0.13211504854E+02  0.00000000000E+00 0. -1.
          1    1    5    5  503    0 -0.36186955212E+02 -0.17805479615E+03  0.28553059944E+03  0.33843866412E+03  0.00000000000E+00 0. -1.
         -2    1    5    5    0  503 -0.16535235855E+02 -0.24612878777E+03  0.24817131629E+03  0.34991684215E+03  0.00000000000E+00 0.  1.
         -3    1    6    6    0  502  0.57121094296E+03  0.22175418895E+03  0.70196452977E+03  0.93177844079E+03  0.00000000000E+00 0.  1.
<mgrwt>
<rscale>  0 0.19806176E+04</rscale>
<asrwt>0</asrwt>
<pdfrwt beam="1">  1        2 0.25135435E+00 0.19806176E+04</pdfrwt>
<pdfrwt beam="2">  1       -2 0.92348141E-01 0.19806176E+04</pdfrwt>
<totfact> 0.98915281E+00</totfact>
</mgrwt>
</event>
<event>
12    1  0.2214165E-007  0.4783611E+04  0.7818608E-02  0.7862783E-01
          2   -1    0    0  501    0  0.00000000000E+00  0.00000000000E+00  0.17592056309E+04  0.17592056309E+04  0.00000000000E+00 0. -1.
         -2   -1    0    0    0  501 -0.00000000000E+00 -0.00000000000E+00 -0.32518841977E+04  0.32518841977E+04  0.00000000000E+00 0.  1.
         23    2    1    2    0    0  0.10259502065E+04 -0.17352203050E+04  0.45338379970E+03  0.20682587741E+04  0.92596725705E+02 0.  0.
        254    2    1    2    0    0 -0.10259502065E+04  0.17352203050E+04 -0.19460623666E+04  0.29428310545E+04  0.89974026648E+03 0.  0.
        -24    2    4    4    0    0 -0.77405072638E+03  0.55202662009E+03 -0.58114040898E+03  0.11170599822E+04  0.78809343331E+02 0.  0.
         24    2    4    4    0    0 -0.25189948016E+03  0.11831936850E+04 -0.13649219576E+04  0.18257710723E+04  0.83829670855E+02 0.  0.
         13    1    3    3    0    0  0.31713768541E+03 -0.62067445600E+03  0.14647224454E+03  0.71222693733E+03  0.00000000000E+00 0.  1.
        -13    1    3    3    0    0  0.70881252113E+03 -0.11145458490E+04  0.30691155516E+03  0.13560318368E+04  0.00000000000E+00 0. -1.
          4    1    6    6  502    0 -0.13038358310E+03  0.51624730421E+03 -0.54582196870E+03  0.76251739610E+03  0.00000000000E+00 0. -1.
          3    1    5    5  503    0 -0.41178137132E+03  0.25318355949E+03 -0.26948324870E+03  0.55343204993E+03  0.00000000000E+00 0. -1.
         -4    1    5    5    0  503 -0.36226935506E+03  0.29884306060E+03 -0.31165716028E+03  0.56362793227E+03  0.00000000000E+00 0.  1.
         -3    1    6    6    0  502 -0.12151589706E+03  0.66694638074E+03 -0.81909998891E+03  0.10632536762E+04  0.00000000000E+00 0.  1.
<mgrwt>
<rscale>  0 0.47836108E+04</rscale>
<asrwt>0</asrwt>
<pdfrwt beam="1">  1        2 0.27064702E+00 0.47836108E+04</pdfrwt>
<pdfrwt beam="2">  1       -2 0.50028988E+00 0.47836108E+04</pdfrwt>
<totfact> 0.11122386E-02</totfact>
</mgrwt>
</event>
<event>
12    1  0.2214165E-007  0.2097946E+04  0.7818608E-02  0.8562149E-01
         -2   -1    0    0    0  501 -0.00000000000E+00  0.00000000000E+00  0.87678772107E+03  0.87678772107E+03  0.00000000000E+00 0.  1.
          2   -1    0    0  501    0  0.00000000000E+00 -0.00000000000E+00 -0.12549722231E+04  0.12549722231E+04  0.00000000000E+00 0. -1.
         23    2    1    2    0    0  0.81323762258E+03 -0.11995545012E+03  0.78696790474E+02  0.83089528084E+03  0.91918671092E+02 0.  0.
        254    2    1    2    0    0 -0.81323762258E+03  0.11995545012E+03 -0.45688129249E+03  0.13008646633E+04  0.89875670572E+03 0.  0.
        -24    2    4    4    0    0 -0.39185461846E+03  0.11239644651E+03  0.24181316473E+03  0.48077909117E+03  0.80572480918E+02 0.  0.
         24    2    4    4    0    0 -0.42138300412E+03  0.75590036178E+01 -0.69869445722E+03  0.82008557215E+03  0.82131762451E+02 0.  0.
         13    1    3    3    0    0  0.66578186628E+03 -0.68640131951E+02  0.84708804464E+02  0.67464994089E+03  0.00000000000E+00 0.  1.
        -13    1    3    3    0    0  0.14745575630E+03 -0.51315318174E+02 -0.60120139893E+01  0.15624533995E+03  0.00000000000E+00 0. -1.
          4    1    6    6  502    0 -0.38137375694E+03 -0.70586133938E+01 -0.66121340817E+03  0.76334719339E+03  0.00000000000E+00 0. -1.
          3    1    5    5  503    0 -0.32019467335E+03  0.70119533092E+02  0.21999415728E+03  0.39476424230E+03  0.00000000000E+00 0. -1.
         -4    1    5    5    0  503 -0.71659945106E+02  0.42276913415E+02  0.21819007450E+02  0.86014848873E+02  0.00000000000E+00 0.  1.
         -3    1    6    6    0  502 -0.40009247179E+02  0.14617617012E+02 -0.37481049047E+02  0.56738378763E+02  0.00000000000E+00 0.  1.
<mgrwt>
<rscale>  0 0.20979459E+04</rscale>
<asrwt>0</asrwt>
<pdfrwt beam="1">  1        2 0.19307265E+00 0.20979459E+04</pdfrwt>
<pdfrwt beam="2">  1       -2 0.13489042E+00 0.20979459E+04</pdfrwt>
<totfact> 0.64025961E+00</totfact>
</mgrwt>
</event>
<event>
12    1  0.2214165E-007  0.1991073E+04  0.7818608E-02  0.8610806E-01
         -2   -1    0    0    0  501 -0.00000000000E+00  0.00000000000E+00  0.66300743121E+03  0.66300743121E+03  0.00000000000E+00 0. -1.
          2   -1    0    0  501    0  0.00000000000E+00 -0.00000000000E+00 -0.14948444042E+04  0.14948444042E+04  0.00000000000E+00 0.  1.
         23    2    1    2    0    0 -0.62663692121E+03  0.47320772480E+03 -0.24175186027E+03  0.82516687714E+03  0.76531244323E+02 0.  0.
        254    2    1    2    0    0  0.62663692121E+03 -0.47320772480E+03 -0.59008511271E+03  0.13326849583E+04  0.90069383027E+03 0.  0.
        -24    2    4    4    0    0  0.64554436396E+03 -0.67297078481E+03 -0.60754282883E+03  0.11158499637E+04  0.79972805035E+02 0.  0.
         24    2    4    4    0    0 -0.18907442754E+02  0.19976306001E+03  0.17457716116E+02  0.21683499457E+03  0.80311091912E+02 0.  0.
         13    1    3    3    0    0 -0.45110909524E+03  0.30373633302E+03 -0.18722447838E+03  0.57515926587E+03  0.00000000000E+00 0. -1.
        -13    1    3    3    0    0 -0.17552782596E+03  0.16947139178E+03 -0.54527381884E+02  0.25000761127E+03  0.00000000000E+00 0.  1.
          4    1    6    6  502    0 -0.11652888065E+02  0.20571347669E+03  0.20275015126E+02  0.20703840352E+03  0.00000000000E+00 0. -1.
          1    1    5    5  503    0  0.34048010435E+03 -0.40494931628E+03 -0.32062943504E+03  0.61863873531E+03  0.00000000000E+00 0. -1.
         -2    1    5    5    0  503  0.30506425961E+03 -0.26802146853E+03 -0.28691339379E+03  0.49721122837E+03  0.00000000000E+00 0.  1.
         -3    1    6    6    0  502 -0.72545546898E+01 -0.59504166880E+01 -0.28172990098E+01  0.97965910509E+01  0.00000000000E+00 0.  1.
<mgrwt>
<rscale>  0 0.19910730E+04</rscale>
<asrwt>0</asrwt>
<pdfrwt beam="1">  1        2 0.22997606E+00 0.19910730E+04</pdfrwt>
<pdfrwt beam="2">  1       -2 0.10200114E+00 0.19910730E+04</pdfrwt>
<totfact> 0.93626589E+00</totfact>
</mgrwt>
</event>
<event>
12    1  0.2214165E-007  0.1650513E+04  0.7818608E-02  0.8790103E-01
         -2   -1    0    0    0  501 -0.00000000000E+00  0.00000000000E+00  0.17021941913E+03  0.17021941913E+03  0.00000000000E+00 0.  1.
          2   -1    0    0  501    0  0.00000000000E+00 -0.00000000000E+00 -0.40010034470E+04  0.40010034470E+04  0.00000000000E+00 0. -1.
         23    2    1    2    0    0  0.46685293390E+03 -0.32811180773E+03 -0.14084264390E+04  0.15221287054E+04  0.87187965765E+02 0.  0.
        254    2    1    2    0    0 -0.46685293390E+03  0.32811180773E+03 -0.24223575889E+04  0.26490941608E+04  0.90789567898E+03 0.  0.
        -24    2    4    4    0    0  0.16978769046E+03  0.56057575773E+02 -0.13886853643E+04  0.14023769672E+04  0.79017753268E+02 0.  0.
         24    2    4    4    0    0 -0.63664062436E+03  0.27205423196E+03 -0.10336722246E+04  0.12467171936E+04  0.80626938810E+02 0.  0.
         13    1    3    3    0    0  0.26163921400E+03 -0.16205394462E+03 -0.86160683525E+03  0.91492234524E+03  0.00000000000E+00 0. -1.
        -13    1    3    3    0    0  0.20521371990E+03 -0.16605786312E+03 -0.54681960373E+03  0.60720636011E+03  0.00000000000E+00 0.  1.
          4    1    6    6  502    0 -0.48831591032E+03  0.24346386181E+03 -0.79389445836E+03  0.96332522613E+03  0.00000000000E+00 0. -1.
          3    1    5    5  503    0  0.17549552674E+03  0.43177969141E+02 -0.12539494039E+04  0.12669065176E+04  0.00000000000E+00 0. -1.
         -4    1    5    5    0  503 -0.57078362775E+01  0.12879606632E+02 -0.13473596043E+03  0.13547044953E+03  0.00000000000E+00 0.  1.
         -3    1    6    6    0  502 -0.14832471404E+03  0.28590370153E+02 -0.23977776621E+03  0.28339196748E+03  0.00000000000E+00 0.  1.
<mgrwt>
<rscale>  0 0.16505132E+04</rscale>
<asrwt>0</asrwt>
<pdfrwt beam="1">  1        2 0.61553897E+00 0.16505132E+04</pdfrwt>
<pdfrwt beam="2">  1       -2 0.26187604E-01 0.16505132E+04</pdfrwt>
<totfact> 0.43812842E+00</totfact>
</mgrwt>
</event>
<event>
12    1  0.2214165E-007  0.3034038E+04  0.7818608E-02  0.8234077E-01
          1   -1    0    0  501    0  0.00000000000E+00  0.00000000000E+00  0.20231946182E+04  0.20231946182E+04  0.00000000000E+00 0. -1.
         -1   -1    0    0    0  501 -0.00000000000E+00 -0.00000000000E+00 -0.11374813508E+04  0.11374813508E+04  0.00000000000E+00 0.  1.
         23    2    1    2    0    0  0.89685933757E+03 -0.66948765237E+03 -0.43830270178E+03  0.12054490296E+04  0.91802595533E+02 0.  0.
        254    2    1    2    0    0 -0.89685933757E+03  0.66948765237E+03  0.13240159692E+04  0.19552269393E+04  0.90405957191E+03 0.  0.
        -24    2    4    4    0    0 -0.52170327222E+03  0.66159049612E+03  0.36429202450E+03  0.92147221948E+03  0.80784177630E+02 0.  0.
         24    2    4    4    0    0 -0.37515606535E+03  0.78971562453E+01  0.95972394468E+03  0.10337547198E+04  0.82306332467E+02 0.  0.
         11    1    3    3    0    0  0.80191575845E+03 -0.56885769739E+03 -0.40363860149E+03  0.10628226965E+04  0.00000000000E+00 0.  1.
        -11    1    3    3    0    0  0.94943579117E+02 -0.10062995498E+03 -0.34664100283E+02  0.14262633313E+03  0.00000000000E+00 0. -1.
          2    1    6    6  502    0 -0.58124077933E+02 -0.28814758605E+02  0.17261637540E+03  0.18440474996E+03  0.00000000000E+00 0. -1.
          1    1    5    5  503    0 -0.26414478076E+02  0.12560984236E+02  0.19929337376E+02  0.35393240389E+02  0.00000000000E+00 0. -1.
         -2    1    5    5    0  503 -0.49528879415E+03  0.64902951189E+03  0.34436268713E+03  0.88607897909E+03  0.00000000000E+00 0.  1.
         -1    1    6    6    0  502 -0.31703198741E+03  0.36711914851E+02  0.78710756927E+03  0.84934996988E+03  0.00000000000E+00 0.  1.
<mgrwt>
<rscale>  0 0.30340377E+04</rscale>
<asrwt>0</asrwt>
<pdfrwt beam="1">  1        1 0.31126071E+00 0.30340377E+04</pdfrwt>
<pdfrwt beam="2">  1       -1 0.17499713E+00 0.30340377E+04</pdfrwt>
<totfact> 0.55162794E-01</totfact>
</mgrwt>
</event>
<event>
12    1  0.2214165E-007  0.6906301E+04  0.7818608E-02  0.7587177E-01
         -2   -1    0    0    0  501 -0.00000000000E+00  0.00000000000E+00  0.33156504296E+04  0.33156504296E+04  0.00000000000E+00 0. -1.
          2   -1    0    0  501    0  0.00000000000E+00 -0.00000000000E+00 -0.35963522786E+04  0.35963522786E+04  0.00000000000E+00 0.  1.
         23    2    1    2    0    0 -0.26100926847E+04  0.45172150831E+03 -0.22615596804E+04  0.34841946697E+04  0.91236858974E+02 0.  0.
        254    2    1    2    0    0  0.26100926847E+04 -0.45172150831E+03  0.19808578314E+04  0.34278080384E+04  0.89968553197E+03 0.  0.
        -24    2    4    4    0    0  0.83712732029E+03  0.18676357744E+03  0.93442063944E+03  0.12708495578E+04  0.79081494915E+02 0.  0.
         24    2    4    4    0    0  0.17729653644E+04 -0.63848508575E+03  0.10464371920E+04  0.21569584807E+04  0.79810416209E+02 0.  0.
         13    1    3    3    0    0 -0.99028203392E+03  0.16678181349E+03 -0.91558534986E+03  0.13589596068E+04  0.00000000000E+00 0. -1.
        -13    1    3    3    0    0 -0.16198106508E+04  0.28493969482E+03 -0.13459743306E+04  0.21252350629E+04  0.00000000000E+00 0.  1.
          2    1    6    6  502    0  0.16103919204E+04 -0.60006015593E+03  0.93925246714E+03  0.19584763274E+04  0.00000000000E+00 0. -1.
          3    1    5    5  503    0  0.56480305367E+03  0.16356070438E+03  0.64248864702E+03  0.87094560967E+03  0.00000000000E+00 0. -1.
         -4    1    5    5    0  503  0.27232426662E+03  0.23202873062E+02  0.29193199242E+03  0.39990394810E+03  0.00000000000E+00 0.  1.
         -1    1    6    6    0  502  0.16257344403E+03 -0.38424929822E+02  0.10718472483E+03  0.19848215328E+03  0.00000000000E+00 0.  1.
<mgrwt>
<rscale>  0 0.69063006E+04</rscale>
<asrwt>0</asrwt>
<pdfrwt beam="1">  1        2 0.55328497E+00 0.69063006E+04</pdfrwt>
<pdfrwt beam="2">  1       -2 0.51010007E+00 0.69063006E+04</pdfrwt>
<totfact> 0.63275388E-04</totfact>
</mgrwt>
</event>
<event>
12    1  0.2214165E-007  0.1514654E+04  0.7818608E-02  0.8874766E-01
         -1   -1    0    0    0  501 -0.00000000000E+00  0.00000000000E+00  0.93086726703E+03  0.93086726703E+03  0.00000000000E+00 0.  1.
          1   -1    0    0  501    0  0.00000000000E+00 -0.00000000000E+00 -0.61613962574E+03  0.61613962574E+03  0.00000000000E+00 0. -1.
         23    2    1    2    0    0  0.27936847298E+03  0.83828004980E+02 -0.29292005151E+03  0.42312848849E+03  0.90342033878E+02 0.  0.
        254    2    1    2    0    0 -0.27936847298E+03 -0.83828004980E+02  0.60764769280E+03  0.11238784043E+04  0.89932923389E+03 0.  0.
        -24    2    4    4    0    0  0.29048937835E+03  0.13054847393E+03  0.16652895560E+03  0.36824250950E+03  0.80272472049E+02 0.  0.
         24    2    4    4    0    0 -0.56985785133E+03 -0.21437647891E+03  0.44111873719E+03  0.75563589478E+03  0.75528933110E+02 0.  0.
         13    1    3    3    0    0  0.65023366649E+02  0.46309509266E+02 -0.39385472541E+02  0.89015865474E+02  0.00000000000E+00 0.  1.
        -13    1    3    3    0    0  0.21434510633E+03  0.37518495714E+02 -0.25353457897E+03  0.33411262302E+03  0.00000000000E+00 0. -1.
          4    1    6    6  502    0 -0.23441351567E+03 -0.56048422782E+02  0.14764956491E+03  0.28265087306E+03  0.00000000000E+00 0. -1.
          3    1    5    5  503    0  0.65364486125E+02  0.15293075448E+02  0.71476087281E+02  0.98057254990E+02  0.00000000000E+00 0. -1.
         -4    1    5    5    0  503  0.22512489223E+03  0.11525539848E+03  0.95052868322E+02  0.27018525451E+03  0.00000000000E+00 0.  1.
         -3    1    6    6    0  502 -0.33544433566E+03 -0.15832805613E+03  0.29346917228E+03  0.47298502171E+03  0.00000000000E+00 0.  1.
<mgrwt>
<rscale>  0 0.15146540E+04</rscale>
<asrwt>0</asrwt>
<pdfrwt beam="1">  1        1 0.94790712E-01 0.15146540E+04</pdfrwt>
<pdfrwt beam="2">  1       -1 0.14321035E+00 0.15146540E+04</pdfrwt>
<totfact> 0.12573827E+01</totfact>
</mgrwt>
</event>
<event>
12    1  0.2214165E-007  0.1802981E+04  0.7818608E-02  0.8704716E-01
         -1   -1    0    0    0  501 -0.00000000000E+00  0.00000000000E+00  0.12404621555E+04  0.12404621555E+04  0.00000000000E+00 0.  1.
          1   -1    0    0  501    0  0.00000000000E+00 -0.00000000000E+00 -0.65514729900E+03  0.65514729900E+03  0.00000000000E+00 0. -1.
         23    2    1    2    0    0 -0.66250188147E+03 -0.11124933812E+03  0.20028972093E+03  0.70702941621E+03  0.92138292173E+02 0.  0.
        254    2    1    2    0    0  0.66250188147E+03  0.11124933812E+03  0.38502513556E+03  0.11885800383E+04  0.90177214095E+03 0.  0.
        -24    2    4    4    0    0 -0.62882854318E+02 -0.20511038393E+03 -0.10713841559E+03  0.25297900301E+03  0.80592883718E+02 0.  0.
         24    2    4    4    0    0  0.72538473579E+03  0.31635972205E+03  0.49216355114E+03  0.93560103527E+03  0.82812121505E+02 0.  0.
         11    1    3    3    0    0 -0.22780693074E+03  0.55334731997E+01  0.62072540905E+02  0.23617708897E+03  0.00000000000E+00 0. -1.
        -11    1    3    3    0    0 -0.43469495073E+03 -0.11678281132E+03  0.13821718002E+03  0.47085232724E+03  0.00000000000E+00 0.  1.
          2    1    6    6  502    0  0.37022731444E+03  0.17584052034E+03  0.30079805090E+03  0.50839710894E+03  0.00000000000E+00 0. -1.
          1    1    5    5  503    0 -0.14880706450E+02 -0.33261345098E+02 -0.56981368744E+02  0.67636002885E+02  0.00000000000E+00 0. -1.
         -2    1    5    5    0  503 -0.48002147867E+02 -0.17184903883E+03 -0.50157046843E+02  0.18534300012E+03  0.00000000000E+00 0.  1.
         -1    1    6    6    0  502  0.35515742135E+03  0.14051920171E+03  0.19136550025E+03  0.42720392633E+03  0.00000000000E+00 0.  1.
<mgrwt>
<rscale>  0 0.18029813E+04</rscale>
<asrwt>0</asrwt>
<pdfrwt beam="1">  1        1 0.10079189E+00 0.18029813E+04</pdfrwt>
<pdfrwt beam="2">  1       -1 0.19084033E+00 0.18029813E+04</pdfrwt>
<totfact> 0.49492299E+00</totfact>
</mgrwt>
</event>
<event>
12    1  0.2214165E-007  0.1530401E+04  0.7818608E-02  0.8864484E-01
          2   -1    0    0  501    0  0.00000000000E+00  0.00000000000E+00  0.15489161479E+04  0.15489161479E+04  0.00000000000E+00 0. -1.
         -2   -1    0    0    0  501 -0.00000000000E+00 -0.00000000000E+00 -0.37802687932E+03  0.37802687932E+03  0.00000000000E+00 0.  1.
         23    2    1    2    0    0 -0.16552556309E+03 -0.11555285961E+03  0.95009682813E+03  0.97585736858E+03  0.94140562916E+02 0.  0.
        254    2    1    2    0    0  0.16552556309E+03  0.11555285961E+03  0.22079244045E+03  0.95108565863E+03  0.90280864689E+03 0.  0.
        -24    2    4    4    0    0 -0.11755351932E+03 -0.34555239831E+03  0.48871918588E+02  0.37649970676E+03  0.78347143429E+02 0.  0.
         24    2    4    4    0    0  0.28307908241E+03  0.46110525792E+03  0.17192052186E+03  0.57458595187E+03  0.88546736086E+02 0.  0.
         13    1    3    3    0    0  0.13992171811E+01  0.41969027047E+01  0.14158162561E+03  0.14165072718E+03  0.00000000000E+00 0.  1.
        -13    1    3    3    0    0 -0.16692478027E+03 -0.11974976231E+03  0.80851520252E+03  0.83420664140E+03  0.00000000000E+00 0. -1.
          4    1    6    6  502    0  0.82214739637E+02  0.76883939626E+02  0.15260651707E+02  0.11359265415E+03  0.00000000000E+00 0. -1.
          1    1    5    5  503    0  0.48249391202E+01 -0.28449366239E+02  0.20546542585E+02  0.35423253508E+02  0.00000000000E+00 0. -1.
         -2    1    5    5    0  503 -0.12237845844E+03 -0.31710303207E+03  0.28325376003E+02  0.34107645325E+03  0.00000000000E+00 0.  1.
         -3    1    6    6    0  502  0.20086434278E+03  0.38422131829E+03  0.15665987015E+03  0.46099329772E+03  0.00000000000E+00 0.  1.
<mgrwt>
<rscale>  0 0.15304012E+04</rscale>
<asrwt>0</asrwt>
<pdfrwt beam="1">  1        2 0.23829479E+00 0.15304012E+04</pdfrwt>
<pdfrwt beam="2">  1       -2 0.58157982E-01 0.15304012E+04</pdfrwt>
<totfact> 0.31760917E+01</totfact>
</mgrwt>
</event>
<event>
12    1  0.2214165E-007  0.2250955E+04  0.7818608E-02  0.8497514E-01
         -2   -1    0    0    0  501 -0.00000000000E+00  0.00000000000E+00  0.11617705457E+04  0.11617705457E+04  0.00000000000E+00 0.  1.
          2   -1    0    0  501    0  0.00000000000E+00 -0.00000000000E+00 -0.10903178439E+04  0.10903178439E+04  0.00000000000E+00 0. -1.
         23    2    1    2    0    0 -0.38710958656E+03 -0.83891782459E+03 -0.86157831625E+02  0.93239402329E+03  0.91096071795E+02 0.  0.
        254    2    1    2    0    0  0.38710958656E+03  0.83891782459E+03  0.15761053343E+03  0.13196943663E+04  0.92903993014E+03 0.  0.
        -24    2    4    4    0    0  0.68632998059E+03  0.51613801401E+03  0.89934251555E+02  0.86718208850E+03  0.80432041214E+02 0.  0.
         24    2    4    4    0    0 -0.29922039403E+03  0.32277981058E+03  0.67676281879E+02  0.45251227780E+03  0.80421589844E+02 0.  0.
         13    1    3    3    0    0 -0.18442400825E+03 -0.30527082711E+03 -0.53210054419E+02  0.36060200027E+03  0.00000000000E+00 0.  1.
        -13    1    3    3    0    0 -0.20268557831E+03 -0.53364699748E+03 -0.32947777206E+02  0.57179202302E+03  0.00000000000E+00 0. -1.
          4    1    6    6  502    0 -0.23551593796E+03  0.28783384414E+03  0.37356871003E+02  0.37378016892E+03  0.00000000000E+00 0. -1.
          1    1    5    5  503    0  0.35055382469E+03  0.22822847193E+03  0.15002283396E+02  0.41857052920E+03  0.00000000000E+00 0. -1.
         -2    1    5    5    0  503  0.33577615590E+03  0.28790954208E+03  0.74931968159E+02  0.44861155931E+03  0.00000000000E+00 0.  1.
         -3    1    6    6    0  502 -0.63704456067E+02  0.34945966435E+02  0.30319410876E+02  0.78732108881E+02  0.00000000000E+00 0.  1.
<mgrwt>
<rscale>  0 0.22509546E+04</rscale>
<asrwt>0</asrwt>
<pdfrwt beam="1">  1        2 0.16774121E+00 0.22509546E+04</pdfrwt>
<pdfrwt beam="2">  1       -2 0.17873393E+00 0.22509546E+04</pdfrwt>
<totfact> 0.37198715E+00</totfact>
</mgrwt>
</event>
<event>
12    1  0.2214165E-007  0.3295639E+04  0.7818608E-02  0.8164006E-01
         -2   -1    0    0    0  501 -0.00000000000E+00  0.00000000000E+00  0.74752763759E+03  0.74752763759E+03  0.00000000000E+00 0.  1.
          2   -1    0    0  501    0  0.00000000000E+00 -0.00000000000E+00 -0.36323868499E+04  0.36323868499E+04  0.00000000000E+00 0. -1.
         23    2    1    2    0    0 -0.23627587085E+03  0.13740727248E+04 -0.21507021254E+04  0.25648076844E+04  0.93897208771E+02 0.  0.
        254    2    1    2    0    0  0.23627587085E+03 -0.13740727248E+04 -0.73415708697E+03  0.18151068031E+04  0.90095723446E+03 0.  0.
        -24    2    4    4    0    0  0.81623418539E+02  0.10295225166E+03 -0.15358082609E+03  0.21854786761E+03  0.83153783554E+02 0.  0.
         24    2    4    4    0    0  0.15465245231E+03 -0.14770249764E+04 -0.58057626088E+03  0.15965589355E+04  0.80071704808E+02 0.  0.
         13    1    3    3    0    0 -0.11075109499E+03  0.59669163765E+03 -0.85253515124E+03  0.10464811989E+04  0.00000000000E+00 0. -1.
        -13    1    3    3    0    0 -0.12552477586E+03  0.77738108711E+03 -0.12981669741E+04  0.15183264855E+04  0.00000000000E+00 0.  1.
          4    1    6    6  502    0  0.14091043285E+03 -0.11242936176E+04 -0.41549955604E+03  0.12068685801E+04  0.00000000000E+00 0. -1.
          3    1    5    5  503    0  0.72967301722E+02  0.75014035108E+02 -0.15743909357E+03  0.18904602818E+03  0.00000000000E+00 0. -1.
         -4    1    5    5    0  503  0.86561168175E+01  0.27938216547E+02  0.38582674802E+01  0.29501839436E+02  0.00000000000E+00 0.  1.
         -3    1    6    6    0  502  0.13742019461E+02 -0.35273135885E+03 -0.16507670484E+03  0.38969035540E+03  0.00000000000E+00 0.  1.
<mgrwt>
<rscale>  0 0.32956393E+04</rscale>
<asrwt>0</asrwt>
<pdfrwt beam="1">  1        2 0.55882875E+00 0.32956393E+04</pdfrwt>
<pdfrwt beam="2">  1       -2 0.11500425E+00 0.32956393E+04</pdfrwt>
<totfact> 0.32174687E-01</totfact>
</mgrwt>
</event>
<event>
12    1  0.2214165E-007  0.2026013E+04  0.7818608E-02  0.8594554E-01
         -1   -1    0    0    0  501 -0.00000000000E+00  0.00000000000E+00  0.99801364013E+03  0.99801364013E+03  0.00000000000E+00 0.  1.
          1   -1    0    0  501    0  0.00000000000E+00 -0.00000000000E+00 -0.10282246377E+04  0.10282246377E+04  0.00000000000E+00 0. -1.
         23    2    1    2    0    0 -0.28280157420E+03  0.52104453639E+03  0.53954251730E+03  0.80679389443E+03  0.91357106088E+02 0.  0.
        254    2    1    2    0    0  0.28280157420E+03 -0.52104453639E+03 -0.56975351491E+03  0.12194443834E+04  0.90053395120E+03 0.  0.
        -24    2    4    4    0    0  0.20753375724E+03 -0.54136841475E+03 -0.78352663589E+03  0.97814137815E+03  0.81832423975E+02 0.  0.
         24    2    4    4    0    0  0.75267816968E+02  0.20323878363E+02  0.21377312098E+03  0.24130300529E+03  0.80311199739E+02 0.  0.
         13    1    3    3    0    0 -0.11732188871E+01  0.56264228245E+02  0.55379958460E+02  0.78955554723E+02  0.00000000000E+00 0. -1.
        -13    1    3    3    0    0 -0.28162835532E+03  0.46478030815E+03  0.48416255884E+03  0.72783833970E+03  0.00000000000E+00 0.  1.
          2    1    6    6  502    0  0.19335936947E+02  0.26919273787E+02  0.16013208299E+03  0.16352617454E+03  0.00000000000E+00 0. -1.
          3    1    5    5  503    0  0.19082688215E+03 -0.49574288167E+03 -0.75018576339E+03  0.91921411177E+03  0.00000000000E+00 0. -1.
         -4    1    5    5    0  503  0.16706875086E+02 -0.45625533081E+02 -0.33340872497E+02  0.58927266379E+02  0.00000000000E+00 0.  1.
         -1    1    6    6    0  502  0.55931880022E+02 -0.65953954241E+01  0.53641037996E+02  0.77776830745E+02  0.00000000000E+00 0.  1.
<mgrwt>
<rscale>  0 0.20260130E+04</rscale>
<asrwt>0</asrwt>
<pdfrwt beam="1">  1        1 0.15818841E+00 0.20260130E+04</pdfrwt>
<pdfrwt beam="2">  1       -1 0.15354056E+00 0.20260130E+04</pdfrwt>
<totfact> 0.43605380E+00</totfact>
</mgrwt>
</event>
<event>
12    1  0.2214165E-007  0.2791271E+04  0.7818608E-02  0.8305983E-01
          2   -1    0    0  501    0  0.00000000000E+00  0.00000000000E+00  0.30343283120E+04  0.30343283120E+04  0.00000000000E+00 0. -1.
         -2   -1    0    0    0  501 -0.00000000000E+00 -0.00000000000E+00 -0.64192095465E+03  0.64192095465E+03  0.00000000000E+00 0.  1.
         23    2    1    2    0    0 -0.27499859963E+02 -0.12493304960E+04  0.10307391467E+04  0.16207819450E+04  0.54110945010E+02 0.  0.
        254    2    1    2    0    0  0.27499859963E+02  0.12493304960E+04  0.13616682107E+04  0.20554673216E+04  0.89956804292E+03 0.  0.
        -24    2    4    4    0    0  0.43401226227E+03  0.69999854239E+03  0.56012586027E+03  0.99930340407E+03  0.80633187194E+02 0.  0.
         24    2    4    4    0    0 -0.40651240230E+03  0.54933195357E+03  0.80154235039E+03  0.10561639175E+04  0.77421914324E+02 0.  0.
         13    1    3    3    0    0  0.30888818415E+01 -0.16368113633E+03  0.15766466808E+03  0.22728661013E+03  0.00000000000E+00 0. -1.
        -13    1    3    3    0    0 -0.30588741805E+02 -0.10856493596E+04  0.87307447860E+03  0.13934953349E+04  0.00000000000E+00 0.  1.
          2    1    6    6  502    0 -0.96949027238E+02  0.16991825630E+03  0.18977187722E+03  0.27255218416E+03  0.00000000000E+00 0. -1.
          1    1    5    5  503    0  0.35291905424E+03  0.50508898080E+03  0.42861440770E+03  0.75058447083E+03  0.00000000000E+00 0. -1.
         -2    1    5    5    0  503  0.81093208032E+02  0.19490956160E+03  0.13151145257E+03  0.24871893323E+03  0.00000000000E+00 0.  1.
         -1    1    6    6    0  502 -0.30956337507E+03  0.37941369727E+03  0.61177047317E+03  0.78361173338E+03  0.00000000000E+00 0.  1.
<mgrwt>
<rscale>  0 0.27912713E+04</rscale>
<asrwt>0</asrwt>
<pdfrwt beam="1">  1        2 0.46681973E+00 0.27912713E+04</pdfrwt>
<pdfrwt beam="2">  1       -2 0.98757072E-01 0.27912713E+04</pdfrwt>
<totfact> 0.12268709E+00</totfact>
</mgrwt>
</event>
<event>
12    1  0.2214165E-007  0.2296536E+04  0.7818608E-02  0.8479288E-01
          2   -1    0    0  501    0  0.00000000000E+00  0.00000000000E+00  0.34900044462E+04  0.34900044462E+04  0.00000000000E+00 0. -1.
         -2   -1    0    0    0  501 -0.00000000000E+00 -0.00000000000E+00 -0.37779861250E+03  0.37779861250E+03  0.00000000000E+00 0.  1.
         23    2    1    2    0    0 -0.66015689086E+03  0.65932659329E+03  0.87910277217E+03  0.12855074049E+04  0.95858890662E+02 0.  0.
        254    2    1    2    0    0  0.66015689086E+03 -0.65932659329E+03  0.22331030615E+04  0.25822956538E+04  0.90054588049E+03 0.  0.
        -24    2    4    4    0    0  0.81547235527E+03 -0.35446771542E+03  0.18937143565E+04  0.20937156616E+04  0.82756776573E+02 0.  0.
         24    2    4    4    0    0 -0.15531546440E+03 -0.30485887788E+03  0.33938870503E+03  0.48857999218E+03  0.80398300693E+02 0.  0.
         13    1    3    3    0    0 -0.18935023186E+03  0.18212213328E+03  0.19072964318E+03  0.32465332052E+03  0.00000000000E+00 0.  1.
        -13    1    3    3    0    0 -0.47080665900E+03  0.47720446002E+03  0.68837312899E+03  0.96085408441E+03  0.00000000000E+00 0. -1.
          4    1    6    6  502    0 -0.92944267645E+02 -0.24918768998E+03  0.27896137746E+03  0.38542520914E+03  0.00000000000E+00 0. -1.
          3    1    5    5  503    0  0.80940304564E+03 -0.34115899085E+03  0.18603550576E+04  0.20572903752E+04  0.00000000000E+00 0. -1.
         -4    1    5    5    0  503  0.60693096278E+01 -0.13308724571E+02  0.33359298887E+02  0.36425286427E+02  0.00000000000E+00 0.  1.
         -3    1    6    6    0  502 -0.62371196757E+02 -0.55671187894E+02  0.60427327563E+02  0.10315478303E+03  0.00000000000E+00 0.  1.
<mgrwt>
<rscale>  0 0.22965355E+04</rscale>
<asrwt>0</asrwt>
<pdfrwt beam="1">  1        2 0.53692374E+00 0.22965355E+04</pdfrwt>
<pdfrwt beam="2">  1       -2 0.58122866E-01 0.22965355E+04</pdfrwt>
<totfact> 0.20806477E+00</totfact>
</mgrwt>
</event>
<event>
12    1  0.2214165E-007  0.1081280E+04  0.7818608E-02  0.9223632E-01
          1   -1    0    0  501    0  0.00000000000E+00  0.00000000000E+00  0.15263324955E+04  0.15263324955E+04  0.00000000000E+00 0. -1.
         -1   -1    0    0    0  501 -0.00000000000E+00 -0.00000000000E+00 -0.19149936845E+03  0.19149936845E+03  0.00000000000E+00 0.  1.
         23    2    1    2    0    0 -0.40390534138E+02 -0.91332201072E+02  0.51504398261E+02  0.14450136459E+03  0.90856893674E+02 0.  0.
        254    2    1    2    0    0  0.40390534138E+02  0.91332201072E+02  0.12833287288E+04  0.15733304994E+04  0.90468959752E+03 0.  0.
        -24    2    4    4    0    0  0.68522592288E+02 -0.26480019005E+03  0.11483018154E+04  0.11831327401E+04  0.79947076453E+02 0.  0.
         24    2    4    4    0    0 -0.28132058150E+02  0.35613239112E+03  0.13502691338E+03  0.39019775929E+03  0.80002070709E+02 0.  0.
         11    1    3    3    0    0 -0.48797325539E+02 -0.43966369900E+02 -0.99771384819E+01  0.66436164505E+02  0.00000000000E+00 0.  1.
        -11    1    3    3    0    0  0.84067914008E+01 -0.47365831172E+02  0.61481536743E+02  0.78065200087E+02  0.00000000000E+00 0. -1.
          2    1    6    6  502    0  0.76001909489E+01  0.28924782484E+03  0.95614997429E+02  0.30473643499E+03  0.00000000000E+00 0. -1.
          1    1    5    5  503    0  0.10539700994E+02 -0.17194788254E+03  0.78583671522E+03  0.80449767097E+03  0.00000000000E+00 0. -1.
         -2    1    5    5    0  503  0.57982891294E+02 -0.92852307512E+02  0.36246510019E+03  0.37863506910E+03  0.00000000000E+00 0.  1.
         -1    1    6    6    0  502 -0.35732249099E+02  0.66884566281E+02  0.39411915955E+02  0.85461324303E+02  0.00000000000E+00 0.  1.
<mgrwt>
<rscale>  0 0.10812802E+04</rscale>
<asrwt>0</asrwt>
<pdfrwt beam="1">  1        1 0.23482038E+00 0.10812802E+04</pdfrwt>
<pdfrwt beam="2">  1       -1 0.29461442E-01 0.10812802E+04</pdfrwt>
<totfact> 0.65910483E+01</totfact>
</mgrwt>
</event>
<event>
12    1  0.2214165E-007  0.1711159E+04  0.7818608E-02  0.8755025E-01
          2   -1    0    0  501    0  0.00000000000E+00  0.00000000000E+00  0.40186761946E+03  0.40186761946E+03  0.00000000000E+00 0. -1.
         -2   -1    0    0    0  501 -0.00000000000E+00 -0.00000000000E+00 -0.18215364592E+04  0.18215364592E+04  0.00000000000E+00 0.  1.
         23    2    1    2    0    0 -0.50904924532E+03 -0.33688192983E+03 -0.58681242374E+03  0.85235596398E+03  0.97679577562E+02 0.  0.
        254    2    1    2    0    0  0.50904924532E+03  0.33688192983E+03 -0.83285641599E+03  0.13710481147E+04  0.90194376449E+03 0.  0.
        -24    2    4    4    0    0  0.68558967548E+03  0.35983056501E+03 -0.87605784510E+03  0.11717637803E+04  0.77728824284E+02 0.  0.
         24    2    4    4    0    0 -0.17654043016E+03 -0.22948635182E+02  0.43201429109E+02  0.19928433442E+03  0.78452018001E+02 0.  0.
         11    1    3    3    0    0 -0.44008852183E+03 -0.27381195525E+03 -0.53747371793E+03  0.74667857298E+03  0.00000000000E+00 0.  1.
        -11    1    3    3    0    0 -0.68960723491E+02 -0.63069974580E+02 -0.49338705814E+02  0.10567739100E+03  0.00000000000E+00 0. -1.
          2    1    6    6  502    0 -0.11147588690E+03  0.34818913984E+01 -0.88334974486E+01  0.11187952272E+03  0.00000000000E+00 0. -1.
          3    1    5    5  503    0  0.55281755539E+03  0.25445395986E+03 -0.69283882841E+03  0.92216034906E+03  0.00000000000E+00 0. -1.
         -4    1    5    5    0  503  0.13277212009E+03  0.10537660516E+03 -0.18321901669E+03  0.24960343119E+03  0.00000000000E+00 0.  1.
         -1    1    6    6    0  502 -0.65064543265E+02 -0.26430526580E+02  0.52034926558E+02  0.87404811695E+02  0.00000000000E+00 0.  1.
<mgrwt>
<rscale>  0 0.17111593E+04</rscale>
<asrwt>0</asrwt>
<pdfrwt beam="1">  1        2 0.61825788E-01 0.17111593E+04</pdfrwt>
<pdfrwt beam="2">  1       -2 0.28023638E+00 0.17111593E+04</pdfrwt>
<totfact> 0.31604486E+00</totfact>
</mgrwt>
</event>
<event>
12    1  0.2214165E-007  0.3420095E+04  0.7818608E-02  0.8132992E-01
          1   -1    0    0  501    0  0.00000000000E+00  0.00000000000E+00  0.28008936795E+04  0.28008936795E+04  0.00000000000E+00 0. -1.
         -1   -1    0    0    0  501 -0.00000000000E+00 -0.00000000000E+00 -0.10440460276E+04  0.10440460276E+04  0.00000000000E+00 0.  1.
         23    2    1    2    0    0 -0.91987201262E+03 -0.20780831194E+03 -0.62230936286E+03  0.11335917611E+04  0.91719810900E+02 0.  0.
        254    2    1    2    0    0  0.91987201262E+03  0.20780831194E+03  0.23791570148E+04  0.27113479460E+04  0.89536069231E+03 0.  0.
        -24    2    4    4    0    0  0.89205762885E+03  0.72531236492E+01  0.11223035139E+04  0.14359467160E+04  0.80983780906E+02 0.  0.
         24    2    4    4    0    0  0.27814383775E+02  0.20055518829E+03  0.12568535009E+04  0.12754012301E+04  0.77275814486E+02 0.  0.
         13    1    3    3    0    0 -0.57355223220E+03 -0.94197721031E+02 -0.34832244369E+03  0.67761633576E+03  0.00000000000E+00 0. -1.
        -13    1    3    3    0    0 -0.34631978042E+03 -0.11361059090E+03 -0.27398691917E+03  0.45597542538E+03  0.00000000000E+00 0.  1.
          4    1    6    6  502    0 -0.79454259129E+01  0.16694300150E+03  0.10066537475E+04  0.10204336641E+04  0.00000000000E+00 0. -1.
          3    1    5    5  503    0  0.80793003410E+03 -0.12880009213E+02  0.99034857735E+03  0.12781655367E+04  0.00000000000E+00 0. -1.
         -4    1    5    5    0  503  0.84127594744E+02  0.20133132862E+02  0.13195493655E+03  0.15778117922E+03  0.00000000000E+00 0.  1.
         -3    1    6    6    0  502  0.35759809688E+02  0.33612186789E+02  0.25019975340E+03  0.25496756595E+03  0.00000000000E+00 0.  1.
<mgrwt>
<rscale>  0 0.34200947E+04</rscale>
<asrwt>0</asrwt>
<pdfrwt beam="1">  1        1 0.43090672E+00 0.34200947E+04</pdfrwt>
<pdfrwt beam="2">  1       -1 0.16062247E+00 0.34200947E+04</pdfrwt>
<totfact> 0.19747506E-01</totfact>
</mgrwt>
</event>
<event>
12    1  0.2214165E-007  0.2666250E+04  0.7818608E-02  0.8346039E-01
          1   -1    0    0  501    0  0.00000000000E+00  0.00000000000E+00  0.10288719342E+04  0.10288719342E+04  0.00000000000E+00 0. -1.
         -1   -1    0    0    0  501 -0.00000000000E+00 -0.00000000000E+00 -0.17273503892E+04  0.17273503892E+04  0.00000000000E+00 0.  1.
         23    2    1    2    0    0  0.84176281271E+03  0.62189197324E+03  0.25223995392E+03  0.10799318609E+04  0.85519416821E+02 0.  0.
        254    2    1    2    0    0 -0.84176281271E+03 -0.62189197324E+03 -0.95071840899E+03  0.16762904625E+04  0.90042765512E+03 0.  0.
        -24    2    4    4    0    0 -0.92437392393E+03 -0.63854497934E+03 -0.54019615329E+03  0.12490271479E+04  0.77782325842E+02 0.  0.
         24    2    4    4    0    0  0.82611111215E+02  0.16653006105E+02 -0.41052225570E+03  0.42726331459E+03  0.83207567318E+02 0.  0.
         11    1    3    3    0    0  0.53352804797E+03  0.44160480185E+03  0.18038867349E+03  0.71568642052E+03  0.00000000000E+00 0.  1.
        -11    1    3    3    0    0  0.30823476474E+03  0.18028717139E+03  0.71851280435E+02  0.36424544041E+03  0.00000000000E+00 0. -1.
          4    1    6    6  502    0  0.34227430542E+02  0.12062184752E+02 -0.33811757286E+03  0.34005956298E+03  0.00000000000E+00 0. -1.
          3    1    5    5  503    0 -0.14882188326E+03 -0.10590145795E+03 -0.56918202619E+02  0.19131846101E+03  0.00000000000E+00 0. -1.
         -4    1    5    5    0  503 -0.77555204066E+03 -0.53264352139E+03 -0.48327795068E+03  0.10577086869E+04  0.00000000000E+00 0.  1.
         -3    1    6    6    0  502  0.48383680672E+02  0.45908213523E+01 -0.72404682844E+02  0.87203751604E+02  0.00000000000E+00 0.  1.
<mgrwt>
<rscale>  0 0.26662501E+04</rscale>
<asrwt>0</asrwt>
<pdfrwt beam="1">  1        1 0.15828799E+00 0.26662501E+04</pdfrwt>
<pdfrwt beam="2">  1       -1 0.26574621E+00 0.26662501E+04</pdfrwt>
<totfact> 0.69273475E-01</totfact>
</mgrwt>
</event>
<event>
12    1  0.2214165E-007  0.3158069E+04  0.7818608E-02  0.8199980E-01
          2   -1    0    0  501    0  0.00000000000E+00  0.00000000000E+00  0.39648387225E+04  0.39648387225E+04  0.00000000000E+00 0. -1.
         -2   -1    0    0    0  501 -0.00000000000E+00 -0.00000000000E+00 -0.62886540988E+03  0.62886540988E+03  0.00000000000E+00 0.  1.
         23    2    1    2    0    0 -0.10668518232E+04 -0.73384987572E+03  0.58781936297E+03  0.14250548164E+04  0.92418469812E+02 0.  0.
        254    2    1    2    0    0  0.10668518232E+04  0.73384987572E+03  0.27481539496E+04  0.31686493159E+04  0.90071077691E+03 0.  0.
        -24    2    4    4    0    0 -0.43081094519E+02 -0.91659796356E+02  0.59063281936E+03  0.60451161216E+03  0.79559178970E+02 0.  0.
         24    2    4    4    0    0  0.11099329177E+04  0.82550967208E+03  0.21575211303E+04  0.25641377038E+04  0.80544619534E+02 0.  0.
         13    1    3    3    0    0 -0.68809451018E+03 -0.49240288537E+03  0.33847974753E+03  0.91131948073E+03  0.00000000000E+00 0. -1.
        -13    1    3    3    0    0 -0.37875731303E+03 -0.24144699035E+03  0.24933961544E+03  0.51373533571E+03  0.00000000000E+00 0.  1.
          2    1    6    6  502    0  0.62548217347E+02  0.49681119819E+02  0.16240409726E+03  0.18098503796E+03  0.00000000000E+00 0. -1.
          3    1    5    5  503    0  0.11932265237E+02  0.70132232669E+01  0.10518445547E+03  0.10609115857E+03  0.00000000000E+00 0. -1.
         -4    1    5    5    0  503 -0.55013359756E+02 -0.98673019623E+02  0.48544836389E+03  0.49842045359E+03  0.00000000000E+00 0.  1.
         -1    1    6    6    0  502  0.10473847004E+04  0.77582855226E+03  0.19951170330E+04  0.23831526658E+04  0.00000000000E+00 0.  1.
<mgrwt>
<rscale>  0 0.31580690E+04</rscale>
<asrwt>0</asrwt>
<pdfrwt beam="1">  1        2 0.60997517E+00 0.31580690E+04</pdfrwt>
<pdfrwt beam="2">  1       -2 0.96748527E-01 0.31580690E+04</pdfrwt>
<totfact> 0.27515395E-01</totfact>
</mgrwt>
</event>
<event>
12    1  0.2214165E-007  0.1671694E+04  0.7818608E-02  0.8777675E-01
          2   -1    0    0  501    0  0.00000000000E+00  0.00000000000E+00  0.43703971033E+04  0.43703971033E+04  0.00000000000E+00 0. -1.
         -2   -1    0    0    0  501 -0.00000000000E+00 -0.00000000000E+00 -0.15985741859E+03  0.15985741859E+03  0.00000000000E+00 0.  1.
         23    2    1    2    0    0  0.50909503860E+03 -0.22428786535E+03  0.20437842660E+04  0.21201835470E+04  0.92958820393E+02 0.  0.
        254    2    1    2    0    0 -0.50909503860E+03  0.22428786535E+03  0.21667554187E+04  0.24100709748E+04  0.89673310100E+03 0.  0.
        -24    2    4    4    0    0  0.24859452563E+03  0.22032591534E+02  0.65015410601E+03  0.70096692218E+03  0.79809718497E+02 0.  0.
         24    2    4    4    0    0 -0.75768956423E+03  0.20225527382E+03  0.15166013127E+04  0.17091040527E+04  0.77178038514E+02 0.  0.
         13    1    3    3    0    0  0.46825820491E+02 -0.16134828878E+02  0.10319371394E+03  0.11446367443E+03  0.00000000000E+00 0.  1.
        -13    1    3    3    0    0  0.46226921811E+03 -0.20815303647E+03  0.19405905521E+04  0.20057198726E+04  0.00000000000E+00 0. -1.
          2    1    6    6  502    0 -0.66133315946E+03  0.18222297038E+03  0.13755857937E+04  0.15371411889E+04  0.00000000000E+00 0. -1.
          1    1    5    5  503    0  0.24572608606E+03  0.34652428319E+02  0.62880690297E+03  0.67600312232E+03  0.00000000000E+00 0. -1.
         -2    1    5    5    0  503  0.28684395732E+01 -0.12619836785E+02  0.21347203034E+02  0.24963799860E+02  0.00000000000E+00 0.  1.
         -1    1    6    6    0  502 -0.96356404767E+02  0.20032303439E+02  0.14101551898E+03  0.17196286377E+03  0.00000000000E+00 0.  1.
<mgrwt>
<rscale>  0 0.16716942E+04</rscale>
<asrwt>0</asrwt>
<pdfrwt beam="1">  1        2 0.67236869E+00 0.16716942E+04</pdfrwt>
<pdfrwt beam="2">  1       -2 0.24593452E-01 0.16716942E+04</pdfrwt>
<totfact> 0.23632069E+00</totfact>
</mgrwt>
</event>
<event>
12    1  0.2214165E-007  0.2180120E+04  0.7818608E-02  0.8526748E-01
         -2   -1    0    0    0  501 -0.00000000000E+00  0.00000000000E+00  0.34467798843E+03  0.34467798843E+03  0.00000000000E+00 0. -1.
          2   -1    0    0  501    0  0.00000000000E+00 -0.00000000000E+00 -0.34473655171E+04  0.34473655171E+04  0.00000000000E+00 0.  1.
         23    2    1    2    0    0  0.71267014299E+03  0.54473119898E+03 -0.11545681289E+04  0.14648608592E+04  0.90326965154E+02 0.  0.
        254    2    1    2    0    0 -0.71267014299E+03 -0.54473119898E+03 -0.19481193998E+04  0.23271826464E+04  0.90331559369E+03 0.  0.
        -24    2    4    4    0    0 -0.91143146289E+03 -0.34948792441E+03 -0.15528393283E+04  0.18358592863E+04  0.78868362645E+02 0.  0.
         24    2    4    4    0    0  0.19876131989E+03 -0.19524327457E+03 -0.39528007148E+03  0.49132336008E+03  0.86754312265E+02 0.  0.
         13    1    3    3    0    0  0.41500599452E+03  0.33030083637E+03 -0.75166754447E+03  0.91996343156E+03  0.00000000000E+00 0.  1.
        -13    1    3    3    0    0  0.29766414848E+03  0.21443036261E+03 -0.40290058441E+03  0.54489742761E+03  0.00000000000E+00 0. -1.
          2    1    6    6  502    0  0.17246399589E+03 -0.19727415601E+03 -0.33333374770E+03  0.42399564841E+03  0.00000000000E+00 0. -1.
          1    1    5    5  503    0 -0.79666388016E+03 -0.32843119937E+03 -0.13405705035E+04  0.15936341065E+04  0.00000000000E+00 0. -1.
         -2    1    5    5    0  503 -0.11476758273E+03 -0.21056725040E+02 -0.21226882480E+03  0.24222517973E+03  0.00000000000E+00 0.  1.
         -1    1    6    6    0  502  0.26297324000E+02  0.20308814447E+01 -0.61946323780E+02  0.67327711671E+02  0.00000000000E+00 0.  1.
<mgrwt>
<rscale>  0 0.21801202E+04</rscale>
<asrwt>0</asrwt>
<pdfrwt beam="1">  1        2 0.53036394E+00 0.21801202E+04</pdfrwt>
<pdfrwt beam="2">  1       -2 0.53027381E-01 0.21801202E+04</pdfrwt>
<totfact> 0.27251123E+00</totfact>
</mgrwt>
</event>
<event>
12    1  0.2214165E-007  0.1465434E+04  0.7818608E-02  0.8907770E-01
         -2   -1    0    0    0  501 -0.00000000000E+00  0.00000000000E+00  0.11456310931E+04  0.11456310931E+04  0.00000000000E+00 0.  1.
          2   -1    0    0  501    0  0.00000000000E+00 -0.00000000000E+00 -0.46862776170E+03  0.46862776170E+03  0.00000000000E+00 0. -1.
         23    2    1    2    0    0 -0.31575895105E+03 -0.27598077913E+03  0.38907648725E+03  0.57933350336E+03  0.91529719589E+02 0.  0.
        254    2    1    2    0    0  0.31575895105E+03  0.27598077913E+03  0.28792684411E+03  0.10349253514E+04  0.90127660005E+03 0.  0.
        -24    2    4    4    0    0  0.10388501694E+03 -0.14727887099E+03 -0.24704110955E+03  0.31611613338E+03  0.80105788733E+02 0.  0.
         24    2    4    4    0    0  0.21187393411E+03  0.42325965012E+03  0.53496795366E+03  0.71880921803E+03  0.80353500914E+02 0.  0.
         11    1    3    3    0    0 -0.11866555443E+03 -0.60679634928E+02  0.16030779285E+03  0.20847570687E+03  0.00000000000E+00 0. -1.
        -11    1    3    3    0    0 -0.19709339662E+03 -0.21530114420E+03  0.22876869439E+03  0.37085779649E+03  0.00000000000E+00 0.  1.
          2    1    6    6  502    0  0.10278209983E+03  0.29061972350E+03  0.33645861854E+03  0.45632048575E+03  0.00000000000E+00 0. -1.
          1    1    5    5  503    0  0.11429427798E+03 -0.13257690391E+03 -0.20020818437E+03  0.26593821561E+03  0.00000000000E+00 0. -1.
         -2    1    5    5    0  503 -0.10409261035E+02 -0.14701967073E+02 -0.46832925175E+02  0.50177917769E+02  0.00000000000E+00 0.  1.
         -1    1    6    6    0  502  0.10909183428E+03  0.13263992662E+03  0.19850933512E+03  0.26248873227E+03  0.00000000000E+00 0.  1.
<mgrwt>
<rscale>  0 0.14654345E+04</rscale>
<asrwt>0</asrwt>
<pdfrwt beam="1">  1        2 0.72096579E-01 0.14654345E+04</pdfrwt>
<pdfrwt beam="2">  1       -2 0.17625094E+00 0.14654345E+04</pdfrwt>
<totfact> 0.12367337E+01</totfact>
</mgrwt>
</event>
<event>
12    1  0.2214165E-007  0.1607305E+04  0.7818608E-02  0.8816073E-01
          2   -1    0    0  501    0  0.00000000000E+00  0.00000000000E+00  0.25661910261E+04  0.25661910261E+04  0.00000000000E+00 0. -1.
         -2   -1    0    0    0  501 -0.00000000000E+00 -0.00000000000E+00 -0.25167949070E+03  0.25167949070E+03  0.00000000000E+00 0.  1.
         23    2    1    2    0    0 -0.53372415761E+03 -0.11301071760E+03  0.70265432128E+03  0.89434167282E+03  0.92146805820E+02 0.  0.
        254    2    1    2    0    0  0.53372415761E+03  0.11301071760E+03  0.16118572141E+04  0.19235288439E+04  0.89679799072E+03 0.  0.
        -24    2    4    4    0    0 -0.18276224388E+03  0.21688742742E+03  0.68084412793E+03  0.74152154827E+03  0.76572097140E+02 0.  0.
         24    2    4    4    0    0  0.71648640150E+03 -0.10387670982E+03  0.93101308616E+03  0.11820072957E+04  0.78820974610E+02 0.  0.
         11    1    3    3    0    0 -0.49924249619E+03 -0.92969900392E+02  0.61167706772E+03  0.79500648271E+03  0.00000000000E+00 0.  1.
        -11    1    3    3    0    0 -0.34481661422E+02 -0.20040817204E+02  0.90977253563E+02  0.99335190111E+02  0.00000000000E+00 0. -1.
          2    1    6    6  502    0  0.25070547009E+03 -0.66191847389E+02  0.37102453470E+03  0.45265196205E+03  0.00000000000E+00 0. -1.
          1    1    5    5  503    0 -0.94827981589E+02  0.93645045160E+02  0.22864345344E+03  0.26464989963E+03  0.00000000000E+00 0. -1.
         -2    1    5    5    0  503 -0.87934262296E+02  0.12324238226E+03  0.45220067449E+03  0.47687164864E+03  0.00000000000E+00 0.  1.
         -1    1    6    6    0  502  0.46578093140E+03 -0.37684862435E+02  0.55998855146E+03  0.72935533362E+03  0.00000000000E+00 0.  1.
<mgrwt>
<rscale>  0 0.16073054E+04</rscale>
<asrwt>0</asrwt>
<pdfrwt beam="1">  1        2 0.39479860E+00 0.16073054E+04</pdfrwt>
<pdfrwt beam="2">  1       -2 0.38719923E-01 0.16073054E+04</pdfrwt>
<totfact> 0.19288766E+01</totfact>
</mgrwt>
</event>
<event>
12    1  0.2214165E-007  0.2070607E+04  0.7818608E-02  0.8574303E-01
         -1   -1    0    0    0  501 -0.00000000000E+00  0.00000000000E+00  0.45130653076E+03  0.45130653076E+03  0.00000000000E+00 0.  1.
          1   -1    0    0  501    0  0.00000000000E+00 -0.00000000000E+00 -0.23750000099E+04  0.23750000099E+04  0.00000000000E+00 0. -1.
         23    2    1    2    0    0 -0.56455322940E+03 -0.56780740730E+03 -0.11158796566E+04  0.13763985327E+04  0.90332232269E+02 0.  0.
        254    2    1    2    0    0  0.56455322940E+03  0.56780740730E+03 -0.80781382256E+03  0.14499080080E+04  0.89919100254E+03 0.  0.
        -24    2    4    4    0    0 -0.20756850462E+03  0.31867498987E+03 -0.26126161813E+03  0.46841328818E+03  0.80715191616E+02 0.  0.
         24    2    4    4    0    0  0.77212173402E+03  0.24913241743E+03 -0.54655220443E+03  0.98149471980E+03  0.79835075356E+02 0.  0.
         13    1    3    3    0    0 -0.32982560899E+03 -0.34112438734E+03 -0.73489829577E+03  0.87477213325E+03  0.00000000000E+00 0. -1.
        -13    1    3    3    0    0 -0.23472762042E+03 -0.22668301997E+03 -0.38098136081E+03  0.50162639944E+03  0.00000000000E+00 0.  1.
          2    1    6    6  502    0  0.50291912574E+03  0.20167677844E+03 -0.36754235890E+03  0.65474312183E+03  0.00000000000E+00 0. -1.
          3    1    5    5  503    0 -0.14446738190E+03  0.16123531317E+03 -0.17352829679E+03  0.27745219486E+03  0.00000000000E+00 0. -1.
         -4    1    5    5    0  503 -0.63101122713E+02  0.15743967670E+03 -0.87733321339E+02  0.19096109332E+03  0.00000000000E+00 0.  1.
         -1    1    6    6    0  502  0.26920260828E+03  0.47455638996E+02 -0.17900984553E+03  0.32675159797E+03  0.00000000000E+00 0.  1.
<mgrwt>
<rscale>  0 0.20706067E+04</rscale>
<asrwt>0</asrwt>
<pdfrwt beam="1">  1        1 0.36538461E+00 0.20706067E+04</pdfrwt>
<pdfrwt beam="2">  1       -1 0.69431775E-01 0.20706067E+04</pdfrwt>
<totfact> 0.31980803E+00</totfact>
</mgrwt>
</event>
<event>
12    1  0.2258579E-007  0.2130702E+04  0.7818608E-02  0.8547838E-01
         -2   -1    0    0    0  501 -0.00000000000E+00  0.00000000000E+00  0.81103325836E+03  0.81103325836E+03  0.00000000000E+00 0.  1.
          2   -1    0    0  501    0  0.00000000000E+00 -0.00000000000E+00 -0.13994152087E+04  0.13994152087E+04  0.00000000000E+00 0. -1.
         23    2    1    2    0    0  0.81105430582E+03  0.10213264126E+03 -0.55821841343E+03  0.99388305160E+03  0.89193944641E+02 0.  0.
        254    2    1    2    0    0 -0.81105430582E+03 -0.10213264126E+03 -0.30163536928E+02  0.12165654155E+04  0.90048953785E+03 0.  0.
        -24    2    4    4    0    0 -0.45136752335E+03 -0.44281682961E+02  0.42612477018E+03  0.62734245931E+03  0.79263692270E+02 0.  0.
         24    2    4    4    0    0 -0.35968678247E+03 -0.57850958298E+02 -0.45628830711E+03  0.58922295616E+03  0.79141379860E+02 0.  0.
         13    1    3    3    0    0  0.47622832945E+03  0.15702387362E+02 -0.31982351557E+03  0.57387025350E+03  0.00000000000E+00 0. -1.
        -13    1    3    3    0    0  0.33482597637E+03  0.86430253896E+02 -0.23839489786E+03  0.42001279810E+03  0.00000000000E+00 0.  1.
          2    1    6    6  502    0 -0.32678700476E+03 -0.73921957831E+02 -0.39636477566E+03  0.51899830222E+03  0.00000000000E+00 0. -1.
          1    1    5    5  503    0 -0.30136909705E+03  0.80151846388E+01  0.27351193040E+03  0.40705816773E+03  0.00000000000E+00 0. -1.
         -2    1    5    5    0  503 -0.14999842630E+03 -0.52296867600E+02  0.15261283978E+03  0.22028429159E+03  0.00000000000E+00 0.  1.
         -1    1    6    6    0  502 -0.32899777714E+02  0.16070999533E+02 -0.59923531453E+02  0.70224653944E+02  0.00000000000E+00 0.  1.
<mgrwt>
<rscale>  0 0.21307016E+04</rscale>
<asrwt>0</asrwt>
<pdfrwt beam="1">  1        2 0.21529465E+00 0.21307016E+04</pdfrwt>
<pdfrwt beam="2">  1       -2 0.12477435E+00 0.21307016E+04</pdfrwt>
<totfact> 0.64131931E+00</totfact>
</mgrwt>
</event>
<event>
12    1  0.2214165E-007  0.3677929E+04  0.7818608E-02  0.8072871E-01
         -2   -1    0    0    0  501 -0.00000000000E+00  0.00000000000E+00  0.14158725132E+04  0.14158725132E+04  0.00000000000E+00 0.  1.
          2   -1    0    0  501    0  0.00000000000E+00 -0.00000000000E+00 -0.23884851005E+04  0.23884851005E+04  0.00000000000E+00 0. -1.
         23    2    1    2    0    0  0.15293908607E+04 -0.80265616914E+03 -0.43617705801E+03  0.17838749536E+04  0.93091854633E+02 0.  0.
        254    2    1    2    0    0 -0.15293908607E+04  0.80265616914E+03 -0.53643552924E+03  0.20204826601E+04  0.90071847548E+03 0.  0.
        -24    2    4    4    0    0 -0.14066622135E+04  0.78246121857E+03 -0.16454179364E+03  0.16199104734E+04  0.78049974472E+02 0.  0.
         24    2    4    4    0    0 -0.12272864718E+03  0.20194950570E+02 -0.37189373560E+03  0.40057218668E+03  0.81749429903E+02 0.  0.
         13    1    3    3    0    0  0.50028213883E+03 -0.25708600154E+03 -0.18697716991E+03  0.59273593842E+03  0.00000000000E+00 0. -1.
        -13    1    3    3    0    0  0.10291087219E+04 -0.54557016760E+03 -0.24919988810E+03  0.11911390152E+04  0.00000000000E+00 0.  1.
          2    1    6    6  502    0 -0.11019355380E+03  0.45419308092E+02 -0.27619477325E+03  0.30081403826E+03  0.00000000000E+00 0. -1.
          1    1    5    5  503    0 -0.60396904134E+03  0.33737671413E+03 -0.31925494095E+02  0.69254666796E+03  0.00000000000E+00 0. -1.
         -2    1    5    5    0  503 -0.80269317220E+03  0.44508450444E+03 -0.13261629954E+03  0.92736380547E+03  0.00000000000E+00 0.  1.
         -1    1    6    6    0  502 -0.12535093375E+02 -0.25224357523E+02 -0.95698962360E+02  0.99758148415E+02  0.00000000000E+00 0.  1.
<mgrwt>
<rscale>  0 0.36779290E+04</rscale>
<asrwt>0</asrwt>
<pdfrwt beam="1">  1        2 0.36745925E+00 0.36779290E+04</pdfrwt>
<pdfrwt beam="2">  1       -2 0.21782654E+00 0.36779290E+04</pdfrwt>
<totfact> 0.33351353E-01</totfact>
</mgrwt>
</event>
<event>
12    1  0.2214165E-007  0.1838942E+04  0.7818608E-02  0.8685861E-01
          1   -1    0    0  501    0  0.00000000000E+00  0.00000000000E+00  0.78923073013E+03  0.78923073013E+03  0.00000000000E+00 0. -1.
         -1   -1    0    0    0  501 -0.00000000000E+00 -0.00000000000E+00 -0.10712031968E+04  0.10712031968E+04  0.00000000000E+00 0.  1.
         23    2    1    2    0    0  0.22129081080E+03 -0.10951105332E+03 -0.76512402565E+03  0.81196455328E+03  0.11361939717E+03 0.  0.
        254    2    1    2    0    0 -0.22129081080E+03  0.10951105332E+03  0.48315155897E+03  0.10484693737E+04  0.89715678943E+03 0.  0.
        -24    2    4    4    0    0 -0.45540953463E+03  0.27414610419E+03  0.51919379158E+03  0.74740739991E+03  0.80633104521E+02 0.  0.
         24    2    4    4    0    0  0.23411872382E+03 -0.16463505087E+03 -0.36042232610E+02  0.30106197376E+03  0.86156791316E+02 0.  0.
         11    1    3    3    0    0  0.18229246073E+03 -0.51005052799E+02 -0.65060263641E+03  0.67758087868E+03  0.00000000000E+00 0.  1.
        -11    1    3    3    0    0  0.38998350068E+02 -0.58506000526E+02 -0.11452138924E+03  0.13438367460E+03  0.00000000000E+00 0. -1.
          4    1    6    6  502    0  0.98650063102E+02 -0.92972783539E+02  0.21712546675E+02  0.13728513434E+03  0.00000000000E+00 0. -1.
          3    1    5    5  503    0 -0.24983474130E+03  0.14159639548E+03  0.22504734791E+03  0.36484688017E+03  0.00000000000E+00 0. -1.
         -4    1    5    5    0  503 -0.20557479333E+03  0.13254970871E+03  0.29414644367E+03  0.38256051973E+03  0.00000000000E+00 0.  1.
         -3    1    6    6    0  502  0.13546866072E+03 -0.71662267330E+02 -0.57754779285E+02  0.16377683941E+03  0.00000000000E+00 0.  1.
<mgrwt>
<rscale>  0 0.18389415E+04</rscale>
<asrwt>0</asrwt>
<pdfrwt beam="1">  1        1 0.12142011E+00 0.18389415E+04</pdfrwt>
<pdfrwt beam="2">  1       -1 0.16480049E+00 0.18389415E+04</pdfrwt>
<totfact> 0.57144133E+00</totfact>
</mgrwt>
</event>
<event>
12    1  0.2214165E-007  0.1763242E+04  0.7818608E-02  0.8726095E-01
         -2   -1    0    0    0  501 -0.00000000000E+00  0.00000000000E+00  0.49803763234E+03  0.49803763234E+03  0.00000000000E+00 0.  1.
          2   -1    0    0  501    0  0.00000000000E+00 -0.00000000000E+00 -0.15606356028E+04  0.15606356028E+04  0.00000000000E+00 0. -1.
         23    2    1    2    0    0 -0.29956391855E+03 -0.47469917530E+03 -0.77911824385E+03  0.96429181699E+03  0.88066009887E+02 0.  0.
        254    2    1    2    0    0  0.29956391855E+03  0.47469917530E+03 -0.28347972662E+03  0.10943814182E+04  0.89567409513E+03 0.  0.
        -24    2    4    4    0    0  0.97220174412E+02  0.64942368162E+03  0.45711240444E+02  0.66291531499E+03  0.78513163169E+02 0.  0.
         24    2    4    4    0    0  0.20234374414E+03 -0.17472450632E+03 -0.32919096706E+03  0.43146610317E+03  0.79527740345E+02 0.  0.
         11    1    3    3    0    0 -0.26457637782E+03 -0.35888047347E+03 -0.63883964124E+03  0.77904553215E+03  0.00000000000E+00 0.  1.
        -11    1    3    3    0    0 -0.34987540727E+02 -0.11581870183E+03 -0.14027860261E+03  0.18524628485E+03  0.00000000000E+00 0. -1.
          4    1    6    6  502    0  0.82926819173E+02 -0.10946532165E+03 -0.12266690818E+03  0.18413767769E+03  0.00000000000E+00 0. -1.
          1    1    5    5  503    0  0.10851469816E+03  0.60017973783E+03  0.51403346857E+02  0.61207308509E+03  0.00000000000E+00 0. -1.
         -2    1    5    5    0  503 -0.11294523749E+02  0.49243943784E+02 -0.56921064134E+01  0.50842229904E+02  0.00000000000E+00 0.  1.
         -3    1    6    6    0  502  0.11941692496E+03 -0.65259184674E+02 -0.20652405888E+03  0.24732842548E+03  0.00000000000E+00 0.  1.
<mgrwt>
<rscale>  0 0.17632416E+04</rscale>
<asrwt>0</asrwt>
<pdfrwt beam="1">  1        2 0.24009778E+00 0.17632416E+04</pdfrwt>
<pdfrwt beam="2">  1       -2 0.76621175E-01 0.17632416E+04</pdfrwt>
<totfact> 0.16914819E+01</totfact>
</mgrwt>
</event>
<event>
12    1  0.2214165E-007  0.1383908E+04  0.7818608E-02  0.8965550E-01
         -2   -1    0    0    0  501 -0.00000000000E+00  0.00000000000E+00  0.24567267944E+03  0.24567267944E+03  0.00000000000E+00 0.  1.
          2   -1    0    0  501    0  0.00000000000E+00 -0.00000000000E+00 -0.19489357475E+04  0.19489357475E+04  0.00000000000E+00 0. -1.
         23    2    1    2    0    0  0.20733665028E+03 -0.25677498785E+03 -0.84012493241E+03  0.90747717088E+03  0.93717835406E+02 0.  0.
        254    2    1    2    0    0 -0.20733665028E+03  0.25677498785E+03 -0.86313813563E+03  0.12871312560E+04  0.89597854225E+03 0.  0.
        -24    2    4    4    0    0  0.81179492764E+02  0.20792421836E+03 -0.94396587140E+03  0.97331463874E+03  0.80294638686E+02 0.  0.
         24    2    4    4    0    0 -0.28851614304E+03  0.48850769499E+02  0.80827735765E+02  0.31381661731E+03  0.79497068821E+02 0.  0.
         11    1    3    3    0    0  0.65996894637E+02 -0.25303294159E+02 -0.20599754419E+03  0.21778621400E+03  0.00000000000E+00 0. -1.
        -11    1    3    3    0    0  0.14133975564E+03 -0.23147169370E+03 -0.63412738822E+03  0.68969095688E+03  0.00000000000E+00 0.  1.
          2    1    6    6  502    0 -0.13554572676E+03  0.51285068723E+02  0.10116904613E+02  0.14527613044E+03  0.00000000000E+00 0. -1.
          1    1    5    5  503    0  0.83891383729E+02  0.17093516180E+03 -0.65938998439E+03  0.68633209550E+03  0.00000000000E+00 0. -1.
         -2    1    5    5    0  503 -0.27118909650E+01  0.36989056551E+02 -0.28457588701E+03  0.28698254324E+03  0.00000000000E+00 0.  1.
         -1    1    6    6    0  502 -0.15297041629E+03 -0.24342992246E+01  0.70710831152E+02  0.16854048687E+03  0.00000000000E+00 0.  1.
<mgrwt>
<rscale>  0 0.13839079E+04</rscale>
<asrwt>0</asrwt>
<pdfrwt beam="1">  1        2 0.29983627E+00 0.13839079E+04</pdfrwt>
<pdfrwt beam="2">  1       -2 0.37795796E-01 0.13839079E+04</pdfrwt>
<totfact> 0.45933161E+01</totfact>
</mgrwt>
</event>
<event>
12    1  0.2214165E-007  0.2431027E+04  0.7818608E-02  0.8427978E-01
          3   -1    0    0  501    0  0.00000000000E+00  0.00000000000E+00  0.13098401906E+04  0.13098401906E+04  0.00000000000E+00 0. -1.
         -3   -1    0    0    0  501 -0.00000000000E+00 -0.00000000000E+00 -0.11279800793E+04  0.11279800793E+04  0.00000000000E+00 0.  1.
         23    2    1    2    0    0 -0.87108277249E+03 -0.58440444251E+03  0.16601681727E+03  0.10662107369E+04  0.94498692427E+02 0.  0.
        254    2    1    2    0    0  0.87108277249E+03  0.58440444251E+03  0.15843293957E+02  0.13716095330E+04  0.88359942964E+03 0.  0.
        -24    2    4    4    0    0 -0.13410076343E+03  0.21956191963E+03 -0.11036377825E+03  0.29175011000E+03  0.82143239737E+02 0.  0.
         24    2    4    4    0    0  0.10051835359E+04  0.36484252289E+03  0.12620707220E+03  0.10798594230E+04  0.81634189858E+02 0.  0.
         13    1    3    3    0    0 -0.64368485912E+03 -0.42700345975E+03  0.79932944859E+02  0.77656385969E+03  0.00000000000E+00 0.  1.
        -13    1    3    3    0    0 -0.22739791337E+03 -0.15740098277E+03  0.86083872412E+02  0.28964687720E+03  0.00000000000E+00 0. -1.
          2    1    6    6  502    0  0.92597739572E+03  0.35842733395E+03  0.11999357001E+03  0.10001513625E+04  0.00000000000E+00 0. -1.
          3    1    5    5  503    0 -0.88325417221E+02  0.17520981436E+03 -0.11570624383E+03  0.22778892255E+03  0.00000000000E+00 0. -1.
         -2    1    5    5    0  503 -0.45775346205E+02  0.44352105271E+02  0.53424655802E+01  0.63961187455E+02  0.00000000000E+00 0.  1.
         -1    1    6    6    0  502  0.79206140193E+02  0.64151889404E+01  0.62135021879E+01  0.79708060463E+02  0.00000000000E+00 0.  1.
<mgrwt>
<rscale>  0 0.24310275E+04</rscale>
<asrwt>0</asrwt>
<pdfrwt beam="1">  1        3 0.20151388E+00 0.24310275E+04</pdfrwt>
<pdfrwt beam="2">  1       -3 0.17353540E+00 0.24310275E+04</pdfrwt>
<totfact> 0.73640621E-02</totfact>
</mgrwt>
</event>
<event>
12    1  0.2214165E-007  0.2754555E+04  0.7818608E-02  0.8317518E-01
          2   -1    0    0  501    0  0.00000000000E+00  0.00000000000E+00  0.29460397555E+04  0.29460397555E+04  0.00000000000E+00 0. -1.
         -2   -1    0    0    0  501 -0.00000000000E+00 -0.00000000000E+00 -0.64387921127E+03  0.64387921127E+03  0.00000000000E+00 0.  1.
         23    2    1    2    0    0  0.61084952129E+03 -0.72661952692E+03  0.12916705621E+02  0.95369899240E+03  0.90894731667E+02 0.  0.
        254    2    1    2    0    0 -0.61084952129E+03  0.72661952692E+03  0.22892438387E+04  0.26362199744E+04  0.89883553896E+03 0.  0.
        -24    2    4    4    0    0 -0.57166594142E+03  0.47385757287E+03  0.69624466159E+03  0.10208552338E+04  0.77754945785E+02 0.  0.
         24    2    4    4    0    0 -0.39183579874E+02  0.25276195405E+03  0.15929991771E+04  0.16153647406E+04  0.79579575311E+02 0.  0.
         11    1    3    3    0    0  0.33190169703E+03 -0.36147740575E+03  0.46714257297E+02  0.49295727320E+03  0.00000000000E+00 0. -1.
        -11    1    3    3    0    0  0.27894782426E+03 -0.36514212117E+03 -0.33797551676E+02  0.46074171920E+03  0.00000000000E+00 0.  1.
          4    1    6    6  502    0 -0.12508702792E+02  0.39835192979E+01  0.17248095169E+03  0.17297981029E+03  0.00000000000E+00 0. -1.
          1    1    5    5  503    0 -0.10288106291E+02  0.23221262981E+02  0.13761933838E+02  0.28887073379E+02  0.00000000000E+00 0. -1.
         -2    1    5    5    0  503 -0.56137783513E+03  0.45063630989E+03  0.68248272775E+03  0.99196816040E+03  0.00000000000E+00 0.  1.
         -3    1    6    6    0  502 -0.26674877082E+02  0.24877843475E+03  0.14205182254E+04  0.14423849303E+04  0.00000000000E+00 0.  1.
<mgrwt>
<rscale>  0 0.27545553E+04</rscale>
<asrwt>0</asrwt>
<pdfrwt beam="1">  1        2 0.45323688E+00 0.27545553E+04</pdfrwt>
<pdfrwt beam="2">  1       -2 0.99058342E-01 0.27545553E+04</pdfrwt>
<totfact> 0.13876564E+00</totfact>
</mgrwt>
</event>
<event>
12    1  0.2214165E-007  0.1975708E+04  0.7818608E-02  0.8618063E-01
          2   -1    0    0  501    0  0.00000000000E+00  0.00000000000E+00  0.71404313581E+03  0.71404313581E+03  0.00000000000E+00 0. -1.
         -2   -1    0    0    0  501 -0.00000000000E+00 -0.00000000000E+00 -0.13666624787E+04  0.13666624787E+04  0.00000000000E+00 0.  1.
         23    2    1    2    0    0 -0.22675301380E+03 -0.18004817761E+03 -0.10211229270E+04  0.10650612019E+04  0.88481953641E+02 0.  0.
        254    2    1    2    0    0  0.22675301380E+03  0.18004817761E+03  0.36850358417E+03  0.10156444126E+04  0.90105738207E+03 0.  0.
        -24    2    4    4    0    0  0.23455614533E+02  0.51618396555E+03  0.98381669595E+02  0.53223988600E+03  0.81266790214E+02 0.  0.
         24    2    4    4    0    0  0.20329739927E+03 -0.33613578794E+03  0.27012191457E+03  0.48340452660E+03  0.79981167300E+02 0.  0.
         11    1    3    3    0    0 -0.36348632219E+02 -0.79409741929E+02 -0.30442142979E+03  0.31670102161E+03  0.00000000000E+00 0. -1.
        -11    1    3    3    0    0 -0.19040438158E+03 -0.10063843569E+03 -0.71670149724E+03  0.74836018027E+03  0.00000000000E+00 0.  1.
          2    1    6    6  502    0 -0.54646177942E+01 -0.11281179632E+02  0.70118547722E+00  0.12554629528E+02  0.00000000000E+00 0. -1.
          3    1    5    5  503    0  0.70112755312E+01  0.44969671136E+02 -0.13834380852E+02  0.47569101318E+02  0.00000000000E+00 0. -1.
         -4    1    5    5    0  503  0.16444339002E+02  0.47121429442E+03  0.11221605045E+03  0.48467078468E+03  0.00000000000E+00 0.  1.
         -1    1    6    6    0  502  0.20876201706E+03 -0.32485460831E+03  0.26942072909E+03  0.47084989707E+03  0.00000000000E+00 0.  1.
<mgrwt>
<rscale>  0 0.19757084E+04</rscale>
<asrwt>0</asrwt>
<pdfrwt beam="1">  1        2 0.10985279E+00 0.19757084E+04</pdfrwt>
<pdfrwt beam="2">  1       -2 0.21025577E+00 0.19757084E+04</pdfrwt>
<totfact> 0.42398447E+00</totfact>
</mgrwt>
</event>
<event>
12    1  0.2214165E-007  0.1935144E+04  0.7818608E-02  0.8637558E-01
          2   -1    0    0  501    0  0.00000000000E+00  0.00000000000E+00  0.23142599046E+04  0.23142599046E+04  0.00000000000E+00 0. -1.
         -2   -1    0    0    0  501 -0.00000000000E+00 -0.00000000000E+00 -0.40453326566E+03  0.40453326566E+03  0.00000000000E+00 0.  1.
         23    2    1    2    0    0  0.16107064676E+03 -0.69734363344E+03  0.41187126386E+03  0.82991086841E+03  0.82959117425E+02 0.  0.
        254    2    1    2    0    0 -0.16107064676E+03  0.69734363344E+03  0.14978553751E+04  0.18888823019E+04  0.90115133537E+03 0.  0.
        -24    2    4    4    0    0  0.29614509957E+03  0.83228149084E+01  0.53914433066E+03  0.62028821149E+03  0.79433411000E+02 0.  0.
         24    2    4    4    0    0 -0.45721574634E+03  0.68902081853E+03  0.95871104446E+03  0.12685940904E+04  0.80051060837E+02 0.  0.
         11    1    3    3    0    0  0.15099656921E+03 -0.49126105777E+03  0.28447403046E+03  0.58742051786E+03  0.00000000000E+00 0. -1.
        -11    1    3    3    0    0  0.10074077556E+02 -0.20608257566E+03  0.12739723339E+03  0.24249035054E+03  0.00000000000E+00 0.  1.
          4    1    6    6  502    0 -0.25368555853E+02  0.62427337974E+02  0.53753863674E+02  0.86198689157E+02  0.00000000000E+00 0. -1.
          1    1    5    5  503    0  0.77013730367E+02 -0.67018003165E+01  0.21726463974E+03  0.23060778927E+03  0.00000000000E+00 0. -1.
         -2    1    5    5    0  503  0.21913136920E+03  0.15024615225E+02  0.32187969092E+03  0.38968042221E+03  0.00000000000E+00 0.  1.
         -1    1    6    6    0  502 -0.43184719048E+03  0.62659348056E+03  0.90495718079E+03  0.11823954012E+04  0.00000000000E+00 0.  1.
<mgrwt>
<rscale>  0 0.19351435E+04</rscale>
<asrwt>0</asrwt>
<pdfrwt beam="1">  1        2 0.35603998E+00 0.19351435E+04</pdfrwt>
<pdfrwt beam="2">  1       -2 0.62235888E-01 0.19351435E+04</pdfrwt>
<totfact> 0.99609532E+00</totfact>
</mgrwt>
</event>
<event>
12    1  0.2214165E-007  0.2018815E+04  0.7818608E-02  0.8597874E-01
         -1   -1    0    0    0  501 -0.00000000000E+00  0.00000000000E+00  0.60635919886E+03  0.60635919886E+03  0.00000000000E+00 0.  1.
          1   -1    0    0  501    0  0.00000000000E+00 -0.00000000000E+00 -0.16803635192E+04  0.16803635192E+04  0.00000000000E+00 0. -1.
         23    2    1    2    0    0 -0.22310091260E+03  0.77348667338E+03 -0.40444842459E+03  0.90579071333E+03  0.93928893847E+02 0.  0.
        254    2    1    2    0    0  0.22310091260E+03 -0.77348667338E+03 -0.66955589570E+03  0.13809320047E+04  0.90034018737E+03 0.  0.
        -24    2    4    4    0    0  0.46476728979E+03 -0.76725980898E+03 -0.33604860849E+03  0.96119676142E+03  0.79210471327E+02 0.  0.
         24    2    4    4    0    0 -0.24166637719E+03 -0.62268644054E+01 -0.33350728721E+03  0.41973524326E+03  0.80679316487E+02 0.  0.
         13    1    3    3    0    0 -0.15862269794E+03  0.45676100300E+03 -0.28462411562E+03  0.56107277724E+03  0.00000000000E+00 0.  1.
        -13    1    3    3    0    0 -0.64478214662E+02  0.31672567038E+03 -0.11982430897E+03  0.34471793609E+03  0.00000000000E+00 0. -1.
          2    1    6    6  502    0 -0.20365730426E+03  0.16646496426E+02 -0.23320621015E+03  0.31006215486E+03  0.00000000000E+00 0. -1.
          3    1    5    5  503    0  0.16651366471E+03 -0.30727907367E+03 -0.16819886858E+03  0.38786349279E+03  0.00000000000E+00 0. -1.
         -4    1    5    5    0  503  0.29825362508E+03 -0.45998073531E+03 -0.16784973991E+03  0.57333326863E+03  0.00000000000E+00 0.  1.
         -1    1    6    6    0  502 -0.38009072930E+02 -0.22873360832E+02 -0.10030107706E+03  0.10967308840E+03  0.00000000000E+00 0.  1.
<mgrwt>
<rscale>  0 0.20188154E+04</rscale>
<asrwt>0</asrwt>
<pdfrwt beam="1">  1        1 0.25851746E+00 0.20188154E+04</pdfrwt>
<pdfrwt beam="2">  1       -1 0.93286031E-01 0.20188154E+04</pdfrwt>
<totfact> 0.50772876E+00</totfact>
</mgrwt>
</event>
<event>
12    1  0.2214165E-007  0.1590362E+04  0.7818608E-02  0.8826491E-01
         -2   -1    0    0    0  501 -0.00000000000E+00  0.00000000000E+00  0.32184816098E+03  0.32184816098E+03  0.00000000000E+00 0.  1.
          2   -1    0    0  501    0  0.00000000000E+00 -0.00000000000E+00 -0.19646296488E+04  0.19646296488E+04  0.00000000000E+00 0. -1.
         23    2    1    2    0    0 -0.22230802076E+03  0.53818310298E+02  0.12783495782E+03  0.28597960105E+03  0.11456565437E+03 0.  0.
        254    2    1    2    0    0  0.22230802076E+03 -0.53818310298E+02 -0.17706164456E+04  0.20004982087E+04  0.90254818094E+03 0.  0.
        -24    2    4    4    0    0 -0.32783634417E+03 -0.10117885054E+02 -0.40705963382E+03  0.52740378309E+03  0.69843860023E+02 0.  0.
         24    2    4    4    0    0  0.55014436492E+03 -0.43700425244E+02 -0.13635568118E+04  0.14730944256E+04  0.78431233140E+02 0.  0.
         13    1    3    3    0    0  0.73686671130E+01  0.63009374097E+01 -0.10006187681E+02  0.13932797967E+02  0.00000000000E+00 0. -1.
        -13    1    3    3    0    0 -0.22967668787E+03  0.47517372888E+02  0.13784114550E+03  0.27204680309E+03  0.00000000000E+00 0.  1.
          4    1    6    6  502    0  0.44775130833E+03 -0.13176152228E+02 -0.11535424570E+04  0.12374631490E+04  0.00000000000E+00 0. -1.
          1    1    5    5  503    0 -0.27725516332E+03  0.89778888643E+01 -0.36734649671E+03  0.46031997211E+03  0.00000000000E+00 0. -1.
         -2    1    5    5    0  503 -0.50581180848E+02 -0.19095773918E+02 -0.39713137107E+02  0.67083810986E+02  0.00000000000E+00 0.  1.
         -1    1    6    6    0  502  0.10239305660E+03 -0.30524273016E+02 -0.21001435481E+03  0.23563127659E+03  0.00000000000E+00 0.  1.
<mgrwt>
<rscale>  0 0.15903615E+04</rscale>
<asrwt>0</asrwt>
<pdfrwt beam="1">  1        2 0.30225071E+00 0.15903615E+04</pdfrwt>
<pdfrwt beam="2">  1       -2 0.49515102E-01 0.15903615E+04</pdfrwt>
<totfact> 0.25901855E+01</totfact>
</mgrwt>
</event>
<event>
12    1  0.2214165E-007  0.1392078E+04  0.7818608E-02  0.8959573E-01
          2   -1    0    0  501    0  0.00000000000E+00  0.00000000000E+00  0.66837621884E+03  0.66837621884E+03  0.00000000000E+00 0.  1.
         -2   -1    0    0    0  501 -0.00000000000E+00 -0.00000000000E+00 -0.72484685045E+03  0.72484685045E+03  0.00000000000E+00 0. -1.
         23    2    1    2    0    0  0.30011520076E+03 -0.54288412052E+02 -0.25667585889E+03  0.40884463072E+03  0.90857416427E+02 0.  0.
        254    2    1    2    0    0 -0.30011520076E+03  0.54288412052E+02  0.20020522728E+03  0.98437843857E+03  0.91427698860E+03 0.  0.
        -24    2    4    4    0    0 -0.30397038061E+03 -0.31739631885E+03 -0.14573716765E+03  0.47027383984E+03  0.82339218439E+02 0.  0.
         24    2    4    4    0    0  0.38551798504E+01  0.37168473090E+03  0.34594239493E+03  0.51410459873E+03  0.80392762253E+02 0.  0.
         13    1    3    3    0    0  0.11224971906E+03 -0.59304442288E+02 -0.13302444149E+03  0.18388180534E+03  0.00000000000E+00 0.  1.
        -13    1    3    3    0    0  0.18786548171E+03  0.50160302360E+01 -0.12365141741E+03  0.22496282538E+03  0.00000000000E+00 0. -1.
          2    1    6    6  502    0  0.37374136343E+02  0.16060646797E+03  0.12693893487E+03  0.20809795003E+03  0.00000000000E+00 0. -1.
          3    1    5    5  503    0 -0.43522910246E+02 -0.14170963391E+02 -0.27640449843E+02  0.53470126119E+02  0.00000000000E+00 0. -1.
         -4    1    5    5    0  503 -0.26044747037E+03 -0.30322535546E+03 -0.11809671781E+03  0.41680371372E+03  0.00000000000E+00 0.  1.
         -1    1    6    6    0  502 -0.33518956492E+02  0.21107826294E+03  0.21900346006E+03  0.30600664870E+03  0.00000000000E+00 0.  1.
<mgrwt>
<rscale>  0 0.13920782E+04</rscale>
<asrwt>0</asrwt>
<pdfrwt beam="1">  1        2 0.10282711E+00 0.13920782E+04</pdfrwt>
<pdfrwt beam="2">  1       -2 0.11151490E+00 0.13920782E+04</pdfrwt>
<totfact> 0.26881091E+01</totfact>
</mgrwt>
</event>
<event>
12    1  0.2214165E-007  0.1813306E+04  0.7818608E-02  0.8699255E-01
          2   -1    0    0  501    0  0.00000000000E+00  0.00000000000E+00  0.14570727566E+04  0.14570727566E+04  0.00000000000E+00 0. -1.
         -2   -1    0    0    0  501 -0.00000000000E+00 -0.00000000000E+00 -0.56415834513E+03  0.56415834513E+03  0.00000000000E+00 0.  1.
         23    2    1    2    0    0 -0.46528158175E+03  0.49313752292E+03  0.40727044290E+03  0.79489378897E+03  0.79469209458E+02 0.  0.
        254    2    1    2    0    0  0.46528158175E+03 -0.49313752292E+03  0.48564396857E+03  0.12263373128E+04  0.89910042468E+03 0.  0.
        -24    2    4    4    0    0 -0.23589304054E+03 -0.92292965506E+02  0.28578314492E+03  0.39026144519E+03  0.80426809132E+02 0.  0.
         24    2    4    4    0    0  0.70117462228E+03 -0.40084455741E+03  0.19986082365E+03  0.83607586758E+03  0.82196699296E+02 0.  0.
         13    1    3    3    0    0 -0.32575596757E+03  0.39021666947E+03  0.28527371573E+03  0.58289543867E+03  0.00000000000E+00 0. -1.
        -13    1    3    3    0    0 -0.13952561418E+03  0.10292085345E+03  0.12199672717E+03  0.21199835029E+03  0.00000000000E+00 0.  1.
          2    1    6    6  502    0  0.62824858913E+01  0.38436931680E+01  0.41688384775E+01  0.84630266687E+01  0.00000000000E+00 0. -1.
          3    1    5    5  503    0 -0.26861221519E+02  0.15037566912E+02  0.32275179904E+02  0.44602027733E+02  0.00000000000E+00 0. -1.
         -4    1    5    5    0  503 -0.20903181902E+03 -0.10733053242E+03  0.25350796502E+03  0.34565941746E+03  0.00000000000E+00 0.  1.
         -1    1    6    6    0  502  0.69489213639E+03 -0.40468825058E+03  0.19569198517E+03  0.82761284091E+03  0.00000000000E+00 0.  1.
<mgrwt>
<rscale>  0 0.18133061E+04</rscale>
<asrwt>0</asrwt>
<pdfrwt beam="1">  1        2 0.22416504E+00 0.18133061E+04</pdfrwt>
<pdfrwt beam="2">  1       -2 0.86793592E-01 0.18133061E+04</pdfrwt>
<totfact> 0.14545094E+01</totfact>
</mgrwt>
</event>
<event>
12    1  0.2214165E-007  0.1444826E+04  0.7818608E-02  0.8921996E-01
          1   -1    0    0  501    0  0.00000000000E+00  0.00000000000E+00  0.13145841986E+04  0.13145841986E+04  0.00000000000E+00 0. -1.
         -1   -1    0    0    0  501 -0.00000000000E+00 -0.00000000000E+00 -0.39699260953E+03  0.39699260953E+03  0.00000000000E+00 0.  1.
         23    2    1    2    0    0 -0.23429729545E+03  0.15642471747E+03 -0.11416905154E+03  0.31514840786E+03  0.83186728238E+02 0.  0.
        254    2    1    2    0    0  0.23429729545E+03 -0.15642471747E+03  0.10317606406E+04  0.13964284002E+04  0.89784093394E+03 0.  0.
        -24    2    4    4    0    0  0.26198787749E+03  0.32953632531E+03  0.62093079784E+03  0.75415546100E+03  0.77224128309E+02 0.  0.
         24    2    4    4    0    0 -0.27690582037E+02 -0.48596104279E+03  0.41082984273E+03  0.64227293924E+03  0.82513425335E+02 0.  0.
         13    1    3    3    0    0 -0.23027196360E+03  0.15909606594E+03 -0.12249778128E+03  0.30551995325E+03  0.00000000000E+00 0.  1.
        -13    1    3    3    0    0 -0.40253318485E+01 -0.26713484633E+01  0.83287297364E+01  0.96284546073E+01  0.00000000000E+00 0. -1.
          2    1    6    6  502    0 -0.11008235503E+02 -0.47012403885E+03  0.38561224375E+03  0.60814027632E+03  0.00000000000E+00 0. -1.
          1    1    5    5  503    0  0.26003265233E+03  0.31373977659E+03  0.61371570233E+03  0.73667943570E+03  0.00000000000E+00 0. -1.
         -2    1    5    5    0  503  0.19552251533E+01  0.15796548725E+02  0.72150955096E+01  0.17476025298E+02  0.00000000000E+00 0.  1.
         -1    1    6    6    0  502 -0.16682346534E+02 -0.15837003938E+02  0.25217598980E+02  0.34132662918E+02  0.00000000000E+00 0.  1.
<mgrwt>
<rscale>  0 0.14448255E+04</rscale>
<asrwt>0</asrwt>
<pdfrwt beam="1">  1        1 0.20224372E+00 0.14448255E+04</pdfrwt>
<pdfrwt beam="2">  1       -1 0.61075787E-01 0.14448255E+04</pdfrwt>
<totfact> 0.23328018E+01</totfact>
</mgrwt>
</event>
<event>
12    1  0.2214165E-007  0.1825136E+04  0.7818608E-02  0.8693045E-01
          1   -1    0    0  501    0  0.00000000000E+00  0.00000000000E+00  0.15564577045E+04  0.15564577045E+04  0.00000000000E+00 0. -1.
         -1   -1    0    0    0  501 -0.00000000000E+00 -0.00000000000E+00 -0.53504870523E+03  0.53504870523E+03  0.00000000000E+00 0.  1.
         23    2    1    2    0    0  0.33926642393E+03 -0.47544535288E+03  0.80124859305E+03  0.99568985573E+03  0.90823955868E+02 0.  0.
        254    2    1    2    0    0 -0.33926642393E+03  0.47544535288E+03  0.22016040624E+03  0.10958165540E+04  0.90066271466E+03 0.  0.
        -24    2    4    4    0    0 -0.63319008660E+03  0.21873856057E+03  0.11554265544E+03  0.68450536354E+03  0.80132664001E+02 0.  0.
         24    2    4    4    0    0  0.29392366267E+03  0.25670679231E+03  0.10461775080E+03  0.41131119047E+03  0.77087774149E+02 0.  0.
         13    1    3    3    0    0  0.10353621155E+03 -0.98700719950E+02  0.15016694948E+03  0.20739260338E+03  0.00000000000E+00 0.  1.
        -13    1    3    3    0    0  0.23573021238E+03 -0.37674463293E+03  0.65108164357E+03  0.78829725235E+03  0.00000000000E+00 0. -1.
          4    1    6    6  502    0  0.29223435176E+03  0.23519597976E+03  0.10562372484E+03  0.38971070872E+03  0.00000000000E+00 0. -1.
          1    1    5    5  503    0 -0.55472391484E+03  0.19511068633E+03  0.12747476009E+03  0.60169478648E+03  0.00000000000E+00 0. -1.
         -2    1    5    5    0  503 -0.78466171766E+02  0.23627874248E+02 -0.11932104652E+02  0.82810577069E+02  0.00000000000E+00 0.  1.
         -3    1    6    6    0  502  0.16893109176E+01  0.21510812549E+02 -0.10059740416E+01  0.21600481747E+02  0.00000000000E+00 0.  1.
<mgrwt>
<rscale>  0 0.18251364E+04</rscale>
<asrwt>0</asrwt>
<pdfrwt beam="1">  1        1 0.23945503E+00 0.18251364E+04</pdfrwt>
<pdfrwt beam="2">  1       -1 0.82315186E-01 0.18251364E+04</pdfrwt>
<totfact> 0.82607307E+00</totfact>
</mgrwt>
</event>
<event>
12    1  0.2214165E-007  0.3593761E+04  0.7818608E-02  0.8091922E-01
         -2   -1    0    0    0  501 -0.00000000000E+00  0.00000000000E+00  0.29572402104E+04  0.29572402104E+04  0.00000000000E+00 0.  1.
          2   -1    0    0  501    0  0.00000000000E+00 -0.00000000000E+00 -0.10918219715E+04  0.10918219715E+04  0.00000000000E+00 0. -1.
         23    2    1    2    0    0  0.15277659658E+04 -0.12136115324E+03  0.16577007647E+04  0.22594107580E+04  0.90375728892E+02 0.  0.
        254    2    1    2    0    0 -0.15277659658E+04  0.12136115324E+03  0.20771747413E+03  0.17896514239E+04  0.90050446670E+03 0.  0.
        -24    2    4    4    0    0 -0.13867437655E+04  0.16421227870E+02  0.46785652950E+03  0.14658753400E+04  0.81073129063E+02 0.  0.
         24    2    4    4    0    0 -0.14102220023E+03  0.10493992537E+03 -0.26013905538E+03  0.32377608395E+03  0.79113687267E+02 0.  0.
         11    1    3    3    0    0  0.11274545092E+04 -0.90927145668E+02  0.12805704340E+04  0.17085906627E+04  0.00000000000E+00 0.  1.
        -11    1    3    3    0    0  0.40031145656E+03 -0.30434007571E+02  0.37713033071E+03  0.55082009532E+03  0.00000000000E+00 0. -1.
          4    1    6    6  502    0 -0.40682045946E+02  0.15341769142E+02 -0.12811526536E+03  0.13529198040E+03  0.00000000000E+00 0. -1.
          1    1    5    5  503    0 -0.39291850339E+03  0.39699349271E+02  0.14403686244E+03  0.42036603857E+03  0.00000000000E+00 0. -1.
         -2    1    5    5    0  503 -0.99382526213E+03 -0.23278121401E+02  0.32381966706E+03  0.10455093014E+04  0.00000000000E+00 0.  1.
         -3    1    6    6    0  502 -0.10034015428E+03  0.89598156227E+02 -0.13202379002E+03  0.18848410355E+03  0.00000000000E+00 0.  1.
<mgrwt>
<rscale>  0 0.35937612E+04</rscale>
<asrwt>0</asrwt>
<pdfrwt beam="1">  1        2 0.16797261E+00 0.35937612E+04</pdfrwt>
<pdfrwt beam="2">  1       -2 0.45496003E+00 0.35937612E+04</pdfrwt>
<totfact> 0.57797599E-02</totfact>
</mgrwt>
</event>
<event>
12    1  0.2214165E-007  0.1549799E+04  0.7818608E-02  0.8851996E-01
          2   -1    0    0  501    0  0.00000000000E+00  0.00000000000E+00  0.80860598160E+03  0.80860598160E+03  0.00000000000E+00 0. -1.
         -2   -1    0    0    0  501 -0.00000000000E+00 -0.00000000000E+00 -0.74259834137E+03  0.74259834137E+03  0.00000000000E+00 0.  1.
         23    2    1    2    0    0  0.21177851690E+02  0.20052088147E+03 -0.44611388665E+03  0.49701348759E+03  0.85718619210E+02 0.  0.
        254    2    1    2    0    0 -0.21177851690E+02 -0.20052088147E+03  0.51212152687E+03  0.10541908354E+04  0.89910663095E+03 0.  0.
        -24    2    4    4    0    0  0.42725953746E+03 -0.35546947448E+02  0.21759008925E+03  0.48727811799E+03  0.79247835997E+02 0.  0.
         24    2    4    4    0    0 -0.44843738915E+03 -0.16497393403E+03  0.29453143761E+03  0.56691271739E+03  0.79553569990E+02 0.  0.
         11    1    3    3    0    0  0.48492938797E+02  0.14147295451E+03 -0.35347979103E+03  0.38381522200E+03  0.00000000000E+00 0.  1.
        -11    1    3    3    0    0 -0.27315087107E+02  0.59047926967E+02 -0.92634095614E+02  0.11319826559E+03  0.00000000000E+00 0. -1.
          4    1    6    6  502    0 -0.12506233934E+03 -0.13501697443E+02  0.96853818442E+02  0.15875624933E+03  0.00000000000E+00 0. -1.
          3    1    5    5  503    0  0.20233828135E+01  0.12237106935E+01 -0.52697074077E+01  0.57759295386E+01  0.00000000000E+00 0. -1.
         -4    1    5    5    0  503  0.42523615465E+03 -0.36770658142E+02  0.22285979666E+03  0.48150218845E+03  0.00000000000E+00 0.  1.
         -3    1    6    6    0  502 -0.32337504981E+03 -0.15147223658E+03  0.19767761917E+03  0.40815646806E+03  0.00000000000E+00 0.  1.
<mgrwt>
<rscale>  0 0.15497993E+04</rscale>
<asrwt>0</asrwt>
<pdfrwt beam="1">  1        2 0.12440092E+00 0.15497993E+04</pdfrwt>
<pdfrwt beam="2">  1       -2 0.11424590E+00 0.15497993E+04</pdfrwt>
<totfact> 0.19586568E+01</totfact>
</mgrwt>
</event>
<event>
12    1  0.2214165E-007  0.1822650E+04  0.7818608E-02  0.8694347E-01
          1   -1    0    0  501    0  0.00000000000E+00  0.00000000000E+00  0.91961907485E+03  0.91961907485E+03  0.00000000000E+00 0. -1.
         -1   -1    0    0    0  501 -0.00000000000E+00 -0.00000000000E+00 -0.90310544262E+03  0.90310544262E+03  0.00000000000E+00 0.  1.
         23    2    1    2    0    0 -0.57456998144E+03  0.14387885587E+03 -0.33819802039E+03  0.68803512677E+03  0.90457978810E+02 0.  0.
        254    2    1    2    0    0  0.57456998144E+03 -0.14387885587E+03  0.35471165262E+03  0.11346893907E+04  0.90048201988E+03 0.  0.
        -24    2    4    4    0    0  0.34189981602E+03  0.53377367428E+02  0.62478971887E+03  0.71868698644E+03  0.80026021522E+02 0.  0.
         24    2    4    4    0    0  0.23267016543E+03 -0.19725622330E+03 -0.27007806625E+03  0.41600240427E+03  0.84085759677E+02 0.  0.
         13    1    3    3    0    0 -0.26513519846E+03  0.10379771311E+03 -0.13051393034E+03  0.31321641834E+03  0.00000000000E+00 0. -1.
        -13    1    3    3    0    0 -0.30943478299E+03  0.40081142767E+02 -0.20768409005E+03  0.37481870843E+03  0.00000000000E+00 0.  1.
          4    1    6    6  502    0  0.19379166729E+03 -0.17251923038E+03 -0.18305919392E+03  0.31753545257E+03  0.00000000000E+00 0. -1.
          3    1    5    5  503    0  0.52934504930E+02  0.39181498026E+02  0.11694395709E+03  0.13421304221E+03  0.00000000000E+00 0. -1.
         -4    1    5    5    0  503  0.28896531109E+03  0.14195869403E+02  0.50784576178E+03  0.58447394423E+03  0.00000000000E+00 0.  1.
         -3    1    6    6    0  502  0.38878498139E+02 -0.24736992925E+02 -0.87018872323E+02  0.98466951698E+02  0.00000000000E+00 0.  1.
<mgrwt>
<rscale>  0 0.18226497E+04</rscale>
<asrwt>0</asrwt>
<pdfrwt beam="1">  1        1 0.14147986E+00 0.18226497E+04</pdfrwt>
<pdfrwt beam="2">  1       -1 0.13893930E+00 0.18226497E+04</pdfrwt>
<totfact> 0.70629244E+00</totfact>
</mgrwt>
</event>
<event>
12    1  0.2214165E-007  0.6578226E+04  0.7818608E-02  0.7622570E-01
          1   -1    0    0  501    0  0.00000000000E+00  0.00000000000E+00  0.52106970751E+04  0.52106970751E+04  0.00000000000E+00 0. -1.
         -1   -1    0    0    0  501 -0.00000000000E+00 -0.00000000000E+00 -0.20761644064E+04  0.20761644064E+04  0.00000000000E+00 0.  1.
         23    2    1    2    0    0  0.28408033563E+04 -0.15147821525E+03  0.32257152293E+04  0.43020021904E+04  0.94205874515E+02 0.  0.
        254    2    1    2    0    0 -0.28408033563E+04  0.15147821525E+03 -0.91182560679E+02  0.29848592911E+04  0.89886671384E+03 0.  0.
        -24    2    4    4    0    0 -0.12381871760E+04  0.34801069994E+03 -0.37807801717E+03  0.13430135024E+04  0.80767260765E+02 0.  0.
         24    2    4    4    0    0 -0.16026161803E+04 -0.19653248469E+03  0.28689545649E+03  0.16418457887E+04  0.79655207027E+02 0.  0.
         13    1    3    3    0    0  0.26001255747E+04 -0.11232631358E+03  0.29468480863E+04  0.39315625200E+04  0.00000000000E+00 0.  1.
        -13    1    3    3    0    0  0.24067778161E+03 -0.39151901674E+02  0.27886714303E+03  0.37043967043E+03  0.00000000000E+00 0. -1.
          2    1    6    6  502    0 -0.42775244018E+03 -0.26266763430E+02  0.10022277490E+03  0.44012123051E+03  0.00000000000E+00 0. -1.
          1    1    5    5  503    0 -0.62106760929E+03  0.15928794148E+03 -0.14923227027E+03  0.65830683887E+03  0.00000000000E+00 0. -1.
         -2    1    5    5    0  503 -0.61711956671E+03  0.18872275845E+03 -0.22884574690E+03  0.68470666351E+03  0.00000000000E+00 0.  1.
         -1    1    6    6    0  502 -0.11748637401E+04 -0.17026572126E+03  0.18667268159E+03  0.12017245582E+04  0.00000000000E+00 0.  1.
<mgrwt>
<rscale>  0 0.65782258E+04</rscale>
<asrwt>0</asrwt>
<pdfrwt beam="1">  1        1 0.80164570E+00 0.65782258E+04</pdfrwt>
<pdfrwt beam="2">  1       -1 0.31940991E+00 0.65782258E+04</pdfrwt>
<totfact> 0.68755684E-05</totfact>
</mgrwt>
</event>
<event>
12    1  0.2214165E-007  0.2286032E+04  0.7818608E-02  0.8483449E-01
          1   -1    0    0  501    0  0.00000000000E+00  0.00000000000E+00  0.19151962948E+04  0.19151962948E+04  0.00000000000E+00 0. -1.
         -1   -1    0    0    0  501 -0.00000000000E+00 -0.00000000000E+00 -0.68216795253E+03  0.68216795253E+03  0.00000000000E+00 0.  1.
         23    2    1    2    0    0 -0.12550545654E+03  0.91697852553E+03  0.82777860108E+03  0.12451100673E+04  0.92089257126E+02 0.  0.
        254    2    1    2    0    0  0.12550545654E+03 -0.91697852553E+03  0.40524974116E+03  0.13522541801E+04  0.89875623996E+03 0.  0.
        -24    2    4    4    0    0  0.44352968717E+03 -0.24144468094E+03  0.28306105869E+02  0.51207539293E+03  0.80036585776E+02 0.  0.
         24    2    4    4    0    0 -0.31802423063E+03 -0.67553384459E+03  0.37694363530E+03  0.84017878713E+03  0.79551893113E+02 0.  0.
         11    1    3    3    0    0 -0.98541392726E+02  0.45866504330E+03  0.45769697592E+03  0.65541631792E+03  0.00000000000E+00 0. -1.
        -11    1    3    3    0    0 -0.26964063813E+02  0.45831348223E+03  0.37008162516E+03  0.58969374934E+03  0.00000000000E+00 0.  1.
          4    1    6    6  502    0 -0.26221449857E+03 -0.47384373792E+03  0.26757543421E+03  0.60405375937E+03  0.00000000000E+00 0. -1.
          3    1    5    5  503    0  0.18307031627E+03 -0.14200168809E+03 -0.14699688730E+01  0.23169242743E+03  0.00000000000E+00 0. -1.
         -4    1    5    5    0  503  0.26045937090E+03 -0.99442992842E+02  0.29776074742E+02  0.28038296550E+03  0.00000000000E+00 0.  1.
         -3    1    6    6    0  502 -0.55809732055E+02 -0.20169010668E+03  0.10936820109E+03  0.23612502776E+03  0.00000000000E+00 0.  1.
<mgrwt>
<rscale>  0 0.22860320E+04</rscale>
<asrwt>0</asrwt>
<pdfrwt beam="1">  1        1 0.29464558E+00 0.22860320E+04</pdfrwt>
<pdfrwt beam="2">  1       -1 0.10494892E+00 0.22860320E+04</pdfrwt>
<totfact> 0.26238960E+00</totfact>
</mgrwt>
</event>
<event>
12    1  0.2214165E-007  0.1524482E+04  0.7818608E-02  0.8868334E-01
         -2   -1    0    0    0  501 -0.00000000000E+00  0.00000000000E+00  0.26931408080E+03  0.26931408080E+03  0.00000000000E+00 0. -1.
          2   -1    0    0  501    0  0.00000000000E+00 -0.00000000000E+00 -0.21573740835E+04  0.21573740835E+04  0.00000000000E+00 0.  1.
         23    2    1    2    0    0  0.30093866258E+03  0.34575346100E+03 -0.89398109407E+03  0.10087902233E+04  0.91356355726E+02 0.  0.
        254    2    1    2    0    0 -0.30093866258E+03 -0.34575346100E+03 -0.99407890867E+03  0.14178979410E+04  0.90118375484E+03 0.  0.
        -24    2    4    4    0    0 -0.44688010453E+03 -0.57190675887E+03 -0.70678706529E+03  0.10161691053E+04  0.79199282191E+02 0.  0.
         24    2    4    4    0    0  0.14594144195E+03  0.22615329787E+03 -0.28729184338E+03  0.40172883566E+03  0.80032715277E+02 0.  0.
         13    1    3    3    0    0  0.20889385324E+03  0.29444572858E+03 -0.71847632675E+03  0.80407907639E+03  0.00000000000E+00 0. -1.
        -13    1    3    3    0    0  0.92044809336E+02  0.51307732422E+02 -0.17550476732E+03  0.20471114695E+03  0.00000000000E+00 0.  1.
          2    1    6    6  502    0  0.33908145920E+02  0.12003436152E+03 -0.10630345828E+03  0.16388543421E+03  0.00000000000E+00 0. -1.
          1    1    5    5  503    0 -0.30874116397E+03 -0.44369830266E+03 -0.54788683644E+03  0.76965529665E+03  0.00000000000E+00 0. -1.
         -2    1    5    5    0  503 -0.13813894056E+03 -0.12820845621E+03 -0.15890022886E+03  0.24651380869E+03  0.00000000000E+00 0.  1.
         -1    1    6    6    0  502  0.11203329603E+03  0.10611893635E+03 -0.18098838509E+03  0.23784340145E+03  0.00000000000E+00 0.  1.
<mgrwt>
<rscale>  0 0.15244818E+04</rscale>
<asrwt>0</asrwt>
<pdfrwt beam="1">  1        2 0.33190371E+00 0.15244818E+04</pdfrwt>
<pdfrwt beam="2">  1       -2 0.41432934E-01 0.15244818E+04</pdfrwt>
<totfact> 0.29066380E+01</totfact>
</mgrwt>
</event>
<event>
12    1  0.2214165E-007  0.2961512E+04  0.7818608E-02  0.8254807E-01
          1   -1    0    0  501    0  0.00000000000E+00  0.00000000000E+00  0.21978932352E+04  0.21978932352E+04  0.00000000000E+00 0. -1.
         -1   -1    0    0    0  501 -0.00000000000E+00 -0.00000000000E+00 -0.99760939906E+03  0.99760939906E+03  0.00000000000E+00 0.  1.
         23    2    1    2    0    0  0.84598289124E+03 -0.78588964903E+03 -0.19361926423E+03  0.11742780743E+04  0.90171966756E+02 0.  0.
        254    2    1    2    0    0 -0.84598289124E+03  0.78588964903E+03  0.13939031004E+04  0.20212245600E+04  0.89948500591E+03 0.  0.
        -24    2    4    4    0    0 -0.58912351609E+03  0.48638596583E+02  0.94399016812E+03  0.11165632012E+04  0.78509326880E+02 0.  0.
         24    2    4    4    0    0 -0.25685937514E+03  0.73725105245E+03  0.44991293227E+03  0.90466135881E+03  0.80465362507E+02 0.  0.
         11    1    3    3    0    0  0.46136342322E+03 -0.43738794819E+03 -0.15154343479E+03  0.65355171037E+03  0.00000000000E+00 0.  1.
        -11    1    3    3    0    0  0.38461946802E+03 -0.34850170084E+03 -0.42075829445E+02  0.52072636393E+03  0.00000000000E+00 0. -1.
          2    1    6    6  502    0 -0.19942479198E+03  0.53064073955E+03  0.28723607352E+03  0.63549540050E+03  0.00000000000E+00 0. -1.
          3    1    5    5  503    0 -0.52162242598E+03  0.18039528518E+02  0.83741693610E+03  0.98675351772E+03  0.00000000000E+00 0. -1.
         -4    1    5    5    0  503 -0.67501090114E+02  0.30599068065E+02  0.10657323202E+03  0.12980968344E+03  0.00000000000E+00 0.  1.
         -1    1    6    6    0  502 -0.57434583164E+02  0.20661031290E+03  0.16267685875E+03  0.26916595831E+03  0.00000000000E+00 0.  1.
<mgrwt>
<rscale>  0 0.29615124E+04</rscale>
<asrwt>0</asrwt>
<pdfrwt beam="1">  1        1 0.33813742E+00 0.29615124E+04</pdfrwt>
<pdfrwt beam="2">  1       -1 0.15347837E+00 0.29615124E+04</pdfrwt>
<totfact> 0.61178511E-01</totfact>
</mgrwt>
</event>
<event>
12    1  0.2214165E-007  0.2116124E+04  0.7818608E-02  0.8554174E-01
          2   -1    0    0  501    0  0.00000000000E+00  0.00000000000E+00  0.30766758078E+04  0.30766758078E+04  0.00000000000E+00 0.  1.
         -2   -1    0    0    0  501 -0.00000000000E+00 -0.00000000000E+00 -0.36386512841E+03  0.36386512841E+03  0.00000000000E+00 0. -1.
         23    2    1    2    0    0 -0.11067216121E+03  0.11303497657E+03 -0.26694591391E+03  0.32347344605E+03  0.91376781250E+02 0.  0.
        254    2    1    2    0    0  0.11067216121E+03 -0.11303497657E+03  0.29797565933E+04  0.31170674901E+04  0.90118541364E+03 0.  0.
        -24    2    4    4    0    0  0.14963270133E+03  0.18179806595E+01  0.29681109938E+04  0.29729901979E+04  0.81207112881E+02 0.  0.
         24    2    4    4    0    0 -0.38960540115E+02 -0.11485295723E+03  0.11645599496E+02  0.14407729223E+03  0.76899419223E+02 0.  0.
         11    1    3    3    0    0 -0.22320505987E+02  0.17099262417E+02 -0.13519307206E+03  0.13808604743E+03  0.00000000000E+00 0. -1.
        -11    1    3    3    0    0 -0.88351655226E+02  0.95935714153E+02 -0.13175284185E+03  0.18538739862E+03  0.00000000000E+00 0.  1.
          2    1    6    6  502    0 -0.12878136524E+02  0.48820869139E+01  0.16432603157E+02  0.21440886630E+02  0.00000000000E+00 0. -1.
          3    1    5    5  503    0  0.57685353917E+02 -0.28792412205E+02  0.75100010325E+03  0.75376240165E+03  0.00000000000E+00 0. -1.
         -2    1    5    5    0  503  0.91947347411E+02  0.30610392865E+02  0.22171108905E+04  0.22192277963E+04  0.00000000000E+00 0.  1.
         -1    1    6    6    0  502 -0.26082403591E+02 -0.11973504414E+03 -0.47870036615E+01  0.12263640560E+03  0.00000000000E+00 0.  1.
<mgrwt>
<rscale>  0 0.21161239E+04</rscale>
<asrwt>0</asrwt>
<pdfrwt beam="1">  1        2 0.47333472E+00 0.21161239E+04</pdfrwt>
<pdfrwt beam="2">  1       -2 0.55979252E-01 0.21161239E+04</pdfrwt>
<totfact> 0.43036601E+00</totfact>
</mgrwt>
</event>
<event>
12    1  0.2881938E-007  0.2898905E+04  0.7818608E-02  0.8273203E-01
          1   -1    0    0  501    0  0.00000000000E+00  0.00000000000E+00  0.19373590117E+04  0.19373590117E+04  0.00000000000E+00 0.  1.
         -1   -1    0    0    0  501 -0.00000000000E+00 -0.00000000000E+00 -0.10844211864E+04  0.10844211864E+04  0.00000000000E+00 0. -1.
         23    2    1    2    0    0 -0.10249451086E+04  0.36756417650E+03  0.11420539210E+04  0.15806681970E+04  0.92784110520E+02 0.  0.
        254    2    1    2    0    0  0.10249451086E+04 -0.36756417650E+03 -0.28911609569E+03  0.14411120011E+04  0.89866555711E+03 0.  0.
        -24    2    4    4    0    0  0.89379014842E+03 -0.63387225736E+03 -0.27425555942E+03  0.11323692264E+04  0.79931752016E+02 0.  0.
         24    2    4    4    0    0  0.13115496014E+03  0.26630808086E+03 -0.14860536269E+02  0.30874277470E+03  0.83544286974E+02 0.  0.
         11    1    3    3    0    0 -0.54876263437E+03  0.21210432308E+03  0.55299520234E+03  0.80742328834E+03  0.00000000000E+00 0. -1.
        -11    1    3    3    0    0 -0.47618247419E+03  0.15545985341E+03  0.58905871864E+03  0.77324490865E+03  0.00000000000E+00 0.  1.
          4    1    6    6  502    0  0.11849662030E+03  0.20687576208E+03 -0.42191345447E+02  0.24211389797E+03  0.00000000000E+00 0. -1.
          1    1    5    5  503    0  0.82586979342E+03 -0.58707346057E+03 -0.23114306377E+03  0.10392994177E+04  0.00000000000E+00 0. -1.
         -2    1    5    5    0  503  0.67920355005E+02 -0.46798796789E+02 -0.43112495645E+02  0.93069808669E+02  0.00000000000E+00 0.  1.
         -3    1    6    6    0  502  0.12658339837E+02  0.59432318780E+02  0.27330809178E+02  0.66628876723E+02  0.00000000000E+00 0.  1.
<mgrwt>
<rscale>  0 0.28989054E+04</rscale>
<asrwt>0</asrwt>
<pdfrwt beam="1">  1        1 0.29805523E+00 0.28989054E+04</pdfrwt>
<pdfrwt beam="2">  1       -1 0.16683403E+00 0.28989054E+04</pdfrwt>
<totfact> 0.73263223E-01</totfact>
</mgrwt>
</event>
<event>
12    1  0.2214165E-007  0.1729047E+04  0.7818608E-02  0.8744969E-01
          1   -1    0    0  501    0  0.00000000000E+00  0.00000000000E+00  0.11014959640E+04  0.11014959640E+04  0.00000000000E+00 0. -1.
         -1   -1    0    0    0  501 -0.00000000000E+00 -0.00000000000E+00 -0.67853222141E+03  0.67853222141E+03  0.00000000000E+00 0.  1.
         23    2    1    2    0    0  0.31506132089E+03 -0.49502212091E+03  0.37935702364E+03  0.70478438749E+03  0.92188640077E+02 0.  0.
        254    2    1    2    0    0 -0.31506132089E+03  0.49502212091E+03  0.43606718951E+02  0.10752437979E+04  0.89996507873E+03 0.  0.
        -24    2    4    4    0    0 -0.33400060128E+03 -0.11997018728E+03 -0.19227809343E+03  0.41139172307E+03  0.79517527068E+02 0.  0.
         24    2    4    4    0    0  0.18939280389E+02  0.61499230819E+03  0.23588481238E+03  0.66385207485E+03  0.80521407708E+02 0.  0.
         13    1    3    3    0    0  0.20104263616E+03 -0.34576691868E+03  0.30410785253E+03  0.50244849445E+03  0.00000000000E+00 0.  1.
        -13    1    3    3    0    0  0.11401868473E+03 -0.14925520223E+03  0.75249171113E+02  0.20233589304E+03  0.00000000000E+00 0. -1.
          2    1    6    6  502    0  0.49378037759E+02  0.38834691868E+03  0.13770777783E+03  0.41498789372E+03  0.00000000000E+00 0. -1.
          1    1    5    5  503    0 -0.12009866187E+03 -0.67545287674E+02 -0.10992386566E+03  0.17626488791E+03  0.00000000000E+00 0. -1.
         -2    1    5    5    0  503 -0.21390193940E+03 -0.52424899610E+02 -0.82354227769E+02  0.23512683516E+03  0.00000000000E+00 0.  1.
         -1    1    6    6    0  502 -0.30438757369E+02  0.22664538951E+03  0.98177034549E+02  0.24886418113E+03  0.00000000000E+00 0.  1.
<mgrwt>
<rscale>  0 0.17290466E+04</rscale>
<asrwt>0</asrwt>
<pdfrwt beam="1">  1        1 0.16946092E+00 0.17290466E+04</pdfrwt>
<pdfrwt beam="2">  1       -1 0.10438957E+00 0.17290466E+04</pdfrwt>
<totfact> 0.10361787E+01</totfact>
</mgrwt>
</event>
<event>
12    1  0.2214165E-007  0.2475801E+04  0.7818608E-02  0.8411658E-01
          2   -1    0    0  501    0  0.00000000000E+00  0.00000000000E+00  0.14478424874E+04  0.14478424874E+04  0.00000000000E+00 0. -1.
         -2   -1    0    0    0  501 -0.00000000000E+00 -0.00000000000E+00 -0.10584005716E+04  0.10584005716E+04  0.00000000000E+00 0.  1.
         23    2    1    2    0    0 -0.43926742935E+03  0.93785185545E+02 -0.81601519678E+03  0.93569149663E+03  0.88804504234E+02 0.  0.
        254    2    1    2    0    0  0.43926742935E+03 -0.93785185545E+02  0.12054571125E+04  0.15705515624E+04  0.90097382004E+03 0.  0.
        -24    2    4    4    0    0 -0.21064087923E+02 -0.20984583419E+03 -0.44604090438E+02  0.23093380832E+03  0.82836761244E+02 0.  0.
         24    2    4    4    0    0  0.46033151728E+03  0.11606064864E+03  0.12500612030E+04  0.13396177541E+04  0.80916845244E+02 0.  0.
         11    1    3    3    0    0 -0.14215049433E+03  0.72145961282E+02 -0.26294119134E+03  0.30748963051E+03  0.00000000000E+00 0. -1.
        -11    1    3    3    0    0 -0.29711693502E+03  0.21639224263E+02 -0.55307400544E+03  0.62820186612E+03  0.00000000000E+00 0.  1.
          2    1    6    6  502    0  0.16422991936E+03  0.34129910829E+01  0.45657563722E+03  0.48522616111E+03  0.00000000000E+00 0. -1.
          3    1    5    5  503    0 -0.70868734437E+01  0.12199540360E+00  0.11175767801E+02  0.13233912650E+02  0.00000000000E+00 0. -1.
         -4    1    5    5    0  503 -0.13977214480E+02 -0.20996782959E+03 -0.55779858239E+02  0.21769989567E+03  0.00000000000E+00 0.  1.
         -1    1    6    6    0  502  0.29610159792E+03  0.11264765756E+03  0.79348556575E+03  0.85439159295E+03  0.00000000000E+00 0.  1.
<mgrwt>
<rscale>  0 0.24758007E+04</rscale>
<asrwt>0</asrwt>
<pdfrwt beam="1">  1        2 0.22274500E+00 0.24758007E+04</pdfrwt>
<pdfrwt beam="2">  1       -2 0.16283086E+00 0.24758007E+04</pdfrwt>
<totfact> 0.29160312E+00</totfact>
</mgrwt>
</event>
<event>
12    1  0.2214165E-007  0.1356753E+04  0.7818608E-02  0.8985732E-01
         -1   -1    0    0    0  501 -0.00000000000E+00  0.00000000000E+00  0.10113156876E+04  0.10113156876E+04  0.00000000000E+00 0.  1.
          1   -1    0    0  501    0  0.00000000000E+00 -0.00000000000E+00 -0.45504570442E+03  0.45504570442E+03  0.00000000000E+00 0. -1.
         23    2    1    2    0    0 -0.28692952322E+03  0.61779454402E+02  0.40568069904E+03  0.50864157407E+03  0.89410116926E+02 0.  0.
        254    2    1    2    0    0  0.28692952322E+03 -0.61779454402E+02  0.15058928413E+03  0.95771981794E+03  0.89911337711E+03 0.  0.
        -24    2    4    4    0    0 -0.26609443522E+03 -0.87444344636E+02  0.25618985723E+03  0.38808369536E+03  0.80764780638E+02 0.  0.
         24    2    4    4    0    0  0.55302395845E+03  0.25664890234E+02 -0.10560057310E+03  0.56963612258E+03  0.82702151768E+02 0.  0.
         13    1    3    3    0    0 -0.21963960283E+03  0.55607536811E+02  0.36549237228E+03  0.43002142677E+03  0.00000000000E+00 0.  1.
        -13    1    3    3    0    0 -0.67289920396E+02  0.61719175913E+01  0.40188326758E+02  0.78620147299E+02  0.00000000000E+00 0. -1.
          2    1    6    6  502    0  0.25258391078E+03 -0.95427043344E+01 -0.84055670744E+02  0.26637389319E+03  0.00000000000E+00 0. -1.
          3    1    5    5  503    0 -0.24114549604E+03 -0.65607219223E+02  0.25157885141E+03  0.35460876463E+03  0.00000000000E+00 0. -1.
         -4    1    5    5    0  503 -0.24948939180E+02 -0.21837125413E+02  0.46110058154E+01  0.33474930727E+02  0.00000000000E+00 0.  1.
         -1    1    6    6    0  502  0.30044004767E+03  0.35207594568E+02 -0.21544902354E+02  0.30326222939E+03  0.00000000000E+00 0.  1.
<mgrwt>
<rscale>  0 0.13567533E+04</rscale>
<asrwt>0</asrwt>
<pdfrwt beam="1">  1        1 0.70007032E-01 0.13567533E+04</pdfrwt>
<pdfrwt beam="2">  1       -1 0.15558703E+00 0.13567533E+04</pdfrwt>
<totfact> 0.15583334E+01</totfact>
</mgrwt>
</event>
<event>
12    1  0.2214165E-007  0.1337227E+04  0.7818608E-02  0.9000554E-01
         -1   -1    0    0    0  501 -0.00000000000E+00  0.00000000000E+00  0.87485443573E+03  0.87485443573E+03  0.00000000000E+00 0.  1.
          1   -1    0    0  501    0  0.00000000000E+00 -0.00000000000E+00 -0.51099215615E+03  0.51099215615E+03  0.00000000000E+00 0. -1.
         23    2    1    2    0    0 -0.25171144507E+03  0.20732435728E+03 -0.75427203744E+02  0.34696305259E+03  0.91389584169E+02 0.  0.
        254    2    1    2    0    0  0.25171144507E+03 -0.20732435728E+03  0.43928948332E+03  0.10388835393E+04  0.88315441308E+03 0.  0.
        -24    2    4    4    0    0  0.37056397541E+03  0.82828251513E+02  0.56851037832E+03  0.68837013763E+03  0.80443874888E+02 0.  0.
         24    2    4    4    0    0 -0.11885253034E+03 -0.29015260880E+03 -0.12922089500E+03  0.35051340165E+03  0.88584110731E+02 0.  0.
         13    1    3    3    0    0 -0.13825676607E+03  0.97710368847E+02  0.60517094416E+01  0.16940741640E+03  0.00000000000E+00 0.  1.
        -13    1    3    3    0    0 -0.11345467900E+03  0.10961398844E+03 -0.81478913185E+02  0.17755563618E+03  0.00000000000E+00 0. -1.
          2    1    6    6  502    0 -0.89473590129E+02 -0.25459237631E+03 -0.13871257873E+03  0.30342046882E+03  0.00000000000E+00 0. -1.
          3    1    5    5  503    0  0.25830486437E+03  0.86883412078E+02  0.35992503346E+03  0.45146003141E+03  0.00000000000E+00 0. -1.
         -4    1    5    5    0  503  0.11225911103E+03 -0.40551605653E+01  0.20858534487E+03  0.23691010622E+03  0.00000000000E+00 0.  1.
         -1    1    6    6    0  502 -0.29378940208E+02 -0.35560232490E+02  0.94916837249E+01  0.47092932829E+02  0.00000000000E+00 0.  1.
<mgrwt>
<rscale>  0 0.13372266E+04</rscale>
<asrwt>0</asrwt>
<pdfrwt beam="1">  1        1 0.78614178E-01 0.13372266E+04</pdfrwt>
<pdfrwt beam="2">  1       -1 0.13459299E+00 0.13372266E+04</pdfrwt>
<totfact> 0.19565033E+01</totfact>
</mgrwt>
</event>
<event>
12    1  0.2214165E-007  0.1328342E+04  0.7818608E-02  0.9007387E-01
          1   -1    0    0  501    0  0.00000000000E+00  0.00000000000E+00  0.34863722145E+04  0.34863722145E+04  0.00000000000E+00 0. -1.
         -1   -1    0    0    0  501 -0.00000000000E+00 -0.00000000000E+00 -0.12652777530E+03  0.12652777530E+03  0.00000000000E+00 0.  1.
         23    2    1    2    0    0  0.33970187550E+03  0.52542575179E+02  0.72094597419E+03  0.80439726826E+03  0.95570816909E+02 0.  0.
        254    2    1    2    0    0 -0.33970187550E+03 -0.52542575179E+02  0.26388984650E+04  0.28085027215E+04  0.89763263190E+03 0.  0.
        -24    2    4    4    0    0  0.21289834789E+03 -0.20718582987E+03  0.45569209373E+03  0.54978829981E+03  0.79750960403E+02 0.  0.
         24    2    4    4    0    0 -0.55260022340E+03  0.15464325469E+03  0.21832063713E+04  0.22587144217E+04  0.78225547207E+02 0.  0.
         11    1    3    3    0    0  0.11742865861E+03  0.80323960206E+01  0.15413273315E+03  0.19393532086E+03  0.00000000000E+00 0.  1.
        -11    1    3    3    0    0  0.22227321689E+03  0.44510179158E+02  0.56681324104E+03  0.61046194739E+03  0.00000000000E+00 0. -1.
          4    1    6    6  502    0 -0.11924118633E+03  0.62088774084E+02  0.44106233954E+03  0.46109593768E+03  0.00000000000E+00 0. -1.
          3    1    5    5  503    0  0.21822399497E+03 -0.20820035420E+03  0.45131376789E+03  0.54281969065E+03  0.00000000000E+00 0. -1.
         -4    1    5    5    0  503 -0.53256470773E+01  0.10145243370E+01  0.43783258374E+01  0.69686091554E+01  0.00000000000E+00 0.  1.
         -3    1    6    6    0  502 -0.43335903706E+03  0.92554480604E+02  0.17421440317E+04  0.17976184840E+04  0.00000000000E+00 0.  1.
<mgrwt>
<rscale>  0 0.13283417E+04</rscale>
<asrwt>0</asrwt>
<pdfrwt beam="1">  1        1 0.53636488E+00 0.13283417E+04</pdfrwt>
<pdfrwt beam="2">  1       -1 0.19465814E-01 0.13283417E+04</pdfrwt>
<totfact> 0.54652539E+00</totfact>
</mgrwt>
</event>
<event>
12    1  0.2214165E-007  0.1203531E+04  0.7818608E-02  0.9109772E-01
         -2   -1    0    0    0  501 -0.00000000000E+00  0.00000000000E+00  0.18996261540E+03  0.18996261540E+03  0.00000000000E+00 0. -1.
          2   -1    0    0  501    0  0.00000000000E+00 -0.00000000000E+00 -0.19062779348E+04  0.19062779348E+04  0.00000000000E+00 0.  1.
         23    2    1    2    0    0  0.21408762527E+03  0.48807858964E+02 -0.16319306876E+03  0.28852682501E+03  0.91651692144E+02 0.  0.
        254    2    1    2    0    0 -0.21408762527E+03 -0.48807858964E+02 -0.15531222506E+04  0.18077137252E+04  0.89856800989E+03 0.  0.
        -24    2    4    4    0    0 -0.34380760737E+02  0.30367633365E+03 -0.12837285245E+04  0.13222104382E+04  0.82946765758E+02 0.  0.
         24    2    4    4    0    0 -0.17970686453E+03 -0.35248419262E+03 -0.26939372610E+03  0.48550328694E+03  0.81245299975E+02 0.  0.
         11    1    3    3    0    0  0.45499644593E+02 -0.92062110176E+01 -0.78370114463E+02  0.91087028825E+02  0.00000000000E+00 0.  1.
        -11    1    3    3    0    0  0.16858798067E+03  0.58014069982E+02 -0.84822954297E+02  0.19743979619E+03  0.00000000000E+00 0. -1.
          4    1    6    6  502    0 -0.18011161168E+03 -0.35643953089E+03 -0.26373342485E+03  0.47858609594E+03  0.00000000000E+00 0. -1.
          1    1    5    5  503    0 -0.13926145717E+02  0.26838188994E+03 -0.99660849339E+03  0.10322069877E+04  0.00000000000E+00 0. -1.
         -2    1    5    5    0  503 -0.20454615020E+02  0.35294443714E+02 -0.28712003115E+03  0.29000345053E+03  0.00000000000E+00 0.  1.
         -3    1    6    6    0  502  0.40474714736E+00  0.39553382766E+01 -0.56603012529E+01  0.69171910057E+01  0.00000000000E+00 0.  1.
<mgrwt>
<rscale>  0 0.12035307E+04</rscale>
<asrwt>0</asrwt>
<pdfrwt beam="1">  1        2 0.29327353E+00 0.12035307E+04</pdfrwt>
<pdfrwt beam="2">  1       -2 0.29225018E-01 0.12035307E+04</pdfrwt>
<totfact> 0.80073914E+01</totfact>
</mgrwt>
</event>
<event>
12    1  0.2214165E-007  0.3586818E+04  0.7818608E-02  0.8093518E-01
          2   -1    0    0  501    0  0.00000000000E+00  0.00000000000E+00  0.23564548530E+04  0.23564548530E+04  0.00000000000E+00 0. -1.
         -2   -1    0    0    0  501 -0.00000000000E+00 -0.00000000000E+00 -0.13648963638E+04  0.13648963638E+04  0.00000000000E+00 0.  1.
         23    2    1    2    0    0 -0.15164056145E+04  0.61988455455E+03  0.84059327848E+02  0.16429452851E+04  0.91980381124E+02 0.  0.
        254    2    1    2    0    0  0.15164056145E+04 -0.61988455455E+03  0.90749916138E+03  0.20784059318E+04  0.90137319730E+03 0.  0.
        -24    2    4    4    0    0  0.40598779607E+03 -0.55925860786E+03  0.60789943488E+03  0.92392914973E+03  0.80666410424E+02 0.  0.
         24    2    4    4    0    0  0.11104178184E+04 -0.60625946692E+02  0.29959972650E+03  0.11544767821E+04  0.79708264004E+02 0.  0.
         13    1    3    3    0    0 -0.10488428155E+04  0.44936675056E+03  0.20682999354E+02  0.11412403405E+04  0.00000000000E+00 0.  1.
        -13    1    3    3    0    0 -0.46756279893E+03  0.17051780400E+03  0.63376328494E+02  0.50170494460E+03  0.00000000000E+00 0. -1.
          2    1    6    6  502    0  0.26563571335E+03  0.18909654692E+02  0.65033857792E+02  0.27413374456E+03  0.00000000000E+00 0. -1.
          3    1    5    5  503    0  0.23150770977E+03 -0.25053627973E+03  0.29329572379E+03  0.44987401429E+03  0.00000000000E+00 0. -1.
         -4    1    5    5    0  503  0.17448008630E+03 -0.30872232814E+03  0.31460371109E+03  0.47405513544E+03  0.00000000000E+00 0.  1.
         -1    1    6    6    0  502  0.84478210506E+03 -0.79535601385E+02  0.23456586871E+03  0.88034303750E+03  0.00000000000E+00 0.  1.
<mgrwt>
<rscale>  0 0.35868185E+04</rscale>
<asrwt>0</asrwt>
<pdfrwt beam="1">  1        2 0.36253152E+00 0.35868185E+04</pdfrwt>
<pdfrwt beam="2">  1       -2 0.20998406E+00 0.35868185E+04</pdfrwt>
<totfact> 0.39344884E-01</totfact>
</mgrwt>
</event>
<event>
12    1  0.2214165E-007  0.2659565E+04  0.7818608E-02  0.8348245E-01
         -2   -1    0    0    0  501 -0.00000000000E+00  0.00000000000E+00  0.82602155880E+03  0.82602155880E+03  0.00000000000E+00 0.  1.
          2   -1    0    0  501    0  0.00000000000E+00 -0.00000000000E+00 -0.21407688434E+04  0.21407688434E+04  0.00000000000E+00 0. -1.
         23    2    1    2    0    0  0.45215064982E+03 -0.88598650709E+03  0.11567243717E+03  0.10062118403E+04  0.98335415773E+02 0.  0.
        254    2    1    2    0    0 -0.45215064982E+03  0.88598650709E+03 -0.14304197218E+04  0.19605785619E+04  0.89908587800E+03 0.  0.
        -24    2    4    4    0    0 -0.24517714682E+03 -0.17710178764E+02 -0.51569333835E+01  0.25859612497E+03  0.80124142016E+02 0.  0.
         24    2    4    4    0    0 -0.20697350299E+03  0.90369668586E+03 -0.14252627884E+04  0.17019824369E+04  0.76579818666E+02 0.  0.
         13    1    3    3    0    0  0.10934957636E+03 -0.30930966964E+03  0.21646739041E+02  0.32878318524E+03  0.00000000000E+00 0. -1.
        -13    1    3    3    0    0  0.34280107346E+03 -0.57667683745E+03  0.94025698128E+02  0.67742865508E+03  0.00000000000E+00 0.  1.
          4    1    6    6  502    0 -0.12454931267E+03  0.65263705034E+03 -0.10636141956E+04  0.12540824566E+04  0.00000000000E+00 0. -1.
          1    1    5    5  503    0 -0.23189146909E+03 -0.33661753449E+02 -0.16568135879E+02  0.23490693946E+03  0.00000000000E+00 0. -1.
         -2    1    5    5    0  503 -0.13285677733E+02  0.15951574685E+02  0.11411202495E+02  0.23689185510E+02  0.00000000000E+00 0.  1.
         -3    1    6    6    0  502 -0.82424190326E+02  0.25105963552E+03 -0.36164859277E+03  0.44789998034E+03  0.00000000000E+00 0.  1.
<mgrwt>
<rscale>  0 0.26595648E+04</rscale>
<asrwt>0</asrwt>
<pdfrwt beam="1">  1        2 0.32934905E+00 0.26595648E+04</pdfrwt>
<pdfrwt beam="2">  1       -2 0.12708024E+00 0.26595648E+04</pdfrwt>
<totfact> 0.22570815E+00</totfact>
</mgrwt>
</event>
<event>
12    1  0.2214165E-007  0.1267035E+04  0.7818608E-02  0.9056123E-01
          2   -1    0    0  501    0  0.00000000000E+00  0.00000000000E+00  0.93830211632E+03  0.93830211632E+03  0.00000000000E+00 0. -1.
         -2   -1    0    0    0  501 -0.00000000000E+00 -0.00000000000E+00 -0.42773459797E+03  0.42773459797E+03  0.00000000000E+00 0.  1.
         23    2    1    2    0    0  0.12003064079E+03 -0.27946387585E+03  0.13082042011E+03  0.34308844388E+03  0.89934895195E+02 0.  0.
        254    2    1    2    0    0 -0.12003064079E+03  0.27946387585E+03  0.37974709824E+03  0.10229482704E+04  0.89983770353E+03 0.  0.
        -24    2    4    4    0    0  0.27883546577E+02  0.39350842436E+03 -0.17003452911E+03  0.43689216420E+03  0.79603076796E+02 0.  0.
         24    2    4    4    0    0 -0.14791418737E+03 -0.11404454851E+03  0.54978162735E+03  0.58605610622E+03  0.79480538480E+02 0.  0.
         13    1    3    3    0    0  0.89032770613E+02 -0.13251256832E+03  0.30644269110E+02  0.16255917764E+03  0.00000000000E+00 0.  1.
        -13    1    3    3    0    0  0.30997870178E+02 -0.14695130753E+03  0.10017615100E+03  0.18052926624E+03  0.00000000000E+00 0. -1.
          2    1    6    6  502    0 -0.12537587593E+02 -0.46524258142E+02  0.90900209927E+02  0.10288122211E+03  0.00000000000E+00 0. -1.
          3    1    5    5  503    0 -0.23620244242E+02  0.15306887952E+03 -0.46495295232E+02  0.16170902972E+03  0.00000000000E+00 0. -1.
         -4    1    5    5    0  503  0.51503790819E+02  0.24043954484E+03 -0.12353923388E+03  0.27518313448E+03  0.00000000000E+00 0.  1.
         -1    1    6    6    0  502 -0.13537659977E+03 -0.67520290372E+02  0.45888141742E+03  0.48317488411E+03  0.00000000000E+00 0.  1.
<mgrwt>
<rscale>  0 0.12670348E+04</rscale>
<asrwt>0</asrwt>
<pdfrwt beam="1">  1        2 0.14435417E+00 0.12670348E+04</pdfrwt>
<pdfrwt beam="2">  1       -2 0.65805323E-01 0.12670348E+04</pdfrwt>
<totfact> 0.57737179E+01</totfact>
</mgrwt>
</event>
<event>
12    1  0.2214165E-007  0.2849668E+04  0.7818608E-02  0.8288012E-01
         -2   -1    0    0    0  501 -0.00000000000E+00  0.00000000000E+00  0.16091724837E+04  0.16091724837E+04  0.00000000000E+00 0.  1.
          2   -1    0    0  501    0  0.00000000000E+00 -0.00000000000E+00 -0.12616122737E+04  0.12616122737E+04  0.00000000000E+00 0. -1.
         23    2    1    2    0    0  0.42889716694E+03  0.57075299815E+03  0.12277476087E+04  0.14231499232E+04  0.90993123001E+02 0.  0.
        254    2    1    2    0    0 -0.42889716694E+03 -0.57075299815E+03 -0.88018739868E+03  0.14476348342E+04  0.90066919098E+03 0.  0.
        -24    2    4    4    0    0 -0.27469245870E+03 -0.53318406374E+03 -0.10436781849E+04  0.12060918657E+04  0.75181394931E+02 0.  0.
         24    2    4    4    0    0 -0.15420470825E+03 -0.37568934408E+02  0.16349078622E+03  0.24154296848E+03  0.80145190550E+02 0.  0.
         11    1    3    3    0    0  0.27295298992E+03  0.33825765195E+03  0.82758279925E+03  0.93478064989E+03  0.00000000000E+00 0.  1.
        -11    1    3    3    0    0  0.15594417703E+03  0.23249534620E+03  0.40016480946E+03  0.48836927328E+03  0.00000000000E+00 0. -1.
          4    1    6    6  502    0  0.97407453041E+01 -0.34845756978E+01  0.99939880345E+01  0.14384164338E+02  0.00000000000E+00 0. -1.
          3    1    5    5  503    0 -0.12958827469E+02 -0.78630044610E+02 -0.12590916288E+03  0.14900916892E+03  0.00000000000E+00 0. -1.
         -4    1    5    5    0  503 -0.26173363123E+03 -0.45455401913E+03 -0.91776902201E+03  0.10570826968E+04  0.00000000000E+00 0.  1.
         -3    1    6    6    0  502 -0.16394545355E+03 -0.34084358710E+02  0.15349679818E+03  0.22715880415E+03  0.00000000000E+00 0.  1.
<mgrwt>
<rscale>  0 0.28496679E+04</rscale>
<asrwt>0</asrwt>
<pdfrwt beam="1">  1        2 0.19409420E+00 0.28496679E+04</pdfrwt>
<pdfrwt beam="2">  1       -2 0.24756500E+00 0.28496679E+04</pdfrwt>
<totfact> 0.10037060E+00</totfact>
</mgrwt>
</event>
<event>
12    1  0.2214165E-007  0.1715724E+04  0.7818608E-02  0.8752447E-01
         -1   -1    0    0    0  501 -0.00000000000E+00  0.00000000000E+00  0.57026232572E+03  0.57026232572E+03  0.00000000000E+00 0.  1.
          1   -1    0    0  501    0  0.00000000000E+00 -0.00000000000E+00 -0.12905066482E+04  0.12905066482E+04  0.00000000000E+00 0. -1.
         23    2    1    2    0    0 -0.54903230363E+03 -0.25978027939E+03 -0.38038936923E+03  0.72245603375E+03  0.91238064892E+02 0.  0.
        254    2    1    2    0    0  0.54903230363E+03  0.25978027939E+03 -0.33985495322E+03  0.11383129402E+04  0.90074008265E+03 0.  0.
        -24    2    4    4    0    0  0.62094271829E+03  0.51432141777E+03 -0.23586076332E+03  0.84401317980E+03  0.81434438833E+02 0.  0.
         24    2    4    4    0    0 -0.71910414655E+02 -0.25454113838E+03 -0.10399418990E+03  0.29429976035E+03  0.76388864026E+02 0.  0.
         11    1    3    3    0    0 -0.37724052397E+03 -0.13235386341E+03 -0.26196669516E+03  0.47796914906E+03  0.00000000000E+00 0. -1.
        -11    1    3    3    0    0 -0.17179177967E+03 -0.12742641598E+03 -0.11842267407E+03  0.24448688469E+03  0.00000000000E+00 0.  1.
          2    1    6    6  502    0  0.71386577746E+00 -0.20297473311E+02 -0.33413264834E+02  0.39101704490E+02  0.00000000000E+00 0. -1.
          1    1    5    5  503    0  0.14490035074E+03  0.12837354576E+03 -0.21553229482E+02  0.19478300901E+03  0.00000000000E+00 0. -1.
         -2    1    5    5    0  503  0.47604236755E+03  0.38594787201E+03 -0.21430753384E+03  0.64923017079E+03  0.00000000000E+00 0.  1.
         -1    1    6    6    0  502 -0.72624280432E+02 -0.23424366507E+03 -0.70580925069E+02  0.25519805586E+03  0.00000000000E+00 0.  1.
<mgrwt>
<rscale>  0 0.17157241E+04</rscale>
<asrwt>0</asrwt>
<pdfrwt beam="1">  1        1 0.19853948E+00 0.17157241E+04</pdfrwt>
<pdfrwt beam="2">  1       -1 0.87732666E-01 0.17157241E+04</pdfrwt>
<totfact> 0.11158171E+01</totfact>
</mgrwt>
</event>
<event>
12    1  0.2214165E-007  0.2553159E+04  0.7818608E-02  0.8384288E-01
          1   -1    0    0  501    0  0.00000000000E+00  0.00000000000E+00  0.92159953792E+03  0.92159953792E+03  0.00000000000E+00 0. -1.
         -1   -1    0    0    0  501 -0.00000000000E+00 -0.00000000000E+00 -0.17682898382E+04  0.17682898382E+04  0.00000000000E+00 0.  1.
         23    2    1    2    0    0  0.65001909028E+03  0.54754074072E+03  0.39159230272E+03  0.94019253909E+03  0.91059313242E+02 0.  0.
        254    2    1    2    0    0 -0.65001909028E+03 -0.54754074072E+03 -0.12382826030E+04  0.17496968370E+04  0.89764666553E+03 0.  0.
        -24    2    4    4    0    0 -0.13701705907E+03 -0.53664880429E+03 -0.20996668013E+03  0.59771758008E+03  0.80091729554E+02 0.  0.
         24    2    4    4    0    0 -0.51300203121E+03 -0.10891936426E+02 -0.10283159229E+04  0.11519792569E+04  0.79579224139E+02 0.  0.
         13    1    3    3    0    0  0.61424842554E+03  0.52772035179E+03  0.39107619323E+03  0.89929443837E+03  0.00000000000E+00 0.  1.
        -13    1    3    3    0    0  0.35770664743E+02  0.19820388932E+02  0.51610949227E+00  0.40898100721E+02  0.00000000000E+00 0. -1.
          2    1    6    6  502    0 -0.51264366822E+03 -0.16942197419E+02 -0.10117753927E+04  0.11343632636E+04  0.00000000000E+00 0. -1.
          1    1    5    5  503    0 -0.92550649748E+02 -0.44969474192E+03 -0.14948477899E+03  0.48284229603E+03  0.00000000000E+00 0. -1.
         -2    1    5    5    0  503 -0.44466409321E+02 -0.86954062374E+02 -0.60481901136E+02  0.11487528405E+03  0.00000000000E+00 0.  1.
         -1    1    6    6    0  502 -0.35836298995E+00  0.60502609933E+01 -0.16540530163E+02  0.17615993307E+02  0.00000000000E+00 0.  1.
<mgrwt>
<rscale>  0 0.25531589E+04</rscale>
<asrwt>0</asrwt>
<pdfrwt beam="1">  1        1 0.14178454E+00 0.25531589E+04</pdfrwt>
<pdfrwt beam="2">  1       -1 0.27204459E+00 0.25531589E+04</pdfrwt>
<totfact> 0.77431337E-01</totfact>
</mgrwt>
</event>
<event>
12    1  0.2214165E-007  0.2050700E+04  0.7818608E-02  0.8583277E-01
          2   -1    0    0  501    0  0.00000000000E+00  0.00000000000E+00  0.64210907261E+03  0.64210907261E+03  0.00000000000E+00 0. -1.
         -2   -1    0    0    0  501 -0.00000000000E+00 -0.00000000000E+00 -0.16373272500E+04  0.16373272500E+04  0.00000000000E+00 0.  1.
         23    2    1    2    0    0 -0.73831419201E+02 -0.80209840307E+03 -0.20960188621E+03  0.83839044088E+03  0.10076037905E+03 0.  0.
        254    2    1    2    0    0  0.73831419201E+02  0.80209840307E+03 -0.78561629115E+03  0.14410458817E+04  0.90033735320E+03 0.  0.
        -24    2    4    4    0    0 -0.76671479077E+01  0.85351557489E+03 -0.25283080316E+03  0.89377985933E+03  0.79821050973E+02 0.  0.
         24    2    4    4    0    0  0.81498567109E+02 -0.51417171822E+02 -0.53278548799E+03  0.54726602237E+03  0.79711862537E+02 0.  0.
         13    1    3    3    0    0  0.26507261484E+01 -0.25984710582E+03 -0.10808180095E+03  0.28144132683E+03  0.00000000000E+00 0.  1.
        -13    1    3    3    0    0 -0.76482145350E+02 -0.54225129725E+03 -0.10152008526E+03  0.55694911405E+03  0.00000000000E+00 0. -1.
          4    1    6    6  502    0  0.83608457713E+02 -0.16372639951E+02 -0.43750810208E+03  0.44572612322E+03  0.00000000000E+00 0. -1.
          1    1    5    5  503    0 -0.34344393824E+02  0.69770494187E+03 -0.21952406211E+03  0.73223120471E+03  0.00000000000E+00 0. -1.
         -2    1    5    5    0  503  0.26677245916E+02  0.15581063302E+03 -0.33306741052E+02  0.16154865462E+03  0.00000000000E+00 0.  1.
         -3    1    6    6    0  502 -0.21098906040E+01 -0.35044531871E+02 -0.95277385908E+02  0.10153989914E+03  0.00000000000E+00 0.  1.
<mgrwt>
<rscale>  0 0.20507001E+04</rscale>
<asrwt>0</asrwt>
<pdfrwt beam="1">  1        2 0.98786012E-01 0.20507001E+04</pdfrwt>
<pdfrwt beam="2">  1       -2 0.25189650E+00 0.20507001E+04</pdfrwt>
<totfact> 0.26417156E+00</totfact>
</mgrwt>
</event>
<event>
12    1  0.2214165E-007  0.2605378E+04  0.7818608E-02  0.8366377E-01
         -2   -1    0    0    0  501 -0.00000000000E+00  0.00000000000E+00  0.96707839163E+03  0.96707839163E+03  0.00000000000E+00 0.  1.
          2   -1    0    0  501    0  0.00000000000E+00 -0.00000000000E+00 -0.17547685284E+04  0.17547685284E+04  0.00000000000E+00 0. -1.
         23    2    1    2    0    0 -0.66071324457E+03  0.28969032808E+03  0.57925798012E+03  0.92968912242E+03  0.91211726647E+02 0.  0.
        254    2    1    2    0    0  0.66071324457E+03 -0.28969032808E+03 -0.13669481169E+04  0.17921577976E+04  0.90709422856E+03 0.  0.
        -24    2    4    4    0    0  0.44366280911E+03  0.27583103040E+03 -0.79865642172E+03  0.95770372666E+03  0.80155489956E+02 0.  0.
         24    2    4    4    0    0  0.21705043546E+03 -0.56552135848E+03 -0.56829169516E+03  0.83445407093E+03  0.80205032761E+02 0.  0.
         13    1    3    3    0    0 -0.63447862662E+02  0.28715758929E+02  0.94516137693E+02  0.11740326389E+03  0.00000000000E+00 0.  1.
        -13    1    3    3    0    0 -0.59726538191E+03  0.26097456915E+03  0.48474184243E+03  0.81228585853E+03  0.00000000000E+00 0. -1.
          4    1    6    6  502    0  0.74089922252E+02 -0.20038162579E+03 -0.25411249078E+03  0.33198685291E+03  0.00000000000E+00 0. -1.
          3    1    5    5  503    0  0.32919095279E+03  0.24180606185E+03 -0.59752812578E+03  0.72379328267E+03  0.00000000000E+00 0. -1.
         -4    1    5    5    0  503  0.11447185632E+03  0.34024968552E+02 -0.20112829595E+03  0.23391044399E+03  0.00000000000E+00 0.  1.
         -3    1    6    6    0  502  0.14296051321E+03 -0.36513973269E+03 -0.31417920438E+03  0.50246721803E+03  0.00000000000E+00 0.  1.
<mgrwt>
<rscale>  0 0.26053781E+04</rscale>
<asrwt>0</asrwt>
<pdfrwt beam="1">  1        2 0.26996438E+00 0.26053781E+04</pdfrwt>
<pdfrwt beam="2">  1       -2 0.14878129E+00 0.26053781E+04</pdfrwt>
<totfact> 0.24753174E+00</totfact>
</mgrwt>
</event>
<event>
12    1  0.2214165E-007  0.3711105E+04  0.7818608E-02  0.8065505E-01
          2   -1    0    0  501    0  0.00000000000E+00  0.00000000000E+00  0.19256446102E+04  0.19256446102E+04  0.00000000000E+00 0.  1.
         -2   -1    0    0    0  501 -0.00000000000E+00 -0.00000000000E+00 -0.17880118704E+04  0.17880118704E+04  0.00000000000E+00 0. -1.
         23    2    1    2    0    0 -0.83412439087E+02  0.96318508242E+03 -0.13902137261E+04  0.16953221362E+04  0.82096305172E+02 0.  0.
        254    2    1    2    0    0  0.83412439087E+02 -0.96318508242E+03  0.15278464659E+04  0.20183343443E+04  0.89703710295E+03 0.  0.
        -24    2    4    4    0    0 -0.23110966579E+03 -0.91916996171E+03  0.89432840253E+03  0.13050558069E+04  0.71149641249E+02 0.  0.
         24    2    4    4    0    0  0.31452210487E+03 -0.44015120710E+02  0.63351806339E+03  0.71327853742E+03  0.80991666169E+02 0.  0.
         13    1    3    3    0    0 -0.34722130033E+02  0.73625847281E+03 -0.10909473415E+04  0.13166048257E+04  0.00000000000E+00 0. -1.
        -13    1    3    3    0    0 -0.48690309054E+02  0.22692660961E+03 -0.29926638465E+03  0.37871731057E+03  0.00000000000E+00 0.  1.
          4    1    6    6  502    0  0.17010509846E+03 -0.61899621519E+02  0.38142597095E+03  0.42220028302E+03  0.00000000000E+00 0. -1.
          3    1    5    5  503    0 -0.10678136191E+03 -0.31631730453E+03  0.28547314469E+03  0.43926508253E+03  0.00000000000E+00 0. -1.
         -4    1    5    5    0  503 -0.12432830388E+03 -0.60285265718E+03  0.60885525784E+03  0.86579072437E+03  0.00000000000E+00 0.  1.
         -3    1    6    6    0  502  0.14441700642E+03  0.17884500809E+02  0.25209209244E+03  0.29107825440E+03  0.00000000000E+00 0.  1.
<mgrwt>
<rscale>  0 0.37111052E+04</rscale>
<asrwt>0</asrwt>
<pdfrwt beam="1">  1        2 0.29625302E+00 0.37111052E+04</pdfrwt>
<pdfrwt beam="2">  1       -2 0.27507875E+00 0.37111052E+04</pdfrwt>
<totfact> 0.26784564E-01</totfact>
</mgrwt>
</event>
<event>
12    1  0.2214165E-007  0.1454282E+04  0.7818608E-02  0.8915437E-01
         -2   -1    0    0    0  501 -0.00000000000E+00  0.00000000000E+00  0.36820264882E+03  0.36820264882E+03  0.00000000000E+00 0.  1.
          2   -1    0    0  501    0  0.00000000000E+00 -0.00000000000E+00 -0.14359862652E+04  0.14359862652E+04  0.00000000000E+00 0. -1.
         23    2    1    2    0    0 -0.19258482049E+03  0.18047826853E+02 -0.82483206192E+03  0.85214408698E+03  0.91580442606E+02 0.  0.
        254    2    1    2    0    0  0.19258482049E+03 -0.18047826853E+02 -0.24295155449E+03  0.95204482706E+03  0.89997180943E+03 0.  0.
        -24    2    4    4    0    0 -0.10677984820E+03 -0.38483300819E+03  0.14873030139E+02  0.40720875060E+03  0.78098523410E+02 0.  0.
         24    2    4    4    0    0  0.29936466869E+03  0.36678518134E+03 -0.25782458463E+03  0.54483607647E+03  0.78881301180E+02 0.  0.
         13    1    3    3    0    0 -0.14159931549E+03  0.45539042908E+02 -0.68163520449E+03  0.69767522715E+03  0.00000000000E+00 0. -1.
        -13    1    3    3    0    0 -0.50985504996E+02 -0.27491216056E+02 -0.14319685743E+03  0.15446885983E+03  0.00000000000E+00 0.  1.
          4    1    6    6  502    0  0.29889575853E+03  0.34737076812E+03 -0.25697752121E+03  0.52539753656E+03  0.00000000000E+00 0. -1.
          3    1    5    5  503    0 -0.95444084525E+02 -0.21314749751E+03  0.24855928035E+02  0.23486005647E+03  0.00000000000E+00 0. -1.
         -4    1    5    5    0  503 -0.11335763672E+02 -0.17168551069E+03 -0.99828978957E+01  0.17234869413E+03  0.00000000000E+00 0.  1.
         -3    1    6    6    0  502  0.46891015145E+00  0.19414413220E+02 -0.84706341593E+00  0.19438539910E+02  0.00000000000E+00 0.  1.
<mgrwt>
<rscale>  0 0.14542819E+04</rscale>
<asrwt>0</asrwt>
<pdfrwt beam="1">  1        2 0.22092097E+00 0.14542819E+04</pdfrwt>
<pdfrwt beam="2">  1       -2 0.56646560E-01 0.14542819E+04</pdfrwt>
<totfact> 0.39107857E+01</totfact>
</mgrwt>
</event>
<event>
12    1  0.2214165E-007  0.1962967E+04  0.7818608E-02  0.8624133E-01
         -1   -1    0    0    0  501 -0.00000000000E+00  0.00000000000E+00  0.12375540853E+04  0.12375540853E+04  0.00000000000E+00 0.  1.
          1   -1    0    0  501    0  0.00000000000E+00 -0.00000000000E+00 -0.77839790438E+03  0.77839790438E+03  0.00000000000E+00 0. -1.
         23    2    1    2    0    0  0.37059692312E+03 -0.67234820815E+03  0.11219685898E+03  0.78158087099E+03  0.94267334238E+02 0.  0.
        254    2    1    2    0    0 -0.37059692312E+03  0.67234820815E+03  0.34695932194E+03  0.12343711187E+04  0.90216245494E+03 0.  0.
        -24    2    4    4    0    0 -0.61258859267E+03  0.47062854378E+03  0.44426876693E+03  0.89466976469E+03  0.79392949896E+02 0.  0.
         24    2    4    4    0    0  0.24199166955E+03  0.20171966437E+03 -0.97309444991E+02  0.33970135398E+03  0.81713466991E+02 0.  0.
         13    1    3    3    0    0  0.14607080585E+03 -0.18987232841E+03  0.10487299460E+02  0.23978774962E+03  0.00000000000E+00 0. -1.
        -13    1    3    3    0    0  0.22452611727E+03 -0.48247587974E+03  0.10170955952E+03  0.54179312137E+03  0.00000000000E+00 0.  1.
          4    1    6    6  502    0  0.84195314970E+02  0.31693589126E+02 -0.50123841677E+02  0.10298414518E+03  0.00000000000E+00 0. -1.
          1    1    5    5  503    0 -0.39519394730E+03  0.33035937881E+03  0.33078377255E+03  0.61215478380E+03  0.00000000000E+00 0. -1.
         -2    1    5    5    0  503 -0.21739464537E+03  0.14026916498E+03  0.11348499438E+03  0.28251498089E+03  0.00000000000E+00 0.  1.
         -3    1    6    6    0  502  0.15779635458E+03  0.17002607524E+03 -0.47185603314E+02  0.23671720880E+03  0.00000000000E+00 0.  1.
<mgrwt>
<rscale>  0 0.19629666E+04</rscale>
<asrwt>0</asrwt>
<pdfrwt beam="1">  1        1 0.11975352E+00 0.19629666E+04</pdfrwt>
<pdfrwt beam="2">  1       -1 0.19039294E+00 0.19629666E+04</pdfrwt>
<totfact> 0.37738702E+00</totfact>
</mgrwt>
</event>
<event>
12    1  0.2214165E-007  0.2243241E+04  0.7818608E-02  0.8500643E-01
         -1   -1    0    0    0  501 -0.00000000000E+00  0.00000000000E+00  0.14085984726E+04  0.14085984726E+04  0.00000000000E+00 0.  1.
          1   -1    0    0  501    0  0.00000000000E+00 -0.00000000000E+00 -0.89310928929E+03  0.89310928929E+03  0.00000000000E+00 0. -1.
         23    2    1    2    0    0  0.81426481945E+03 -0.60998700503E+01  0.69167243544E+03  0.10716325924E+04  0.83194053401E+02 0.  0.
        254    2    1    2    0    0 -0.81426481945E+03  0.60998700503E+01 -0.17618325216E+03  0.12300751695E+04  0.90497512649E+03 0.  0.
        -24    2    4    4    0    0 -0.12226586112E+03 -0.33986233201E+03 -0.25313783832E+03  0.44845980662E+03  0.81130065037E+02 0.  0.
         24    2    4    4    0    0 -0.69199895833E+03  0.34596220206E+03  0.76954586162E+02  0.78161536283E+03  0.80300457646E+02 0.  0.
         13    1    3    3    0    0  0.32206621509E+03 -0.29638250626E+02  0.31409175673E+03  0.45084221680E+03  0.00000000000E+00 0. -1.
        -13    1    3    3    0    0  0.49219860436E+03  0.23538380576E+02  0.37758067871E+03  0.62079037559E+03  0.00000000000E+00 0.  1.
          4    1    6    6  502    0 -0.28810881709E+03  0.15639263605E+03 -0.56472391738E+01  0.32786771480E+03  0.00000000000E+00 0. -1.
          1    1    5    5  503    0 -0.48910786640E+02 -0.24098010288E+03 -0.15159680317E+03  0.28886894220E+03  0.00000000000E+00 0. -1.
         -2    1    5    5    0  503 -0.73355074476E+02 -0.98882229129E+02 -0.10154103515E+03  0.15959086443E+03  0.00000000000E+00 0.  1.
         -3    1    6    6    0  502 -0.40389014124E+03  0.18956956601E+03  0.82601825336E+02  0.45374764804E+03  0.00000000000E+00 0.  1.
<mgrwt>
<rscale>  0 0.22432409E+04</rscale>
<asrwt>0</asrwt>
<pdfrwt beam="1">  1        1 0.13740143E+00 0.22432409E+04</pdfrwt>
<pdfrwt beam="2">  1       -1 0.21670746E+00 0.22432409E+04</pdfrwt>
<totfact> 0.19390229E+00</totfact>
</mgrwt>
</event>
<event>
12    1  0.2214165E-007  0.1975192E+04  0.7818608E-02  0.8618308E-01
         -1   -1    0    0    0  501 -0.00000000000E+00  0.00000000000E+00  0.41707205414E+03  0.41707205414E+03  0.00000000000E+00 0.  1.
          1   -1    0    0  501    0  0.00000000000E+00 -0.00000000000E+00 -0.23385553025E+04  0.23385553025E+04  0.00000000000E+00 0. -1.
         23    2    1    2    0    0  0.46357741180E+01  0.77974036195E+03 -0.71043664626E+03  0.10582960802E+04  0.85169493424E+02 0.  0.
        254    2    1    2    0    0 -0.46357741180E+01 -0.77974036195E+03 -0.12110466021E+04  0.16973312764E+04  0.89793266283E+03 0.  0.
        -24    2    4    4    0    0  0.22034069526E+03 -0.53921411077E+03 -0.12248620010E+04  0.13585330953E+04  0.77610375466E+02 0.  0.
         24    2    4    4    0    0 -0.22497646938E+03 -0.24052625118E+03  0.13815398863E+02  0.33879818111E+03  0.78269106284E+02 0.  0.
         11    1    3    3    0    0 -0.12376092345E+01  0.56213033247E+03 -0.56154006373E+03  0.79455603046E+03  0.00000000000E+00 0. -1.
        -11    1    3    3    0    0  0.58733833525E+01  0.21761002948E+03 -0.14889658253E+03  0.26374004976E+03  0.00000000000E+00 0.  1.
          4    1    6    6  502    0 -0.50912150968E+02 -0.54161653691E+02  0.36442120802E+02  0.82786230831E+02  0.00000000000E+00 0. -1.
          1    1    5    5  503    0  0.13001363936E+03 -0.40897767071E+03 -0.89247093273E+03  0.99028816378E+03  0.00000000000E+00 0. -1.
         -2    1    5    5    0  503  0.90327055905E+02 -0.13023644006E+03 -0.33239106824E+03  0.36824493153E+03  0.00000000000E+00 0.  1.
         -3    1    6    6    0  502 -0.17406431841E+03 -0.18636459749E+03 -0.22626721939E+02  0.25601195028E+03  0.00000000000E+00 0.  1.
<mgrwt>
<rscale>  0 0.19751922E+04</rscale>
<asrwt>0</asrwt>
<pdfrwt beam="1">  1        1 0.35977774E+00 0.19751922E+04</pdfrwt>
<pdfrwt beam="2">  1       -1 0.64164931E-01 0.19751922E+04</pdfrwt>
<totfact> 0.40108113E+00</totfact>
</mgrwt>
</event>
<event>
12    1  0.2214165E-007  0.3216499E+04  0.7818608E-02  0.8184473E-01
          2   -1    0    0  501    0  0.00000000000E+00  0.00000000000E+00  0.32768196103E+04  0.32768196103E+04  0.00000000000E+00 0. -1.
         -2   -1    0    0    0  501 -0.00000000000E+00 -0.00000000000E+00 -0.78932242770E+03  0.78932242770E+03  0.00000000000E+00 0.  1.
         23    2    1    2    0    0  0.97856060407E+03  0.88539949390E+03  0.29789565815E+03  0.13559112666E+04  0.90776759448E+02 0.  0.
        254    2    1    2    0    0 -0.97856060407E+03 -0.88539949390E+03  0.21896015245E+04  0.27102307714E+04  0.89971266459E+03 0.  0.
        -24    2    4    4    0    0  0.12801914014E+01 -0.53700002433E+03  0.60356571151E+03  0.81176321304E+03  0.79355408837E+02 0.  0.
         24    2    4    4    0    0 -0.97984079547E+03 -0.34839946957E+03  0.15860358129E+04  0.18984675584E+04  0.84848661832E+02 0.  0.
         11    1    3    3    0    0  0.48407402900E+03  0.42226157776E+03  0.10005353988E+03  0.65011015716E+03  0.00000000000E+00 0.  1.
        -11    1    3    3    0    0  0.49448657507E+03  0.46313791614E+03  0.19784211827E+03  0.70580110942E+03  0.00000000000E+00 0. -1.
          2    1    6    6  502    0 -0.94494433988E+02 -0.22625246692E+02  0.19261455876E+03  0.21573471693E+03  0.00000000000E+00 0. -1.
          3    1    5    5  503    0 -0.34426124559E+02 -0.17256561618E+03  0.21529975862E+03  0.27806120909E+03  0.00000000000E+00 0. -1.
         -4    1    5    5    0  503  0.35706315961E+02 -0.36443440815E+03  0.38826595289E+03  0.53370200395E+03  0.00000000000E+00 0.  1.
         -1    1    6    6    0  502 -0.88534636148E+03 -0.32577422288E+03  0.13934212542E+04  0.16827328415E+04  0.00000000000E+00 0.  1.
<mgrwt>
<rscale>  0 0.32164995E+04</rscale>
<asrwt>0</asrwt>
<pdfrwt beam="1">  1        2 0.50412609E+00 0.32164995E+04</pdfrwt>
<pdfrwt beam="2">  1       -2 0.12143422E+00 0.32164995E+04</pdfrwt>
<totfact> 0.49980845E-01</totfact>
</mgrwt>
</event>
<event>
12    1  0.2214165E-007  0.2736897E+04  0.7818608E-02  0.8323132E-01
          2   -1    0    0  501    0  0.00000000000E+00  0.00000000000E+00  0.18681665974E+04  0.18681665974E+04  0.00000000000E+00 0. -1.
         -2   -1    0    0    0  501 -0.00000000000E+00 -0.00000000000E+00 -0.10024005350E+04  0.10024005350E+04  0.00000000000E+00 0.  1.
         23    2    1    2    0    0  0.20637782722E+03  0.11372808000E+04 -0.17768498955E+02  0.11595724154E+04  0.91066138176E+02 0.  0.
        254    2    1    2    0    0 -0.20637782722E+03 -0.11372808000E+04  0.88353456135E+03  0.17109947169E+04  0.90048330062E+03 0.  0.
        -24    2    4    4    0    0  0.25724658031E+02  0.21754622437E+02  0.43656826198E+03  0.44481481862E+03  0.78315731955E+02 0.  0.
         24    2    4    4    0    0 -0.23210248525E+03 -0.11590354224E+04  0.44696629937E+03  0.12661798983E+04  0.78727301762E+02 0.  0.
         13    1    3    3    0    0  0.92312027292E+02  0.71064088840E+03  0.14628292899E+02  0.71676074781E+03  0.00000000000E+00 0. -1.
        -13    1    3    3    0    0  0.11406579992E+03  0.42663991157E+03 -0.32396791854E+02  0.44281166762E+03  0.00000000000E+00 0.  1.
          2    1    6    6  502    0 -0.50207799200E+02 -0.44500656908E+03  0.16766034489E+03  0.47818580162E+03  0.00000000000E+00 0. -1.
          1    1    5    5  503    0 -0.14735227699E+02  0.80165814929E+01  0.20187593518E+02  0.26247503619E+02  0.00000000000E+00 0. -1.
         -2    1    5    5    0  503  0.40459885730E+02  0.13738040944E+02  0.41638066846E+03  0.41856731500E+03  0.00000000000E+00 0.  1.
         -1    1    6    6    0  502 -0.18189468605E+03 -0.71402885333E+03  0.27930595448E+03  0.78799409668E+03  0.00000000000E+00 0.  1.
<mgrwt>
<rscale>  0 0.27368969E+04</rscale>
<asrwt>0</asrwt>
<pdfrwt beam="1">  1        2 0.28741025E+00 0.27368969E+04</pdfrwt>
<pdfrwt beam="2">  1       -2 0.15421547E+00 0.27368969E+04</pdfrwt>
<totfact> 0.19252587E+00</totfact>
</mgrwt>
</event>
<event>
12    1  0.2214165E-007  0.1781501E+04  0.7818608E-02  0.8716199E-01
          1   -1    0    0  501    0  0.00000000000E+00  0.00000000000E+00  0.22779262949E+04  0.22779262949E+04  0.00000000000E+00 0. -1.
         -1   -1    0    0    0  501 -0.00000000000E+00 -0.00000000000E+00 -0.34831540609E+03  0.34831540609E+03  0.00000000000E+00 0.  1.
         23    2    1    2    0    0  0.11772214321E+02  0.32167132560E+03  0.15668263778E+04  0.16022134616E+04  0.92369106347E+02 0.  0.
        254    2    1    2    0    0 -0.11772214321E+02 -0.32167132560E+03  0.36278451105E+03  0.10240282394E+04  0.90189256946E+03 0.  0.
        -24    2    4    4    0    0  0.46222011065E+02  0.28811873030E+03  0.25773036239E+03  0.39747137944E+03  0.80060481637E+02 0.  0.
         24    2    4    4    0    0 -0.57994225386E+02 -0.60979005590E+03  0.10505414865E+03  0.62655685993E+03  0.79560556344E+02 0.  0.
         11    1    3    3    0    0  0.18488315078E+02  0.24586435234E+03  0.13521737471E+04  0.13744689665E+04  0.00000000000E+00 0. -1.
        -11    1    3    3    0    0 -0.67161007574E+01  0.75806973264E+02  0.21465263066E+03  0.22774449511E+03  0.00000000000E+00 0.  1.
          2    1    6    6  502    0 -0.58409509660E+02 -0.22603806449E+03  0.51632002016E+02  0.23910403813E+03  0.00000000000E+00 0. -1.
          1    1    5    5  503    0  0.10397754490E+02  0.40499875043E+02  0.54564272586E+01  0.42167828677E+02  0.00000000000E+00 0. -1.
         -2    1    5    5    0  503  0.35824256575E+02  0.24761885526E+03  0.25227393513E+03  0.35530355077E+03  0.00000000000E+00 0.  1.
         -1    1    6    6    0  502  0.41528427495E+00 -0.38375199141E+03  0.53422146638E+02  0.38745282180E+03  0.00000000000E+00 0.  1.
<mgrwt>
<rscale>  0 0.17815014E+04</rscale>
<asrwt>0</asrwt>
<pdfrwt beam="1">  1        1 0.35045019E+00 0.17815014E+04</pdfrwt>
<pdfrwt beam="2">  1       -1 0.53586987E-01 0.17815014E+04</pdfrwt>
<totfact> 0.64037856E+00</totfact>
</mgrwt>
</event>
<event>
12    1  0.2214165E-007  0.2101595E+04  0.7818608E-02  0.8560541E-01
          2   -1    0    0  501    0  0.00000000000E+00  0.00000000000E+00  0.16480882605E+04  0.16480882605E+04  0.00000000000E+00 0. -1.
         -2   -1    0    0    0  501 -0.00000000000E+00 -0.00000000000E+00 -0.66997334352E+03  0.66997334352E+03  0.00000000000E+00 0.  1.
         23    2    1    2    0    0 -0.21746306119E+03  0.80326421399E+03  0.59419155358E+03  0.10264973309E+04  0.90053248029E+02 0.  0.
        254    2    1    2    0    0  0.21746306119E+03 -0.80326421399E+03  0.38392336343E+03  0.12915642732E+04  0.91006458140E+03 0.  0.
        -24    2    4    4    0    0 -0.14781392950E+02 -0.18435064491E+03 -0.28458624347E+03  0.34767759988E+03  0.75410434476E+02 0.  0.
         24    2    4    4    0    0  0.23224445414E+03 -0.61891356907E+03  0.66850960690E+03  0.94388667331E+03  0.83818047366E+02 0.  0.
         13    1    3    3    0    0 -0.13606671126E+03  0.42002471334E+03  0.26631439035E+03  0.51561445309E+03  0.00000000000E+00 0.  1.
        -13    1    3    3    0    0 -0.81396349927E+02  0.38323950065E+03  0.32787716323E+03  0.51088287778E+03  0.00000000000E+00 0. -1.
          4    1    6    6  502    0  0.26798862615E+02 -0.17426097548E+03  0.16643382120E+03  0.24245676614E+03  0.00000000000E+00 0. -1.
          3    1    5    5  503    0  0.30218015490E+02 -0.62399879884E+02 -0.88612056549E+02  0.11251208840E+03  0.00000000000E+00 0. -1.
         -4    1    5    5    0  503 -0.44999408440E+02 -0.12195076503E+03 -0.19597418692E+03  0.23516551148E+03  0.00000000000E+00 0.  1.
         -3    1    6    6    0  502  0.20544559152E+03 -0.44465259360E+03  0.50207578570E+03  0.70142990716E+03  0.00000000000E+00 0.  1.
<mgrwt>
<rscale>  0 0.21015948E+04</rscale>
<asrwt>0</asrwt>
<pdfrwt beam="1">  1        2 0.25355204E+00 0.21015948E+04</pdfrwt>
<pdfrwt beam="2">  1       -2 0.10307282E+00 0.21015948E+04</pdfrwt>
<totfact> 0.74232130E+00</totfact>
</mgrwt>
</event>
<event>
12    1  0.2214165E-007  0.1807200E+04  0.7818608E-02  0.8702480E-01
          1   -1    0    0  501    0  0.00000000000E+00  0.00000000000E+00  0.16915229372E+04  0.16915229372E+04  0.00000000000E+00 0. -1.
         -1   -1    0    0    0  501 -0.00000000000E+00 -0.00000000000E+00 -0.48269694810E+03  0.48269694810E+03  0.00000000000E+00 0.  1.
         23    2    1    2    0    0 -0.38680421816E+03  0.20516677151E+03 -0.16399170134E+03  0.47592916006E+03  0.88906579979E+02 0.  0.
        254    2    1    2    0    0  0.38680421816E+03 -0.20516677151E+03  0.13728176904E+04  0.16982907252E+04  0.89880591283E+03 0.  0.
        -24    2    4    4    0    0  0.20143209399E+03 -0.50721860710E+03  0.11417007751E+04  0.12679826043E+04  0.80334432595E+02 0.  0.
         24    2    4    4    0    0  0.18537212418E+03  0.30205183559E+03  0.23111691531E+03  0.43030812092E+03  0.78434141718E+02 0.  0.
         11    1    3    3    0    0 -0.30183702674E+03  0.17549243175E+03 -0.16443037952E+03  0.38592814619E+03  0.00000000000E+00 0.  1.
        -11    1    3    3    0    0 -0.84967191423E+02  0.29674339762E+02  0.43867818057E+00  0.90001013868E+02  0.00000000000E+00 0. -1.
          4    1    6    6  502    0  0.13146715675E+03  0.24355773424E+03  0.14276918881E+03  0.31142739842E+03  0.00000000000E+00 0. -1.
          3    1    5    5  503    0  0.19768418746E+03 -0.43481225455E+03  0.10205645408E+04  0.11268064237E+04  0.00000000000E+00 0. -1.
         -4    1    5    5    0  503  0.37479065315E+01 -0.72406352546E+02  0.12113623435E+03  0.14117618058E+03  0.00000000000E+00 0.  1.
         -3    1    6    6    0  502  0.53904967426E+02  0.58494101344E+02  0.88347726497E+02  0.11888072250E+03  0.00000000000E+00 0.  1.
<mgrwt>
<rscale>  0 0.18072000E+04</rscale>
<asrwt>0</asrwt>
<pdfrwt beam="1">  1        1 0.26023429E+00 0.18072000E+04</pdfrwt>
<pdfrwt beam="2">  1       -1 0.74261070E-01 0.18072000E+04</pdfrwt>
<totfact> 0.83134019E+00</totfact>
</mgrwt>
</event>
<event>
12    1  0.2214165E-007  0.2768478E+04  0.7818608E-02  0.8313122E-01
         -2   -1    0    0    0  501 -0.00000000000E+00  0.00000000000E+00  0.13445133038E+04  0.13445133038E+04  0.00000000000E+00 0.  1.
          2   -1    0    0  501    0  0.00000000000E+00 -0.00000000000E+00 -0.14251380988E+04  0.14251380988E+04  0.00000000000E+00 0. -1.
         23    2    1    2    0    0 -0.93467423365E+03 -0.57990452933E+03 -0.60060780796E+03  0.12566892566E+04  0.92913737362E+02 0.  0.
        254    2    1    2    0    0  0.93467423365E+03  0.57990452933E+03  0.51998301300E+03  0.15129621460E+04  0.89931470314E+03 0.  0.
        -24    2    4    4    0    0 -0.87719304553E+02  0.26966190815E+03 -0.50679028286E+02  0.29900312728E+03  0.80139160951E+02 0.  0.
         24    2    4    4    0    0  0.10223935382E+04  0.31024262118E+03  0.57066204128E+03  0.12139590187E+04  0.80636857932E+02 0.  0.
         11    1    3    3    0    0 -0.23579424017E+03 -0.17469751814E+03 -0.19854987203E+03  0.35431652265E+03  0.00000000000E+00 0.  1.
        -11    1    3    3    0    0 -0.69887999348E+03 -0.40520701119E+03 -0.40205793593E+03  0.90237273399E+03  0.00000000000E+00 0. -1.
          4    1    6    6  502    0  0.66495329269E+03  0.17414235431E+03  0.39833440330E+03  0.79445499424E+03  0.00000000000E+00 0. -1.
          1    1    5    5  503    0  0.61563093976E+01  0.10412242006E+03 -0.21013139769E+02  0.10639986159E+03  0.00000000000E+00 0. -1.
         -2    1    5    5    0  503 -0.93875613950E+02  0.16553948809E+03 -0.29665888517E+02  0.19260326569E+03  0.00000000000E+00 0.  1.
         -3    1    6    6    0  502  0.35744024551E+03  0.13610026687E+03  0.17232763798E+03  0.41950402449E+03  0.00000000000E+00 0.  1.
<mgrwt>
<rscale>  0 0.27684777E+04</rscale>
<asrwt>0</asrwt>
<pdfrwt beam="1">  1        2 0.21925201E+00 0.27684777E+04</pdfrwt>
<pdfrwt beam="2">  1       -2 0.20684820E+00 0.27684777E+04</pdfrwt>
<totfact> 0.14657024E+00</totfact>
</mgrwt>
</event>
<event>
12    1  0.2214165E-007  0.1932699E+04  0.7818608E-02  0.8638749E-01
          1   -1    0    0  501    0  0.00000000000E+00  0.00000000000E+00  0.13997517124E+04  0.13997517124E+04  0.00000000000E+00 0. -1.
         -1   -1    0    0    0  501 -0.00000000000E+00 -0.00000000000E+00 -0.66714054963E+03  0.66714054963E+03  0.00000000000E+00 0.  1.
         23    2    1    2    0    0 -0.24755601903E+03 -0.71103749842E+03  0.25596622986E+03  0.80105176535E+03  0.96472344390E+02 0.  0.
        254    2    1    2    0    0  0.24755601903E+03  0.71103749842E+03  0.47664493294E+03  0.12658404967E+04  0.89905698613E+03 0.  0.
        -24    2    4    4    0    0 -0.25145969752E+03  0.90506304269E+02  0.36280384725E+03  0.45743508344E+03  0.78720095250E+02 0.  0.
         24    2    4    4    0    0  0.49901571656E+03  0.62053119415E+03  0.11384108569E+03  0.80840541327E+03  0.80522488374E+02 0.  0.
         11    1    3    3    0    0 -0.73777754758E+02 -0.28203984287E+03  0.14247673974E+03  0.32448305261E+03  0.00000000000E+00 0. -1.
        -11    1    3    3    0    0 -0.17377826428E+03 -0.42899765555E+03  0.11348949012E+03  0.47656871275E+03  0.00000000000E+00 0.  1.
          2    1    6    6  502    0  0.33489250507E+03  0.44690147862E+03  0.11146296982E+03  0.56947161052E+03  0.00000000000E+00 0. -1.
          3    1    5    5  503    0 -0.67982756121E+02 -0.11055205358E+02  0.87484097616E+02  0.11134334300E+03  0.00000000000E+00 0. -1.
         -4    1    5    5    0  503 -0.18347694140E+03  0.10156150963E+03  0.27531974963E+03  0.34609174044E+03  0.00000000000E+00 0.  1.
         -1    1    6    6    0  502  0.16412321149E+03  0.17362971553E+03  0.23781158675E+01  0.23893380275E+03  0.00000000000E+00 0.  1.
<mgrwt>
<rscale>  0 0.19326988E+04</rscale>
<asrwt>0</asrwt>
<pdfrwt beam="1">  1        1 0.21534642E+00 0.19326988E+04</pdfrwt>
<pdfrwt beam="2">  1       -1 0.10263701E+00 0.19326988E+04</pdfrwt>
<totfact> 0.64369119E+00</totfact>
</mgrwt>
</event>
<event>
12    1  0.2214165E-007  0.2187379E+04  0.7818608E-02  0.8523699E-01
         -1   -1    0    0    0  501 -0.00000000000E+00  0.00000000000E+00  0.11640379481E+04  0.11640379481E+04  0.00000000000E+00 0.  1.
          1   -1    0    0  501    0  0.00000000000E+00 -0.00000000000E+00 -0.10275929698E+04  0.10275929698E+04  0.00000000000E+00 0. -1.
         23    2    1    2    0    0 -0.90460747604E+03 -0.49266288854E+02  0.80479887362E+02  0.91383806358E+03  0.88775792107E+02 0.  0.
        254    2    1    2    0    0  0.90460747604E+03  0.49266288854E+02  0.55965090978E+02  0.12777928543E+04  0.89937791509E+03 0.  0.
        -24    2    4    4    0    0  0.43388350066E+03  0.41684562688E+03 -0.17750170839E+03  0.63214955556E+03  0.78045085170E+02 0.  0.
         24    2    4    4    0    0  0.47072397537E+03 -0.36757933803E+03  0.23346679937E+03  0.64564329873E+03  0.75185717074E+02 0.  0.
         11    1    3    3    0    0 -0.68691417598E+03 -0.35960710156E+02  0.99048309642E+02  0.69494951290E+03  0.00000000000E+00 0.  1.
        -11    1    3    3    0    0 -0.21769330005E+03 -0.13305578699E+02 -0.18568422280E+02  0.21888855068E+03  0.00000000000E+00 0. -1.
          2    1    6    6  502    0  0.46482819449E+02 -0.67939100846E+02  0.38358692511E+02  0.90817196713E+02  0.00000000000E+00 0. -1.
          3    1    5    5  503    0  0.15808612858E+02  0.72068645320E+01 -0.19020890098E+02  0.25761315902E+02  0.00000000000E+00 0. -1.
         -2    1    5    5    0  503  0.41807488781E+03  0.40963876235E+03 -0.15848081829E+03  0.60638823966E+03  0.00000000000E+00 0.  1.
         -1    1    6    6    0  502  0.42424115592E+03 -0.29964023718E+03  0.19510810685E+03  0.55482610201E+03  0.00000000000E+00 0.  1.
<mgrwt>
<rscale>  0 0.21873794E+04</rscale>
<asrwt>0</asrwt>
<pdfrwt beam="1">  1        1 0.15809123E+00 0.21873794E+04</pdfrwt>
<pdfrwt beam="2">  1       -1 0.17908276E+00 0.21873794E+04</pdfrwt>
<totfact> 0.27773517E+00</totfact>
</mgrwt>
</event>
<event>
12    1  0.2214165E-007  0.1549695E+04  0.7818608E-02  0.8852063E-01
         -2   -1    0    0    0  501 -0.00000000000E+00  0.00000000000E+00  0.16749480153E+03  0.16749480153E+03  0.00000000000E+00 0. -1.
          2   -1    0    0  501    0  0.00000000000E+00 -0.00000000000E+00 -0.35845195200E+04  0.35845195200E+04  0.00000000000E+00 0.  1.
         23    2    1    2    0    0  0.50662042974E+03 -0.73388281034E+01 -0.11042186747E+04  0.12184716306E+04  0.93038244348E+02 0.  0.
        254    2    1    2    0    0 -0.50662042974E+03  0.73388281034E+01 -0.23128060438E+04  0.25335426909E+04  0.90169210496E+03 0.  0.
        -24    2    4    4    0    0 -0.35322469290E+03 -0.56826410275E+02 -0.23202039356E+04  0.23490392903E+04  0.81500674143E+02 0.  0.
         24    2    4    4    0    0 -0.15339573684E+03  0.64165238378E+02  0.73978918276E+01  0.18450340061E+03  0.79620010901E+02 0.  0.
         11    1    3    3    0    0  0.35011979314E+03 -0.40961449586E+02 -0.70099625987E+03  0.78463843027E+03  0.00000000000E+00 0. -1.
        -11    1    3    3    0    0  0.15650063659E+03  0.33622621482E+02 -0.40322241482E+03  0.43383320037E+03  0.00000000000E+00 0.  1.
          4    1    6    6  502    0 -0.14826747256E+03  0.31871531614E+02  0.57311564318E+01  0.15176259124E+03  0.00000000000E+00 0. -1.
          1    1    5    5  503    0 -0.93261809107E+02 -0.36021351898E+02 -0.85285158743E+03  0.85869152378E+03  0.00000000000E+00 0. -1.
         -2    1    5    5    0  503 -0.25996288380E+03 -0.20805058377E+02 -0.14673523481E+04  0.14903477665E+04  0.00000000000E+00 0.  1.
         -3    1    6    6    0  502 -0.51282642796E+01  0.32293706764E+02  0.16667353958E+01  0.32740809366E+02  0.00000000000E+00 0.  1.
<mgrwt>
<rscale>  0 0.15496947E+04</rscale>
<asrwt>0</asrwt>
<pdfrwt beam="1">  1        2 0.55146451E+00 0.15496947E+04</pdfrwt>
<pdfrwt beam="2">  1       -2 0.25768433E-01 0.15496947E+04</pdfrwt>
<totfact> 0.93900062E+00</totfact>
</mgrwt>
</event>
<event>
12    1  0.2214165E-007  0.1371941E+04  0.7818608E-02  0.8974383E-01
          2   -1    0    0  501    0  0.00000000000E+00  0.00000000000E+00  0.15227706821E+04  0.15227706821E+04  0.00000000000E+00 0. -1.
         -2   -1    0    0    0  501 -0.00000000000E+00 -0.00000000000E+00 -0.30901266591E+03  0.30901266591E+03  0.00000000000E+00 0.  1.
         23    2    1    2    0    0  0.11968816864E+03 -0.24519072639E+03  0.70721888185E+03  0.76359310310E+03  0.92044175471E+02 0.  0.
        254    2    1    2    0    0 -0.11968816864E+03  0.24519072639E+03  0.50653913436E+03  0.10681902449E+04  0.90000264150E+03 0.  0.
        -24    2    4    4    0    0  0.26957016705E+03  0.22613546847E+03 -0.69367010176E+02  0.36822409988E+03  0.83497787836E+02 0.  0.
         24    2    4    4    0    0 -0.38925833568E+03  0.19055257926E+02  0.57590614454E+03  0.69996614505E+03  0.79997263371E+02 0.  0.
         13    1    3    3    0    0  0.82391421778E+02 -0.22315985298E+03  0.52635616401E+03  0.57761533719E+03  0.00000000000E+00 0. -1.
        -13    1    3    3    0    0  0.37296746857E+02 -0.22030873415E+02  0.18086271784E+03  0.18597776591E+03  0.00000000000E+00 0.  1.
          2    1    6    6  502    0 -0.36037426011E+03  0.22749258741E+02  0.48599450411E+03  0.60545668230E+03  0.00000000000E+00 0. -1.
          3    1    5    5  503    0  0.10659960440E+03  0.70965154240E+02  0.12723234378E+02  0.12869113982E+03  0.00000000000E+00 0. -1.
         -4    1    5    5    0  503  0.16297056265E+03  0.15517031423E+03 -0.82090244554E+02  0.23953296007E+03  0.00000000000E+00 0.  1.
         -1    1    6    6    0  502 -0.28884075572E+02 -0.36940008152E+01  0.89911640432E+02  0.94509462748E+02  0.00000000000E+00 0.  1.
<mgrwt>
<rscale>  0 0.13719409E+04</rscale>
<asrwt>0</asrwt>
<pdfrwt beam="1">  1        2 0.23427241E+00 0.13719409E+04</pdfrwt>
<pdfrwt beam="2">  1       -2 0.47540411E-01 0.13719409E+04</pdfrwt>
<totfact> 0.50381418E+01</totfact>
</mgrwt>
</event>
<event>
12    1  0.2214165E-007  0.4385981E+04  0.7818608E-02  0.7930908E-01
         -2   -1    0    0    0  501 -0.00000000000E+00  0.00000000000E+00  0.16210180094E+04  0.16210180094E+04  0.00000000000E+00 0.  1.
          2   -1    0    0  501    0  0.00000000000E+00 -0.00000000000E+00 -0.29667821937E+04  0.29667821937E+04  0.00000000000E+00 0. -1.
         23    2    1    2    0    0  0.19598992430E+04 -0.34067696597E+03 -0.13478804478E+04  0.24047656252E+04  0.94075356364E+02 0.  0.
        254    2    1    2    0    0 -0.19598992430E+04  0.34067696597E+03  0.21162635834E+01  0.21830345778E+04  0.89909379458E+03 0.  0.
        -24    2    4    4    0    0 -0.45055985499E+03  0.28825266578E+03 -0.33020598923E+03  0.63457913654E+03  0.86953452787E+02 0.  0.
         24    2    4    4    0    0 -0.15093393880E+04  0.52424300190E+02  0.33232225282E+03  0.15484554413E+04  0.80140366810E+02 0.  0.
         11    1    3    3    0    0  0.10567696126E+04 -0.22671747713E+03 -0.70750432344E+03  0.12917914677E+04  0.00000000000E+00 0.  1.
        -11    1    3    3    0    0  0.90312963049E+03 -0.11395948885E+03 -0.64037612441E+03  0.11129741575E+04  0.00000000000E+00 0. -1.
          2    1    6    6  502    0 -0.10242033074E+04  0.57860498683E+02  0.19472352813E+03  0.10441539660E+04  0.00000000000E+00 0. -1.
          1    1    5    5  503    0 -0.22368229046E+03  0.13213198772E+03 -0.21013289208E+03  0.33413838687E+03  0.00000000000E+00 0. -1.
         -2    1    5    5    0  503 -0.22687756453E+03  0.15612067806E+03 -0.12007309715E+03  0.30044074967E+03  0.00000000000E+00 0.  1.
         -1    1    6    6    0  502 -0.48513608061E+03 -0.54361984930E+01  0.13759872468E+03  0.50430147531E+03  0.00000000000E+00 0.  1.
<mgrwt>
<rscale>  0 0.43859810E+04</rscale>
<asrwt>0</asrwt>
<pdfrwt beam="1">  1        2 0.45642803E+00 0.43859810E+04</pdfrwt>
<pdfrwt beam="2">  1       -2 0.24938739E+00 0.43859810E+04</pdfrwt>
<totfact> 0.90494250E-02</totfact>
</mgrwt>
</event>
<event>
12    1  0.2214165E-007  0.2731758E+04  0.7818608E-02  0.8324774E-01
         -1   -1    0    0    0  501 -0.00000000000E+00  0.00000000000E+00  0.70615298810E+03  0.70615298810E+03  0.00000000000E+00 0.  1.
          1   -1    0    0  501    0  0.00000000000E+00 -0.00000000000E+00 -0.26419555766E+04  0.26419555766E+04  0.00000000000E+00 0. -1.
         23    2    1    2    0    0  0.97210747893E+03 -0.64186109265E+03 -0.12833273468E+04  0.17355768496E+04  0.91210247076E+02 0.  0.
        254    2    1    2    0    0 -0.97210747893E+03  0.64186109265E+03 -0.65247524176E+03  0.16125317151E+04  0.90418802151E+03 0.  0.
        -24    2    4    4    0    0 -0.67339357301E+03  0.14024378099E+03  0.51655811089E+02  0.69442346298E+03  0.80177308762E+02 0.  0.
         24    2    4    4    0    0 -0.29871390592E+03  0.50161731166E+03 -0.70413105285E+03  0.91810825212E+03  0.79197841344E+02 0.  0.
         13    1    3    3    0    0  0.14922098295E+03 -0.13986868126E+03 -0.22107845990E+03  0.30117409447E+03  0.00000000000E+00 0.  1.
        -13    1    3    3    0    0  0.82288649597E+03 -0.50199241139E+03 -0.10622488869E+04  0.14344027552E+04  0.00000000000E+00 0. -1.
          4    1    6    6  502    0 -0.28498837401E+03  0.46837004279E+03 -0.62631774665E+03  0.83238379975E+03  0.00000000000E+00 0. -1.
          1    1    5    5  503    0 -0.20012016578E+03  0.47349075801E+01  0.11886811109E+02  0.20052879190E+03  0.00000000000E+00 0. -1.
         -2    1    5    5    0  503 -0.47327340723E+03  0.13550887341E+03  0.39768999981E+02  0.49389467108E+03  0.00000000000E+00 0.  1.
         -3    1    6    6    0  502 -0.13725531909E+02  0.33247268867E+02 -0.77813306195E+02  0.85724452371E+02  0.00000000000E+00 0.  1.
<mgrwt>
<rscale>  0 0.27317575E+04</rscale>
<asrwt>0</asrwt>
<pdfrwt beam="1">  1        1 0.40645470E+00 0.27317575E+04</pdfrwt>
<pdfrwt beam="2">  1       -1 0.10863892E+00 0.27317575E+04</pdfrwt>
<totfact> 0.73761249E-01</totfact>
</mgrwt>
</event>
<event>
12    1  0.2214165E-007  0.3224426E+04  0.7818608E-02  0.8182396E-01
         -1   -1    0    0    0  501 -0.00000000000E+00  0.00000000000E+00  0.10886543452E+04  0.10886543452E+04  0.00000000000E+00 0.  1.
          1   -1    0    0  501    0  0.00000000000E+00 -0.00000000000E+00 -0.23875626252E+04  0.23875626252E+04  0.00000000000E+00 0. -1.
         23    2    1    2    0    0 -0.93880259952E+03  0.34871841387E+03 -0.17771378564E+04  0.20415103955E+04  0.81184244397E+02 0.  0.
        254    2    1    2    0    0  0.93880259952E+03 -0.34871841387E+03  0.47822957639E+03  0.14347065748E+04  0.90924395792E+03 0.  0.
        -24    2    4    4    0    0  0.19758256772E+03  0.29177376971E+03  0.60805339611E+02  0.36686174673E+03  0.81972239958E+02 0.  0.
         24    2    4    4    0    0  0.74122003179E+03 -0.64049218358E+03  0.41742423678E+03  0.10678448281E+04  0.80076280117E+02 0.  0.
         11    1    3    3    0    0 -0.32534469035E+03  0.12011871522E+03 -0.53870657350E+03  0.64068903972E+03  0.00000000000E+00 0.  1.
        -11    1    3    3    0    0 -0.61345790917E+03  0.22859969865E+03 -0.12384312829E+04  0.14008213558E+04  0.00000000000E+00 0. -1.
          2    1    6    6  502    0  0.44780304839E+03 -0.33577565235E+03  0.22847603294E+03  0.60454458602E+03  0.00000000000E+00 0. -1.
          3    1    5    5  503    0  0.11146007708E+03  0.95470265737E+02  0.35652778000E+02  0.15102662349E+03  0.00000000000E+00 0. -1.
         -2    1    5    5    0  503  0.86122490646E+02  0.19630350398E+03  0.25152561611E+02  0.21583512324E+03  0.00000000000E+00 0.  1.
         -3    1    6    6    0  502  0.29341698341E+03 -0.30471653123E+03  0.18894820384E+03  0.46330024206E+03  0.00000000000E+00 0.  1.
<mgrwt>
<rscale>  0 0.32244258E+04</rscale>
<asrwt>0</asrwt>
<pdfrwt beam="1">  1        1 0.36731733E+00 0.32244258E+04</pdfrwt>
<pdfrwt beam="2">  1       -1 0.16748528E+00 0.32244258E+04</pdfrwt>
<totfact> 0.34736311E-01</totfact>
</mgrwt>
</event>
<event>
12    1  0.2214165E-007  0.1871130E+04  0.7818608E-02  0.8669362E-01
         -1   -1    0    0    0  501 -0.00000000000E+00  0.00000000000E+00  0.60458169634E+03  0.60458169634E+03  0.00000000000E+00 0.  1.
          1   -1    0    0  501    0  0.00000000000E+00 -0.00000000000E+00 -0.14477471849E+04  0.14477471849E+04  0.00000000000E+00 0. -1.
         23    2    1    2    0    0  0.33852439376E+03  0.59276168375E+03 -0.56962922846E+03  0.89384908267E+03  0.92323051146E+02 0.  0.
        254    2    1    2    0    0 -0.33852439376E+03 -0.59276168375E+03 -0.27353626011E+03  0.11584797986E+04  0.89514701544E+03 0.  0.
        -24    2    4    4    0    0 -0.20945986812E+03 -0.48670226074E+03 -0.58560763499E+03  0.79378293968E+03  0.80015787230E+02 0.  0.
         24    2    4    4    0    0 -0.12906452564E+03 -0.10605942301E+03  0.31207137488E+03  0.36469685891E+03  0.87800927628E+02 0.  0.
         11    1    3    3    0    0  0.25962407288E+03  0.37123110719E+03 -0.39336689167E+03  0.59996225351E+03  0.00000000000E+00 0. -1.
        -11    1    3    3    0    0  0.78900320888E+02  0.22153057656E+03 -0.17626233678E+03  0.29388682916E+03  0.00000000000E+00 0.  1.
          4    1    6    6  502    0 -0.82415186265E+02 -0.74457409801E+02  0.27672358413E+03  0.29818133881E+03  0.00000000000E+00 0. -1.
          1    1    5    5  503    0 -0.20520959011E+03 -0.41538025846E+03 -0.48901978682E+03  0.67364091837E+03  0.00000000000E+00 0. -1.
         -2    1    5    5    0  503 -0.42502780151E+01 -0.71322002279E+02 -0.96587848166E+02  0.12014202131E+03  0.00000000000E+00 0.  1.
         -3    1    6    6    0  502 -0.46649339375E+02 -0.31602013213E+02  0.35347790746E+02  0.66515520098E+02  0.00000000000E+00 0.  1.
<mgrwt>
<rscale>  0 0.18711296E+04</rscale>
<asrwt>0</asrwt>
<pdfrwt beam="1">  1        1 0.22273034E+00 0.18711296E+04</pdfrwt>
<pdfrwt beam="2">  1       -1 0.93012568E-01 0.18711296E+04</pdfrwt>
<totfact> 0.74901505E+00</totfact>
</mgrwt>
</event>
<event>
12    1  0.2214165E-007  0.3004095E+04  0.7818608E-02  0.8242563E-01
         -1   -1    0    0    0  501 -0.00000000000E+00  0.00000000000E+00  0.99371237981E+03  0.99371237981E+03  0.00000000000E+00 0.  1.
          1   -1    0    0  501    0  0.00000000000E+00 -0.00000000000E+00 -0.22704217094E+04  0.22704217094E+04  0.00000000000E+00 0. -1.
         23    2    1    2    0    0  0.11536097003E+04  0.72581191080E+03 -0.67129011283E+03  0.15220900634E+04  0.92246816254E+02 0.  0.
        254    2    1    2    0    0 -0.11536097003E+04 -0.72581191080E+03 -0.60541921671E+03  0.17420440257E+04  0.90031477226E+03 0.  0.
        -24    2    4    4    0    0 -0.35494531798E+03  0.17047381885E+03 -0.29721655088E+03  0.50004663647E+03  0.81617760702E+02 0.  0.
         24    2    4    4    0    0 -0.79866438231E+03 -0.89628572964E+03 -0.30820266584E+03  0.12419973893E+04  0.79848149409E+02 0.  0.
         13    1    3    3    0    0  0.50770137510E+03  0.36492352001E+03 -0.33545092789E+03  0.70954717021E+03  0.00000000000E+00 0. -1.
        -13    1    3    3    0    0  0.64590832519E+03  0.36088839079E+03 -0.33583918494E+03  0.81254289321E+03  0.00000000000E+00 0.  1.
          4    1    6    6  502    0 -0.30400698793E+03 -0.33523660673E+03 -0.15608946700E+03  0.47871468842E+03  0.00000000000E+00 0. -1.
          1    1    5    5  503    0 -0.83209839301E+00  0.71138370876E+01 -0.20917072814E+02  0.22109341938E+02  0.00000000000E+00 0. -1.
         -4    1    5    5    0  503 -0.35411321959E+03  0.16335998176E+03 -0.27629947806E+03  0.47793729454E+03  0.00000000000E+00 0.  1.
         -3    1    6    6    0  502 -0.49465739439E+03 -0.56104912291E+03 -0.15211319883E+03  0.76328270084E+03  0.00000000000E+00 0.  1.
<mgrwt>
<rscale>  0 0.30040946E+04</rscale>
<asrwt>0</asrwt>
<pdfrwt beam="1">  1        1 0.34929564E+00 0.30040946E+04</pdfrwt>
<pdfrwt beam="2">  1       -1 0.15287883E+00 0.30040946E+04</pdfrwt>
<totfact> 0.54963780E-01</totfact>
</mgrwt>
</event>
<event>
12    1  0.2214165E-007  0.1963277E+04  0.7818608E-02  0.8623985E-01
          2   -1    0    0  501    0  0.00000000000E+00  0.00000000000E+00  0.71396772626E+03  0.71396772626E+03  0.00000000000E+00 0.  1.
         -2   -1    0    0    0  501 -0.00000000000E+00 -0.00000000000E+00 -0.13496608030E+04  0.13496608030E+04  0.00000000000E+00 0. -1.
         23    2    1    2    0    0  0.98273249842E+02  0.60949171529E+03  0.23562051175E+03  0.66669165676E+03  0.88447481563E+02 0.  0.
        254    2    1    2    0    0 -0.98273249842E+02 -0.60949171529E+03 -0.87131358847E+03  0.13969368725E+04  0.90061505297E+03 0.  0.
        -24    2    4    4    0    0 -0.31814017903E+03 -0.80624453110E+02 -0.72554797973E+03  0.80071624453E+03  0.83744596348E+02 0.  0.
         24    2    4    4    0    0  0.21986692919E+03 -0.52886726218E+03 -0.14576560874E+03  0.59622062795E+03  0.78672593414E+02 0.  0.
         13    1    3    3    0    0  0.36471972601E+02  0.12991248889E+03  0.88081474232E+02  0.16113908793E+03  0.00000000000E+00 0. -1.
        -13    1    3    3    0    0  0.61801277241E+02  0.47957922639E+03  0.14753903752E+03  0.50555256883E+03  0.00000000000E+00 0.  1.
          2    1    6    6  502    0  0.18938813782E+02 -0.86887197893E+02  0.12679584776E+01  0.88936334217E+02  0.00000000000E+00 0. -1.
          1    1    5    5  503    0 -0.88393318346E+01  0.26060711449E+01 -0.19839442240E+01  0.94266340111E+01  0.00000000000E+00 0. -1.
         -2    1    5    5    0  503 -0.30930084720E+03 -0.83230524255E+02 -0.72356403551E+03  0.79128961052E+03  0.00000000000E+00 0.  1.
         -1    1    6    6    0  502  0.20092811541E+03 -0.44198006428E+03 -0.14703356721E+03  0.50728429374E+03  0.00000000000E+00 0.  1.
<mgrwt>
<rscale>  0 0.19632771E+04</rscale>
<asrwt>0</asrwt>
<pdfrwt beam="1">  1        2 0.10984119E+00 0.19632771E+04</pdfrwt>
<pdfrwt beam="2">  1       -2 0.20764012E+00 0.19632771E+04</pdfrwt>
<totfact> 0.44126788E+00</totfact>
</mgrwt>
</event>
<event>
12    1  0.2214165E-007  0.2558775E+04  0.7818608E-02  0.8382341E-01
          2   -1    0    0  501    0  0.00000000000E+00  0.00000000000E+00  0.27416761012E+04  0.27416761012E+04  0.00000000000E+00 0. -1.
         -2   -1    0    0    0  501 -0.00000000000E+00 -0.00000000000E+00 -0.59701886434E+03  0.59701886434E+03  0.00000000000E+00 0.  1.
         23    2    1    2    0    0 -0.83877330942E+03  0.52704654500E+02 -0.22579595708E+02  0.84566078325E+03  0.91180463843E+02 0.  0.
        254    2    1    2    0    0  0.83877330942E+03 -0.52704654500E+02  0.21672368326E+04  0.24930341823E+04  0.90110238068E+03 0.  0.
        -24    2    4    4    0    0  0.32019616370E+03  0.30262078872E+03  0.15310272447E+04  0.15952158333E+04  0.81019785333E+02 0.  0.
         24    2    4    4    0    0  0.51857714572E+03 -0.35532544322E+03  0.63620958786E+03  0.89781834904E+03  0.78337229504E+02 0.  0.
         11    1    3    3    0    0 -0.39578406538E+03  0.32502447792E+02 -0.55570223737E+02  0.40098564225E+03  0.00000000000E+00 0.  1.
        -11    1    3    3    0    0 -0.44298924404E+03  0.20202206708E+02  0.32990628029E+02  0.44467514100E+03  0.00000000000E+00 0. -1.
          4    1    6    6  502    0  0.32003935242E+03 -0.26336976417E+03  0.42760459189E+03  0.59551197031E+03  0.00000000000E+00 0. -1.
          1    1    5    5  503    0  0.26953355043E+03  0.20744536729E+03  0.11558570092E+04  0.12048598843E+04  0.00000000000E+00 0. -1.
         -2    1    5    5    0  503  0.50662613263E+02  0.95175421432E+02  0.37517023556E+03  0.39035594894E+03  0.00000000000E+00 0.  1.
         -1    1    6    6    0  502  0.19853779330E+03 -0.91955679046E+02  0.20860499597E+03  0.30230637873E+03  0.00000000000E+00 0.  1.
<mgrwt>
<rscale>  0 0.25587750E+04</rscale>
<asrwt>0</asrwt>
<pdfrwt beam="1">  1        2 0.42179631E+00 0.25587750E+04</pdfrwt>
<pdfrwt beam="2">  1       -2 0.91849058E-01 0.25587750E+04</pdfrwt>
<totfact> 0.22433823E+00</totfact>
</mgrwt>
</event>
<event>
12    1  0.2214165E-007  0.3047405E+04  0.7818608E-02  0.8230322E-01
          1   -1    0    0  501    0  0.00000000000E+00  0.00000000000E+00  0.16285899822E+04  0.16285899822E+04  0.00000000000E+00 0. -1.
         -1   -1    0    0    0  501 -0.00000000000E+00 -0.00000000000E+00 -0.14255698944E+04  0.14255698944E+04  0.00000000000E+00 0.  1.
         23    2    1    2    0    0  0.10464855102E+04  0.79924606905E+03 -0.34935613158E+03  0.13656497647E+04  0.94991427047E+02 0.  0.
        254    2    1    2    0    0 -0.10464855102E+04 -0.79924606905E+03  0.55237621944E+03  0.16885101119E+04  0.90112191639E+03 0.  0.
        -24    2    4    4    0    0 -0.88319222354E+03 -0.90412598409E+03  0.20538945081E+03  0.12829520691E+04  0.79428497362E+02 0.  0.
         24    2    4    4    0    0 -0.16329328668E+03  0.10487991504E+03  0.34698676863E+03  0.40555804284E+03  0.80081299016E+02 0.  0.
         11    1    3    3    0    0  0.13232165484E+03  0.11773868956E+03 -0.78181793082E+02  0.19360736589E+03  0.00000000000E+00 0.  1.
        -11    1    3    3    0    0  0.91416385539E+03  0.68150737949E+03 -0.27117433850E+03  0.11720423988E+04  0.00000000000E+00 0. -1.
          4    1    6    6  502    0 -0.27892797529E+02  0.20612465422E+02  0.16088167703E+02  0.38232329576E+02  0.00000000000E+00 0. -1.
          1    1    5    5  503    0 -0.30065690005E+03 -0.26581712389E+03  0.87978355008E+02  0.41084486835E+03  0.00000000000E+00 0. -1.
         -2    1    5    5    0  503 -0.58253532349E+03 -0.63830886020E+03  0.11741109581E+03  0.87210720072E+03  0.00000000000E+00 0.  1.
         -3    1    6    6    0  502 -0.13540048915E+03  0.84267449619E+02  0.33089860092E+03  0.36732571326E+03  0.00000000000E+00 0.  1.
<mgrwt>
<rscale>  0 0.30474047E+04</rscale>
<asrwt>0</asrwt>
<pdfrwt beam="1">  1        1 0.25055230E+00 0.30474047E+04</pdfrwt>
<pdfrwt beam="2">  1       -1 0.21931845E+00 0.30474047E+04</pdfrwt>
<totfact> 0.50280829E-01</totfact>
</mgrwt>
</event>
<event>
12    1  0.2214165E-007  0.1311220E+04  0.7818608E-02  0.9020714E-01
         -2   -1    0    0    0  501 -0.00000000000E+00  0.00000000000E+00  0.21862402352E+03  0.21862402352E+03  0.00000000000E+00 0.  1.
          2   -1    0    0  501    0  0.00000000000E+00 -0.00000000000E+00 -0.19660451101E+04  0.19660451101E+04  0.00000000000E+00 0. -1.
         23    2    1    2    0    0  0.37037222606E+02 -0.42195754231E+02  0.89130255066E+02  0.13904685275E+03  0.90761155562E+02 0.  0.
        254    2    1    2    0    0 -0.37037222606E+02  0.42195754231E+02 -0.18365513416E+04  0.20456222808E+04  0.89916486137E+03 0.  0.
        -24    2    4    4    0    0 -0.31494148506E+03 -0.30147702929E+03 -0.77316027202E+03  0.89132514101E+03  0.81284454624E+02 0.  0.
         24    2    4    4    0    0  0.27790426245E+03  0.34367278352E+03 -0.10633910696E+04  0.11542971398E+04  0.79117374087E+02 0.  0.
         11    1    3    3    0    0  0.30311077219E+02 -0.43432532344E+02  0.34304547574E+01  0.53074610577E+02  0.00000000000E+00 0. -1.
        -11    1    3    3    0    0  0.67261453863E+01  0.12367781129E+01  0.85699800309E+02  0.85972242176E+02  0.00000000000E+00 0.  1.
          2    1    6    6  502    0  0.22228780474E+03  0.28372040388E+03 -0.93510610680E+03  0.10021639420E+04  0.00000000000E+00 0. -1.
          1    1    5    5  503    0 -0.31376899125E+03 -0.29293064709E+03 -0.77098782999E+03  0.88242936140E+03  0.00000000000E+00 0. -1.
         -2    1    5    5    0  503 -0.11724938101E+01 -0.85463822035E+01 -0.21724420360E+01  0.88957796118E+01  0.00000000000E+00 0.  1.
         -3    1    6    6    0  502  0.55616457712E+02  0.59952379648E+02 -0.12828496279E+03  0.15213319780E+03  0.00000000000E+00 0.  1.
<mgrwt>
<rscale>  0 0.13112203E+04</rscale>
<asrwt>0</asrwt>
<pdfrwt beam="1">  1        2 0.30246848E+00 0.13112203E+04</pdfrwt>
<pdfrwt beam="2">  1       -2 0.33634465E-01 0.13112203E+04</pdfrwt>
<totfact> 0.56531559E+01</totfact>
</mgrwt>
</event>
<event>
12    1  0.2214165E-007  0.1995378E+04  0.7818608E-02  0.8608785E-01
          2   -1    0    0  501    0  0.00000000000E+00  0.00000000000E+00  0.18540597048E+04  0.18540597048E+04  0.00000000000E+00 0. -1.
         -2   -1    0    0    0  501 -0.00000000000E+00 -0.00000000000E+00 -0.53686678182E+03  0.53686678182E+03  0.00000000000E+00 0.  1.
         23    2    1    2    0    0 -0.53875478009E+02  0.78984875532E+03  0.52347730273E+03  0.95341724267E+03  0.90621899814E+02 0.  0.
        254    2    1    2    0    0  0.53875478009E+02 -0.78984875532E+03  0.79371562025E+03  0.14375092440E+04  0.89982482585E+03 0.  0.
        -24    2    4    4    0    0  0.14727588662E+03  0.72439008064E+01  0.57930061315E+03  0.60309185410E+03  0.79924484438E+02 0.  0.
         24    2    4    4    0    0 -0.93400408611E+02 -0.79709265613E+03  0.21441500710E+03  0.83441738985E+03  0.78728942808E+02 0.  0.
         13    1    3    3    0    0 -0.18346641298E+02  0.26244897801E+03  0.12398210790E+03  0.29083952342E+03  0.00000000000E+00 0.  1.
        -13    1    3    3    0    0 -0.35528836711E+02  0.52739977731E+03  0.39949519483E+03  0.66257771924E+03  0.00000000000E+00 0. -1.
          4    1    6    6  502    0 -0.10433045480E+03 -0.72251720880E+03  0.20635152020E+03  0.75861512686E+03  0.00000000000E+00 0. -1.
          3    1    5    5  503    0  0.15176046802E+03  0.18467631639E+02  0.49922085190E+03  0.52210511589E+03  0.00000000000E+00 0. -1.
         -4    1    5    5    0  503 -0.44845813965E+01 -0.11223730833E+02  0.80079761252E+02  0.80986738213E+02  0.00000000000E+00 0.  1.
         -3    1    6    6    0  502  0.10930046187E+02 -0.74575447326E+02  0.80634868984E+01  0.75802262991E+02  0.00000000000E+00 0.  1.
<mgrwt>
<rscale>  0 0.19953777E+04</rscale>
<asrwt>0</asrwt>
<pdfrwt beam="1">  1        2 0.28523995E+00 0.19953777E+04</pdfrwt>
<pdfrwt beam="2">  1       -2 0.82594890E-01 0.19953777E+04</pdfrwt>
<totfact> 0.96249593E+00</totfact>
</mgrwt>
</event>
<event>
12    1  0.2214165E-007  0.1058311E+04  0.7818608E-02  0.9246805E-01
         -2   -1    0    0    0  501 -0.00000000000E+00  0.00000000000E+00  0.28190770276E+03  0.28190770276E+03  0.00000000000E+00 0.  1.
          2   -1    0    0  501    0  0.00000000000E+00 -0.00000000000E+00 -0.99325272782E+03  0.99325272782E+03  0.00000000000E+00 0. -1.
         23    2    1    2    0    0 -0.24607768064E+02 -0.88990966289E+02 -0.20080693688E+03  0.23908969119E+03  0.91189474195E+02 0.  0.
        254    2    1    2    0    0  0.24607768064E+02  0.88990966289E+02 -0.51053808817E+03  0.10360707394E+04  0.89681018238E+03 0.  0.
        -24    2    4    4    0    0 -0.17137287378E+03  0.44648813839E+03 -0.25258015825E+03  0.54660775978E+03  0.79139036642E+02 0.  0.
         24    2    4    4    0    0  0.19598064185E+03 -0.35749717210E+03 -0.25795792992E+03  0.48946297960E+03  0.82577689214E+02 0.  0.
         11    1    3    3    0    0  0.23114766853E+02 -0.38202916263E+02 -0.13880456818E+03  0.14580968214E+03  0.00000000000E+00 0. -1.
        -11    1    3    3    0    0 -0.47722534917E+02 -0.50788050026E+02 -0.62002368703E+02  0.93280009054E+02  0.00000000000E+00 0.  1.
          4    1    6    6  502    0  0.11549621078E+03 -0.20583273571E+03 -0.19644915919E+03  0.30708103481E+03  0.00000000000E+00 0. -1.
          3    1    5    5  503    0 -0.65247359413E+02  0.20311642164E+03 -0.70573530130E+02  0.22470897135E+03  0.00000000000E+00 0. -1.
         -4    1    5    5    0  503 -0.10612551437E+03  0.24337171675E+03 -0.18200662812E+03  0.32189878843E+03  0.00000000000E+00 0.  1.
         -3    1    6    6    0  502  0.80484431069E+02 -0.15166443639E+03 -0.61508770730E+02  0.18238194479E+03  0.00000000000E+00 0.  1.
<mgrwt>
<rscale>  0 0.10583111E+04</rscale>
<asrwt>0</asrwt>
<pdfrwt beam="1">  1        2 0.15280811E+00 0.10583111E+04</pdfrwt>
<pdfrwt beam="2">  1       -2 0.43370416E-01 0.10583111E+04</pdfrwt>
<totfact> 0.12756959E+02</totfact>
</mgrwt>
</event>
<event>
12    1  0.2214165E-007  0.1215089E+04  0.7818608E-02  0.9099751E-01
          2   -1    0    0  501    0  0.00000000000E+00  0.00000000000E+00  0.10146507243E+04  0.10146507243E+04  0.00000000000E+00 0. -1.
         -2   -1    0    0    0  501 -0.00000000000E+00 -0.00000000000E+00 -0.36378041275E+03  0.36378041275E+03  0.00000000000E+00 0.  1.
         23    2    1    2    0    0 -0.24354537303E+03  0.59508475992E+02  0.58754793624E+02  0.27158991435E+03  0.86332776870E+02 0.  0.
        254    2    1    2    0    0  0.24354537303E+03 -0.59508475992E+02  0.59211551790E+03  0.11068412227E+04  0.90091125990E+03 0.  0.
        -24    2    4    4    0    0  0.25214517646E+03 -0.22878852946E+03  0.77149690621E+03  0.84698358640E+03  0.79071727611E+02 0.  0.
         24    2    4    4    0    0 -0.85998034334E+01  0.16928005347E+03 -0.17938138832E+03  0.25985763627E+03  0.81354874035E+02 0.  0.
         11    1    3    3    0    0 -0.52047200882E+02 -0.13060603534E+02  0.38000752613E+02  0.65753689505E+02  0.00000000000E+00 0. -1.
        -11    1    3    3    0    0 -0.19149817215E+03  0.72569079526E+02  0.20754041011E+02  0.20583622484E+03  0.00000000000E+00 0.  1.
          4    1    6    6  502    0 -0.38693720315E+02  0.12226680720E+03 -0.99072469663E+02  0.16205471416E+03  0.00000000000E+00 0. -1.
          3    1    5    5  503    0  0.19340715760E+03 -0.19008459516E+03  0.52853417675E+03  0.59404280815E+03  0.00000000000E+00 0. -1.
         -4    1    5    5    0  503  0.58738018860E+02 -0.38703934300E+02  0.24296272947E+03  0.25294077825E+03  0.00000000000E+00 0.  1.
         -3    1    6    6    0  502  0.30093916881E+02  0.47013246271E+02 -0.80308918653E+02  0.97802922111E+02  0.00000000000E+00 0.  1.
<mgrwt>
<rscale>  0 0.12150886E+04</rscale>
<asrwt>0</asrwt>
<pdfrwt beam="1">  1        2 0.15610011E+00 0.12150886E+04</pdfrwt>
<pdfrwt beam="2">  1       -2 0.55966218E-01 0.12150886E+04</pdfrwt>
<totfact> 0.72850526E+01</totfact>
</mgrwt>
</event>
<event>
12    1  0.2214165E-007  0.1764967E+04  0.7818608E-02  0.8725155E-01
          2   -1    0    0  501    0  0.00000000000E+00  0.00000000000E+00  0.92917164911E+03  0.92917164911E+03  0.00000000000E+00 0. -1.
         -2   -1    0    0    0  501 -0.00000000000E+00 -0.00000000000E+00 -0.83814142061E+03  0.83814142061E+03  0.00000000000E+00 0.  1.
         23    2    1    2    0    0  0.17334727785E+03  0.55396017831E+03  0.32527482711E+03  0.67166352739E+03  0.91689819393E+02 0.  0.
        254    2    1    2    0    0 -0.17334727785E+03 -0.55396017831E+03 -0.23424459861E+03  0.10956495423E+04  0.89925315109E+03 0.  0.
        -24    2    4    4    0    0 -0.15344754151E+03 -0.69650953205E+03 -0.43319723987E+03  0.83828694567E+03  0.79959229694E+02 0.  0.
         24    2    4    4    0    0 -0.19899736344E+02  0.14254935374E+03  0.19895264126E+03  0.25736259666E+03  0.77052157244E+02 0.  0.
         11    1    3    3    0    0  0.16568599246E+03  0.46181730251E+03  0.30264740639E+03  0.57647421590E+03  0.00000000000E+00 0. -1.
        -11    1    3    3    0    0  0.76612853942E+01  0.92142875796E+02  0.22627420717E+02  0.95189311491E+02  0.00000000000E+00 0.  1.
          4    1    6    6  502    0 -0.20768077829E+02  0.16841114044E+01  0.15027774130E+02  0.25690139805E+02  0.00000000000E+00 0. -1.
          3    1    5    5  503    0 -0.12660288175E+03 -0.39116256557E+03 -0.24546733935E+03  0.47884304011E+03  0.00000000000E+00 0. -1.
         -4    1    5    5    0  503 -0.26844659765E+02 -0.30534696648E+03 -0.18772990052E+03  0.35944390556E+03  0.00000000000E+00 0.  1.
         -3    1    6    6    0  502  0.86834148485E+00  0.14086524234E+03  0.18392486713E+03  0.23167245686E+03  0.00000000000E+00 0.  1.
<mgrwt>
<rscale>  0 0.17649671E+04</rscale>
<asrwt>0</asrwt>
<pdfrwt beam="1">  1        2 0.14294948E+00 0.17649671E+04</pdfrwt>
<pdfrwt beam="2">  1       -2 0.12894483E+00 0.17649671E+04</pdfrwt>
<totfact> 0.11763132E+01</totfact>
</mgrwt>
</event>
<event>
12    1  0.2214165E-007  0.1370318E+04  0.7818608E-02  0.8975588E-01
         -1   -1    0    0    0  501 -0.00000000000E+00  0.00000000000E+00  0.11176977958E+04  0.11176977958E+04  0.00000000000E+00 0.  1.
          1   -1    0    0  501    0  0.00000000000E+00 -0.00000000000E+00 -0.42000902846E+03  0.42000902846E+03  0.00000000000E+00 0. -1.
         23    2    1    2    0    0 -0.16838684136E+03 -0.27465911982E+03  0.42656023589E+03  0.54207121659E+03  0.89976711209E+02 0.  0.
        254    2    1    2    0    0  0.16838684136E+03  0.27465911982E+03  0.27112853140E+03  0.99563560763E+03  0.90221273667E+03 0.  0.
        -24    2    4    4    0    0 -0.26899368325E+03  0.27779158943E+03 -0.11037068891E+03  0.40979816178E+03  0.78911821929E+02 0.  0.
         24    2    4    4    0    0  0.43738052462E+03 -0.31324696143E+01  0.38149922031E+03  0.58583744585E+03  0.79701456601E+02 0.  0.
         11    1    3    3    0    0 -0.12549295623E+02 -0.76295956850E+02  0.63908086446E+02  0.10031351537E+03  0.00000000000E+00 0. -1.
        -11    1    3    3    0    0 -0.15583754574E+03 -0.19836316297E+03  0.36265214945E+03  0.44175770122E+03  0.00000000000E+00 0.  1.
          2    1    6    6  502    0  0.34893147649E+03 -0.59922929744E+01  0.34302094795E+03  0.48933879224E+03  0.00000000000E+00 0. -1.
          1    1    5    5  503    0 -0.24822249555E+03  0.27472274358E+03 -0.91092524819E+02  0.38129364171E+03  0.00000000000E+00 0. -1.
         -2    1    5    5    0  503 -0.20771187707E+02  0.30688458564E+01 -0.19278164090E+02  0.28504520069E+02  0.00000000000E+00 0.  1.
         -1    1    6    6    0  502  0.88449048129E+02  0.28598233601E+01  0.38478272355E+02  0.96498653608E+02  0.00000000000E+00 0.  1.
<mgrwt>
<rscale>  0 0.13703185E+04</rscale>
<asrwt>0</asrwt>
<pdfrwt beam="1">  1        1 0.64616774E-01 0.13703185E+04</pdfrwt>
<pdfrwt beam="2">  1       -1 0.17195351E+00 0.13703185E+04</pdfrwt>
<totfact> 0.13074955E+01</totfact>
</mgrwt>
</event>
<event>
12    1  0.2214165E-007  0.1897308E+04  0.7818608E-02  0.8656198E-01
         -2   -1    0    0    0  501 -0.00000000000E+00  0.00000000000E+00  0.21367575493E+03  0.21367575493E+03  0.00000000000E+00 0.  1.
          2   -1    0    0  501    0  0.00000000000E+00 -0.00000000000E+00 -0.42117287877E+04  0.42117287877E+04  0.00000000000E+00 0. -1.
         23    2    1    2    0    0 -0.65904520041E+03  0.31528784245E+03 -0.15080546532E+04  0.16785343358E+04  0.97476558481E+02 0.  0.
        254    2    1    2    0    0  0.65904520041E+03 -0.31528784245E+03 -0.24899983795E+04  0.27468702068E+04  0.90080908269E+03 0.  0.
        -24    2    4    4    0    0  0.69816465184E+03 -0.41409472828E+03 -0.24825441930E+04  0.26131291854E+04  0.80685463214E+02 0.  0.
         24    2    4    4    0    0 -0.39119451429E+02  0.98806885825E+02 -0.74541864798E+01  0.13374102147E+03  0.80857675964E+02 0.  0.
         11    1    3    3    0    0 -0.24047561479E+03  0.71112277481E+02 -0.46135763844E+03  0.52510603488E+03  0.00000000000E+00 0.  1.
        -11    1    3    3    0    0 -0.41856958562E+03  0.24417556497E+03 -0.10466970148E+04  0.11534283009E+04  0.00000000000E+00 0. -1.
          2    1    6    6  502    0  0.90275775475E+01  0.33773074533E+02  0.28588499938E+02  0.45159938535E+02  0.00000000000E+00 0. -1.
          3    1    5    5  503    0  0.52370504467E+03 -0.26904479824E+03 -0.18080624931E+04  0.19015104670E+04  0.00000000000E+00 0. -1.
         -4    1    5    5    0  503  0.17445960717E+03 -0.14504993004E+03 -0.67448169995E+03  0.71161871835E+03  0.00000000000E+00 0.  1.
         -1    1    6    6    0  502 -0.48147028976E+02  0.65033811292E+02 -0.36042686418E+02  0.88581082939E+02  0.00000000000E+00 0.  1.
<mgrwt>
<rscale>  0 0.18973079E+04</rscale>
<asrwt>0</asrwt>
<pdfrwt beam="1">  1        2 0.64795824E+00 0.18973079E+04</pdfrwt>
<pdfrwt beam="2">  1       -2 0.32873195E-01 0.18973079E+04</pdfrwt>
<totfact> 0.18651397E+00</totfact>
</mgrwt>
</event>
<event>
12    1  0.2214165E-007  0.5494715E+04  0.7818608E-02  0.7756417E-01
         -1   -1    0    0    0  501 -0.00000000000E+00  0.00000000000E+00  0.23913615153E+04  0.23913615153E+04  0.00000000000E+00 0.  1.
          1   -1    0    0  501    0  0.00000000000E+00 -0.00000000000E+00 -0.31563499510E+04  0.31563499510E+04  0.00000000000E+00 0. -1.
         23    2    1    2    0    0  0.10001074020E+03 -0.26331963118E+04 -0.82398635689E+03  0.27624315977E+04  0.91377518145E+02 0.  0.
        254    2    1    2    0    0 -0.10001074020E+03  0.26331963118E+04  0.58997921169E+02  0.27852798686E+04  0.90032118012E+03 0.  0.
        -24    2    4    4    0    0 -0.12899009448E+02 -0.78650885490E+01 -0.10866332091E+03  0.13628895110E+03  0.80862332516E+02 0.  0.
         24    2    4    4    0    0 -0.87111730754E+02  0.26410614003E+04  0.16766124207E+03  0.26489909175E+04  0.79049447246E+02 0.  0.
         13    1    3    3    0    0  0.61070728978E+02 -0.15722291445E+04 -0.44496971533E+03  0.16351245103E+04  0.00000000000E+00 0.  1.
        -13    1    3    3    0    0  0.38940011224E+02 -0.10609671673E+04 -0.37901664156E+03  0.11273070873E+04  0.00000000000E+00 0. -1.
          4    1    6    6  502    0 -0.47525047339E+02  0.22727264623E+04  0.14462204720E+03  0.22778190752E+04  0.00000000000E+00 0. -1.
          1    1    5    5  503    0  0.57698620862E+01 -0.91402508231E+01 -0.11576926611E+03  0.11627277613E+03  0.00000000000E+00 0. -1.
         -2    1    5    5    0  503 -0.18668871534E+02  0.12751622741E+01  0.71059452057E+01  0.20016174971E+02  0.00000000000E+00 0.  1.
         -3    1    6    6    0  502 -0.39586683415E+02  0.36833493799E+03  0.23039194876E+02  0.37117184235E+03  0.00000000000E+00 0.  1.
<mgrwt>
<rscale>  0 0.54947152E+04</rscale>
<asrwt>0</asrwt>
<pdfrwt beam="1">  1        1 0.48559230E+00 0.54947152E+04</pdfrwt>
<pdfrwt beam="2">  1       -1 0.36790177E+00 0.54947152E+04</pdfrwt>
<totfact> 0.37559463E-03</totfact>
</mgrwt>
</event>
<event>
12    1  0.2214165E-007  0.2273239E+04  0.7818608E-02  0.8488548E-01
          1   -1    0    0  501    0  0.00000000000E+00  0.00000000000E+00  0.21988681623E+04  0.21988681623E+04  0.00000000000E+00 0. -1.
         -1   -1    0    0    0  501 -0.00000000000E+00 -0.00000000000E+00 -0.58753116984E+03  0.58753116984E+03  0.00000000000E+00 0.  1.
         23    2    1    2    0    0 -0.84981234281E+03  0.38965070799E+03  0.43579610313E+03  0.10356320105E+04  0.92772439160E+02 0.  0.
        254    2    1    2    0    0  0.84981234281E+03 -0.38965070799E+03  0.11755408894E+04  0.17507673217E+04  0.89960054457E+03 0.  0.
        -24    2    4    4    0    0  0.19981802135E+03 -0.17358512278E+03  0.10031220016E+04  0.10404580826E+04  0.78995158898E+02 0.  0.
         24    2    4    4    0    0  0.64999432146E+03 -0.21606558521E+03  0.17241888776E+03  0.71030923902E+03  0.75059890315E+02 0.  0.
         11    1    3    3    0    0 -0.33070351089E+03  0.15304484379E+03  0.12046412118E+03  0.38379570192E+03  0.00000000000E+00 0.  1.
        -11    1    3    3    0    0 -0.51910883193E+03  0.23660586420E+03  0.31533198195E+03  0.65183630859E+03  0.00000000000E+00 0. -1.
          4    1    6    6  502    0  0.61558401989E+03 -0.18524976524E+03  0.16219385382E+03  0.66299925135E+03  0.00000000000E+00 0. -1.
          1    1    5    5  503    0  0.12442962681E+03 -0.13269426072E+03  0.79114316537E+03  0.81178692215E+03  0.00000000000E+00 0. -1.
         -2    1    5    5    0  503  0.75388394545E+02 -0.40890862065E+02  0.21197883622E+03  0.22867116048E+03  0.00000000000E+00 0.  1.
         -3    1    6    6    0  502  0.34410301569E+02 -0.30815819969E+02  0.10225033945E+02  0.47309987673E+02  0.00000000000E+00 0.  1.
<mgrwt>
<rscale>  0 0.22732387E+04</rscale>
<asrwt>0</asrwt>
<pdfrwt beam="1">  1        1 0.33828741E+00 0.22732387E+04</pdfrwt>
<pdfrwt beam="2">  1       -1 0.90389412E-01 0.22732387E+04</pdfrwt>
<totfact> 0.23651842E+00</totfact>
</mgrwt>
</event>
<event>
12    1  0.2214165E-007  0.1471124E+04  0.7818608E-02  0.8903886E-01
         -2   -1    0    0    0  501 -0.00000000000E+00  0.00000000000E+00  0.26355584365E+03  0.26355584365E+03  0.00000000000E+00 0.  1.
          2   -1    0    0  501    0  0.00000000000E+00 -0.00000000000E+00 -0.20528904189E+04  0.20528904189E+04  0.00000000000E+00 0. -1.
         23    2    1    2    0    0  0.22158943848E+03 -0.28789589533E+03 -0.13429378304E+03  0.39761536460E+03  0.89873423278E+02 0.  0.
        254    2    1    2    0    0 -0.22158943848E+03  0.28789589533E+03 -0.16550407922E+04  0.19188308979E+04  0.90042549120E+03 0.  0.
        -24    2    4    4    0    0 -0.44666627747E+03  0.36545353251E+03 -0.60754479080E+03  0.84166894511E+03  0.78923332917E+02 0.  0.
         24    2    4    4    0    0  0.22507683899E+03 -0.77557637179E+02 -0.10474960014E+04  0.10771619528E+04  0.79719690904E+02 0.  0.
         13    1    3    3    0    0  0.19103239857E+03 -0.18957023293E+03 -0.11588596197E+03  0.29301844088E+03  0.00000000000E+00 0.  1.
        -13    1    3    3    0    0  0.30557039910E+02 -0.98325662406E+02 -0.18407821064E+02  0.10459692372E+03  0.00000000000E+00 0. -1.
          2    1    6    6  502    0  0.82251355421E+02 -0.15862299200E+02 -0.22514590298E+03  0.24022401136E+03  0.00000000000E+00 0. -1.
          1    1    5    5  503    0 -0.20652624348E+02  0.14907744019E+02 -0.56188769653E+02  0.61692378454E+02  0.00000000000E+00 0. -1.
         -2    1    5    5    0  503 -0.42601365312E+03  0.35054578849E+03 -0.55135602114E+03  0.77997656665E+03  0.00000000000E+00 0.  1.
         -1    1    6    6    0  502  0.14282548357E+03 -0.61695337979E+02 -0.82235009842E+03  0.83693794146E+03  0.00000000000E+00 0.  1.
<mgrwt>
<rscale>  0 0.14711237E+04</rscale>
<asrwt>0</asrwt>
<pdfrwt beam="1">  1        2 0.31582929E+00 0.14711237E+04</pdfrwt>
<pdfrwt beam="2">  1       -2 0.40547054E-01 0.14711237E+04</pdfrwt>
<totfact> 0.34831085E+01</totfact>
</mgrwt>
</event>
<event>
12    1  0.2214165E-007  0.2005293E+04  0.7818608E-02  0.8604150E-01
          1   -1    0    0  501    0  0.00000000000E+00  0.00000000000E+00  0.13596424454E+04  0.13596424454E+04  0.00000000000E+00 0. -1.
         -1   -1    0    0    0  501 -0.00000000000E+00 -0.00000000000E+00 -0.73938588906E+03  0.73938588906E+03  0.00000000000E+00 0.  1.
         23    2    1    2    0    0  0.30226341732E+03 -0.12182056865E+03 -0.51413611529E+03  0.61540442939E+03  0.90461274968E+02 0.  0.
        254    2    1    2    0    0 -0.30226341732E+03  0.12182056865E+03  0.11343926717E+04  0.14836239051E+04  0.89893811461E+03 0.  0.
        -24    2    4    4    0    0 -0.22377565561E+03 -0.27277223496E+03  0.10572001316E+03  0.37625809756E+03  0.76897324985E+02 0.  0.
         24    2    4    4    0    0 -0.78487761713E+02  0.39459280361E+03  0.10286726585E+04  0.11073658076E+04  0.78916309878E+02 0.  0.
         13    1    3    3    0    0  0.19404286597E+03 -0.67903798782E+02 -0.39694646530E+03  0.44702355199E+03  0.00000000000E+00 0.  1.
        -13    1    3    3    0    0  0.10822055135E+03 -0.53916769868E+02 -0.11718965000E+03  0.16838087740E+03  0.00000000000E+00 0. -1.
          4    1    6    6  502    0  0.15523104691E+02  0.86079640457E+02  0.21779643246E+03  0.23470397797E+03  0.00000000000E+00 0. -1.
          1    1    5    5  503    0 -0.21056021187E+02 -0.74514251633E+02  0.18770428837E+02  0.79674705669E+02  0.00000000000E+00 0. -1.
         -2    1    5    5    0  503 -0.20271963442E+03 -0.19825798333E+03  0.86949584320E+02  0.29658339189E+03  0.00000000000E+00 0.  1.
         -3    1    6    6    0  502 -0.94010866403E+02  0.30851316315E+03  0.81087622606E+03  0.87266182959E+03  0.00000000000E+00 0.  1.
<mgrwt>
<rscale>  0 0.20052934E+04</rscale>
<asrwt>0</asrwt>
<pdfrwt beam="1">  1        1 0.20917576E+00 0.20052934E+04</pdfrwt>
<pdfrwt beam="2">  1       -1 0.11375168E+00 0.20052934E+04</pdfrwt>
<totfact> 0.53597308E+00</totfact>
</mgrwt>
</event>
<event>
12    1  0.2214165E-007  0.1188553E+04  0.7818608E-02  0.9122935E-01
          2   -1    0    0  501    0  0.00000000000E+00  0.00000000000E+00  0.10882410696E+04  0.10882410696E+04  0.00000000000E+00 0.  1.
         -2   -1    0    0    0  501 -0.00000000000E+00 -0.00000000000E+00 -0.32452795361E+03  0.32452795361E+03  0.00000000000E+00 0. -1.
         23    2    1    2    0    0 -0.14247532912E+03 -0.49566550648E+01  0.39866548139E+03  0.43357774951E+03  0.93443624617E+02 0.  0.
        254    2    1    2    0    0  0.14247532912E+03  0.49566550648E+01  0.36504763462E+03  0.97919127371E+03  0.89734719430E+03 0.  0.
        -24    2    4    4    0    0 -0.16045526129E+03  0.37899761921E+03  0.14182710826E+03  0.44255568321E+03  0.79721501878E+02 0.  0.
         24    2    4    4    0    0  0.30293059041E+03 -0.37404096415E+03  0.22322052636E+03  0.53663559050E+03  0.80478370588E+02 0.  0.
         11    1    3    3    0    0  0.61492146574E+01  0.13142030769E+02  0.11640959444E+02  0.18602089948E+02  0.00000000000E+00 0. -1.
        -11    1    3    3    0    0 -0.14862454378E+03 -0.18098685834E+02  0.38702452195E+03  0.41497565957E+03  0.00000000000E+00 0.  1.
          4    1    6    6  502    0  0.11849498046E+03 -0.21004586305E+03  0.10685700244E+03  0.26377783066E+03  0.00000000000E+00 0. -1.
          1    1    5    5  503    0  0.50568696029E+01  0.72199336504E+01 -0.47433707472E+01  0.10009941965E+02  0.00000000000E+00 0. -1.
         -2    1    5    5    0  503 -0.16551213089E+03  0.37177768556E+03  0.14657047901E+03  0.43254574125E+03  0.00000000000E+00 0.  1.
         -3    1    6    6    0  502  0.18443560996E+03 -0.16399510110E+03  0.11636352392E+03  0.27285775983E+03  0.00000000000E+00 0.  1.
<mgrwt>
<rscale>  0 0.11885531E+04</rscale>
<asrwt>0</asrwt>
<pdfrwt beam="1">  1        2 0.16742170E+00 0.11885531E+04</pdfrwt>
<pdfrwt beam="2">  1       -2 0.49927378E-01 0.11885531E+04</pdfrwt>
<totfact> 0.83014364E+01</totfact>
</mgrwt>
</event>
<event>
12    1  0.2214165E-007  0.1771595E+04  0.7818608E-02  0.8721553E-01
          2   -1    0    0  501    0  0.00000000000E+00  0.00000000000E+00  0.10447984633E+04  0.10447984633E+04  0.00000000000E+00 0. -1.
         -2   -1    0    0    0  501 -0.00000000000E+00 -0.00000000000E+00 -0.75099345302E+03  0.75099345302E+03  0.00000000000E+00 0.  1.
         23    2    1    2    0    0 -0.18497396457E+03 -0.60578541330E+03 -0.53935043013E+02  0.64237561127E+03  0.92445132667E+02 0.  0.
        254    2    1    2    0    0  0.18497396457E+03  0.60578541330E+03  0.34774005327E+03  0.11534163050E+04  0.89902986243E+03 0.  0.
        -24    2    4    4    0    0  0.45931537352E+03  0.61572530506E+02  0.58093652057E+02  0.47406324449E+03  0.81236066507E+02 0.  0.
         24    2    4    4    0    0 -0.27434140895E+03  0.54421288279E+03  0.28964640121E+03  0.67935306055E+03  0.78706242903E+02 0.  0.
         11    1    3    3    0    0 -0.74129526585E+02 -0.13539992643E+03  0.11038234832E+02  0.15475842277E+03  0.00000000000E+00 0. -1.
        -11    1    3    3    0    0 -0.11084443798E+03 -0.47038548687E+03 -0.64973277844E+02  0.48761718850E+03  0.00000000000E+00 0.  1.
          4    1    6    6  502    0 -0.11574853350E+03  0.27886557260E+03  0.10719698856E+03  0.32039807263E+03  0.00000000000E+00 0. -1.
          1    1    5    5  503    0  0.53130672364E+02 -0.17853265537E+02 -0.54388832012E+00  0.56052682815E+02  0.00000000000E+00 0. -1.
         -2    1    5    5    0  503  0.40618470116E+03  0.79425796043E+02  0.58637540377E+02  0.41801056168E+03  0.00000000000E+00 0.  1.
         -3    1    6    6    0  502 -0.15859287546E+03  0.26534731019E+03  0.18244941265E+03  0.35895498792E+03  0.00000000000E+00 0.  1.
<mgrwt>
<rscale>  0 0.17715945E+04</rscale>
<asrwt>0</asrwt>
<pdfrwt beam="1">  1        2 0.16073823E+00 0.17715945E+04</pdfrwt>
<pdfrwt beam="2">  1       -2 0.11553745E+00 0.17715945E+04</pdfrwt>
<totfact> 0.13011510E+01</totfact>
</mgrwt>
</event>
<event>
12    1  0.2214165E-007  0.3069545E+04  0.7818608E-02  0.8224146E-01
          1   -1    0    0  501    0  0.00000000000E+00  0.00000000000E+00  0.12005992967E+04  0.12005992967E+04  0.00000000000E+00 0. -1.
         -1   -1    0    0    0  501 -0.00000000000E+00 -0.00000000000E+00 -0.19619584384E+04  0.19619584384E+04  0.00000000000E+00 0.  1.
         23    2    1    2    0    0  0.98246784159E+03  0.90051936352E+03  0.97885196049E+02  0.13394298848E+04  0.91174124490E+02 0.  0.
        254    2    1    2    0    0 -0.98246784159E+03 -0.90051936352E+03 -0.85924433768E+03  0.18231278502E+04  0.89961999902E+03 0.  0.
        -24    2    4    4    0    0  0.24625796930E+02  0.13269428496E+03 -0.47420553192E+02  0.16566508943E+03  0.83558421802E+02 0.  0.
         24    2    4    4    0    0 -0.10070936385E+04 -0.10332136485E+04 -0.81182378449E+03  0.16574627608E+04  0.79730209079E+02 0.  0.
         13    1    3    3    0    0  0.70337161306E+02  0.97781155505E+02  0.17473335096E+02  0.12171190604E+03  0.00000000000E+00 0. -1.
        -13    1    3    3    0    0  0.91213068029E+03  0.80273820801E+03  0.80411860952E+02  0.12177179788E+04  0.00000000000E+00 0.  1.
          4    1    6    6  502    0 -0.32385516724E+03 -0.29324466466E+03 -0.27392555167E+03  0.51566443601E+03  0.00000000000E+00 0. -1.
          1    1    5    5  503    0  0.21382598635E+02 -0.38361265132E+01 -0.23475183165E+01  0.21850451558E+02  0.00000000000E+00 0. -1.
         -2    1    5    5    0  503  0.32431982944E+01  0.13653041148E+03 -0.45073034875E+02  0.14381463787E+03  0.00000000000E+00 0.  1.
         -3    1    6    6    0  502 -0.68323847128E+03 -0.73996898382E+03 -0.53789823282E+03  0.11417983248E+04  0.00000000000E+00 0.  1.
<mgrwt>
<rscale>  0 0.30695445E+04</rscale>
<asrwt>0</asrwt>
<pdfrwt beam="1">  1        1 0.18470758E+00 0.30695445E+04</pdfrwt>
<pdfrwt beam="2">  1       -1 0.30183976E+00 0.30695445E+04</pdfrwt>
<totfact> 0.29013165E-01</totfact>
</mgrwt>
</event>
<event>
12    1  0.2214165E-007  0.2549903E+04  0.7818608E-02  0.8385420E-01
         -2   -1    0    0    0  501 -0.00000000000E+00  0.00000000000E+00  0.62166885628E+03  0.62166885628E+03  0.00000000000E+00 0.  1.
          2   -1    0    0  501    0  0.00000000000E+00 -0.00000000000E+00 -0.26147378679E+04  0.26147378679E+04  0.00000000000E+00 0. -1.
         23    2    1    2    0    0 -0.10033946184E+04 -0.44624524225E+03 -0.11077132290E+04  0.15624763081E+04  0.91476987916E+02 0.  0.
        254    2    1    2    0    0  0.10033946184E+04  0.44624524225E+03 -0.88535578263E+03  0.16739304161E+04  0.90125057531E+03 0.  0.
        -24    2    4    4    0    0 -0.13974745404E+03  0.11406603164E+03 -0.26043793628E+03  0.32699455306E+03  0.80975975435E+02 0.  0.
         24    2    4    4    0    0  0.11431420724E+04  0.33217921061E+03 -0.62491784635E+03  0.13469358630E+04  0.81222402004E+02 0.  0.
         11    1    3    3    0    0 -0.24955589184E+03 -0.10114790394E+03 -0.21903008441E+03  0.34710692805E+03  0.00000000000E+00 0.  1.
        -11    1    3    3    0    0 -0.75383872655E+03 -0.34509733831E+03 -0.88868314459E+03  0.12153693801E+04  0.00000000000E+00 0. -1.
          4    1    6    6  502    0  0.17815072505E+03  0.26008220352E+02 -0.11182706345E+03  0.21194197433E+03  0.00000000000E+00 0. -1.
          1    1    5    5  503    0 -0.99597868623E+00  0.40821489115E+02 -0.53900374178E+02  0.67621270940E+02  0.00000000000E+00 0. -1.
         -2    1    5    5    0  503 -0.13875147535E+03  0.73244542523E+02 -0.20653756210E+03  0.25937328212E+03  0.00000000000E+00 0.  1.
         -3    1    6    6    0  502  0.96499134738E+03  0.30617099026E+03 -0.51309078290E+03  0.11349938887E+04  0.00000000000E+00 0.  1.
<mgrwt>
<rscale>  0 0.25499028E+04</rscale>
<asrwt>0</asrwt>
<pdfrwt beam="1">  1        2 0.40226737E+00 0.25499028E+04</pdfrwt>
<pdfrwt beam="2">  1       -2 0.95641362E-01 0.25499028E+04</pdfrwt>
<totfact> 0.24304268E+00</totfact>
</mgrwt>
</event>
<event>
12    1  0.2214165E-007  0.1529519E+04  0.7818608E-02  0.8865057E-01
         -1   -1    0    0    0  501 -0.00000000000E+00  0.00000000000E+00  0.10679474969E+04  0.10679474969E+04  0.00000000000E+00 0.  1.
          1   -1    0    0  501    0  0.00000000000E+00 -0.00000000000E+00 -0.54764596803E+03  0.54764596803E+03  0.00000000000E+00 0. -1.
         23    2    1    2    0    0 -0.22537428404E+03 -0.35954524297E+03  0.43539857349E+03  0.61424801733E+03  0.87534903579E+02 0.  0.
        254    2    1    2    0    0  0.22537428404E+03  0.35954524297E+03  0.84902955370E+02  0.10013454476E+04  0.90300489695E+03 0.  0.
        -24    2    4    4    0    0  0.46791099935E+03  0.28809431044E+03  0.32517748837E+03  0.64380370435E+03  0.82485003343E+02 0.  0.
         24    2    4    4    0    0 -0.24253671531E+03  0.71450932534E+02 -0.24027453300E+03  0.35754174323E+03  0.78580868613E+02 0.  0.
         13    1    3    3    0    0 -0.11538528712E+03 -0.12692765951E+03  0.13209796501E+03  0.21650465951E+03  0.00000000000E+00 0. -1.
        -13    1    3    3    0    0 -0.10998899692E+03 -0.23261758346E+03  0.30330060848E+03  0.39774335782E+03  0.00000000000E+00 0.  1.
          2    1    6    6  502    0 -0.11592147403E+03  0.48389438313E+02 -0.69050073232E+02  0.14334307969E+03  0.00000000000E+00 0. -1.
          3    1    5    5  503    0  0.17350057804E+02  0.13145561130E+02 -0.34416800671E+01  0.22038045397E+02  0.00000000000E+00 0. -1.
         -4    1    5    5    0  503  0.45056094154E+03  0.27494874931E+03  0.32861916844E+03  0.62176565896E+03  0.00000000000E+00 0.  1.
         -1    1    6    6    0  502 -0.12661524127E+03  0.23061494221E+02 -0.17122445977E+03  0.21419866354E+03  0.00000000000E+00 0.  1.
<mgrwt>
<rscale>  0 0.15295191E+04</rscale>
<asrwt>0</asrwt>
<pdfrwt beam="1">  1        1 0.84253226E-01 0.15295191E+04</pdfrwt>
<pdfrwt beam="2">  1       -1 0.16429961E+00 0.15295191E+04</pdfrwt>
<totfact> 0.10214990E+01</totfact>
</mgrwt>
</event>
<event>
12    1  0.2214165E-007  0.1149266E+04  0.7818608E-02  0.9158461E-01
         -2   -1    0    0    0  501 -0.00000000000E+00  0.00000000000E+00  0.10774794546E+03  0.10774794546E+03  0.00000000000E+00 0.  1.
          2   -1    0    0  501    0  0.00000000000E+00 -0.00000000000E+00 -0.30645889549E+04  0.30645889549E+04  0.00000000000E+00 0. -1.
         23    2    1    2    0    0 -0.19432763209E+03  0.26708127316E+02 -0.77426354534E+03  0.80380386097E+03  0.90222262328E+02 0.  0.
        254    2    1    2    0    0  0.19432763209E+03 -0.26708127316E+02 -0.21825774641E+04  0.23685330394E+04  0.89879242275E+03 0.  0.
        -24    2    4    4    0    0  0.26319151801E+03 -0.19960728781E+03 -0.21337650571E+04  0.21606625534E+04  0.79978161307E+02 0.  0.
         24    2    4    4    0    0 -0.68863885927E+02  0.17289916050E+03 -0.48812407034E+02  0.20787048601E+03  0.78683755546E+02 0.  0.
         11    1    3    3    0    0 -0.14038371266E+03 -0.36734565441E+01 -0.64968933513E+03  0.66469339793E+03  0.00000000000E+00 0. -1.
        -11    1    3    3    0    0 -0.53943919421E+02  0.30381583860E+02 -0.12457421021E+03  0.13911046304E+03  0.00000000000E+00 0.  1.
          2    1    6    6  502    0 -0.24498417128E+02  0.19781793909E+02  0.16554019212E+02  0.35574251420E+02  0.00000000000E+00 0. -1.
          3    1    5    5  503    0  0.11558092269E+03 -0.73858859130E+02 -0.11340525161E+04  0.11423174647E+04  0.00000000000E+00 0. -1.
         -4    1    5    5    0  503  0.14761059533E+03 -0.12574842868E+03 -0.99971254098E+03  0.10183450887E+04  0.00000000000E+00 0.  1.
         -1    1    6    6    0  502 -0.44365468799E+02  0.15311736659E+03 -0.65366426245E+02  0.17229623459E+03  0.00000000000E+00 0.  1.
<mgrwt>
<rscale>  0 0.11492661E+04</rscale>
<asrwt>0</asrwt>
<pdfrwt beam="1">  1        2 0.47147522E+00 0.11492661E+04</pdfrwt>
<pdfrwt beam="2">  1       -2 0.16576607E-01 0.11492661E+04</pdfrwt>
<totfact> 0.47309981E+01</totfact>
</mgrwt>
</event>
<event>
12    1  0.2214165E-007  0.2162346E+04  0.7818608E-02  0.8534266E-01
         -2   -1    0    0    0  501 -0.00000000000E+00  0.00000000000E+00  0.67941046880E+03  0.67941046880E+03  0.00000000000E+00 0.  1.
          2   -1    0    0  501    0  0.00000000000E+00 -0.00000000000E+00 -0.17205133460E+04  0.17205133460E+04  0.00000000000E+00 0. -1.
         23    2    1    2    0    0  0.14600345361E+03  0.37547269590E+03  0.45091237754E+03  0.61144610300E+03  0.90816357679E+02 0.  0.
        254    2    1    2    0    0 -0.14600345361E+03 -0.37547269590E+03 -0.14920152547E+04  0.17884777118E+04  0.90013679595E+03 0.  0.
        -24    2    4    4    0    0  0.31335925255E+02 -0.64390260583E+03 -0.10732117931E+04  0.12542852512E+04  0.76520796997E+02 0.  0.
         24    2    4    4    0    0 -0.17733937886E+03  0.26842990993E+03 -0.41880346158E+03  0.53419246062E+03  0.80382670429E+02 0.  0.
         11    1    3    3    0    0  0.16543327143E+02  0.16417066898E+03  0.18862356123E+03  0.25060833601E+03  0.00000000000E+00 0.  1.
        -11    1    3    3    0    0  0.12946012647E+03  0.21130202692E+03  0.26228881631E+03  0.36083776699E+03  0.00000000000E+00 0. -1.
          4    1    6    6  502    0 -0.11459902038E+03  0.23218802557E+03 -0.33521625094E+03  0.42357307467E+03  0.00000000000E+00 0. -1.
          3    1    5    5  503    0  0.32508009187E+02 -0.60633615814E+03 -0.96929214303E+03  0.11437777607E+04  0.00000000000E+00 0. -1.
         -4    1    5    5    0  503 -0.11720839317E+01 -0.37566447694E+02 -0.10391965009E+03  0.11050749046E+03  0.00000000000E+00 0.  1.
         -3    1    6    6    0  502 -0.62740358483E+02  0.36241884362E+02 -0.83587210643E+02  0.11061938595E+03  0.00000000000E+00 0.  1.
<mgrwt>
<rscale>  0 0.21623457E+04</rscale>
<asrwt>0</asrwt>
<pdfrwt beam="1">  1        2 0.26469435E+00 0.21623457E+04</pdfrwt>
<pdfrwt beam="2">  1       -2 0.10452469E+00 0.21623457E+04</pdfrwt>
<totfact> 0.65090042E+00</totfact>
</mgrwt>
</event>
<event>
12    1  0.2214165E-007  0.1468074E+04  0.7818608E-02  0.8905966E-01
         -2   -1    0    0    0  501 -0.00000000000E+00  0.00000000000E+00  0.11404195469E+04  0.11404195469E+04  0.00000000000E+00 0. -1.
          2   -1    0    0  501    0  0.00000000000E+00 -0.00000000000E+00 -0.47246652487E+03  0.47246652487E+03  0.00000000000E+00 0.  1.
         23    2    1    2    0    0 -0.49092227100E+02  0.33467898120E+03 -0.11952826272E+03  0.37146900503E+03  0.96343909469E+02 0.  0.
        254    2    1    2    0    0  0.49092227100E+02 -0.33467898120E+03  0.78748128480E+03  0.12414170668E+04  0.89809214035E+03 0.  0.
        -24    2    4    4    0    0  0.30297599289E+03 -0.17606185911E+03  0.85187706500E+03  0.92466166599E+03  0.80699641835E+02 0.  0.
         24    2    4    4    0    0 -0.25388376579E+03 -0.15861712209E+03 -0.64395780195E+02  0.31675540078E+03  0.81060529645E+02 0.  0.
         11    1    3    3    0    0 -0.47843550751E+02  0.12639312115E+03 -0.84430898660E+01  0.13540868580E+03  0.00000000000E+00 0. -1.
        -11    1    3    3    0    0 -0.12486763491E+01  0.20828586005E+03 -0.11108517286E+03  0.23606031923E+03  0.00000000000E+00 0.  1.
          4    1    6    6  502    0 -0.18053012772E+02 -0.44735898083E+02 -0.90150644930E+01  0.49076300138E+02  0.00000000000E+00 0. -1.
          1    1    5    5  503    0  0.91635826034E+02 -0.90778862423E+02  0.36405345320E+03  0.38622900366E+03  0.00000000000E+00 0. -1.
         -2    1    5    5    0  503  0.21134016685E+03 -0.85282996690E+02  0.48782361179E+03  0.53843266234E+03  0.00000000000E+00 0.  1.
         -3    1    6    6    0  502 -0.23583075302E+03 -0.11388122401E+03 -0.55380715702E+02  0.26767910064E+03  0.00000000000E+00 0.  1.
<mgrwt>
<rscale>  0 0.14680736E+04</rscale>
<asrwt>0</asrwt>
<pdfrwt beam="1">  1        2 0.72687158E-01 0.14680736E+04</pdfrwt>
<pdfrwt beam="2">  1       -2 0.17544916E+00 0.14680736E+04</pdfrwt>
<totfact> 0.12408683E+01</totfact>
</mgrwt>
</event>
<event>
12    1  0.2214165E-007  0.3440111E+04  0.7818608E-02  0.8128131E-01
         -1   -1    0    0    0  501 -0.00000000000E+00  0.00000000000E+00  0.13085883615E+04  0.13085883615E+04  0.00000000000E+00 0.  1.
          1   -1    0    0  501    0  0.00000000000E+00 -0.00000000000E+00 -0.22609032836E+04  0.22609032836E+04  0.00000000000E+00 0. -1.
         23    2    1    2    0    0 -0.14048174315E+04  0.41727841619E+03  0.22446164448E+03  0.14853092871E+04  0.90151849678E+02 0.  0.
        254    2    1    2    0    0  0.14048174315E+04 -0.41727841619E+03 -0.11767765666E+04  0.20841823580E+04  0.90076618579E+03 0.  0.
        -24    2    4    4    0    0  0.12033127796E+04 -0.52981780807E+03 -0.58150692966E+03  0.14395776745E+04  0.74599037010E+02 0.  0.
         24    2    4    4    0    0  0.20150465184E+03  0.11253939188E+03 -0.59526963691E+03  0.64460468351E+03  0.88882045078E+02 0.  0.
         11    1    3    3    0    0 -0.98800548284E+03  0.29980096748E+03  0.11679567305E+03  0.10390749172E+04  0.00000000000E+00 0.  1.
        -11    1    3    3    0    0 -0.41681194862E+03  0.11747744871E+03  0.10766597143E+03  0.44623436989E+03  0.00000000000E+00 0. -1.
          2    1    6    6  502    0  0.16224288128E+03  0.46950393792E+02 -0.44578102211E+03  0.47670516221E+03  0.00000000000E+00 0. -1.
          1    1    5    5  503    0  0.76986631049E+03 -0.31817421804E+03 -0.33474549144E+03  0.89776584536E+03  0.00000000000E+00 0. -1.
         -2    1    5    5    0  503  0.43344646914E+03 -0.21164359003E+03 -0.24676143822E+03  0.54181182914E+03  0.00000000000E+00 0.  1.
         -1    1    6    6    0  502  0.39261770556E+02  0.65588998092E+02 -0.14948861480E+03  0.16789952130E+03  0.00000000000E+00 0.  1.
<mgrwt>
<rscale>  0 0.34401115E+04</rscale>
<asrwt>0</asrwt>
<pdfrwt beam="1">  1        1 0.34783127E+00 0.34401115E+04</pdfrwt>
<pdfrwt beam="2">  1       -1 0.20132129E+00 0.34401115E+04</pdfrwt>
<totfact> 0.23920445E-01</totfact>
</mgrwt>
</event>
<event>
12    1  0.2214165E-007  0.1580875E+04  0.7818608E-02  0.8832384E-01
         -2   -1    0    0    0  501 -0.00000000000E+00  0.00000000000E+00  0.20088087118E+04  0.20088087118E+04  0.00000000000E+00 0.  1.
          2   -1    0    0  501    0  0.00000000000E+00 -0.00000000000E+00 -0.31102575856E+03  0.31102575856E+03  0.00000000000E+00 0. -1.
         23    2    1    2    0    0  0.13681886538E+02  0.79151266401E+02  0.13440042121E+04  0.13494937001E+04  0.91289689581E+02 0.  0.
        254    2    1    2    0    0 -0.13681886538E+02 -0.79151266401E+02  0.35377874110E+03  0.97034077023E+03  0.89997205275E+03 0.  0.
        -24    2    4    4    0    0 -0.35257764789E+01  0.40173436329E+03  0.10559316456E+03  0.42315479818E+03  0.80666827617E+02 0.  0.
         24    2    4    4    0    0 -0.10156110059E+02 -0.48088562969E+03  0.24818557654E+03  0.54718597205E+03  0.80388259074E+02 0.  0.
         13    1    3    3    0    0  0.42085007471E+02  0.24786693156E+02  0.32547778598E+03  0.32912203995E+03  0.00000000000E+00 0. -1.
        -13    1    3    3    0    0 -0.28403120933E+02  0.54364573246E+02  0.10185264262E+04  0.10203716602E+04  0.00000000000E+00 0.  1.
          4    1    6    6  502    0 -0.15580308027E+02 -0.39726375812E+03  0.23645495501E+03  0.46257127587E+03  0.00000000000E+00 0. -1.
          1    1    5    5  503    0  0.65304334647E+01  0.39519848176E+03  0.93579814863E+02  0.40617935484E+03  0.00000000000E+00 0. -1.
         -2    1    5    5    0  503 -0.10056209944E+02  0.65358815265E+01  0.12013349699E+02  0.16975443345E+02  0.00000000000E+00 0.  1.
         -3    1    6    6    0  502  0.54241979675E+01 -0.83621871564E+02  0.11730621527E+02  0.84614696175E+02  0.00000000000E+00 0.  1.
<mgrwt>
<rscale>  0 0.15808748E+04</rscale>
<asrwt>0</asrwt>
<pdfrwt beam="1">  1        2 0.47850118E-01 0.15808748E+04</pdfrwt>
<pdfrwt beam="2">  1       -2 0.30904749E+00 0.15808748E+04</pdfrwt>
<totfact> 0.28427097E+00</totfact>
</mgrwt>
</event>
<event>
12    1  0.2214165E-007  0.1312835E+04  0.7818608E-02  0.9019448E-01
         -1   -1    0    0    0  501 -0.00000000000E+00  0.00000000000E+00  0.67082684153E+03  0.67082684153E+03  0.00000000000E+00 0.  1.
          1   -1    0    0  501    0  0.00000000000E+00 -0.00000000000E+00 -0.64231780098E+03  0.64231780098E+03  0.00000000000E+00 0. -1.
         23    2    1    2    0    0 -0.32528729976E+03  0.83002490970E+02  0.49001128470E+02  0.35113840855E+03  0.90530826079E+02 0.  0.
        254    2    1    2    0    0  0.32528729976E+03 -0.83002490970E+02 -0.20492087916E+02  0.96200623396E+03  0.90129619306E+03 0.  0.
        -24    2    4    4    0    0  0.36618963574E+03  0.30366996771E+03 -0.20503917039E+03  0.52433311663E+03  0.81079326533E+02 0.  0.
         24    2    4    4    0    0 -0.40902335973E+02 -0.38667245868E+03  0.18454708248E+03  0.43767311733E+03  0.79445204968E+02 0.  0.
         11    1    3    3    0    0 -0.49965859889E+02 -0.12794369937E+02 -0.12812202342E+02  0.53145419233E+02  0.00000000000E+00 0. -1.
        -11    1    3    3    0    0 -0.27532143987E+03  0.95796860908E+02  0.61813330811E+02  0.29799298931E+03  0.00000000000E+00 0.  1.
          4    1    6    6  502    0  0.20495825857E+01 -0.29632951699E+03  0.12838470392E+03  0.32295203301E+03  0.00000000000E+00 0. -1.
          3    1    5    5  503    0  0.17073061197E+03  0.18248416573E+03 -0.13441394887E+03  0.28375433435E+03  0.00000000000E+00 0. -1.
         -4    1    5    5    0  503  0.19545902376E+03  0.12118580198E+03 -0.70625221518E+02  0.24057878229E+03  0.00000000000E+00 0.  1.
         -3    1    6    6    0  502 -0.42951918559E+02 -0.90342941693E+02  0.56162378554E+02  0.11472108432E+03  0.00000000000E+00 0.  1.
<mgrwt>
<rscale>  0 0.13128351E+04</rscale>
<asrwt>0</asrwt>
<pdfrwt beam="1">  1        1 0.98818123E-01 0.13128351E+04</pdfrwt>
<pdfrwt beam="2">  1       -1 0.10320413E+00 0.13128351E+04</pdfrwt>
<totfact> 0.26978481E+01</totfact>
</mgrwt>
</event>
<event>
12    1  0.2214165E-007  0.2978325E+04  0.7818608E-02  0.8249948E-01
         -2   -1    0    0    0  501 -0.00000000000E+00  0.00000000000E+00  0.47025837841E+03  0.47025837841E+03  0.00000000000E+00 0.  1.
          2   -1    0    0  501    0  0.00000000000E+00 -0.00000000000E+00 -0.47157153258E+04  0.47157153258E+04  0.00000000000E+00 0. -1.
         23    2    1    2    0    0  0.47490785887E+02  0.13488079080E+04 -0.20430821570E+04  0.24502530182E+04  0.89537733035E+02 0.  0.
        254    2    1    2    0    0 -0.47490785887E+02 -0.13488079080E+04 -0.22023747904E+04  0.27357206860E+04  0.90120741635E+03 0.  0.
        -24    2    4    4    0    0  0.23112309788E+03 -0.12368559084E+04 -0.14480463179E+04  0.19200337845E+04  0.80381404297E+02 0.  0.
         24    2    4    4    0    0 -0.27861388376E+03 -0.11195199959E+03 -0.75432847246E+03  0.81568690156E+03  0.78579453939E+02 0.  0.
         11    1    3    3    0    0  0.67818295077E+01  0.43558111123E+03 -0.73517576464E+03  0.85455269152E+03  0.00000000000E+00 0. -1.
        -11    1    3    3    0    0  0.40708956379E+02  0.91322679673E+03 -0.13079063924E+04  0.15957003267E+04  0.00000000000E+00 0.  1.
          4    1    6    6  502    0 -0.41191574375E+01  0.87164846505E+01 -0.36458399888E+02  0.37711529869E+02  0.00000000000E+00 0. -1.
          1    1    5    5  503    0  0.17438090787E+02 -0.18644929942E+03 -0.18174195079E+03  0.26095510139E+03  0.00000000000E+00 0. -1.
         -2    1    5    5    0  503  0.21368500709E+03 -0.10504066089E+04 -0.12663043671E+04  0.16590786831E+04  0.00000000000E+00 0.  1.
         -3    1    6    6    0  502 -0.27449472633E+03 -0.12066848424E+03 -0.71787007257E+03  0.77797537169E+03  0.00000000000E+00 0.  1.
<mgrwt>
<rscale>  0 0.29783248E+04</rscale>
<asrwt>0</asrwt>
<pdfrwt beam="1">  1        2 0.72549466E+00 0.29783248E+04</pdfrwt>
<pdfrwt beam="2">  1       -2 0.72347443E-01 0.29783248E+04</pdfrwt>
<totfact> 0.10937701E-01</totfact>
</mgrwt>
</event>
<event>
12    1  0.2214165E-007  0.2348458E+04  0.7818608E-02  0.8459056E-01
         -2   -1    0    0    0  501 -0.00000000000E+00  0.00000000000E+00  0.17804672867E+04  0.17804672867E+04  0.00000000000E+00 0.  1.
          2   -1    0    0  501    0  0.00000000000E+00 -0.00000000000E+00 -0.77441131064E+03  0.77441131064E+03  0.00000000000E+00 0. -1.
         23    2    1    2    0    0 -0.67999276681E+02  0.17757064903E+03  0.14975781190E+04  0.15127969638E+04  0.98281198184E+02 0.  0.
        254    2    1    2    0    0  0.67999276681E+02 -0.17757064903E+03 -0.49152214297E+03  0.10420816336E+04  0.89899103276E+03 0.  0.
        -24    2    4    4    0    0 -0.21565838156E+03 -0.38778132796E+02 -0.64224726491E+03  0.68329777239E+03  0.80012594920E+02 0.  0.
         24    2    4    4    0    0  0.28365765824E+03 -0.13879251623E+03  0.15072512194E+03  0.35878386119E+03  0.79263907450E+02 0.  0.
         11    1    3    3    0    0 -0.10557327822E+02 -0.98323015198E+01  0.19748063018E+03  0.19800689538E+03  0.00000000000E+00 0.  1.
        -11    1    3    3    0    0 -0.57441948858E+02  0.18740295055E+03  0.13000974889E+04  0.13147900684E+04  0.00000000000E+00 0. -1.
          2    1    6    6  502    0  0.22726516472E+03 -0.13615992919E+03  0.14506284432E+03  0.30204670205E+03  0.00000000000E+00 0. -1.
          1    1    5    5  503    0 -0.14432032421E+03 -0.20964600242E+02 -0.52520022646E+03  0.54507169099E+03  0.00000000000E+00 0. -1.
         -2    1    5    5    0  503 -0.71338057358E+02 -0.17813532554E+02 -0.11704703845E+03  0.13822608140E+03  0.00000000000E+00 0.  1.
         -1    1    6    6    0  502  0.56392493521E+02 -0.26325870411E+01  0.56622776203E+01  0.56737159146E+02  0.00000000000E+00 0.  1.
<mgrwt>
<rscale>  0 0.23484582E+04</rscale>
<asrwt>0</asrwt>
<pdfrwt beam="1">  1        2 0.11914020E+00 0.23484582E+04</pdfrwt>
<pdfrwt beam="2">  1       -2 0.27391804E+00 0.23484582E+04</pdfrwt>
<totfact> 0.14896310E+00</totfact>
</mgrwt>
</event>
<event>
12    1  0.2214165E-007  0.2845485E+04  0.7818608E-02  0.8289285E-01
          2   -1    0    0  501    0  0.00000000000E+00  0.00000000000E+00  0.18547821782E+04  0.18547821782E+04  0.00000000000E+00 0.  1.
         -2   -1    0    0    0  501 -0.00000000000E+00 -0.00000000000E+00 -0.10913391438E+04  0.10913391438E+04  0.00000000000E+00 0. -1.
         23    2    1    2    0    0  0.92170107708E+03  0.83276728101E+03  0.66097574132E+03  0.14101543961E+04  0.92802319322E+02 0.  0.
        254    2    1    2    0    0 -0.92170107708E+03 -0.83276728101E+03  0.10246729311E+03  0.15359669259E+04  0.89758600226E+03 0.  0.
        -24    2    4    4    0    0 -0.18636828658E+03  0.18363160630E+03  0.47177696973E+02  0.27781016585E+03  0.80616673734E+02 0.  0.
         24    2    4    4    0    0 -0.73533279050E+03 -0.10163988873E+04  0.55289596133E+02  0.12581567600E+04  0.78233512487E+02 0.  0.
         13    1    3    3    0    0  0.34034116536E+03  0.27605363369E+03  0.19070641897E+03  0.47791908912E+03  0.00000000000E+00 0. -1.
        -13    1    3    3    0    0  0.58135991173E+03  0.55671364733E+03  0.47026932235E+03  0.93223530700E+03  0.00000000000E+00 0.  1.
          4    1    6    6  502    0 -0.64935965710E+03 -0.87988148788E+03  0.23996878844E+02  0.10938168252E+04  0.00000000000E+00 0. -1.
          1    1    5    5  503    0 -0.66642533333E+02  0.11931685008E+03  0.36654586209E+02  0.14149663124E+03  0.00000000000E+00 0. -1.
         -4    1    5    5    0  503 -0.11972575325E+03  0.64314756219E+02  0.10523110764E+02  0.13631353461E+03  0.00000000000E+00 0.  1.
         -3    1    6    6    0  502 -0.85973133397E+02 -0.13651739943E+03  0.31292717289E+02  0.16433993479E+03  0.00000000000E+00 0.  1.
<mgrwt>
<rscale>  0 0.28454851E+04</rscale>
<asrwt>0</asrwt>
<pdfrwt beam="1">  1        2 0.28535110E+00 0.28454851E+04</pdfrwt>
<pdfrwt beam="2">  1       -2 0.16789833E+00 0.28454851E+04</pdfrwt>
<totfact> 0.15390455E+00</totfact>
</mgrwt>
</event>
<event>
12    1  0.2214165E-007  0.1514387E+04  0.7818608E-02  0.8874942E-01
         -2   -1    0    0    0  501 -0.00000000000E+00  0.00000000000E+00  0.15082712453E+04  0.15082712453E+04  0.00000000000E+00 0.  1.
          2   -1    0    0  501    0  0.00000000000E+00 -0.00000000000E+00 -0.38013174378E+03  0.38013174378E+03  0.00000000000E+00 0. -1.
         23    2    1    2    0    0 -0.31023757775E+03  0.17103532010E+03 -0.44303424766E+02  0.36779846881E+03  0.88388261904E+02 0.  0.
        254    2    1    2    0    0  0.31023757775E+03 -0.17103532010E+03  0.11724429263E+04  0.15206045203E+04  0.90117437619E+03 0.  0.
        -24    2    4    4    0    0 -0.74580831738E+02 -0.33054771233E+03  0.92303319520E+02  0.36021518034E+03  0.80068612854E+02 0.  0.
         24    2    4    4    0    0  0.38481840949E+03  0.15951239223E+03  0.10801396067E+04  0.11603893399E+04  0.79198728392E+02 0.  0.
         11    1    3    3    0    0 -0.14869560366E+03  0.10478997218E+03 -0.62284479194E+02  0.19227760443E+03  0.00000000000E+00 0. -1.
        -11    1    3    3    0    0 -0.16154197409E+03  0.66245347923E+02  0.17981054428E+02  0.17552086438E+03  0.00000000000E+00 0.  1.
          2    1    6    6  502    0  0.10697914487E+02  0.56618450740E+01  0.89905909493E+02  0.90717001856E+02  0.00000000000E+00 0. -1.
          1    1    5    5  503    0 -0.31625558993E+02 -0.16751633091E+03  0.54486611017E+01  0.17056255454E+03  0.00000000000E+00 0. -1.
         -2    1    5    5    0  503 -0.42955272744E+02 -0.16303138141E+03  0.86854658418E+02  0.18965262580E+03  0.00000000000E+00 0.  1.
         -1    1    6    6    0  502  0.37412049500E+03  0.15385054715E+03  0.99023369726E+03  0.10696723381E+04  0.00000000000E+00 0.  1.
<mgrwt>
<rscale>  0 0.15143867E+04</rscale>
<asrwt>0</asrwt>
<pdfrwt beam="1">  1        2 0.58481807E-01 0.15143867E+04</pdfrwt>
<pdfrwt beam="2">  1       -2 0.23204173E+00 0.15143867E+04</pdfrwt>
<totfact> 0.67470401E+00</totfact>
</mgrwt>
</event>
<event>
12    1  0.2214165E-007  0.2421047E+04  0.7818608E-02  0.8431666E-01
         -1   -1    0    0    0  501 -0.00000000000E+00  0.00000000000E+00  0.65737469683E+03  0.65737469683E+03  0.00000000000E+00 0.  1.
          1   -1    0    0  501    0  0.00000000000E+00 -0.00000000000E+00 -0.22291196832E+04  0.22291196832E+04  0.00000000000E+00 0. -1.
         23    2    1    2    0    0  0.75639127781E+03  0.71212172862E+03 -0.58653194841E+03  0.11952400439E+04  0.73033653557E+02 0.  0.
        254    2    1    2    0    0 -0.75639127781E+03 -0.71212172862E+03 -0.98521303799E+03  0.16912543362E+04  0.90025073053E+03 0.  0.
        -24    2    4    4    0    0 -0.63693782680E+02  0.20018270701E+03 -0.19729541786E+03  0.29869047200E+03  0.78488865561E+02 0.  0.
         24    2    4    4    0    0 -0.69269749513E+03 -0.91230443563E+03 -0.78791762013E+03  0.13925638642E+04  0.79314163991E+02 0.  0.
         13    1    3    3    0    0  0.47819857054E+03  0.43598767431E+03 -0.32609775833E+03  0.72463706295E+03  0.00000000000E+00 0.  1.
        -13    1    3    3    0    0  0.27819270727E+03  0.27613405432E+03 -0.26043419008E+03  0.47060298097E+03  0.00000000000E+00 0. -1.
          2    1    6    6  502    0 -0.81781324845E+02 -0.14151104253E+03 -0.90183295850E+02  0.18667240584E+03  0.00000000000E+00 0. -1.
          1    1    5    5  503    0  0.83313734634E+01 -0.12046627341E+01 -0.16947207530E+02  0.18922759819E+02  0.00000000000E+00 0. -1.
         -2    1    5    5    0  503 -0.72025156143E+02  0.20138736974E+03 -0.18034821033E+03  0.27976771218E+03  0.00000000000E+00 0.  1.
         -1    1    6    6    0  502 -0.61091617028E+03 -0.77079339311E+03 -0.69773432428E+03  0.12058914583E+04  0.00000000000E+00 0.  1.
<mgrwt>
<rscale>  0 0.24210468E+04</rscale>
<asrwt>0</asrwt>
<pdfrwt beam="1">  1        1 0.34294149E+00 0.24210468E+04</pdfrwt>
<pdfrwt beam="2">  1       -1 0.10113457E+00 0.24210468E+04</pdfrwt>
<totfact> 0.17283542E+00</totfact>
</mgrwt>
</event>
<event>
12    1  0.2214165E-007  0.2574586E+04  0.7818608E-02  0.8376885E-01
         -1   -1    0    0    0  501 -0.00000000000E+00  0.00000000000E+00  0.10529426234E+04  0.10529426234E+04  0.00000000000E+00 0.  1.
          1   -1    0    0  501    0  0.00000000000E+00 -0.00000000000E+00 -0.15738016359E+04  0.15738016359E+04  0.00000000000E+00 0. -1.
         23    2    1    2    0    0  0.99246306868E+03  0.91839771494E+02 -0.76775987372E+03  0.12614195759E+04  0.91140750394E+02 0.  0.
        254    2    1    2    0    0 -0.99246306868E+03 -0.91839771494E+02  0.24690086122E+03  0.13653246834E+04  0.89985219318E+03 0.  0.
        -24    2    4    4    0    0 -0.77800523114E+03 -0.17467183323E+03 -0.22645648113E+03  0.83277220218E+03  0.80153689130E+02 0.  0.
         24    2    4    4    0    0 -0.21445783754E+03  0.82832061736E+02  0.47335734235E+03  0.53255248124E+03  0.81802549945E+02 0.  0.
         13    1    3    3    0    0  0.61538264700E+03  0.31342715701E+02 -0.42782575887E+03  0.75014201856E+03  0.00000000000E+00 0.  1.
        -13    1    3    3    0    0  0.37708042168E+03  0.60497055793E+02 -0.33993411485E+03  0.51127755731E+03  0.00000000000E+00 0. -1.
          4    1    6    6  502    0  0.46412451640E+01  0.51093094833E+01  0.23404794345E+01  0.72886242908E+01  0.00000000000E+00 0. -1.
          1    1    5    5  503    0 -0.58946191585E+03 -0.97728372514E+02 -0.15992672396E+03  0.61854081682E+03  0.00000000000E+00 0. -1.
         -2    1    5    5    0  503 -0.18854331529E+03 -0.76943460716E+02 -0.66529757178E+02  0.21423138537E+03  0.00000000000E+00 0.  1.
         -3    1    6    6    0  502 -0.21909908271E+03  0.77722752252E+02  0.47101686292E+03  0.52526385694E+03  0.00000000000E+00 0.  1.
<mgrwt>
<rscale>  0 0.25745857E+04</rscale>
<asrwt>0</asrwt>
<pdfrwt beam="1">  1        1 0.24212333E+00 0.25745857E+04</pdfrwt>
<pdfrwt beam="2">  1       -1 0.16199117E+00 0.25745857E+04</pdfrwt>
<totfact> 0.14493618E+00</totfact>
</mgrwt>
</event>
<event>
12    1  0.2214165E-007  0.2526690E+04  0.7818608E-02  0.8393538E-01
         -2   -1    0    0    0  501 -0.00000000000E+00  0.00000000000E+00  0.13497820653E+04  0.13497820653E+04  0.00000000000E+00 0.  1.
          2   -1    0    0  501    0  0.00000000000E+00 -0.00000000000E+00 -0.11824429062E+04  0.11824429062E+04  0.00000000000E+00 0. -1.
         23    2    1    2    0    0 -0.16498856491E+03  0.10464063161E+04 -0.26669270972E+03  0.10968055971E+04  0.98336725143E+02 0.  0.
        254    2    1    2    0    0  0.16498856491E+03 -0.10464063161E+04  0.43403186885E+03  0.14354193744E+04  0.86594325010E+03 0.  0.
        -24    2    4    4    0    0  0.32185334988E+03 -0.82869066927E+03  0.63087952417E+03  0.10930051951E+04  0.79583781793E+02 0.  0.
         24    2    4    4    0    0 -0.15686478497E+03 -0.21771564681E+03 -0.19684765531E+03  0.34241417933E+03  0.80571751705E+02 0.  0.
         11    1    3    3    0    0 -0.15117282864E+03  0.70943849816E+03 -0.15698505870E+03  0.74215935988E+03  0.00000000000E+00 0.  1.
        -11    1    3    3    0    0 -0.13815736274E+02  0.33696781792E+03 -0.10970765102E+03  0.35464623722E+03  0.00000000000E+00 0. -1.
          4    1    6    6  502    0 -0.39651672064E+02 -0.11505677200E+03 -0.63171056232E+02  0.13711636747E+03  0.00000000000E+00 0. -1.
          3    1    5    5  503    0  0.10438742220E+02 -0.51887146256E+02  0.59620531468E+02  0.79723591604E+02  0.00000000000E+00 0. -1.
         -4    1    5    5    0  503  0.31141460766E+03 -0.77680352301E+03  0.57125899270E+03  0.10132816035E+04  0.00000000000E+00 0.  1.
         -3    1    6    6    0  502 -0.11721311290E+03 -0.10265887481E+03 -0.13367659908E+03  0.20529781186E+03  0.00000000000E+00 0.  1.
<mgrwt>
<rscale>  0 0.25266897E+04</rscale>
<asrwt>0</asrwt>
<pdfrwt beam="1">  1        2 0.18191429E+00 0.25266897E+04</pdfrwt>
<pdfrwt beam="2">  1       -2 0.20765878E+00 0.25266897E+04</pdfrwt>
<totfact> 0.20474210E+00</totfact>
</mgrwt>
</event>
<event>
12    1  0.2214165E-007  0.3058101E+04  0.7818608E-02  0.8227332E-01
          2   -1    0    0  501    0  0.00000000000E+00  0.00000000000E+00  0.14523218235E+04  0.14523218235E+04  0.00000000000E+00 0. -1.
         -2   -1    0    0    0  501 -0.00000000000E+00 -0.00000000000E+00 -0.16098330078E+04  0.16098330078E+04  0.00000000000E+00 0.  1.
         23    2    1    2    0    0 -0.13382815071E+04  0.39273584041E+03 -0.39492214200E+02  0.13983280405E+04  0.92319235374E+02 0.  0.
        254    2    1    2    0    0  0.13382815071E+04 -0.39273584041E+03 -0.11801897010E+03  0.16638267908E+04  0.89952892112E+03 0.  0.
        -24    2    4    4    0    0  0.87698968958E+02  0.23106620578E+03 -0.18042158069E+02  0.26040898993E+03  0.80028882023E+02 0.  0.
         24    2    4    4    0    0  0.12505825381E+04 -0.62380204619E+03 -0.99976812034E+02  0.14034178009E+04  0.80625575051E+02 0.  0.
         11    1    3    3    0    0 -0.94389328924E+03  0.29381904674E+03 -0.66705041597E+02  0.99081468312E+03  0.00000000000E+00 0.  1.
        -11    1    3    3    0    0 -0.39438821785E+03  0.98916793674E+02  0.27212827396E+02  0.40751335736E+03  0.00000000000E+00 0. -1.
          4    1    6    6  502    0  0.62680135815E+03 -0.27859374071E+03 -0.75464896020E+02  0.69006475455E+03  0.00000000000E+00 0. -1.
          1    1    5    5  503    0  0.67563398898E+02  0.16860789567E+03  0.22872497431E+02  0.18307535741E+03  0.00000000000E+00 0. -1.
         -2    1    5    5    0  503  0.20135570061E+02  0.62458310110E+02 -0.40914655500E+02  0.77333632517E+02  0.00000000000E+00 0.  1.
         -3    1    6    6    0  502  0.62378117998E+03 -0.34520830548E+03 -0.24511916014E+02  0.71335304632E+03  0.00000000000E+00 0.  1.
<mgrwt>
<rscale>  0 0.30581011E+04</rscale>
<asrwt>0</asrwt>
<pdfrwt beam="1">  1        2 0.22343413E+00 0.30581011E+04</pdfrwt>
<pdfrwt beam="2">  1       -2 0.24766662E+00 0.30581011E+04</pdfrwt>
<totfact> 0.76448945E-01</totfact>
</mgrwt>
</event>
<event>
12    1  0.2214165E-007  0.1818938E+04  0.7818608E-02  0.8696293E-01
         -1   -1    0    0    0  501 -0.00000000000E+00  0.00000000000E+00  0.58344220775E+03  0.58344220775E+03  0.00000000000E+00 0.  1.
          1   -1    0    0  501    0  0.00000000000E+00 -0.00000000000E+00 -0.14176787147E+04  0.14176787147E+04  0.00000000000E+00 0. -1.
         23    2    1    2    0    0  0.49548128427E+03 -0.10107028049E+02 -0.83439486307E+03  0.97480646142E+03  0.91809556313E+02 0.  0.
        254    2    1    2    0    0 -0.49548128427E+03  0.10107028049E+02  0.15835608273E+00  0.10263144611E+04  0.89873104589E+03 0.  0.
        -24    2    4    4    0    0  0.14541962751E+03  0.12029183381E+02  0.27743414477E+03  0.32324186378E+03  0.78892512325E+02 0.  0.
         24    2    4    4    0    0 -0.64090091178E+03 -0.19221553316E+01 -0.27727578869E+03  0.70307259729E+03  0.81679499638E+02 0.  0.
         11    1    3    3    0    0  0.30070193444E+03  0.26167393386E+02 -0.56269833409E+03  0.63854193366E+03  0.00000000000E+00 0. -1.
        -11    1    3    3    0    0  0.19477934983E+03 -0.36274421435E+02 -0.27169652898E+03  0.33626452776E+03  0.00000000000E+00 0.  1.
          2    1    6    6  502    0 -0.12417386109E+03  0.73462233467E+00 -0.90354751624E+02  0.15356975154E+03  0.00000000000E+00 0. -1.
          3    1    5    5  503    0  0.17083599283E+02  0.95270497205E+01  0.11279133275E+03  0.11447488276E+03  0.00000000000E+00 0. -1.
         -4    1    5    5    0  503  0.12833602823E+03  0.25021336603E+01  0.16464281202E+03  0.20876698102E+03  0.00000000000E+00 0.  1.
         -1    1    6    6    0  502 -0.51672705069E+03 -0.26567776663E+01 -0.18692103706E+03  0.54950284575E+03  0.00000000000E+00 0.  1.
<mgrwt>
<rscale>  0 0.18189377E+04</rscale>
<asrwt>0</asrwt>
<pdfrwt beam="1">  1        1 0.21810441E+00 0.18189377E+04</pdfrwt>
<pdfrwt beam="2">  1       -1 0.89760341E-01 0.18189377E+04</pdfrwt>
<totfact> 0.85467059E+00</totfact>
</mgrwt>
</event>
<event>
12    1  0.2214165E-007  0.4370687E+04  0.7818608E-02  0.7933675E-01
         -1   -1    0    0    0  501 -0.00000000000E+00  0.00000000000E+00  0.39565046815E+04  0.39565046815E+04  0.00000000000E+00 0.  1.
          1   -1    0    0  501    0  0.00000000000E+00 -0.00000000000E+00 -0.12070570416E+04  0.12070570416E+04  0.00000000000E+00 0. -1.
         23    2    1    2    0    0  0.16156538698E+04  0.10018267176E+04  0.23565171961E+04  0.30290475347E+04  0.89227085220E+02 0.  0.
        254    2    1    2    0    0 -0.16156538698E+04 -0.10018267176E+04  0.39293044378E+03  0.21345141883E+04  0.88755973743E+03 0.  0.
        -24    2    4    4    0    0 -0.13925352954E+04 -0.10398699198E+04  0.82041267871E+02  0.17421144814E+04  0.88023278353E+02 0.  0.
         24    2    4    4    0    0 -0.22311857437E+03  0.38043202178E+02  0.31088917591E+03  0.39239970696E+03  0.78078594135E+02 0.  0.
         11    1    3    3    0    0  0.14951051053E+04  0.92362193444E+03  0.22135852870E+04  0.28263716275E+04  0.00000000000E+00 0.  1.
        -11    1    3    3    0    0  0.12054876443E+03  0.78204783184E+02  0.14293190913E+03  0.20267590722E+03  0.00000000000E+00 0. -1.
          2    1    6    6  502    0 -0.11772868464E+03  0.57362740538E+02  0.19130180035E+03  0.23183378961E+03  0.00000000000E+00 0. -1.
          1    1    5    5  503    0 -0.11499470546E+04 -0.83630315442E+03  0.95935637219E+02  0.14251262544E+04  0.00000000000E+00 0. -1.
         -2    1    5    5    0  503 -0.24258824077E+03 -0.20356676538E+03 -0.13894369349E+02  0.31698822695E+03  0.00000000000E+00 0.  1.
         -1    1    6    6    0  502 -0.10538988973E+03 -0.19319538360E+02  0.11958737557E+03  0.16056591735E+03  0.00000000000E+00 0.  1.
<mgrwt>
<rscale>  0 0.43706873E+04</rscale>
<asrwt>0</asrwt>
<pdfrwt beam="1">  1        1 0.18570109E+00 0.43706873E+04</pdfrwt>
<pdfrwt beam="2">  1       -1 0.60869302E+00 0.43706873E+04</pdfrwt>
<totfact> 0.32840086E-03</totfact>
</mgrwt>
</event>
<event>
12    1  0.2214165E-007  0.2563621E+04  0.7818608E-02  0.8380664E-01
          2   -1    0    0  501    0  0.00000000000E+00  0.00000000000E+00  0.12847118261E+04  0.12847118261E+04  0.00000000000E+00 0. -1.
         -2   -1    0    0    0  501 -0.00000000000E+00 -0.00000000000E+00 -0.12789154361E+04  0.12789154361E+04  0.00000000000E+00 0.  1.
         23    2    1    2    0    0 -0.76213168150E+03  0.47800448406E+03  0.66971687394E+03  0.11252738458E+04  0.91583569161E+02 0.  0.
        254    2    1    2    0    0  0.76213168150E+03 -0.47800448406E+03 -0.66392048387E+03  0.14383534164E+04  0.90484095552E+03 0.  0.
        -24    2    4    4    0    0 -0.13613654359E+03 -0.27269630465E+03 -0.32669821858E+03  0.45402589450E+03  0.80692959945E+02 0.  0.
         24    2    4    4    0    0  0.89826822509E+03 -0.20530817941E+03 -0.33722226529E+03  0.98432752188E+03  0.78387252650E+02 0.  0.
         11    1    3    3    0    0 -0.45337997814E+03  0.24623524247E+03  0.42238309725E+03  0.66677783411E+03  0.00000000000E+00 0. -1.
        -11    1    3    3    0    0 -0.30875170336E+03  0.23176924159E+03  0.24733377670E+03  0.45849601173E+03  0.00000000000E+00 0.  1.
          2    1    6    6  502    0  0.70801733028E+03 -0.13346276146E+03 -0.28089424341E+03  0.77330616489E+03  0.00000000000E+00 0. -1.
          1    1    5    5  503    0 -0.55002704965E+02 -0.17695245493E+03 -0.15641537932E+03  0.24249379321E+03  0.00000000000E+00 0. -1.
         -2    1    5    5    0  503 -0.81133838624E+02 -0.95743849722E+02 -0.17028283926E+03  0.21153210129E+03  0.00000000000E+00 0.  1.
         -1    1    6    6    0  502  0.19025089481E+03 -0.71845417951E+02 -0.56328021882E+02  0.21102135699E+03  0.00000000000E+00 0.  1.
<mgrwt>
<rscale>  0 0.25636207E+04</rscale>
<asrwt>0</asrwt>
<pdfrwt beam="1">  1        2 0.19764797E+00 0.25636207E+04</pdfrwt>
<pdfrwt beam="2">  1       -2 0.19675622E+00 0.25636207E+04</pdfrwt>
<totfact> 0.20919369E+00</totfact>
</mgrwt>
</event>
<event>
12    1  0.2214165E-007  0.2107799E+04  0.7818608E-02  0.8557816E-01
         -2   -1    0    0    0  501 -0.00000000000E+00  0.00000000000E+00  0.10546926959E+04  0.10546926959E+04  0.00000000000E+00 0.  1.
          2   -1    0    0  501    0  0.00000000000E+00 -0.00000000000E+00 -0.10531065992E+04  0.10531065992E+04  0.00000000000E+00 0. -1.
         23    2    1    2    0    0  0.78866703882E+03 -0.64348462964E+02 -0.33264847175E+03  0.86385022486E+03  0.97189415183E+02 0.  0.
        254    2    1    2    0    0 -0.78866703882E+03  0.64348462964E+02  0.33423456843E+03  0.12439490702E+04  0.89975558893E+03 0.  0.
        -24    2    4    4    0    0 -0.39920476297E+03 -0.38259976468E+03  0.32341868887E+03  0.64548681108E+03  0.79413803930E+02 0.  0.
         24    2    4    4    0    0 -0.38946227585E+03  0.44694822764E+03  0.10815879560E+02  0.59846225916E+03  0.81218901043E+02 0.  0.
         13    1    3    3    0    0  0.51699401492E+03  0.11829539380E+01 -0.19766874207E+03  0.55349538610E+03  0.00000000000E+00 0.  1.
        -13    1    3    3    0    0  0.27167302390E+03 -0.65531416902E+02 -0.13497972968E+03  0.31035483876E+03  0.00000000000E+00 0. -1.
          2    1    6    6  502    0 -0.95987541050E+02  0.15736097256E+03 -0.17743421162E+02  0.18517805679E+03  0.00000000000E+00 0. -1.
          1    1    5    5  503    0 -0.11791472410E+03 -0.12476274557E+03  0.14289654210E+03  0.22335856058E+03  0.00000000000E+00 0. -1.
         -2    1    5    5    0  503 -0.28129003887E+03 -0.25783701912E+03  0.18052214677E+03  0.42212825050E+03  0.00000000000E+00 0.  1.
         -1    1    6    6    0  502 -0.29347473480E+03  0.28958725509E+03  0.28559300723E+02  0.41328420237E+03  0.00000000000E+00 0.  1.
<mgrwt>
<rscale>  0 0.21077987E+04</rscale>
<asrwt>0</asrwt>
<pdfrwt beam="1">  1        2 0.16201640E+00 0.21077987E+04</pdfrwt>
<pdfrwt beam="2">  1       -2 0.16226042E+00 0.21077987E+04</pdfrwt>
<totfact> 0.52021457E+00</totfact>
</mgrwt>
</event>
<event>
12    1  0.2214165E-007  0.1580547E+04  0.7818608E-02  0.8832589E-01
         -1   -1    0    0    0  501 -0.00000000000E+00  0.00000000000E+00  0.48659722635E+03  0.48659722635E+03  0.00000000000E+00 0.  1.
          1   -1    0    0  501    0  0.00000000000E+00 -0.00000000000E+00 -0.12834682591E+04  0.12834682591E+04  0.00000000000E+00 0. -1.
         23    2    1    2    0    0 -0.20921736477E+02  0.33369259501E+03 -0.73314051732E+03  0.81011780707E+03  0.83710072170E+02 0.  0.
        254    2    1    2    0    0  0.20921736477E+02 -0.33369259501E+03 -0.63730515449E+02  0.95994767838E+03  0.89757980125E+03 0.  0.
        -24    2    4    4    0    0 -0.88330260352E+00  0.12894768375E+03  0.31896744353E+03  0.35359308258E+03  0.81606082162E+02 0.  0.
         24    2    4    4    0    0  0.21805039081E+02 -0.46264027876E+03 -0.38269795898E+03  0.60635459581E+03  0.81833249879E+02 0.  0.
         13    1    3    3    0    0 -0.18134113545E+02  0.72971964753E+02 -0.97851403844E+02  0.12340442029E+03  0.00000000000E+00 0.  1.
        -13    1    3    3    0    0 -0.27876229317E+01  0.26072063026E+03 -0.63528911347E+03  0.68671338678E+03  0.00000000000E+00 0. -1.
          2    1    6    6  502    0  0.46545761266E+02 -0.23088152668E+03 -0.21828840228E+03  0.32112709917E+03  0.00000000000E+00 0. -1.
          3    1    5    5  503    0 -0.51630028877E+01  0.13389681465E+03  0.32004345188E+03  0.34696228133E+03  0.00000000000E+00 0. -1.
         -4    1    5    5    0  503  0.42797002842E+01 -0.49491309087E+01 -0.10760083446E+01  0.66308012511E+01  0.00000000000E+00 0.  1.
         -1    1    6    6    0  502 -0.24740722186E+02 -0.23175875208E+03 -0.16440955670E+03  0.28522749663E+03  0.00000000000E+00 0.  1.
<mgrwt>
<rscale>  0 0.15805469E+04</rscale>
<asrwt>0</asrwt>
<pdfrwt beam="1">  1        1 0.19745665E+00 0.15805469E+04</pdfrwt>
<pdfrwt beam="2">  1       -1 0.74861113E-01 0.15805469E+04</pdfrwt>
<totfact> 0.16035578E+01</totfact>
</mgrwt>
</event>
<event>
12    1  0.2214165E-007  0.2530390E+04  0.7818608E-02  0.8392238E-01
         -2   -1    0    0    0  501 -0.00000000000E+00  0.00000000000E+00  0.78846521838E+03  0.78846521838E+03  0.00000000000E+00 0.  1.
          2   -1    0    0  501    0  0.00000000000E+00 -0.00000000000E+00 -0.20301698367E+04  0.20301698367E+04  0.00000000000E+00 0. -1.
         23    2    1    2    0    0 -0.24900942641E+03  0.99743310444E+03 -0.98769780040E+02  0.10368262833E+04  0.91513824613E+02 0.  0.
        254    2    1    2    0    0  0.24900942641E+03 -0.99743310444E+03 -0.11429348382E+04  0.17818087717E+04  0.90092394915E+03 0.  0.
        -24    2    4    4    0    0 -0.11679650759E+03 -0.11424176848E+03 -0.70377288912E+03  0.72689163713E+03  0.79890968310E+02 0.  0.
         24    2    4    4    0    0  0.36580593400E+03 -0.88319133596E+03 -0.43916194912E+03  0.10549171346E+04  0.78396594178E+02 0.  0.
         11    1    3    3    0    0 -0.10216559817E+03  0.25443306329E+03 -0.41371496424E+02  0.27728251633E+03  0.00000000000E+00 0. -1.
        -11    1    3    3    0    0 -0.14684382824E+03  0.74300004115E+03 -0.57398283615E+02  0.75954376701E+03  0.00000000000E+00 0.  1.
          4    1    6    6  502    0  0.79701998512E+02 -0.16829014712E+03 -0.53679424667E+02  0.19379231877E+03  0.00000000000E+00 0. -1.
          1    1    5    5  503    0 -0.47043059487E+02 -0.99958260634E+02 -0.41157782512E+03  0.42614669944E+03  0.00000000000E+00 0. -1.
         -2    1    5    5    0  503 -0.69753448098E+02 -0.14283507845E+02 -0.29219506400E+03  0.30074493769E+03  0.00000000000E+00 0.  1.
         -3    1    6    6    0  502  0.28610393549E+03 -0.71490118885E+03 -0.38548252445E+03  0.86112481579E+03  0.00000000000E+00 0.  1.
<mgrwt>
<rscale>  0 0.25303899E+04</rscale>
<asrwt>0</asrwt>
<pdfrwt beam="1">  1        2 0.31233382E+00 0.25303899E+04</pdfrwt>
<pdfrwt beam="2">  1       -2 0.12130234E+00 0.25303899E+04</pdfrwt>
<totfact> 0.29558806E+00</totfact>
</mgrwt>
</event>
<event>
12    1  0.2214165E-007  0.3245767E+04  0.7818608E-02  0.8176834E-01
          2   -1    0    0  501    0  0.00000000000E+00  0.00000000000E+00  0.24681172163E+04  0.24681172163E+04  0.00000000000E+00 0. -1.
         -2   -1    0    0    0  501 -0.00000000000E+00 -0.00000000000E+00 -0.10671093433E+04  0.10671093433E+04  0.00000000000E+00 0.  1.
         23    2    1    2    0    0 -0.28314741668E+02  0.12025863471E+04 -0.32216193192E+03  0.12481136831E+04  0.83569185964E+02 0.  0.
        254    2    1    2    0    0  0.28314741668E+02 -0.12025863471E+04  0.17231698050E+04  0.22871128764E+04  0.90252727714E+03 0.  0.
        -24    2    4    4    0    0 -0.15257593677E+03  0.90366379907E+02  0.24306535203E+03  0.31191472836E+03  0.82246782989E+02 0.  0.
         24    2    4    4    0    0  0.18089067844E+03 -0.12929527270E+04  0.14801044529E+04  0.19751981481E+04  0.79059096468E+02 0.  0.
         11    1    3    3    0    0  0.11818157663E+02  0.65530811166E+03 -0.14273851011E+03  0.67077766236E+03  0.00000000000E+00 0. -1.
        -11    1    3    3    0    0 -0.40132899331E+02  0.54727823543E+03 -0.17942342180E+03  0.57733602077E+03  0.00000000000E+00 0.  1.
          4    1    6    6  502    0  0.17915251319E+03 -0.11286386957E+04  0.13168635085E+04  0.17435740386E+04  0.00000000000E+00 0. -1.
          1    1    5    5  503    0 -0.15132099376E+03  0.65762767818E+02  0.17984276880E+03  0.24406189025E+03  0.00000000000E+00 0. -1.
         -2    1    5    5    0  503 -0.12549430177E+01  0.24603612089E+02  0.63222583226E+02  0.67852838110E+02  0.00000000000E+00 0.  1.
         -3    1    6    6    0  502  0.17381652493E+01 -0.16431403133E+03  0.16324094447E+03  0.23162410942E+03  0.00000000000E+00 0.  1.
<mgrwt>
<rscale>  0 0.32457671E+04</rscale>
<asrwt>0</asrwt>
<pdfrwt beam="1">  1        2 0.37971034E+00 0.32457671E+04</pdfrwt>
<pdfrwt beam="2">  1       -2 0.16417067E+00 0.32457671E+04</pdfrwt>
<totfact> 0.71520585E-01</totfact>
</mgrwt>
</event>
<event>
12    1  0.2214165E-007  0.1417147E+04  0.7818608E-02  0.8941499E-01
         -2   -1    0    0    0  501 -0.00000000000E+00  0.00000000000E+00  0.39070164132E+03  0.39070164132E+03  0.00000000000E+00 0. -1.
          2   -1    0    0  501    0  0.00000000000E+00 -0.00000000000E+00 -0.12850642716E+04  0.12850642716E+04  0.00000000000E+00 0.  1.
         23    2    1    2    0    0  0.24978711689E+03  0.11350191232E+03 -0.64844760393E+03  0.70980543122E+03  0.89795140611E+02 0.  0.
        254    2    1    2    0    0 -0.24978711689E+03 -0.11350191232E+03 -0.24591502633E+03  0.96596048167E+03  0.89293290012E+03 0.  0.
        -24    2    4    4    0    0 -0.40383018293E+03 -0.38607518084E+03 -0.29927844813E+03  0.63880737056E+03  0.79839872594E+02 0.  0.
         24    2    4    4    0    0  0.15404306604E+03  0.27257326853E+03  0.53363421800E+02  0.32715311111E+03  0.78460502256E+02 0.  0.
         11    1    3    3    0    0 -0.29594631474E+01 -0.48746135247E+01 -0.26672641160E+01  0.62955998127E+01  0.00000000000E+00 0. -1.
        -11    1    3    3    0    0  0.25274658004E+03  0.11837652584E+03 -0.64578033981E+03  0.70350983140E+03  0.00000000000E+00 0.  1.
          2    1    6    6  502    0  0.53402900427E+02  0.61135242491E+02 -0.16398419867E+02  0.82814828518E+02  0.00000000000E+00 0. -1.
          1    1    5    5  503    0 -0.27468862014E+02 -0.16075024375E+02  0.50901036867E+00  0.31830863648E+02  0.00000000000E+00 0. -1.
         -2    1    5    5    0  503 -0.37636132092E+03 -0.37000015647E+03 -0.29978745850E+03  0.60697650691E+03  0.00000000000E+00 0.  1.
         -1    1    6    6    0  502  0.10064016562E+03  0.21143802604E+03  0.69761841667E+02  0.24433828260E+03  0.00000000000E+00 0.  1.
<mgrwt>
<rscale>  0 0.14171474E+04</rscale>
<asrwt>0</asrwt>
<pdfrwt beam="1">  1        2 0.19770220E+00 0.14171474E+04</pdfrwt>
<pdfrwt beam="2">  1       -2 0.60107944E-01 0.14171474E+04</pdfrwt>
<totfact> 0.42302945E+01</totfact>
</mgrwt>
</event>
<event>
12    1  0.2214165E-007  0.1475510E+04  0.7818608E-02  0.8900904E-01
         -1   -1    0    0    0  501 -0.00000000000E+00  0.00000000000E+00  0.12150556784E+04  0.12150556784E+04  0.00000000000E+00 0.  1.
          1   -1    0    0  501    0  0.00000000000E+00 -0.00000000000E+00 -0.44794856252E+03  0.44794856252E+03  0.00000000000E+00 0. -1.
         23    2    1    2    0    0 -0.10961405737E+03  0.39490651045E+03  0.13597195752E+02  0.41997624693E+03  0.90712571836E+02 0.  0.
        254    2    1    2    0    0  0.10961405737E+03 -0.39490651045E+03  0.75350992010E+03  0.12430279940E+04  0.89965271105E+03 0.  0.
        -24    2    4    4    0    0  0.46087272747E+03 -0.26640687029E+02  0.42254309560E+03  0.63078362026E+03  0.78942452556E+02 0.  0.
         24    2    4    4    0    0 -0.35125867010E+03 -0.36826582342E+03  0.33096682450E+03  0.61224437370E+03  0.79383651916E+02 0.  0.
         11    1    3    3    0    0 -0.12198501927E+03  0.34976372867E+03 -0.26337217408E+01  0.37043480844E+03  0.00000000000E+00 0. -1.
        -11    1    3    3    0    0  0.12370961894E+02  0.45142781781E+02  0.16230917493E+02  0.49541438491E+02  0.00000000000E+00 0.  1.
          4    1    6    6  502    0 -0.68801582269E+01 -0.57905258491E+01 -0.45892152084E+01  0.10095923091E+02  0.00000000000E+00 0. -1.
          3    1    5    5  503    0  0.10568298014E+03 -0.25120395608E+02  0.13829385064E+03  0.17585538289E+03  0.00000000000E+00 0. -1.
         -4    1    5    5    0  503  0.35518974733E+03 -0.15202914213E+01  0.28424924496E+03  0.45492823737E+03  0.00000000000E+00 0.  1.
         -3    1    6    6    0  502 -0.34437851187E+03 -0.36247529757E+03  0.33555603971E+03  0.60214845061E+03  0.00000000000E+00 0.  1.
<mgrwt>
<rscale>  0 0.14755100E+04</rscale>
<asrwt>0</asrwt>
<pdfrwt beam="1">  1        1 0.68915164E-01 0.14755100E+04</pdfrwt>
<pdfrwt beam="2">  1       -1 0.18693164E+00 0.14755100E+04</pdfrwt>
<totfact> 0.92732265E+00</totfact>
</mgrwt>
</event>
<event>
12    1  0.2214165E-007  0.1995559E+04  0.7818608E-02  0.8608700E-01
          2   -1    0    0  501    0  0.00000000000E+00  0.00000000000E+00  0.19232269515E+04  0.19232269515E+04  0.00000000000E+00 0.  1.
         -2   -1    0    0    0  501 -0.00000000000E+00 -0.00000000000E+00 -0.51765295163E+03  0.51765295163E+03  0.00000000000E+00 0. -1.
         23    2    1    2    0    0  0.52344818236E+03  0.59123970643E+03  0.62895150934E+03  0.10133607987E+04  0.88077904035E+02 0.  0.
        254    2    1    2    0    0 -0.52344818236E+03 -0.59123970643E+03  0.77662249054E+03  0.14275191044E+04  0.90061418522E+03 0.  0.
        -24    2    4    4    0    0 -0.67090440764E+03 -0.24600311626E+03  0.75578210271E+03  0.10431810420E+04  0.79936489206E+02 0.  0.
         24    2    4    4    0    0  0.14745622528E+03 -0.34523659017E+03  0.20840387825E+02  0.38433806238E+03  0.79685524813E+02 0.  0.
         13    1    3    3    0    0  0.25035299478E+03  0.27142235907E+03  0.23907196520E+03  0.43988876269E+03  0.00000000000E+00 0. -1.
        -13    1    3    3    0    0  0.27309518758E+03  0.31981734735E+03  0.38987954414E+03  0.57347203601E+03  0.00000000000E+00 0.  1.
          2    1    6    6  502    0  0.14743232023E+03 -0.27140323483E+03  0.54114568276E+01  0.30890983926E+03  0.00000000000E+00 0. -1.
          3    1    5    5  503    0 -0.54707578040E+03 -0.17660684901E+03  0.57203544459E+03  0.81099102244E+03  0.00000000000E+00 0. -1.
         -4    1    5    5    0  503 -0.12382862724E+03 -0.69396267249E+02  0.18374665813E+03  0.23219001961E+03  0.00000000000E+00 0.  1.
         -1    1    6    6    0  502  0.23905051030E-01 -0.73833355338E+02  0.15428930997E+02  0.75428223124E+02  0.00000000000E+00 0.  1.
<mgrwt>
<rscale>  0 0.19955592E+04</rscale>
<asrwt>0</asrwt>
<pdfrwt beam="1">  1        2 0.29588107E+00 0.19955592E+04</pdfrwt>
<pdfrwt beam="2">  1       -2 0.79638916E-01 0.19955592E+04</pdfrwt>
<totfact> 0.95658737E+00</totfact>
</mgrwt>
</event>
<event>
12    1  0.2214165E-007  0.1867695E+04  0.7818608E-02  0.8671106E-01
         -2   -1    0    0    0  501 -0.00000000000E+00  0.00000000000E+00  0.36037441330E+03  0.36037441330E+03  0.00000000000E+00 0. -1.
          2   -1    0    0  501    0  0.00000000000E+00 -0.00000000000E+00 -0.24199035824E+04  0.24199035824E+04  0.00000000000E+00 0.  1.
         23    2    1    2    0    0  0.54811615700E+03 -0.45106988540E+03 -0.89291872071E+03  0.11444662814E+04  0.92757017968E+02 0.  0.
        254    2    1    2    0    0 -0.54811615700E+03  0.45106988540E+03 -0.11666104484E+04  0.16358117143E+04  0.90055797331E+03 0.  0.
        -24    2    4    4    0    0 -0.18139296149E+02  0.42235740926E+03 -0.97520760599E+03  0.10659973989E+04  0.81275853915E+02 0.  0.
         24    2    4    4    0    0 -0.52997686085E+03  0.28712476145E+02 -0.19140284242E+03  0.56981431543E+03  0.79708385134E+02 0.  0.
         11    1    3    3    0    0  0.28564385094E+03 -0.21186482856E+03 -0.51516725574E+03  0.62600033270E+03  0.00000000000E+00 0.  1.
        -11    1    3    3    0    0  0.26247230606E+03 -0.23920505684E+03 -0.37775146497E+03  0.51846594870E+03  0.00000000000E+00 0. -1.
          4    1    6    6  502    0 -0.49000952847E+03  0.27398072504E+02 -0.19813759795E+03  0.52926222243E+03  0.00000000000E+00 0. -1.
          3    1    5    5  503    0 -0.34335537172E+02  0.39565597860E+03 -0.87222120926E+03  0.95838010226E+03  0.00000000000E+00 0. -1.
         -4    1    5    5    0  503  0.16196241023E+02  0.26701430653E+02 -0.10298639673E+03  0.10761729663E+03  0.00000000000E+00 0.  1.
         -1    1    6    6    0  502 -0.39967332385E+02  0.13144036409E+01  0.67347555375E+01  0.40552093005E+02  0.00000000000E+00 0.  1.
<mgrwt>
<rscale>  0 0.18676952E+04</rscale>
<asrwt>0</asrwt>
<pdfrwt beam="1">  1        2 0.37229287E+00 0.18676952E+04</pdfrwt>
<pdfrwt beam="2">  1       -2 0.55442216E-01 0.18676952E+04</pdfrwt>
<totfact> 0.11124705E+01</totfact>
</mgrwt>
</event>
<event>
12    1  0.2214165E-007  0.2863784E+04  0.7818608E-02  0.8283735E-01
         -2   -1    0    0    0  501 -0.00000000000E+00  0.00000000000E+00  0.19587971009E+04  0.19587971009E+04  0.00000000000E+00 0.  1.
          2   -1    0    0  501    0  0.00000000000E+00 -0.00000000000E+00 -0.10467213795E+04  0.10467213795E+04  0.00000000000E+00 0. -1.
         23    2    1    2    0    0  0.78816367650E+03  0.10106346136E+04  0.27160440792E+03  0.13133079713E+04  0.91785455180E+02 0.  0.
        254    2    1    2    0    0 -0.78816367650E+03 -0.10106346136E+04  0.64047131341E+03  0.16922105091E+04  0.90043800491E+03 0.  0.
        -24    2    4    4    0    0 -0.66437598035E+03 -0.22160224610E+03  0.52993065581E+03  0.88195356120E+03  0.80700591189E+02 0.  0.
         24    2    4    4    0    0 -0.12378769616E+03 -0.78903236754E+03  0.11054065761E+03  0.81025694793E+03  0.80010086533E+02 0.  0.
         11    1    3    3    0    0  0.44829859135E+03  0.50077031315E+03  0.14737848441E+03  0.68808644167E+03  0.00000000000E+00 0. -1.
        -11    1    3    3    0    0  0.33986508515E+03  0.50986430049E+03  0.12422592351E+03  0.62522152961E+03  0.00000000000E+00 0.  1.
          4    1    6    6  502    0  0.83745905089E+01 -0.26163313896E+02 -0.34173184184E+01  0.27682680965E+02  0.00000000000E+00 0. -1.
          1    1    5    5  503    0 -0.35130155080E+03 -0.15951171345E+03  0.28907486107E+03  0.48210065507E+03  0.00000000000E+00 0. -1.
         -2    1    5    5    0  503 -0.31307442955E+03 -0.62090532654E+02  0.24085579474E+03  0.39985290613E+03  0.00000000000E+00 0.  1.
         -3    1    6    6    0  502 -0.13216228666E+03 -0.76286905364E+03  0.11395797603E+03  0.78257426697E+03  0.00000000000E+00 0.  1.
<mgrwt>
<rscale>  0 0.28637841E+04</rscale>
<asrwt>0</asrwt>
<pdfrwt beam="1">  1        2 0.16103406E+00 0.28637841E+04</pdfrwt>
<pdfrwt beam="2">  1       -2 0.30135340E+00 0.28637841E+04</pdfrwt>
<totfact> 0.63484722E-01</totfact>
</mgrwt>
</event>
<event>
12    1  0.2214165E-007  0.1319779E+04  0.7818608E-02  0.9014025E-01
          2   -1    0    0  501    0  0.00000000000E+00  0.00000000000E+00  0.22168649660E+04  0.22168649660E+04  0.00000000000E+00 0. -1.
         -2   -1    0    0    0  501 -0.00000000000E+00 -0.00000000000E+00 -0.19642802518E+03  0.19642802518E+03  0.00000000000E+00 0.  1.
         23    2    1    2    0    0  0.32874454819E+03 -0.68812983241E+01  0.74206290961E+03  0.81681230096E+03  0.91676839757E+02 0.  0.
        254    2    1    2    0    0 -0.32874454819E+03  0.68812983241E+01  0.12783740312E+04  0.15964806902E+04  0.89799226072E+03 0.  0.
        -24    2    4    4    0    0 -0.21245087876E+03 -0.43626863903E+03  0.65666525618E+03  0.82035733283E+03  0.79443020940E+02 0.  0.
         24    2    4    4    0    0 -0.11629366943E+03  0.44314993735E+03  0.62170877500E+03  0.77612335735E+03  0.77068673221E+02 0.  0.
         13    1    3    3    0    0  0.14124711105E+03 -0.38851050019E+02  0.25746210781E+03  0.29622101111E+03  0.00000000000E+00 0. -1.
        -13    1    3    3    0    0  0.18749743714E+03  0.31969751695E+02  0.48460080180E+03  0.52059128984E+03  0.00000000000E+00 0.  1.
          4    1    6    6  502    0 -0.48247928322E+02  0.11511388718E+03  0.12225509375E+03  0.17471513259E+03  0.00000000000E+00 0. -1.
          1    1    5    5  503    0 -0.16447695511E+03 -0.34128964307E+03  0.56297843598E+03  0.67858382578E+03  0.00000000000E+00 0. -1.
         -2    1    5    5    0  503 -0.47973923657E+02 -0.94978995959E+02  0.93686820198E+02  0.14177350706E+03  0.00000000000E+00 0.  1.
         -3    1    6    6    0  502 -0.68045741105E+02  0.32803605017E+03  0.49945368124E+03  0.60140822475E+03  0.00000000000E+00 0.  1.
<mgrwt>
<rscale>  0 0.13197794E+04</rscale>
<asrwt>0</asrwt>
<pdfrwt beam="1">  1        2 0.34105613E+00 0.13197794E+04</pdfrwt>
<pdfrwt beam="2">  1       -2 0.30219698E-01 0.13197794E+04</pdfrwt>
<totfact> 0.50128604E+01</totfact>
</mgrwt>
</event>
<event>
12    1  0.2214165E-007  0.3897483E+04  0.7818608E-02  0.8025553E-01
         -2   -1    0    0    0  501 -0.00000000000E+00  0.00000000000E+00  0.11931623826E+04  0.11931623826E+04  0.00000000000E+00 0.  1.
          2   -1    0    0  501    0  0.00000000000E+00 -0.00000000000E+00 -0.31827970736E+04  0.31827970736E+04  0.00000000000E+00 0. -1.
         23    2    1    2    0    0  0.19468160062E+02  0.11449679443E+04  0.67915857093E+03  0.13354972572E+04  0.10471846436E+03 0.  0.
        254    2    1    2    0    0 -0.19468160062E+02 -0.11449679443E+04 -0.26687932619E+04  0.30404621990E+04  0.90034565917E+03 0.  0.
        -24    2    4    4    0    0 -0.34719248196E+03 -0.13110200782E+03 -0.85965255577E+03  0.93948558821E+03  0.76813396099E+02 0.  0.
         24    2    4    4    0    0  0.32772432190E+03 -0.10138659365E+04 -0.18091407061E+04  0.21009766108E+04  0.76060871392E+02 0.  0.
         13    1    3    3    0    0  0.39151654845E+02  0.82782032207E+03  0.53605262164E+03  0.98700139355E+03  0.00000000000E+00 0. -1.
        -13    1    3    3    0    0 -0.19683494783E+02  0.31714762225E+03  0.14310594930E+03  0.34849586367E+03  0.00000000000E+00 0.  1.
          2    1    6    6  502    0  0.18821568056E+03 -0.50134429300E+03 -0.96478993350E+03  0.11034449956E+04  0.00000000000E+00 0. -1.
          3    1    5    5  503    0 -0.21921504296E+03 -0.10360164590E+03 -0.47742649264E+03  0.53546670482E+03  0.00000000000E+00 0. -1.
         -4    1    5    5    0  503 -0.12797743900E+03 -0.27500361920E+02 -0.38222606313E+03  0.40401888339E+03  0.00000000000E+00 0.  1.
         -1    1    6    6    0  502  0.13950864134E+03 -0.51252164351E+03 -0.84435077263E+03  0.99753161520E+03  0.00000000000E+00 0.  1.
<mgrwt>
<rscale>  0 0.38974832E+04</rscale>
<asrwt>0</asrwt>
<pdfrwt beam="1">  1        2 0.48966108E+00 0.38974832E+04</pdfrwt>
<pdfrwt beam="2">  1       -2 0.18356345E+00 0.38974832E+04</pdfrwt>
<totfact> 0.18122048E-01</totfact>
</mgrwt>
</event>
<event>
12    1  0.2214165E-007  0.2792657E+04  0.7818608E-02  0.8305552E-01
         -1   -1    0    0    0  501 -0.00000000000E+00  0.00000000000E+00  0.13404063358E+04  0.13404063358E+04  0.00000000000E+00 0.  1.
          1   -1    0    0  501    0  0.00000000000E+00 -0.00000000000E+00 -0.14545840147E+04  0.14545840147E+04  0.00000000000E+00 0. -1.
         23    2    1    2    0    0  0.54100970373E+03  0.39843179539E+03 -0.11050270982E+04  0.12967944694E+04  0.95664062568E+02 0.  0.
        254    2    1    2    0    0 -0.54100970373E+03 -0.39843179539E+03  0.99084941926E+03  0.14981958811E+04  0.90076019646E+03 0.  0.
        -24    2    4    4    0    0  0.34335670973E+02 -0.46496301547E+03  0.70108422649E+03  0.84566214758E+03  0.79093812396E+02 0.  0.
         24    2    4    4    0    0 -0.57534537471E+03  0.66531220073E+02  0.28976519277E+03  0.65253373357E+03  0.79923107201E+02 0.  0.
         13    1    3    3    0    0  0.25532622011E+03  0.14441894527E+03 -0.54129709370E+03  0.61567105996E+03  0.00000000000E+00 0.  1.
        -13    1    3    3    0    0  0.28568348363E+03  0.25401285012E+03 -0.56373000453E+03  0.68112340941E+03  0.00000000000E+00 0. -1.
          2    1    6    6  502    0 -0.20251199106E+03  0.57475111142E+02  0.84524762849E+02  0.22684560930E+03  0.00000000000E+00 0. -1.
          3    1    5    5  503    0 -0.18739779181E+02 -0.24007482447E+03  0.33000984878E+03  0.40852613253E+03  0.00000000000E+00 0. -1.
         -4    1    5    5    0  503  0.53075450153E+02 -0.22488819099E+03  0.37107437771E+03  0.43713601505E+03  0.00000000000E+00 0.  1.
         -1    1    6    6    0  502 -0.37283338364E+03  0.90561089307E+01  0.20524042992E+03  0.42568812427E+03  0.00000000000E+00 0.  1.
<mgrwt>
<rscale>  0 0.27926573E+04</rscale>
<asrwt>0</asrwt>
<pdfrwt beam="1">  1        1 0.22378216E+00 0.27926573E+04</pdfrwt>
<pdfrwt beam="2">  1       -1 0.20621636E+00 0.27926573E+04</pdfrwt>
<totfact> 0.83143313E-01</totfact>
</mgrwt>
</event>
<event>
12    1  0.2214165E-007  0.3457968E+04  0.7818608E-02  0.8123824E-01
          1   -1    0    0  501    0  0.00000000000E+00  0.00000000000E+00  0.20478060411E+04  0.20478060411E+04  0.00000000000E+00 0. -1.
         -1   -1    0    0    0  501 -0.00000000000E+00 -0.00000000000E+00 -0.14597991833E+04  0.14597991833E+04  0.00000000000E+00 0.  1.
         23    2    1    2    0    0 -0.35711128141E+03  0.15702449833E+04  0.31840199452E+03  0.16440697068E+04  0.91583819684E+02 0.  0.
        254    2    1    2    0    0  0.35711128141E+03 -0.15702449833E+04  0.26960486329E+03  0.18635355176E+04  0.89826503223E+03 0.  0.
        -24    2    4    4    0    0 -0.16544548812E+03 -0.89690247194E+03  0.39730940537E+03  0.99805802780E+03  0.80366719215E+02 0.  0.
         24    2    4    4    0    0  0.52255676952E+03 -0.67334251133E+03 -0.12770454208E+03  0.86547748976E+03  0.79291363213E+02 0.  0.
         13    1    3    3    0    0 -0.24035231051E+03  0.10129102180E+04  0.16216117883E+03  0.10535903335E+04  0.00000000000E+00 0.  1.
        -13    1    3    3    0    0 -0.11675897090E+03  0.55733476523E+03  0.15624081568E+03  0.59047937331E+03  0.00000000000E+00 0. -1.
          4    1    6    6  502    0  0.14328520598E+03 -0.14050869284E+03 -0.50223367453E+02  0.20687128765E+03  0.00000000000E+00 0. -1.
          1    1    5    5  503    0 -0.14198592775E+03 -0.79181188272E+03  0.32118950576E+03  0.86619210334E+03  0.00000000000E+00 0. -1.
         -2    1    5    5    0  503 -0.23459560364E+02 -0.10509058922E+03  0.76119899614E+02  0.13186592446E+03  0.00000000000E+00 0.  1.
         -3    1    6    6    0  502  0.37927156354E+03 -0.53283381848E+03 -0.77481174629E+02  0.65860620211E+03  0.00000000000E+00 0.  1.
<mgrwt>
<rscale>  0 0.34579680E+04</rscale>
<asrwt>0</asrwt>
<pdfrwt beam="1">  1        1 0.31504708E+00 0.34579680E+04</pdfrwt>
<pdfrwt beam="2">  1       -1 0.22458449E+00 0.34579680E+04</pdfrwt>
<totfact> 0.23219838E-01</totfact>
</mgrwt>
</event>
<event>
12    1  0.2214165E-007  0.1923691E+04  0.7818608E-02  0.8643153E-01
          2   -1    0    0  501    0  0.00000000000E+00  0.00000000000E+00  0.13508756640E+04  0.13508756640E+04  0.00000000000E+00 0. -1.
         -2   -1    0    0    0  501 -0.00000000000E+00 -0.00000000000E+00 -0.68484982608E+03  0.68484982608E+03  0.00000000000E+00 0.  1.
         23    2    1    2    0    0 -0.15834029285E+03  0.69167197483E+03  0.15124215821E+02  0.71550218772E+03  0.90735162006E+02 0.  0.
        254    2    1    2    0    0  0.15834029285E+03 -0.69167197483E+03  0.65090162207E+03  0.13202233023E+04  0.90323578169E+03 0.  0.
        -24    2    4    4    0    0  0.22511526014E+02  0.21110897194E+03  0.18284642662E+03  0.29114253522E+03  0.79103686688E+02 0.  0.
         24    2    4    4    0    0  0.13582876684E+03 -0.90278094677E+03  0.46805519545E+03  0.10290807671E+04  0.80428027020E+02 0.  0.
         11    1    3    3    0    0 -0.61920078952E+02  0.28857563279E+03 -0.38248459445E+02  0.29761205732E+03  0.00000000000E+00 0. -1.
        -11    1    3    3    0    0 -0.96420213903E+02  0.40309634204E+03  0.53372675266E+02  0.41789013040E+03  0.00000000000E+00 0.  1.
          4    1    6    6  502    0 -0.23271569049E+01 -0.20801801990E+03  0.11199375387E+03  0.23626153552E+03  0.00000000000E+00 0. -1.
          1    1    5    5  503    0 -0.86644683249E+01 -0.20498215356E+01  0.17293010519E+02  0.19450526792E+02  0.00000000000E+00 0. -1.
         -2    1    5    5    0  503  0.31175994339E+02  0.21315879347E+03  0.16555341610E+03  0.27169200842E+03  0.00000000000E+00 0.  1.
         -3    1    6    6    0  502  0.13815592375E+03 -0.69476292687E+03  0.35606144158E+03  0.79281923160E+03  0.00000000000E+00 0.  1.
<mgrwt>
<rscale>  0 0.19236912E+04</rscale>
<asrwt>0</asrwt>
<pdfrwt beam="1">  1        2 0.20782703E+00 0.19236912E+04</pdfrwt>
<pdfrwt beam="2">  1       -2 0.10536151E+00 0.19236912E+04</pdfrwt>
<totfact> 0.10526639E+01</totfact>
</mgrwt>
</event>
<event>
12    1  0.2214165E-007  0.2606468E+04  0.7818608E-02  0.8366007E-01
          4   -1    0    0  501    0  0.00000000000E+00  0.00000000000E+00  0.14055436756E+04  0.14055436756E+04  0.00000000000E+00 0. -1.
         -4   -1    0    0    0  501 -0.00000000000E+00 -0.00000000000E+00 -0.12083717975E+04  0.12083717975E+04  0.00000000000E+00 0.  1.
         23    2    1    2    0    0  0.10604343281E+04 -0.28118501892E+03 -0.24559357752E+03  0.11278931653E+04  0.90778896764E+02 0.  0.
        254    2    1    2    0    0 -0.10604343281E+04  0.28118501892E+03  0.44276545569E+03  0.14860223078E+04  0.89924138659E+03 0.  0.
        -24    2    4    4    0    0 -0.53006470676E+03  0.12615813417E+03  0.68358157348E+03  0.87786026108E+03  0.80438810346E+02 0.  0.
         24    2    4    4    0    0 -0.53036962131E+03  0.15502688474E+03 -0.24081611779E+03  0.60816204667E+03  0.80891298780E+02 0.  0.
         13    1    3    3    0    0  0.51416709452E+03 -0.12827264786E+03 -0.16443265826E+03  0.55485112632E+03  0.00000000000E+00 0.  1.
        -13    1    3    3    0    0  0.54626723355E+03 -0.15291237106E+03 -0.81160919255E+02  0.57304203903E+03  0.00000000000E+00 0. -1.
          2    1    6    6  502    0 -0.15740332882E+03  0.77723345564E+02 -0.52311615980E+02  0.18317541193E+03  0.00000000000E+00 0. -1.
          1    1    5    5  503    0 -0.24456487622E+02 -0.10986362460E+02  0.30005948714E+02  0.40238997318E+02  0.00000000000E+00 0. -1.
         -4    1    5    5    0  503 -0.50560821914E+03  0.13714449663E+03  0.65357562477E+03  0.83762126377E+03  0.00000000000E+00 0.  1.
         -1    1    6    6    0  502 -0.37296629249E+03  0.77303539179E+02 -0.18850450181E+03  0.42498663474E+03  0.00000000000E+00 0.  1.
<mgrwt>
<rscale>  0 0.26064684E+04</rscale>
<asrwt>0</asrwt>
<pdfrwt beam="1">  1        4 0.21623749E+00 0.26064684E+04</pdfrwt>
<pdfrwt beam="2">  1       -4 0.18590335E+00 0.26064684E+04</pdfrwt>
<totfact> 0.29735136E-02</totfact>
</mgrwt>
</event>
<event>
12    1  0.2214165E-007  0.1799358E+04  0.7818608E-02  0.8706641E-01
         -2   -1    0    0    0  501 -0.00000000000E+00  0.00000000000E+00  0.61309383883E+03  0.61309383883E+03  0.00000000000E+00 0.  1.
          2   -1    0    0  501    0  0.00000000000E+00 -0.00000000000E+00 -0.13202251434E+04  0.13202251434E+04  0.00000000000E+00 0. -1.
         23    2    1    2    0    0 -0.39087747239E+03  0.35394931823E+03  0.18001280665E+03  0.56450523504E+03  0.90533041072E+02 0.  0.
        254    2    1    2    0    0  0.39087747239E+03 -0.35394931823E+03 -0.88714411119E+03  0.13688137472E+04  0.89920024584E+03 0.  0.
        -24    2    4    4    0    0 -0.55995575386E+02  0.20255940176E+03 -0.51069698624E+03  0.55792294774E+03  0.79377504076E+02 0.  0.
         24    2    4    4    0    0  0.44687304778E+03 -0.55650871999E+03 -0.37644712494E+03  0.81089079943E+03  0.80212059305E+02 0.  0.
         11    1    3    3    0    0 -0.31451441729E+03  0.32516549352E+03  0.13956730689E+03  0.47342470363E+03  0.00000000000E+00 0.  1.
        -11    1    3    3    0    0 -0.76363055106E+02  0.28783824712E+02  0.40445499756E+02  0.91080531404E+02  0.00000000000E+00 0. -1.
          2    1    6    6  502    0  0.14325012151E+03 -0.23422190516E+03 -0.16366567557E+03  0.31963565435E+03  0.00000000000E+00 0. -1.
          1    1    5    5  503    0  0.16526106274E+02  0.15551449211E+02 -0.35555796346E+02  0.42180260963E+02  0.00000000000E+00 0. -1.
         -2    1    5    5    0  503 -0.72521681660E+02  0.18700795255E+03 -0.47514118990E+03  0.51574268678E+03  0.00000000000E+00 0.  1.
         -1    1    6    6    0  502  0.30362292627E+03 -0.32228681483E+03 -0.21278144937E+03  0.49125514508E+03  0.00000000000E+00 0.  1.
<mgrwt>
<rscale>  0 0.17993576E+04</rscale>
<asrwt>0</asrwt>
<pdfrwt beam="1">  1        2 0.20311156E+00 0.17993576E+04</pdfrwt>
<pdfrwt beam="2">  1       -2 0.94322131E-01 0.17993576E+04</pdfrwt>
<totfact> 0.14397841E+01</totfact>
</mgrwt>
</event>
<event>
12    1  0.4229797E-007  0.2545670E+04  0.7818608E-02  0.8386894E-01
         -2   -1    0    0    0  501 -0.00000000000E+00  0.00000000000E+00  0.15847327500E+04  0.15847327500E+04  0.00000000000E+00 0.  1.
          2   -1    0    0  501    0  0.00000000000E+00 -0.00000000000E+00 -0.10223227624E+04  0.10223227624E+04  0.00000000000E+00 0. -1.
         23    2    1    2    0    0  0.51446847788E+03  0.93286106429E+03  0.57255326234E+03  0.12128971725E+04  0.91622775165E+02 0.  0.
        254    2    1    2    0    0 -0.51446847788E+03 -0.93286106429E+03 -0.10143274729E+02  0.13941583399E+04  0.89925914550E+03 0.  0.
        -24    2    4    4    0    0  0.24918851642E+03 -0.17987566278E+03  0.98643298037E+01  0.31856524296E+03  0.83284681940E+02 0.  0.
         24    2    4    4    0    0 -0.76365699430E+03 -0.75298540151E+03 -0.20007604533E+02  0.10755930970E+04  0.79631565125E+02 0.  0.
         13    1    3    3    0    0  0.36065141459E+03  0.58074992763E+03  0.39598713293E+03  0.79002894297E+03  0.00000000000E+00 0.  1.
        -13    1    3    3    0    0  0.15381706329E+03  0.35211113666E+03  0.17656612941E+03  0.42286822956E+03  0.00000000000E+00 0. -1.
          4    1    6    6  502    0 -0.12652821278E+03 -0.12968327142E+03  0.26282680931E+02  0.18307899616E+03  0.00000000000E+00 0. -1.
          1    1    5    5  503    0  0.31043104331E+02 -0.10066616586E+02 -0.23354434650E+02  0.40130296707E+02  0.00000000000E+00 0. -1.
         -2    1    5    5    0  503  0.21814541209E+03 -0.16980904619E+03  0.33218764454E+02  0.27843494626E+03  0.00000000000E+00 0.  1.
         -3    1    6    6    0  502 -0.63712878152E+03 -0.62330213009E+03 -0.46290285464E+02  0.89251410081E+03  0.00000000000E+00 0.  1.
<mgrwt>
<rscale>  0 0.25456695E+04</rscale>
<asrwt>0</asrwt>
<pdfrwt beam="1">  1        2 0.15728043E+00 0.25456695E+04</pdfrwt>
<pdfrwt beam="2">  1       -2 0.24380504E+00 0.25456695E+04</pdfrwt>
<totfact> 0.15193937E+00</totfact>
</mgrwt>
</event>
<event>
12    1  0.2214165E-007  0.2009732E+04  0.7818608E-02  0.8602084E-01
         -1   -1    0    0    0  501 -0.00000000000E+00  0.00000000000E+00  0.12890152024E+04  0.12890152024E+04  0.00000000000E+00 0.  1.
          1   -1    0    0  501    0  0.00000000000E+00 -0.00000000000E+00 -0.78335449306E+03  0.78335449306E+03  0.00000000000E+00 0. -1.
         23    2    1    2    0    0  0.65416443098E+03  0.11928255089E+03 -0.26810171625E+03  0.72280276419E+03  0.91683564270E+02 0.  0.
        254    2    1    2    0    0 -0.65416443098E+03 -0.11928255089E+03  0.77376242562E+03  0.13495669313E+04  0.88343827234E+03 0.  0.
        -24    2    4    4    0    0 -0.82238233339E+03 -0.27519713466E+02  0.39260327721E+03  0.91518476681E+03  0.79723191152E+02 0.  0.
         24    2    4    4    0    0  0.16821790242E+03 -0.91762837425E+02  0.38115914841E+03  0.43438216449E+03  0.81779504684E+02 0.  0.
         13    1    3    3    0    0  0.51947430571E+03  0.12548409725E+03 -0.23597596873E+03  0.58419557579E+03  0.00000000000E+00 0. -1.
        -13    1    3    3    0    0  0.13469012527E+03 -0.62015463575E+01 -0.32125747526E+02  0.13860718840E+03  0.00000000000E+00 0.  1.
          2    1    6    6  502    0  0.96214144360E+02 -0.54811518357E+02  0.29992623581E+03  0.31971426469E+03  0.00000000000E+00 0. -1.
          3    1    5    5  503    0 -0.70851648091E+03 -0.26456611933E+02  0.30649168403E+03  0.77242003367E+03  0.00000000000E+00 0. -1.
         -2    1    5    5    0  503 -0.11386585248E+03 -0.10631015326E+01  0.86111593181E+02  0.14276473313E+03  0.00000000000E+00 0.  1.
         -1    1    6    6    0  502  0.72003758056E+02 -0.36951319068E+02  0.81232912595E+02  0.11466789980E+03  0.00000000000E+00 0.  1.
<mgrwt>
<rscale>  0 0.20097322E+04</rscale>
<asrwt>0</asrwt>
<pdfrwt beam="1">  1        1 0.12051608E+00 0.20097322E+04</pdfrwt>
<pdfrwt beam="2">  1       -1 0.19831003E+00 0.20097322E+04</pdfrwt>
<totfact> 0.32765047E+00</totfact>
</mgrwt>
</event>
<event>
12    1  0.2214165E-007  0.2233935E+04  0.7818608E-02  0.8504435E-01
          2   -1    0    0  501    0  0.00000000000E+00  0.00000000000E+00  0.22967426023E+04  0.22967426023E+04  0.00000000000E+00 0. -1.
         -2   -1    0    0    0  501 -0.00000000000E+00 -0.00000000000E+00 -0.54321110948E+03  0.54321110948E+03  0.00000000000E+00 0.  1.
         23    2    1    2    0    0 -0.76265290569E+03 -0.48108679416E+03  0.43210237861E+03  0.10040639939E+04  0.91367829171E+02 0.  0.
        254    2    1    2    0    0  0.76265290569E+03  0.48108679416E+03  0.13214291142E+04  0.18358897178E+04  0.90068429216E+03 0.  0.
        -24    2    4    4    0    0  0.51033050463E+03  0.35703605511E+03  0.17317682566E+03  0.65130514337E+03  0.79348649783E+02 0.  0.
         24    2    4    4    0    0  0.25232240106E+03  0.12405073904E+03  0.11482522885E+04  0.11845845745E+04  0.75512356664E+02 0.  0.
         13    1    3    3    0    0 -0.33118034439E+03 -0.22757099983E+03  0.23982408532E+03  0.46795787457E+03  0.00000000000E+00 0.  1.
        -13    1    3    3    0    0 -0.43147256130E+03 -0.25351579432E+03  0.19227829329E+03  0.53610611934E+03  0.00000000000E+00 0. -1.
          2    1    6    6  502    0  0.13410269682E+03  0.98406898036E+02  0.56786795115E+03  0.59172752244E+03  0.00000000000E+00 0. -1.
          3    1    5    5  503    0  0.48491098571E+03  0.34751668962E+03  0.18032458388E+03  0.62323628680E+03  0.00000000000E+00 0. -1.
         -4    1    5    5    0  503  0.25419518916E+02  0.95193654913E+01 -0.71477582235E+01  0.28068856566E+02  0.00000000000E+00 0.  1.
         -3    1    6    6    0  502  0.11821970424E+03  0.25643841006E+02  0.58038433739E+03  0.59285705203E+03  0.00000000000E+00 0.  1.
<mgrwt>
<rscale>  0 0.22339347E+04</rscale>
<asrwt>0</asrwt>
<pdfrwt beam="1">  1        2 0.35334501E+00 0.22339347E+04</pdfrwt>
<pdfrwt beam="2">  1       -2 0.83570941E-01 0.22339347E+04</pdfrwt>
<totfact> 0.51965377E+00</totfact>
</mgrwt>
</event>
<event>
12    1  0.2218453E-007  0.1813729E+04  0.7818608E-02  0.8699032E-01
         -1   -1    0    0    0  501 -0.00000000000E+00  0.00000000000E+00  0.40860728500E+03  0.40860728500E+03  0.00000000000E+00 0.  1.
          1   -1    0    0  501    0  0.00000000000E+00 -0.00000000000E+00 -0.20126985250E+04  0.20126985250E+04  0.00000000000E+00 0. -1.
         23    2    1    2    0    0  0.29499435790E+03  0.28629636299E+03  0.11790950744E+03  0.43492516580E+03  0.79183137390E+02 0.  0.
        254    2    1    2    0    0 -0.29499435790E+03 -0.28629636299E+03 -0.17220007475E+04  0.19863806442E+04  0.90079643137E+03 0.  0.
        -24    2    4    4    0    0 -0.58581401754E+03 -0.30027439578E+03 -0.13737619083E+04  0.15255266992E+04  0.81652637912E+02 0.  0.
         24    2    4    4    0    0  0.29081965964E+03  0.13978032788E+02 -0.34823883920E+03  0.46085394507E+03  0.79653058485E+02 0.  0.
         11    1    3    3    0    0  0.26054355758E+03  0.21598028388E+03  0.11168481363E+03  0.35637610191E+03  0.00000000000E+00 0.  1.
        -11    1    3    3    0    0  0.34450800322E+02  0.70316079115E+02  0.62246938185E+01  0.78549063890E+02  0.00000000000E+00 0. -1.
          2    1    6    6  502    0  0.26086660176E+03  0.14169232462E+02 -0.26385153248E+03  0.37130820386E+03  0.00000000000E+00 0. -1.
          1    1    5    5  503    0 -0.46244734550E+03 -0.21754242562E+03 -0.11278336354E+04  0.12382208864E+04  0.00000000000E+00 0. -1.
         -2    1    5    5    0  503 -0.12336667204E+03 -0.82731970155E+02 -0.24592827288E+03  0.28730581278E+03  0.00000000000E+00 0.  1.
         -1    1    6    6    0  502  0.29953057881E+02 -0.19119967417E+00 -0.84387306713E+02  0.89545741205E+02  0.00000000000E+00 0.  1.
<mgrwt>
<rscale>  0 0.18137291E+04</rscale>
<asrwt>0</asrwt>
<pdfrwt beam="1">  1        1 0.30964593E+00 0.18137291E+04</pdfrwt>
<pdfrwt beam="2">  1       -1 0.62862659E-01 0.18137291E+04</pdfrwt>
<totfact> 0.70679535E+00</totfact>
</mgrwt>
</event>
<event>
12    1  0.2214165E-007  0.1936516E+04  0.7818608E-02  0.8636891E-01
         -2   -1    0    0    0  501 -0.00000000000E+00  0.00000000000E+00  0.11818859343E+04  0.11818859343E+04  0.00000000000E+00 0.  1.
          2   -1    0    0  501    0  0.00000000000E+00 -0.00000000000E+00 -0.79324356988E+03  0.79324356988E+03  0.00000000000E+00 0. -1.
         23    2    1    2    0    0  0.36526749652E+03  0.24878579559E+03 -0.47368358524E+03  0.65419240801E+03  0.90977204094E+02 0.  0.
        254    2    1    2    0    0 -0.36526749652E+03 -0.24878579559E+03  0.86232594968E+03  0.13209370962E+04  0.89774943748E+03 0.  0.
        -24    2    4    4    0    0 -0.36537086805E+03  0.97958177112E+02 -0.13205575573E+01  0.38633267197E+03  0.78482570533E+02 0.  0.
         24    2    4    4    0    0  0.10337152944E+00 -0.34674397270E+03  0.86364650724E+03  0.93460442422E+03  0.85841406207E+02 0.  0.
         11    1    3    3    0    0  0.32720202434E+03  0.20130183460E+03 -0.36656470200E+03  0.53099272509E+03  0.00000000000E+00 0.  1.
        -11    1    3    3    0    0  0.38065472175E+02  0.47483960985E+02 -0.10711888324E+03  0.12319968291E+03  0.00000000000E+00 0. -1.
          4    1    6    6  502    0  0.32842605092E+02 -0.23857830453E+03  0.52506660770E+03  0.57766182722E+03  0.00000000000E+00 0. -1.
          3    1    5    5  503    0 -0.21914048310E+03  0.18594030097E+02 -0.28587124536E+01  0.21994649696E+03  0.00000000000E+00 0. -1.
         -4    1    5    5    0  503 -0.14623038495E+03  0.79364147015E+02  0.15381548962E+01  0.16638617501E+03  0.00000000000E+00 0.  1.
         -3    1    6    6    0  502 -0.32739233562E+02 -0.10816566817E+03  0.33857989954E+03  0.35694259701E+03  0.00000000000E+00 0.  1.
<mgrwt>
<rscale>  0 0.19365159E+04</rscale>
<asrwt>0</asrwt>
<pdfrwt beam="1">  1        2 0.12203747E+00 0.19365159E+04</pdfrwt>
<pdfrwt beam="2">  1       -2 0.18182861E+00 0.19365159E+04</pdfrwt>
<totfact> 0.57270399E+00</totfact>
</mgrwt>
</event>
<event>
12    1  0.2214165E-007  0.2133432E+04  0.7818608E-02  0.8546657E-01
         -1   -1    0    0    0  501 -0.00000000000E+00  0.00000000000E+00  0.56757165691E+03  0.56757165691E+03  0.00000000000E+00 0.  1.
          1   -1    0    0  501    0  0.00000000000E+00 -0.00000000000E+00 -0.20048278178E+04  0.20048278178E+04  0.00000000000E+00 0. -1.
         23    2    1    2    0    0  0.29684205684E+02  0.65050062116E+03  0.11533427500E+03  0.66767243437E+03  0.91936252048E+02 0.  0.
        254    2    1    2    0    0 -0.29684205684E+02 -0.65050062116E+03 -0.15525904359E+04  0.19047270403E+04  0.89073892155E+03 0.  0.
        -24    2    4    4    0    0 -0.12650213730E+02  0.21339611581E+03 -0.42113214007E+03  0.47880366351E+03  0.78757467179E+02 0.  0.
         24    2    4    4    0    0 -0.17033991954E+02 -0.86389673697E+03 -0.11314582958E+04  0.14259233768E+04  0.80323547959E+02 0.  0.
         13    1    3    3    0    0  0.57473101144E+02  0.27589269934E+03  0.57234138626E+02  0.28756857535E+03  0.00000000000E+00 0. -1.
        -13    1    3    3    0    0 -0.27788895459E+02  0.37460792182E+03  0.58100136372E+02  0.38010385902E+03  0.00000000000E+00 0.  1.
          4    1    6    6  502    0 -0.65368596929E+01 -0.20041291661E+03 -0.32079813373E+03  0.37831139328E+03  0.00000000000E+00 0. -1.
          1    1    5    5  503    0 -0.21638640180E+01 -0.49446804400E+01 -0.32228408812E+02  0.32677247538E+02  0.00000000000E+00 0. -1.
         -2    1    5    5    0  503 -0.10486349712E+02  0.21834079625E+03 -0.38890373126E+03  0.44612641597E+03  0.00000000000E+00 0.  1.
         -3    1    6    6    0  502 -0.10497132261E+02 -0.66348382036E+03 -0.81066016205E+03  0.10476119835E+04  0.00000000000E+00 0.  1.
<mgrwt>
<rscale>  0 0.21334324E+04</rscale>
<asrwt>0</asrwt>
<pdfrwt beam="1">  1        1 0.30843505E+00 0.21334324E+04</pdfrwt>
<pdfrwt beam="2">  1       -1 0.87318715E-01 0.21334324E+04</pdfrwt>
<totfact> 0.35010312E+00</totfact>
</mgrwt>
</event>
<event>
12    1  0.2214165E-007  0.2580480E+04  0.7818608E-02  0.8374862E-01
          1   -1    0    0  501    0  0.00000000000E+00  0.00000000000E+00  0.19712080095E+04  0.19712080095E+04  0.00000000000E+00 0. -1.
         -1   -1    0    0    0  501 -0.00000000000E+00 -0.00000000000E+00 -0.84451745961E+03  0.84451745961E+03  0.00000000000E+00 0.  1.
         23    2    1    2    0    0 -0.52602060890E+02  0.69532328985E+03 -0.47720075069E+03  0.84984385635E+03  0.90953666810E+02 0.  0.
        254    2    1    2    0    0  0.52602060890E+02 -0.69532328985E+03  0.16038913006E+04  0.19658816128E+04  0.89776486738E+03 0.  0.
        -24    2    4    4    0    0 -0.80146314297E+02  0.13720448520E+03  0.31756286833E+02  0.18015903036E+03  0.78742059997E+02 0.  0.
         24    2    4    4    0    0  0.13274837519E+03 -0.83252777505E+03  0.15721350137E+04  0.17857225824E+04  0.80448819097E+02 0.  0.
         13    1    3    3    0    0  0.16758026732E+02  0.98180190862E+02 -0.44131927301E+02  0.10893947101E+03  0.00000000000E+00 0.  1.
        -13    1    3    3    0    0 -0.69360087622E+02  0.59714309898E+03 -0.43306882339E+03  0.74090438534E+03  0.00000000000E+00 0. -1.
          2    1    6    6  502    0 -0.96153284570E+01 -0.23092313782E+02  0.46866624133E+02  0.53124287805E+02  0.00000000000E+00 0. -1.
          1    1    5    5  503    0 -0.29908494659E+02  0.24810244065E+01  0.19634702358E+02  0.35863561892E+02  0.00000000000E+00 0. -1.
         -2    1    5    5    0  503 -0.50237819638E+02  0.13472346080E+03  0.12121584475E+02  0.14429546847E+03  0.00000000000E+00 0.  1.
         -1    1    6    6    0  502  0.14236370364E+03 -0.80943546127E+03  0.15252683896E+04  0.17325982946E+04  0.00000000000E+00 0.  1.
<mgrwt>
<rscale>  0 0.25804803E+04</rscale>
<asrwt>0</asrwt>
<pdfrwt beam="1">  1        1 0.30326277E+00 0.25804803E+04</pdfrwt>
<pdfrwt beam="2">  1       -1 0.12992576E+00 0.25804803E+04</pdfrwt>
<totfact> 0.13964905E+00</totfact>
</mgrwt>
</event>
<event>
12    1  0.2214165E-007  0.2799409E+04  0.7818608E-02  0.8303452E-01
         -2   -1    0    0    0  501 -0.00000000000E+00  0.00000000000E+00  0.14276777975E+04  0.14276777975E+04  0.00000000000E+00 0.  1.
          2   -1    0    0  501    0  0.00000000000E+00 -0.00000000000E+00 -0.13722791608E+04  0.13722791608E+04  0.00000000000E+00 0. -1.
         23    2    1    2    0    0 -0.68074490007E+03  0.38844396071E+03  0.10009833694E+04  0.12749094155E+04  0.95519539506E+02 0.  0.
        254    2    1    2    0    0  0.68074490007E+03 -0.38844396071E+03 -0.94558473264E+03  0.15250475428E+04  0.90406702833E+03 0.  0.
        -24    2    4    4    0    0  0.52718198755E+03 -0.39239039272E+03 -0.10932310503E+03  0.67101219185E+03  0.80092147028E+02 0.  0.
         24    2    4    4    0    0  0.15356291252E+03  0.39464320170E+01 -0.83626162761E+03  0.85403535098E+03  0.80285294370E+02 0.  0.
         11    1    3    3    0    0 -0.26640449613E+03  0.20084480599E+03  0.39037370190E+03  0.51351885924E+03  0.00000000000E+00 0. -1.
        -11    1    3    3    0    0 -0.41434040394E+03  0.18759915472E+03  0.61060966747E+03  0.76139055629E+03  0.00000000000E+00 0.  1.
          2    1    6    6  502    0  0.14508550956E+03 -0.14638017551E+02 -0.79166922272E+03  0.80498710228E+03  0.00000000000E+00 0. -1.
          3    1    5    5  503    0  0.40567602251E+03 -0.31009581181E+03 -0.51240685733E+02  0.51318423165E+03  0.00000000000E+00 0. -1.
         -4    1    5    5    0  503  0.12150596505E+03 -0.82294580913E+02 -0.58082419299E+02  0.15782796020E+03  0.00000000000E+00 0.  1.
         -1    1    6    6    0  502  0.84774029568E+01  0.18584449568E+02 -0.44592404886E+02  0.49048248696E+02  0.00000000000E+00 0.  1.
<mgrwt>
<rscale>  0 0.27994089E+04</rscale>
<asrwt>0</asrwt>
<pdfrwt beam="1">  1        2 0.21111987E+00 0.27994089E+04</pdfrwt>
<pdfrwt beam="2">  1       -2 0.21964274E+00 0.27994089E+04</pdfrwt>
<totfact> 0.12978543E+00</totfact>
</mgrwt>
</event>
<event>
12    1  0.2214165E-007  0.2054571E+04  0.7818608E-02  0.8581523E-01
         -2   -1    0    0    0  501 -0.00000000000E+00  0.00000000000E+00  0.27058006495E+03  0.27058006495E+03  0.00000000000E+00 0.  1.
          2   -1    0    0  501    0  0.00000000000E+00 -0.00000000000E+00 -0.39001976707E+04  0.39001976707E+04  0.00000000000E+00 0. -1.
         23    2    1    2    0    0 -0.58471445828E+03 -0.58263515686E+03 -0.16217534081E+04  0.18221425714E+04  0.93620029320E+02 0.  0.
        254    2    1    2    0    0  0.58471445828E+03  0.58263515686E+03 -0.20078641977E+04  0.23486351643E+04  0.89622194521E+03 0.  0.
        -24    2    4    4    0    0  0.25273155026E+03  0.72081306266E+03 -0.17102453853E+04  0.18747420002E+04  0.79205943670E+02 0.  0.
         24    2    4    4    0    0  0.33198290802E+03 -0.13817790580E+03 -0.29761881233E+03  0.47389316410E+03  0.81804576038E+02 0.  0.
         13    1    3    3    0    0 -0.29667463989E+03 -0.31071097807E+03 -0.74348732826E+03  0.85867954507E+03  0.00000000000E+00 0.  1.
        -13    1    3    3    0    0 -0.28803981839E+03 -0.27192417879E+03 -0.87826607988E+03  0.96346302630E+03  0.00000000000E+00 0. -1.
          4    1    6    6  502    0  0.23622460209E+03 -0.10539155988E+03 -0.25758683452E+03  0.36504851848E+03  0.00000000000E+00 0. -1.
          1    1    5    5  503    0  0.15283922932E+03  0.53423128974E+03 -0.12040263006E+04  0.13260626808E+04  0.00000000000E+00 0. -1.
         -2    1    5    5    0  503  0.99892320943E+02  0.18658177292E+03 -0.50621908476E+03  0.54867931941E+03  0.00000000000E+00 0.  1.
         -3    1    6    6    0  502  0.95758305924E+02 -0.32786345927E+02 -0.40031977811E+02  0.10884464562E+03  0.00000000000E+00 0.  1.
<mgrwt>
<rscale>  0 0.20545712E+04</rscale>
<asrwt>0</asrwt>
<pdfrwt beam="1">  1        2 0.60003041E+00 0.20545712E+04</pdfrwt>
<pdfrwt beam="2">  1       -2 0.41627702E-01 0.20545712E+04</pdfrwt>
<totfact> 0.20961155E+00</totfact>
</mgrwt>
</event>
<event>
12    1  0.2214165E-007  0.1332767E+04  0.7818608E-02  0.9003977E-01
          2   -1    0    0  501    0  0.00000000000E+00  0.00000000000E+00  0.69672538281E+03  0.69672538281E+03  0.00000000000E+00 0. -1.
         -2   -1    0    0    0  501 -0.00000000000E+00 -0.00000000000E+00 -0.63736288582E+03  0.63736288582E+03  0.00000000000E+00 0.  1.
         23    2    1    2    0    0 -0.30607933199E+03 -0.78459782204E+02  0.17859130058E+03  0.37416719395E+03  0.90916123364E+02 0.  0.
        254    2    1    2    0    0  0.30607933199E+03  0.78459782204E+02 -0.11922880358E+03  0.95992107468E+03  0.89855020289E+03 0.  0.
        -24    2    4    4    0    0 -0.69984160042E+02  0.71223643308E+02 -0.44060664770E+03  0.45895782978E+03  0.80854693733E+02 0.  0.
         24    2    4    4    0    0  0.37606349203E+03  0.72361388959E+01  0.32137784411E+03  0.50096324490E+03  0.78767647581E+02 0.  0.
         13    1    3    3    0    0 -0.15861024061E+03 -0.21516557770E+02  0.42585391387E+02  0.16563117534E+03  0.00000000000E+00 0.  1.
        -13    1    3    3    0    0 -0.14746909138E+03 -0.56943224435E+02  0.13600590919E+03  0.20853601861E+03  0.00000000000E+00 0. -1.
          4    1    6    6  502    0  0.42823945009E+02  0.22834458425E+02  0.59925897161E+02  0.77113007387E+02  0.00000000000E+00 0. -1.
          3    1    5    5  503    0  0.61847975731E+01  0.29766698736E+01 -0.16246342652E+03  0.16260835538E+03  0.00000000000E+00 0. -1.
         -4    1    5    5    0  503 -0.76168957615E+02  0.68246973435E+02 -0.27814322118E+03  0.29634947439E+03  0.00000000000E+00 0.  1.
         -3    1    6    6    0  502  0.33323954703E+03 -0.15598319529E+02  0.26145194695E+03  0.42385023751E+03  0.00000000000E+00 0.  1.
<mgrwt>
<rscale>  0 0.13327669E+04</rscale>
<asrwt>0</asrwt>
<pdfrwt beam="1">  1        2 0.10718852E+00 0.13327669E+04</pdfrwt>
<pdfrwt beam="2">  1       -2 0.98055828E-01 0.13327669E+04</pdfrwt>
<totfact> 0.34885899E+01</totfact>
</mgrwt>
</event>
<event>
12    1  0.2214165E-007  0.1793503E+04  0.7818608E-02  0.8709762E-01
         -2   -1    0    0    0  501 -0.00000000000E+00  0.00000000000E+00  0.54266217519E+03  0.54266217519E+03  0.00000000000E+00 0.  1.
          2   -1    0    0  501    0  0.00000000000E+00 -0.00000000000E+00 -0.14818857198E+04  0.14818857198E+04  0.00000000000E+00 0. -1.
         23    2    1    2    0    0  0.15254194777E+03  0.40316716201E+03 -0.92524810080E+03  0.10249840144E+04  0.93248996939E+02 0.  0.
        254    2    1    2    0    0 -0.15254194777E+03 -0.40316716201E+03 -0.13975443809E+02  0.99956388057E+03  0.90173157423E+03 0.  0.
        -24    2    4    4    0    0  0.59870865760E+02  0.42967140493E+02  0.35865592311E+03  0.37516371098E+03  0.81749881516E+02 0.  0.
         24    2    4    4    0    0 -0.21241281353E+03 -0.44613430251E+03 -0.37263136692E+03  0.62440016959E+03  0.82863845875E+02 0.  0.
         11    1    3    3    0    0 -0.12055323148E+02  0.43076055005E+02 -0.81797396646E+02  0.93229241277E+02  0.00000000000E+00 0.  1.
        -11    1    3    3    0    0  0.16459727091E+03  0.36009110701E+03 -0.84345070416E+03  0.93175477315E+03  0.00000000000E+00 0. -1.
          4    1    6    6  502    0 -0.36362240409E+02 -0.16496983458E+03 -0.11467351369E+03  0.20417461544E+03  0.00000000000E+00 0. -1.
          3    1    5    5  503    0 -0.16359649875E+02 -0.64398446651E+01  0.85815464194E+02  0.87597965948E+02  0.00000000000E+00 0. -1.
         -2    1    5    5    0  503  0.76230515635E+02  0.49406985158E+02  0.27284045891E+03  0.28756574503E+03  0.00000000000E+00 0.  1.
         -3    1    6    6    0  502 -0.17605057312E+03 -0.28116446793E+03 -0.25795785322E+03  0.42022555415E+03  0.00000000000E+00 0.  1.
<mgrwt>
<rscale>  0 0.17935031E+04</rscale>
<asrwt>0</asrwt>
<pdfrwt beam="1">  1        2 0.22798242E+00 0.17935031E+04</pdfrwt>
<pdfrwt beam="2">  1       -2 0.83486489E-01 0.17935031E+04</pdfrwt>
<totfact> 0.15409296E+01</totfact>
</mgrwt>
</event>
<event>
12    1  0.2214165E-007  0.1439840E+04  0.7818608E-02  0.8925475E-01
         -1   -1    0    0    0  501 -0.00000000000E+00  0.00000000000E+00  0.21435949867E+03  0.21435949867E+03  0.00000000000E+00 0.  1.
          1   -1    0    0  501    0  0.00000000000E+00 -0.00000000000E+00 -0.24178306804E+04  0.24178306804E+04  0.00000000000E+00 0. -1.
         23    2    1    2    0    0 -0.29967045351E+03  0.78909897651E+02 -0.12597828674E+03  0.34691866792E+03  0.91939549533E+02 0.  0.
        254    2    1    2    0    0  0.29967045351E+03 -0.78909897651E+02 -0.20774928950E+04  0.22852715112E+04  0.90025551835E+03 0.  0.
        -24    2    4    4    0    0 -0.16306804266E+02 -0.33343285377E+03 -0.16695154889E+04  0.17043997490E+04  0.79076903549E+02 0.  0.
         24    2    4    4    0    0  0.31597725778E+03  0.25452295612E+03 -0.40797740609E+03  0.58087176222E+03  0.79642185022E+02 0.  0.
         13    1    3    3    0    0 -0.12203512099E+03  0.26597468593E+01 -0.86536420540E+02  0.14962685952E+03  0.00000000000E+00 0. -1.
        -13    1    3    3    0    0 -0.17763533252E+03  0.76250150792E+02 -0.39441866202E+02  0.19729180841E+03  0.00000000000E+00 0.  1.
          4    1    6    6  502    0  0.22452230478E+03  0.16431078453E+03 -0.32554049815E+03  0.42823464969E+03  0.00000000000E+00 0. -1.
          3    1    5    5  503    0  0.17266748210E+02 -0.20044989464E+03 -0.85000516663E+03  0.87349131888E+03  0.00000000000E+00 0. -1.
         -4    1    5    5    0  503 -0.33573552476E+02 -0.13298295913E+03 -0.81951032229E+03  0.83090843009E+03  0.00000000000E+00 0.  1.
         -3    1    6    6    0  502  0.91454952996E+02  0.90212171586E+02 -0.82436907942E+02  0.15263711253E+03  0.00000000000E+00 0.  1.
<mgrwt>
<rscale>  0 0.14398402E+04</rscale>
<asrwt>0</asrwt>
<pdfrwt beam="1">  1        1 0.37197393E+00 0.14398402E+04</pdfrwt>
<pdfrwt beam="2">  1       -1 0.32978386E-01 0.14398402E+04</pdfrwt>
<totfact> 0.12989956E+01</totfact>
</mgrwt>
</event>
<event>
12    1  0.2214165E-007  0.2255829E+04  0.7818608E-02  0.8495544E-01
          1   -1    0    0  501    0  0.00000000000E+00  0.00000000000E+00  0.10867586182E+04  0.10867586182E+04  0.00000000000E+00 0. -1.
         -1   -1    0    0    0  501 -0.00000000000E+00 -0.00000000000E+00 -0.11706291859E+04  0.11706291859E+04  0.00000000000E+00 0.  1.
         23    2    1    2    0    0 -0.12892337667E+03  0.44633249320E+03 -0.85994790787E+03  0.98137407592E+03  0.88038293362E+02 0.  0.
        254    2    1    2    0    0  0.12892337667E+03 -0.44633249320E+03  0.77607734022E+03  0.12760137281E+04  0.90004503491E+03 0.  0.
        -24    2    4    4    0    0  0.37217561680E+03 -0.56925864867E+03  0.36491955678E+03  0.77610980915E+03  0.81302239291E+02 0.  0.
         24    2    4    4    0    0 -0.24325224013E+03  0.12292615547E+03  0.41115778344E+03  0.49990391899E+03  0.81059936530E+02 0.  0.
         13    1    3    3    0    0 -0.65606304550E+02  0.30892318986E+03 -0.64921399612E+03  0.72195327909E+03  0.00000000000E+00 0.  1.
        -13    1    3    3    0    0 -0.63317072121E+02  0.13740930334E+03 -0.21073391175E+03  0.25942079683E+03  0.00000000000E+00 0. -1.
          2    1    6    6  502    0 -0.59373919594E+02  0.48291312774E+02  0.17781810917E+03  0.19358872169E+03  0.00000000000E+00 0. -1.
          3    1    5    5  503    0  0.59916111721E+02 -0.12693255482E+03  0.45918587620E+02  0.14768321030E+03  0.00000000000E+00 0. -1.
         -4    1    5    5    0  503  0.31225950508E+03 -0.44232609385E+03  0.31900096916E+03  0.62842659885E+03  0.00000000000E+00 0.  1.
         -1    1    6    6    0  502 -0.18387832053E+03  0.74634842699E+02  0.23333967428E+03  0.30631519730E+03  0.00000000000E+00 0.  1.
<mgrwt>
<rscale>  0 0.22558292E+04</rscale>
<asrwt>0</asrwt>
<pdfrwt beam="1">  1        1 0.16719363E+00 0.22558292E+04</pdfrwt>
<pdfrwt beam="2">  1       -1 0.18009680E+00 0.22558292E+04</pdfrwt>
<totfact> 0.24460313E+00</totfact>
</mgrwt>
</event>
<event>
12    1  0.2214165E-007  0.2046586E+04  0.7818608E-02  0.8585145E-01
          1   -1    0    0  501    0  0.00000000000E+00  0.00000000000E+00  0.11311511492E+04  0.11311511492E+04  0.00000000000E+00 0. -1.
         -1   -1    0    0    0  501 -0.00000000000E+00 -0.00000000000E+00 -0.92571971242E+03  0.92571971242E+03  0.00000000000E+00 0.  1.
         23    2    1    2    0    0 -0.22885588508E+03  0.40510835198E+03 -0.59978475297E+03  0.76463309516E+03  0.91838049525E+02 0.  0.
        254    2    1    2    0    0  0.22885588508E+03 -0.40510835198E+03  0.80521618971E+03  0.12922377664E+04  0.89722769674E+03 0.  0.
        -24    2    4    4    0    0  0.12405801615E+03  0.25723115473E+03  0.87319749791E+02  0.30664368279E+03  0.69622921211E+02 0.  0.
         24    2    4    4    0    0  0.10479786893E+03 -0.66233950671E+03  0.71789643992E+03  0.98559408362E+03  0.79650384424E+02 0.  0.
         11    1    3    3    0    0 -0.20019522233E+03  0.36097063146E+03 -0.57123671239E+03  0.70476187851E+03  0.00000000000E+00 0.  1.
        -11    1    3    3    0    0 -0.28660662755E+02  0.44137720517E+02 -0.28548040576E+02  0.59871216647E+02  0.00000000000E+00 0. -1.
          4    1    6    6  502    0  0.10646996850E+03 -0.44142609500E+03  0.49634928799E+03  0.67272242956E+03  0.00000000000E+00 0. -1.
          1    1    5    5  503    0  0.87307506145E+02  0.23554371649E+03  0.72237176798E+02  0.26138410954E+03  0.00000000000E+00 0. -1.
         -2    1    5    5    0  503  0.36750510002E+02  0.21687438237E+02  0.15082572993E+02  0.45259573251E+02  0.00000000000E+00 0.  1.
         -3    1    6    6    0  502 -0.16720995625E+01 -0.22091341170E+03  0.22154715193E+03  0.31287165406E+03  0.00000000000E+00 0.  1.
<mgrwt>
<rscale>  0 0.20465863E+04</rscale>
<asrwt>0</asrwt>
<pdfrwt beam="1">  1        1 0.17402325E+00 0.20465863E+04</pdfrwt>
<pdfrwt beam="2">  1       -1 0.14241842E+00 0.20465863E+04</pdfrwt>
<totfact> 0.44484374E+00</totfact>
</mgrwt>
</event>
<event>
12    1  0.2214165E-007  0.2845360E+04  0.7818608E-02  0.8289323E-01
         -2   -1    0    0    0  501 -0.00000000000E+00  0.00000000000E+00  0.10407859895E+04  0.10407859895E+04  0.00000000000E+00 0.  1.
          2   -1    0    0  501    0  0.00000000000E+00 -0.00000000000E+00 -0.19447012421E+04  0.19447012421E+04  0.00000000000E+00 0. -1.
         23    2    1    2    0    0  0.10608631157E+04 -0.28547601424E+03 -0.10921710724E+04  0.15519673490E+04  0.94010084066E+02 0.  0.
        254    2    1    2    0    0 -0.10608631157E+04  0.28547601424E+03  0.18825581985E+03  0.14335198825E+04  0.90144988482E+03 0.  0.
        -24    2    4    4    0    0 -0.66965215685E+03 -0.42642890171E+02  0.49001285531E+03  0.83480293159E+03  0.80814039385E+02 0.  0.
         24    2    4    4    0    0 -0.39121095888E+03  0.32811890441E+03 -0.30175703546E+03  0.59871695092E+03  0.81833056247E+02 0.  0.
         11    1    3    3    0    0  0.48756983309E+03 -0.83147747522E+02 -0.49797906382E+03  0.70186967313E+03  0.00000000000E+00 0.  1.
        -11    1    3    3    0    0  0.57329328263E+03 -0.20232826672E+03 -0.59419200863E+03  0.85009767588E+03  0.00000000000E+00 0. -1.
          4    1    6    6  502    0 -0.73278571492E+02  0.47653193233E+02 -0.87547954318E+02  0.12371426826E+03  0.00000000000E+00 0. -1.
          1    1    5    5  503    0 -0.29422552952E+02 -0.19068498251E+02  0.29183502657E+02  0.45617661877E+02  0.00000000000E+00 0. -1.
         -2    1    5    5    0  503 -0.64022960390E+03 -0.23574391920E+02  0.46082935266E+03  0.78918526971E+03  0.00000000000E+00 0.  1.
         -3    1    6    6    0  502 -0.31793238739E+03  0.28046571118E+03 -0.21420908114E+03  0.47500268267E+03  0.00000000000E+00 0.  1.
<mgrwt>
<rscale>  0 0.28453596E+04</rscale>
<asrwt>0</asrwt>
<pdfrwt beam="1">  1        2 0.29918481E+00 0.28453596E+04</pdfrwt>
<pdfrwt beam="2">  1       -2 0.16012092E+00 0.28453596E+04</pdfrwt>
<totfact> 0.15629970E+00</totfact>
</mgrwt>
</event>
<event>
12    1  0.2214165E-007  0.2989867E+04  0.7818608E-02  0.8246630E-01
         -1   -1    0    0    0  501 -0.00000000000E+00  0.00000000000E+00  0.26599159261E+04  0.26599159261E+04  0.00000000000E+00 0.  1.
          1   -1    0    0  501    0  0.00000000000E+00 -0.00000000000E+00 -0.84018703644E+03  0.84018703644E+03  0.00000000000E+00 0. -1.
         23    2    1    2    0    0  0.31253020098E+03 -0.77844806375E+03 -0.42188490432E+03  0.94327590352E+03  0.90144568329E+02 0.  0.
        254    2    1    2    0    0 -0.31253020098E+03  0.77844806375E+03  0.22416137940E+04  0.25568270591E+04  0.89937516864E+03 0.  0.
        -24    2    4    4    0    0 -0.18376461767E+03  0.53379675146E+02  0.12247524403E+02  0.20770424157E+03  0.79826221772E+02 0.  0.
         24    2    4    4    0    0 -0.12876558330E+03  0.72506838860E+03  0.22293662696E+04  0.23491228175E+04  0.77455174174E+02 0.  0.
         11    1    3    3    0    0  0.55277665553E+00 -0.64495197441E+02 -0.29990452288E+02  0.71129201341E+02  0.00000000000E+00 0. -1.
        -11    1    3    3    0    0  0.31197742432E+03 -0.71395286631E+03 -0.39189445203E+03  0.87214670218E+03  0.00000000000E+00 0.  1.
          2    1    6    6  502    0 -0.62524912066E+02  0.41604220869E+03  0.13877912461E+04  0.14501603452E+04  0.00000000000E+00 0. -1.
          3    1    5    5  503    0 -0.57619356502E+02  0.28074267588E+02  0.40715975776E+02  0.75933822686E+02  0.00000000000E+00 0. -1.
         -4    1    5    5    0  503 -0.12614526117E+03  0.25305407558E+02 -0.28468451373E+02  0.13177041888E+03  0.00000000000E+00 0.  1.
         -1    1    6    6    0  502 -0.66240671237E+02  0.30902617992E+03  0.84157502352E+03  0.89896247230E+03  0.00000000000E+00 0.  1.
<mgrwt>
<rscale>  0 0.29898675E+04</rscale>
<asrwt>0</asrwt>
<pdfrwt beam="1">  1        1 0.12925955E+00 0.29898675E+04</pdfrwt>
<pdfrwt beam="2">  1       -1 0.40921783E+00 0.29898675E+04</pdfrwt>
<totfact> 0.10747846E-01</totfact>
</mgrwt>
</event>
<event>
12    1  0.2214165E-007  0.1209400E+04  0.7818608E-02  0.9104668E-01
          2   -1    0    0  501    0  0.00000000000E+00  0.00000000000E+00  0.71404229850E+03  0.71404229850E+03  0.00000000000E+00 0.  1.
         -2   -1    0    0    0  501 -0.00000000000E+00 -0.00000000000E+00 -0.51210166108E+03  0.51210166108E+03  0.00000000000E+00 0. -1.
         23    2    1    2    0    0  0.15663254711E+03 -0.16555946566E+03  0.16541540693E+03  0.29501886941E+03  0.87921470482E+02 0.  0.
        254    2    1    2    0    0 -0.15663254711E+03  0.16555946566E+03  0.36525230493E+02  0.93112509017E+03  0.90206216504E+03 0.  0.
        -24    2    4    4    0    0 -0.43234334114E+03  0.33350106936E+03 -0.12056535811E+03  0.56448596808E+03  0.77231306441E+02 0.  0.
         24    2    4    4    0    0  0.27571079402E+03 -0.16794160370E+03  0.15709058860E+03  0.36663912209E+03  0.74336859102E+02 0.  0.
         13    1    3    3    0    0  0.14852523847E+02  0.75685501069E+01 -0.12339722628E+00  0.16670202225E+02  0.00000000000E+00 0. -1.
        -13    1    3    3    0    0  0.14178002327E+03 -0.17312801577E+03  0.16553880415E+03  0.27834866718E+03  0.00000000000E+00 0.  1.
          2    1    6    6  502    0  0.12384788604E+03 -0.51310599129E+02  0.98637541748E+02  0.16643449493E+03  0.00000000000E+00 0. -1.
          1    1    5    5  503    0 -0.24509288722E+03  0.16801896324E+03 -0.10090549222E+03  0.31381971533E+03  0.00000000000E+00 0. -1.
         -2    1    5    5    0  503 -0.18725045392E+03  0.16548210612E+03 -0.19659865890E+02  0.25066625275E+03  0.00000000000E+00 0.  1.
         -1    1    6    6    0  502  0.15186290798E+03 -0.11663100457E+03  0.58453046854E+02  0.20020462716E+03  0.00000000000E+00 0.  1.
<mgrwt>
<rscale>  0 0.12094003E+04</rscale>
<asrwt>0</asrwt>
<pdfrwt beam="1">  1        2 0.10985266E+00 0.12094003E+04</pdfrwt>
<pdfrwt beam="2">  1       -2 0.78784871E-01 0.12094003E+04</pdfrwt>
<totfact> 0.56392035E+01</totfact>
</mgrwt>
</event>
<event>
12    1  0.2353677E-007  0.3289985E+04  0.7818608E-02  0.8165448E-01
          2   -1    0    0  501    0  0.00000000000E+00  0.00000000000E+00  0.14211208936E+04  0.14211208936E+04  0.00000000000E+00 0. -1.
         -2   -1    0    0    0  501 -0.00000000000E+00 -0.00000000000E+00 -0.19041309356E+04  0.19041309356E+04  0.00000000000E+00 0.  1.
         23    2    1    2    0    0  0.12530046478E+04  0.75145573842E+03  0.20204082953E+03  0.14777296950E+04  0.90322645648E+02 0.  0.
        254    2    1    2    0    0 -0.12530046478E+04 -0.75145573842E+03 -0.68505087152E+03  0.18475221342E+04  0.89963157200E+03 0.  0.
        -24    2    4    4    0    0 -0.11650560180E+04 -0.39876997978E+03 -0.78379409817E+03  0.14620541538E+04  0.83042991932E+02 0.  0.
         24    2    4    4    0    0 -0.87948629803E+02 -0.35268575864E+03  0.98743226644E+02  0.38546798032E+03  0.81933712316E+02 0.  0.
         11    1    3    3    0    0  0.45513785526E+03  0.30886009785E+03  0.44658274879E+02  0.55185087556E+03  0.00000000000E+00 0.  1.
        -11    1    3    3    0    0  0.79786679256E+03  0.44259564056E+03  0.15738255465E+03  0.92587881941E+03  0.00000000000E+00 0. -1.
          2    1    6    6  502    0 -0.98911860967E+01 -0.19625503462E+03  0.68154880691E+02  0.20798788892E+03  0.00000000000E+00 0. -1.
          1    1    5    5  503    0 -0.97344782450E+03 -0.34835514219E+03 -0.62487646569E+03  0.12080656313E+04  0.00000000000E+00 0. -1.
         -2    1    5    5    0  503 -0.19160819353E+03 -0.50414837589E+02 -0.15891763248E+03  0.25398852255E+03  0.00000000000E+00 0.  1.
         -1    1    6    6    0  502 -0.78057443706E+02 -0.15643072402E+03  0.30588345954E+02  0.17748009140E+03  0.00000000000E+00 0.  1.
<mgrwt>
<rscale>  0 0.32899850E+04</rscale>
<asrwt>0</asrwt>
<pdfrwt beam="1">  1        2 0.21863399E+00 0.32899850E+04</pdfrwt>
<pdfrwt beam="2">  1       -2 0.29294322E+00 0.32899850E+04</pdfrwt>
<totfact> 0.41294062E-01</totfact>
</mgrwt>
</event>
<event>
12    1  0.2214165E-007  0.2059635E+04  0.7818608E-02  0.8579236E-01
          2   -1    0    0  501    0  0.00000000000E+00  0.00000000000E+00  0.15830930769E+04  0.15830930769E+04  0.00000000000E+00 0. -1.
         -2   -1    0    0    0  501 -0.00000000000E+00 -0.00000000000E+00 -0.66990645272E+03  0.66990645272E+03  0.00000000000E+00 0.  1.
         23    2    1    2    0    0 -0.10381313201E+02 -0.83242801835E+03  0.40748804618E+03  0.93099138364E+03  0.87488692016E+02 0.  0.
        254    2    1    2    0    0  0.10381313201E+02  0.83242801835E+03  0.50569857796E+03  0.13220081459E+04  0.89382901540E+03 0.  0.
        -24    2    4    4    0    0 -0.26067695940E+03  0.47606975779E+03  0.64494708554E+03  0.84682267927E+03  0.80975400754E+02 0.  0.
         24    2    4    4    0    0  0.27105827260E+03  0.35635826056E+03 -0.13924850758E+03  0.47518546667E+03  0.77118634931E+02 0.  0.
         11    1    3    3    0    0  0.27021933651E+02 -0.96998001356E+02  0.47953077013E+02  0.11152710325E+03  0.00000000000E+00 0.  1.
        -11    1    3    3    0    0 -0.37403246851E+02 -0.73543001700E+03  0.35953496917E+03  0.81946428039E+03  0.00000000000E+00 0. -1.
          2    1    6    6  502    0  0.24145288331E+02  0.69639878397E+02 -0.40624843770E+02  0.84161069046E+02  0.00000000000E+00 0. -1.
          1    1    5    5  503    0 -0.15417879553E+02  0.41727776864E+02  0.91664935065E+02  0.10188905090E+03  0.00000000000E+00 0. -1.
         -2    1    5    5    0  503 -0.24525907985E+03  0.43434198092E+03  0.55328215048E+03  0.74493362837E+03  0.00000000000E+00 0.  1.
         -1    1    6    6    0  502  0.24691298427E+03  0.28671838217E+03 -0.98623663811E+02  0.39102439762E+03  0.00000000000E+00 0.  1.
<mgrwt>
<rscale>  0 0.20596352E+04</rscale>
<asrwt>0</asrwt>
<pdfrwt beam="1">  1        2 0.24355278E+00 0.20596352E+04</pdfrwt>
<pdfrwt beam="2">  1       -2 0.10306253E+00 0.20596352E+04</pdfrwt>
<totfact> 0.81010911E+00</totfact>
</mgrwt>
</event>
<event>
12    1  0.2214165E-007  0.2234172E+04  0.7818608E-02  0.8504338E-01
         -1   -1    0    0    0  501 -0.00000000000E+00  0.00000000000E+00  0.48651069863E+03  0.48651069863E+03  0.00000000000E+00 0.  1.
          1   -1    0    0  501    0  0.00000000000E+00 -0.00000000000E+00 -0.25649610193E+04  0.25649610193E+04  0.00000000000E+00 0. -1.
         23    2    1    2    0    0 -0.74890820115E+03  0.53738460485E+03 -0.67515406380E+03  0.11459218754E+04  0.87511298773E+02 0.  0.
        254    2    1    2    0    0  0.74890820115E+03 -0.53738460485E+03 -0.14032962569E+04  0.19055498425E+04  0.90124031785E+03 0.  0.
        -24    2    4    4    0    0  0.61390987081E+03 -0.62022657824E+03 -0.14724695723E+04  0.17134814676E+04  0.79282788642E+02 0.  0.
         24    2    4    4    0    0  0.13499833034E+03  0.82841973397E+02  0.69173315481E+02  0.19206837489E+03  0.83773332926E+02 0.  0.
         11    1    3    3    0    0 -0.60521667053E+03  0.41346833959E+03 -0.49643613286E+03  0.88526387034E+03  0.00000000000E+00 0.  1.
        -11    1    3    3    0    0 -0.14369153062E+03  0.12391626525E+03 -0.17871793094E+03  0.26065800507E+03  0.00000000000E+00 0. -1.
          4    1    6    6  502    0  0.14602334849E+03  0.78900302467E+02  0.57819171405E+02  0.17575873411E+03  0.00000000000E+00 0. -1.
          1    1    5    5  503    0  0.44781047798E+03 -0.48950220999E+03 -0.10730006255E+04  0.12615375460E+04  0.00000000000E+00 0. -1.
         -2    1    5    5    0  503  0.16609939284E+03 -0.13072436825E+03 -0.39946894685E+03  0.45194392158E+03  0.00000000000E+00 0.  1.
         -3    1    6    6    0  502 -0.11025018150E+02  0.39416709298E+01  0.11354144076E+02  0.16309640787E+02  0.00000000000E+00 0.  1.
<mgrwt>
<rscale>  0 0.22341719E+04</rscale>
<asrwt>0</asrwt>
<pdfrwt beam="1">  1        1 0.39460940E+00 0.22341719E+04</pdfrwt>
<pdfrwt beam="2">  1       -1 0.74847798E-01 0.22341719E+04</pdfrwt>
<totfact> 0.19925946E+00</totfact>
</mgrwt>
</event>
<event>
12    1  0.2214165E-007  0.3060263E+04  0.7818608E-02  0.8226729E-01
         -1   -1    0    0    0  501 -0.00000000000E+00  0.00000000000E+00  0.62659673885E+03  0.62659673885E+03  0.00000000000E+00 0.  1.
          1   -1    0    0  501    0  0.00000000000E+00 -0.00000000000E+00 -0.37365377075E+04  0.37365377075E+04  0.00000000000E+00 0. -1.
         23    2    1    2    0    0 -0.54593707293E+03  0.12857835919E+04 -0.13652560010E+04  0.19553246434E+04  0.89909842870E+02 0.  0.
        254    2    1    2    0    0  0.54593707293E+03 -0.12857835919E+04 -0.17446849677E+04  0.24078098030E+04  0.89573192312E+03 0.  0.
        -24    2    4    4    0    0 -0.10387312533E+03 -0.87734937346E+03 -0.97475670855E+03  0.13179626215E+04  0.79644721254E+02 0.  0.
         24    2    4    4    0    0  0.64981019826E+03 -0.40843421848E+03 -0.76992825914E+03  0.10898471815E+04  0.76847577492E+02 0.  0.
         13    1    3    3    0    0 -0.50381033638E+03  0.11155294228E+04 -0.12086549737E+04  0.17201969637E+04  0.00000000000E+00 0. -1.
        -13    1    3    3    0    0 -0.42126736546E+02  0.17025416910E+03 -0.15660102726E+03  0.23512767972E+03  0.00000000000E+00 0.  1.
          4    1    6    6  502    0  0.47222097714E+03 -0.29441205191E+03 -0.60496662087E+03  0.82198279783E+03  0.00000000000E+00 0. -1.
          3    1    5    5  503    0 -0.89545702355E+02 -0.46751928505E+03 -0.55415833234E+03  0.73053690667E+03  0.00000000000E+00 0. -1.
         -4    1    5    5    0  503 -0.14327422975E+02 -0.40983008841E+03 -0.42059837621E+03  0.58742571487E+03  0.00000000000E+00 0.  1.
         -3    1    6    6    0  502  0.17758922111E+03 -0.11402216657E+03 -0.16496163827E+03  0.26786438364E+03  0.00000000000E+00 0.  1.
<mgrwt>
<rscale>  0 0.30602630E+04</rscale>
<asrwt>0</asrwt>
<pdfrwt beam="1">  1        1 0.57485195E+00 0.30602630E+04</pdfrwt>
<pdfrwt beam="2">  1       -1 0.96399498E-01 0.30602630E+04</pdfrwt>
<totfact> 0.14106180E-01</totfact>
</mgrwt>
</event>
<event>
12    1  0.2214165E-007  0.2937465E+04  0.7818608E-02  0.8261817E-01
         -1   -1    0    0    0  501 -0.00000000000E+00  0.00000000000E+00  0.24654875136E+04  0.24654875136E+04  0.00000000000E+00 0.  1.
          1   -1    0    0  501    0  0.00000000000E+00 -0.00000000000E+00 -0.87494882664E+03  0.87494882664E+03  0.00000000000E+00 0. -1.
         23    2    1    2    0    0 -0.62118928683E+03  0.11386159338E+04  0.10512134150E+04  0.16720569933E+04  0.91665534584E+02 0.  0.
        254    2    1    2    0    0  0.62118928683E+03 -0.11386159338E+04  0.53932527190E+03  0.16683793469E+04  0.90016416372E+03 0.  0.
        -24    2    4    4    0    0  0.81487999293E+03 -0.95825891734E+03  0.58481331277E+03  0.13894163035E+04  0.78622504481E+02 0.  0.
         24    2    4    4    0    0 -0.19369070610E+03 -0.18035701641E+03 -0.45488040874E+02  0.27896304338E+03  0.75541211996E+02 0.  0.
         11    1    3    3    0    0 -0.29232682166E+03  0.52516497101E+03  0.42888853833E+03  0.73837564677E+03  0.00000000000E+00 0. -1.
        -11    1    3    3    0    0 -0.32886246518E+03  0.61345096274E+03  0.62232487671E+03  0.93368134653E+03  0.00000000000E+00 0.  1.
          4    1    6    6  502    0 -0.33588777617E+02 -0.77477997319E+02 -0.21587713395E+02  0.87161203640E+02  0.00000000000E+00 0. -1.
          1    1    5    5  503    0  0.20079648932E+03 -0.22243947275E+03  0.17548160846E+03  0.34726408405E+03  0.00000000000E+00 0. -1.
         -2    1    5    5    0  503  0.61408350361E+03 -0.73581944459E+03  0.40933170431E+03  0.10421522195E+04  0.00000000000E+00 0.  1.
         -3    1    6    6    0  502 -0.16010192848E+03 -0.10287901909E+03 -0.23900327479E+02  0.19180183974E+03  0.00000000000E+00 0.  1.
<mgrwt>
<rscale>  0 0.29374652E+04</rscale>
<asrwt>0</asrwt>
<pdfrwt beam="1">  1        1 0.13460751E+00 0.29374652E+04</pdfrwt>
<pdfrwt beam="2">  1       -1 0.37930577E+00 0.29374652E+04</pdfrwt>
<totfact> 0.16143949E-01</totfact>
</mgrwt>
</event>
<event>
12    1  0.2214165E-007  0.1657970E+04  0.7818608E-02  0.8785706E-01
         -3   -1    0    0    0  501 -0.00000000000E+00  0.00000000000E+00  0.16835659307E+04  0.16835659307E+04  0.00000000000E+00 0.  1.
          3   -1    0    0  501    0  0.00000000000E+00 -0.00000000000E+00 -0.40819064144E+03  0.40819064144E+03  0.00000000000E+00 0. -1.
         23    2    1    2    0    0 -0.81173474583E+02  0.57424435132E+03  0.50880063193E+03  0.77667241423E+03  0.89421742147E+02 0.  0.
        254    2    1    2    0    0  0.81173474583E+02 -0.57424435132E+03  0.76657465729E+03  0.13150841579E+04  0.89747642258E+03 0.  0.
        -24    2    4    4    0    0 -0.59427490741E+02  0.21483399373E+03  0.56023428805E+02  0.24098317489E+03  0.72449944711E+02 0.  0.
         24    2    4    4    0    0  0.14060096532E+03 -0.78907834505E+03  0.71055122849E+03  0.10741009830E+04  0.79978792562E+02 0.  0.
         13    1    3    3    0    0 -0.17453015903E+01  0.77973597681E+00 -0.32546848261E+01  0.37745250234E+01  0.00000000000E+00 0. -1.
        -13    1    3    3    0    0 -0.79428172992E+02  0.57346461535E+03  0.51205531676E+03  0.77289788921E+03  0.00000000000E+00 0.  1.
          4    1    6    6  502    0  0.12187418612E+03 -0.61078304647E+03  0.59115956899E+03  0.85870768199E+03  0.00000000000E+00 0. -1.
          3    1    5    5  503    0 -0.52611404692E+02  0.18901346903E+03  0.21554178166E+02  0.19737941629E+03  0.00000000000E+00 0. -1.
         -4    1    5    5    0  503 -0.68160860488E+01  0.25820524702E+02  0.34469250639E+02  0.43603758605E+02  0.00000000000E+00 0.  1.
         -3    1    6    6    0  502  0.18726779207E+02 -0.17829529858E+03  0.11939165950E+03  0.21539330100E+03  0.00000000000E+00 0.  1.
<mgrwt>
<rscale>  0 0.16579697E+04</rscale>
<asrwt>0</asrwt>
<pdfrwt beam="1">  1        3 0.62798561E-01 0.16579697E+04</pdfrwt>
<pdfrwt beam="2">  1       -3 0.25901014E+00 0.16579697E+04</pdfrwt>
<totfact> 0.40016409E-01</totfact>
</mgrwt>
</event>
<event>
12    1  0.2214165E-007  0.1903789E+04  0.7818608E-02  0.8652973E-01
         -2   -1    0    0    0  501 -0.00000000000E+00  0.00000000000E+00  0.62842912705E+03  0.62842912705E+03  0.00000000000E+00 0.  1.
          2   -1    0    0  501    0  0.00000000000E+00 -0.00000000000E+00 -0.14418544521E+04  0.14418544521E+04  0.00000000000E+00 0. -1.
         23    2    1    2    0    0 -0.36171387010E+03 -0.46249348857E+03  0.16468832933E+03  0.61646380671E+03  0.90378251716E+02 0.  0.
        254    2    1    2    0    0  0.36171387010E+03  0.46249348857E+03 -0.97811365440E+03  0.14538197724E+04  0.90119279793E+03 0.  0.
        -24    2    4    4    0    0  0.65344013299E+03  0.28135909683E+03 -0.73992368796E+03  0.10291164690E+04  0.73801720135E+02 0.  0.
         24    2    4    4    0    0 -0.29172626289E+03  0.18113439173E+03 -0.23818996643E+03  0.42470330349E+03  0.75660792718E+02 0.  0.
         13    1    3    3    0    0 -0.17723229706E+03 -0.20711466842E+03  0.12160589476E+03  0.29848913990E+03  0.00000000000E+00 0.  1.
        -13    1    3    3    0    0 -0.18448157304E+03 -0.25537882015E+03  0.43082434574E+02  0.31797466682E+03  0.00000000000E+00 0. -1.
          2    1    6    6  502    0 -0.25271793942E+03  0.14540495795E+03 -0.22959702472E+03  0.37111150947E+03  0.00000000000E+00 0. -1.
          3    1    5    5  503    0  0.64443518393E+03  0.26976214513E+03 -0.71162429545E+03  0.99723490669E+03  0.00000000000E+00 0. -1.
         -4    1    5    5    0  503  0.90049490589E+01  0.11596951702E+02 -0.28299392511E+02  0.31881562271E+02  0.00000000000E+00 0.  1.
         -1    1    6    6    0  502 -0.39008323469E+02  0.35729433785E+02 -0.85929417105E+01  0.53591794014E+02  0.00000000000E+00 0.  1.
<mgrwt>
<rscale>  0 0.19037892E+04</rscale>
<asrwt>0</asrwt>
<pdfrwt beam="1">  1        2 0.22182376E+00 0.19037892E+04</pdfrwt>
<pdfrwt beam="2">  1       -2 0.96681404E-01 0.19037892E+04</pdfrwt>
<totfact> 0.11470727E+01</totfact>
</mgrwt>
</event>
<event>
12    1  0.2214165E-007  0.1874235E+04  0.7818608E-02  0.8667789E-01
         -2   -1    0    0    0  501 -0.00000000000E+00  0.00000000000E+00  0.38970797369E+03  0.38970797369E+03  0.00000000000E+00 0.  1.
          2   -1    0    0  501    0  0.00000000000E+00 -0.00000000000E+00 -0.22534550380E+04  0.22534550380E+04  0.00000000000E+00 0. -1.
         23    2    1    2    0    0  0.54724012782E+02  0.37606537031E+03  0.14116341634E+03  0.41285741731E+03  0.78129742054E+02 0.  0.
        254    2    1    2    0    0 -0.54724012782E+02 -0.37606537031E+03 -0.20049104807E+04  0.22303055944E+04  0.90009839936E+03 0.  0.
        -24    2    4    4    0    0 -0.15535444794E+03  0.19100330410E+02 -0.17130974113E+04  0.17224480689E+04  0.87319999161E+02 0.  0.
         24    2    4    4    0    0  0.10063043515E+03 -0.39516570072E+03 -0.29181306933E+03  0.50785752548E+03  0.80510764767E+02 0.  0.
         13    1    3    3    0    0  0.45522191272E+01  0.74769555347E+02 -0.32832023576E+01  0.74979920802E+02  0.00000000000E+00 0. -1.
        -13    1    3    3    0    0  0.50171793655E+02  0.30129581497E+03  0.14444661870E+03  0.33787749651E+03  0.00000000000E+00 0.  1.
          2    1    6    6  502    0  0.14420116524E+02 -0.20663242659E+03 -0.16517043988E+03  0.26492673269E+03  0.00000000000E+00 0. -1.
          3    1    5    5  503    0 -0.14456647839E+02  0.22971595720E+02 -0.11556164187E+03  0.11870628437E+03  0.00000000000E+00 0. -1.
         -4    1    5    5    0  503 -0.14089780010E+03 -0.38712653103E+01 -0.15975357694E+04  0.16037417845E+04  0.00000000000E+00 0.  1.
         -3    1    6    6    0  502  0.86210318630E+02 -0.18853327413E+03 -0.12664262945E+03  0.24293079279E+03  0.00000000000E+00 0.  1.
<mgrwt>
<rscale>  0 0.18742352E+04</rscale>
<asrwt>0</asrwt>
<pdfrwt beam="1">  1        2 0.34668538E+00 0.18742352E+04</pdfrwt>
<pdfrwt beam="2">  1       -2 0.59955074E-01 0.18742352E+04</pdfrwt>
<totfact> 0.11731090E+01</totfact>
</mgrwt>
</event>
<event>
12    1  0.2214165E-007  0.1557847E+04  0.7818608E-02  0.8846871E-01
          2   -1    0    0  501    0  0.00000000000E+00  0.00000000000E+00  0.12732478711E+04  0.12732478711E+04  0.00000000000E+00 0. -1.
         -2   -1    0    0    0  501 -0.00000000000E+00 -0.00000000000E+00 -0.47651538898E+03  0.47651538898E+03  0.00000000000E+00 0.  1.
         23    2    1    2    0    0 -0.23443356072E+03 -0.44592332332E+03  0.37607161269E+03  0.63531815694E+03  0.91611123767E+02 0.  0.
        254    2    1    2    0    0  0.23443356072E+03  0.44592332332E+03  0.42066086947E+03  0.11144451032E+04  0.90068064054E+03 0.  0.
        -24    2    4    4    0    0  0.51734274108E+03  0.37420176755E+02  0.16542478131E+03  0.55029214827E+03  0.80076892984E+02 0.  0.
         24    2    4    4    0    0 -0.28290918036E+03  0.40850314656E+03  0.25523608816E+03  0.56415295492E+03  0.78807809033E+02 0.  0.
         13    1    3    3    0    0 -0.47077120055E+02 -0.40348726807E+02  0.23920504551E+02  0.66456493479E+02  0.00000000000E+00 0.  1.
        -13    1    3    3    0    0 -0.18735644067E+03 -0.40557459651E+03  0.35215110814E+03  0.56886166346E+03  0.00000000000E+00 0. -1.
          2    1    6    6  502    0 -0.28545775971E+03  0.38870828231E+03  0.23806420803E+03  0.53782416128E+03  0.00000000000E+00 0. -1.
          1    1    5    5  503    0  0.47945865977E+03  0.55866982582E+02  0.15208366259E+03  0.50609402940E+03  0.00000000000E+00 0. -1.
         -4    1    5    5    0  503  0.37884081319E+02 -0.18446805827E+02  0.13341118721E+02  0.44198118867E+02  0.00000000000E+00 0.  1.
         -1    1    6    6    0  502  0.25485793440E+01  0.19794864248E+02  0.17171880130E+02  0.26328793639E+02  0.00000000000E+00 0.  1.
<mgrwt>
<rscale>  0 0.15578475E+04</rscale>
<asrwt>0</asrwt>
<pdfrwt beam="1">  1        2 0.19588429E+00 0.15578475E+04</pdfrwt>
<pdfrwt beam="2">  1       -2 0.73310060E-01 0.15578475E+04</pdfrwt>
<totfact> 0.27691513E+01</totfact>
</mgrwt>
</event>
<event>
12    1  0.2214165E-007  0.1373659E+04  0.7818608E-02  0.8973109E-01
         -2   -1    0    0    0  501 -0.00000000000E+00  0.00000000000E+00  0.15900485584E+03  0.15900485584E+03  0.00000000000E+00 0. -1.
          2   -1    0    0  501    0  0.00000000000E+00 -0.00000000000E+00 -0.29667953223E+04  0.29667953223E+04  0.00000000000E+00 0.  1.
         23    2    1    2    0    0 -0.31841006818E+03  0.13317191764E+03 -0.12268058941E+04  0.12779024783E+04  0.94139848674E+02 0.  0.
        254    2    1    2    0    0  0.31841006818E+03 -0.13317191764E+03 -0.15809845724E+04  0.18478976999E+04  0.89224097634E+03 0.  0.
        -24    2    4    4    0    0  0.17092302646E+03  0.18631502920E+03 -0.43802045459E+02  0.26895372522E+03  0.80557532494E+02 0.  0.
         24    2    4    4    0    0  0.14748704172E+03 -0.31948694684E+03 -0.15371825269E+04  0.15789439746E+04  0.79433099545E+02 0.  0.
         13    1    3    3    0    0 -0.57002421962E+02  0.20444615203E+02 -0.37310835483E+03  0.37799087667E+03  0.00000000000E+00 0.  1.
        -13    1    3    3    0    0 -0.26140764622E+03  0.11272730244E+03 -0.85369753928E+03  0.89991160166E+03  0.00000000000E+00 0. -1.
          4    1    6    6  502    0  0.96680489194E+02 -0.12655719727E+03 -0.60136538101E+03  0.62209658627E+03  0.00000000000E+00 0. -1.
          1    1    5    5  503    0 -0.62571287317E+01 -0.14380334052E+01  0.20888783117E+01  0.67515192839E+01  0.00000000000E+00 0. -1.
         -2    1    5    5    0  503  0.17718015519E+03  0.18775306260E+03 -0.45890923771E+02  0.26220220593E+03  0.00000000000E+00 0.  1.
         -3    1    6    6    0  502  0.50806552526E+02 -0.19292974957E+03 -0.93581714591E+03  0.95684738837E+03  0.00000000000E+00 0.  1.
<mgrwt>
<rscale>  0 0.13736591E+04</rscale>
<asrwt>0</asrwt>
<pdfrwt beam="1">  1        2 0.45642999E+00 0.13736591E+04</pdfrwt>
<pdfrwt beam="2">  1       -2 0.24462289E-01 0.13736591E+04</pdfrwt>
<totfact> 0.26824784E+01</totfact>
</mgrwt>
</event>
<event>
12    1  0.2214165E-007  0.1836457E+04  0.7818608E-02  0.8687149E-01
         -1   -1    0    0    0  501 -0.00000000000E+00  0.00000000000E+00  0.69137486937E+03  0.69137486937E+03  0.00000000000E+00 0. -1.
          1   -1    0    0  501    0  0.00000000000E+00 -0.00000000000E+00 -0.12195177337E+04  0.12195177337E+04  0.00000000000E+00 0.  1.
         23    2    1    2    0    0 -0.50272599567E+03 -0.47092782430E+03 -0.11464279447E+03  0.70472044683E+03  0.94770751960E+02 0.  0.
        254    2    1    2    0    0  0.50272599567E+03  0.47092782430E+03 -0.41350006986E+03  0.12061721562E+04  0.89964577490E+03 0.  0.
        -24    2    4    4    0    0 -0.23257302195E+03  0.25017835975E+01 -0.16504748920E+03  0.29604457970E+03  0.79405604468E+02 0.  0.
         24    2    4    4    0    0  0.73529901762E+03  0.46842604071E+03 -0.24845258066E+03  0.91012757654E+03  0.80721247548E+02 0.  0.
         13    1    3    3    0    0 -0.49595452042E+03 -0.47555476242E+03 -0.11271832296E+03  0.69629637275E+03  0.00000000000E+00 0. -1.
        -13    1    3    3    0    0 -0.67714752544E+01  0.46269381128E+01 -0.19244715148E+01  0.84240740756E+01  0.00000000000E+00 0.  1.
          2    1    6    6  502    0  0.44541642798E+03  0.24203579181E+03 -0.12451205879E+03  0.52199652453E+03  0.00000000000E+00 0. -1.
          3    1    5    5  503    0 -0.18604382124E+03  0.89657874875E+01 -0.16535399148E+03  0.24906752351E+03  0.00000000000E+00 0. -1.
         -4    1    5    5    0  503 -0.46529200713E+02 -0.64640038900E+01  0.30650228661E+00  0.46977056197E+02  0.00000000000E+00 0.  1.
         -1    1    6    6    0  502  0.28988258964E+03  0.22639024890E+03 -0.12394052187E+03  0.38813105201E+03  0.00000000000E+00 0.  1.
<mgrwt>
<rscale>  0 0.18364574E+04</rscale>
<asrwt>0</asrwt>
<pdfrwt beam="1">  1        1 0.18761811E+00 0.18364574E+04</pdfrwt>
<pdfrwt beam="2">  1       -1 0.10636537E+00 0.18364574E+04</pdfrwt>
<totfact> 0.80356814E+00</totfact>
</mgrwt>
</event>
<event>
12    1  0.2214165E-007  0.2904935E+04  0.7818608E-02  0.8271411E-01
          1   -1    0    0  501    0  0.00000000000E+00  0.00000000000E+00  0.15927147749E+04  0.15927147749E+04  0.00000000000E+00 0. -1.
         -1   -1    0    0    0  501 -0.00000000000E+00 -0.00000000000E+00 -0.13245696623E+04  0.13245696623E+04  0.00000000000E+00 0.  1.
         23    2    1    2    0    0  0.97771651825E+02  0.11896460921E+04  0.66697623439E+03  0.13704027409E+04  0.91264750135E+02 0.  0.
        254    2    1    2    0    0 -0.97771651825E+02 -0.11896460921E+04 -0.39883112184E+03  0.15468816964E+04  0.89942181345E+03 0.  0.
        -24    2    4    4    0    0  0.22495314853E+03  0.18846397043E+02 -0.37678262227E+02  0.24254648761E+03  0.80312150360E+02 0.  0.
         24    2    4    4    0    0 -0.32272480035E+03 -0.12084924891E+04 -0.36115285961E+03  0.13043352087E+04  0.79079426901E+02 0.  0.
         11    1    3    3    0    0 -0.15400422184E+02  0.82319892163E+02  0.39003222423E+02  0.92385004240E+02  0.00000000000E+00 0.  1.
        -11    1    3    3    0    0  0.11317207401E+03  0.11073261999E+04  0.62797301197E+03  0.12780177366E+04  0.00000000000E+00 0. -1.
          4    1    6    6  502    0 -0.15209952267E+03 -0.63397383680E+03 -0.15085152727E+03  0.66918851890E+03  0.00000000000E+00 0. -1.
          1    1    5    5  503    0  0.22693882937E+03  0.24436773370E+02 -0.45487752369E+02  0.23273917544E+03  0.00000000000E+00 0. -1.
         -2    1    5    5    0  503 -0.19856808392E+01 -0.55903763271E+01  0.78094901420E+01  0.98073121778E+01  0.00000000000E+00 0.  1.
         -3    1    6    6    0  502 -0.17062527768E+03 -0.57451865232E+03 -0.21030133234E+03  0.63514668985E+03  0.00000000000E+00 0.  1.
<mgrwt>
<rscale>  0 0.29049349E+04</rscale>
<asrwt>0</asrwt>
<pdfrwt beam="1">  1        1 0.24503304E+00 0.29049349E+04</pdfrwt>
<pdfrwt beam="2">  1       -1 0.20377995E+00 0.29049349E+04</pdfrwt>
<totfact> 0.68659382E-01</totfact>
</mgrwt>
</event>
<event>
12    1  0.2214165E-007  0.1349248E+04  0.7818608E-02  0.8991398E-01
         -2   -1    0    0    0  501 -0.00000000000E+00  0.00000000000E+00  0.17292379080E+03  0.17292379080E+03  0.00000000000E+00 0. -1.
          2   -1    0    0  501    0  0.00000000000E+00 -0.00000000000E+00 -0.26318956798E+04  0.26318956798E+04  0.00000000000E+00 0.  1.
         23    2    1    2    0    0 -0.13853170579E+02  0.17672948004E+03 -0.13780311867E+04  0.13923710555E+04  0.91115230687E+02 0.  0.
        254    2    1    2    0    0  0.13853170579E+02 -0.17672948004E+03 -0.10809407023E+04  0.14124484151E+04  0.89171324086E+03 0.  0.
        -24    2    4    4    0    0 -0.32508005549E+03 -0.37969017747E+03 -0.63162827176E+03  0.80868520359E+03  0.71943112762E+02 0.  0.
         24    2    4    4    0    0  0.33893322607E+03  0.20296069743E+03 -0.44931243054E+03  0.60376321149E+03  0.81114603347E+02 0.  0.
         13    1    3    3    0    0 -0.44912341554E+02  0.46303167282E+02 -0.50546331308E+03  0.50956281516E+03  0.00000000000E+00 0.  1.
        -13    1    3    3    0    0  0.31059170976E+02  0.13042631276E+03 -0.87256787359E+03  0.88280824033E+03  0.00000000000E+00 0. -1.
          2    1    6    6  502    0  0.20625277170E+03  0.76958418133E+02 -0.23644757025E+03  0.32306385968E+03  0.00000000000E+00 0. -1.
          1    1    5    5  503    0 -0.28159777696E+03 -0.36022815927E+03 -0.57708156285E+03  0.73626405922E+03  0.00000000000E+00 0. -1.
         -2    1    5    5    0  503 -0.43482278533E+02 -0.19462018198E+02 -0.54546708912E+02  0.72421144370E+02  0.00000000000E+00 0.  1.
         -1    1    6    6    0  502  0.13268045437E+03  0.12600227930E+03 -0.21286486029E+03  0.28069935181E+03  0.00000000000E+00 0.  1.
<mgrwt>
<rscale>  0 0.13492478E+04</rscale>
<asrwt>0</asrwt>
<pdfrwt beam="1">  1        2 0.40490700E+00 0.13492478E+04</pdfrwt>
<pdfrwt beam="2">  1       -2 0.26603662E-01 0.13492478E+04</pdfrwt>
<totfact> 0.36664953E+01</totfact>
</mgrwt>
</event>
<event>
12    1  0.2214165E-007  0.2789099E+04  0.7818608E-02  0.8306661E-01
          2   -1    0    0  501    0  0.00000000000E+00  0.00000000000E+00  0.80702828044E+03  0.80702828044E+03  0.00000000000E+00 0.  1.
         -2   -1    0    0    0  501 -0.00000000000E+00 -0.00000000000E+00 -0.24097899622E+04  0.24097899622E+04  0.00000000000E+00 0. -1.
         23    2    1    2    0    0 -0.31515890658E+03 -0.11516163604E+04 -0.30566030811E+03  0.12358797680E+04  0.91788882912E+02 0.  0.
        254    2    1    2    0    0  0.31515890658E+03  0.11516163604E+04 -0.12971013737E+04  0.19809384747E+04  0.90338247088E+03 0.  0.
        -24    2    4    4    0    0 -0.28940935136E+03  0.47803032844E+03 -0.67402190928E+03  0.87919549111E+03  0.80052544166E+02 0.  0.
         24    2    4    4    0    0  0.60456825793E+03  0.67358603200E+03 -0.62307946441E+03  0.11017429835E+04  0.79929104942E+02 0.  0.
         11    1    3    3    0    0 -0.13155003776E+03 -0.36249569539E+03 -0.12911229198E+03  0.40666758606E+03  0.00000000000E+00 0. -1.
        -11    1    3    3    0    0 -0.18360886882E+03 -0.78912066505E+03 -0.17654801613E+03  0.82921218196E+03  0.00000000000E+00 0.  1.
          4    1    6    6  502    0  0.15756180154E+03  0.12653823147E+03 -0.13202842809E+03  0.24139003946E+03  0.00000000000E+00 0. -1.
          1    1    5    5  503    0  0.51000774982E+00  0.29591238291E+02 -0.47684968105E+02  0.56122701955E+02  0.00000000000E+00 0. -1.
         -2    1    5    5    0  503 -0.28991935911E+03  0.44843909015E+03 -0.62633694118E+03  0.82307278915E+03  0.00000000000E+00 0.  1.
         -3    1    6    6    0  502  0.44700645640E+03  0.54704780053E+03 -0.49105103632E+03  0.86035294408E+03  0.00000000000E+00 0.  1.
<mgrwt>
<rscale>  0 0.27890992E+04</rscale>
<asrwt>0</asrwt>
<pdfrwt beam="1">  1        2 0.12415820E+00 0.27890992E+04</pdfrwt>
<pdfrwt beam="2">  1       -2 0.37073692E+00 0.27890992E+04</pdfrwt>
<totfact> 0.34048865E-01</totfact>
</mgrwt>
</event>
<event>
12    1  0.2214165E-007  0.1727262E+04  0.7818608E-02  0.8745967E-01
          2   -1    0    0  501    0  0.00000000000E+00  0.00000000000E+00  0.71690683865E+03  0.71690683865E+03  0.00000000000E+00 0. -1.
         -2   -1    0    0    0  501 -0.00000000000E+00 -0.00000000000E+00 -0.10403842850E+04  0.10403842850E+04  0.00000000000E+00 0.  1.
         23    2    1    2    0    0 -0.24660299778E+03 -0.52794324068E+03 -0.34798433519E+03  0.68485927256E+03  0.91662542949E+02 0.  0.
        254    2    1    2    0    0  0.24660299778E+03  0.52794324068E+03  0.24506888821E+02  0.10724318511E+04  0.89998465752E+03 0.  0.
        -24    2    4    4    0    0  0.25250175479E+03  0.75672700686E+03 -0.85971407649E+02  0.80627313505E+03  0.79324563007E+02 0.  0.
         24    2    4    4    0    0 -0.58987570053E+01 -0.22878376617E+03  0.11047829647E+03  0.26615871606E+03  0.79108793089E+02 0.  0.
         13    1    3    3    0    0 -0.75746484118E+02 -0.10630704872E+03 -0.44176899688E+02  0.13780535886E+03  0.00000000000E+00 0. -1.
        -13    1    3    3    0    0 -0.17085651367E+03 -0.42163619196E+03 -0.30380743550E+03  0.54705391370E+03  0.00000000000E+00 0.  1.
          4    1    6    6  502    0  0.33568272970E+02 -0.82367002757E+02  0.26464417482E+02  0.92798262301E+02  0.00000000000E+00 0. -1.
          1    1    5    5  503    0  0.71401697790E+02  0.12607408123E+03 -0.28066382507E+02  0.14758251330E+03  0.00000000000E+00 0. -1.
         -2    1    5    5    0  503  0.18110005700E+03  0.63065292562E+03 -0.57905025142E+02  0.65869062175E+03  0.00000000000E+00 0.  1.
         -3    1    6    6    0  502 -0.39467029975E+02 -0.14641676342E+03  0.84013878988E+02  0.17336045376E+03  0.00000000000E+00 0.  1.
<mgrwt>
<rscale>  0 0.17272621E+04</rscale>
<asrwt>0</asrwt>
<pdfrwt beam="1">  1        2 0.11029336E+00 0.17272621E+04</pdfrwt>
<pdfrwt beam="2">  1       -2 0.16005912E+00 0.17272621E+04</pdfrwt>
<totfact> 0.94909722E+00</totfact>
</mgrwt>
</event>
<event>
12    1  0.2214165E-007  0.1158781E+04  0.7818608E-02  0.9149721E-01
         -1   -1    0    0    0  501 -0.00000000000E+00  0.00000000000E+00  0.36100084015E+03  0.36100084015E+03  0.00000000000E+00 0.  1.
          1   -1    0    0  501    0  0.00000000000E+00 -0.00000000000E+00 -0.92989591485E+03  0.92989591485E+03  0.00000000000E+00 0. -1.
         23    2    1    2    0    0 -0.74930689383E+02  0.18251449875E+03 -0.22046268896E+03  0.30982087181E+03  0.91972957554E+02 0.  0.
        254    2    1    2    0    0  0.74930689383E+02 -0.18251449875E+03 -0.34843238574E+03  0.98107588318E+03  0.89564424336E+03 0.  0.
        -24    2    4    4    0    0  0.30210150785E+03  0.26308355368E+03 -0.18732460916E+03  0.44934794660E+03  0.79654194219E+02 0.  0.
         24    2    4    4    0    0 -0.22717081847E+03 -0.44559805243E+03 -0.16110777658E+03  0.53172793658E+03  0.81330669317E+02 0.  0.
         13    1    3    3    0    0  0.15756639412E+01  0.37610091758E+02 -0.33205941720E+01  0.37789258587E+02  0.00000000000E+00 0.  1.
        -13    1    3    3    0    0 -0.76506353324E+02  0.14490440699E+03 -0.21714209479E+03  0.27203161323E+03  0.00000000000E+00 0. -1.
          2    1    6    6  502    0 -0.93512354000E+02 -0.18100016617E+03 -0.24071940647E+02  0.20514648140E+03  0.00000000000E+00 0. -1.
          3    1    5    5  503    0  0.13863396463E+03  0.14336267839E+03 -0.13252883776E+03  0.23944963257E+03  0.00000000000E+00 0. -1.
         -4    1    5    5    0  503  0.16346754323E+03  0.11972087529E+03 -0.54795771404E+02  0.20989831403E+03  0.00000000000E+00 0.  1.
         -1    1    6    6    0  502 -0.13365846447E+03 -0.26459788626E+03 -0.13703583594E+03  0.32658145518E+03  0.00000000000E+00 0.  1.
<mgrwt>
<rscale>  0 0.11587807E+04</rscale>
<asrwt>0</asrwt>
<pdfrwt beam="1">  1        1 0.14306091E+00 0.11587807E+04</pdfrwt>
<pdfrwt beam="2">  1       -1 0.55538591E-01 0.11587807E+04</pdfrwt>
<totfact> 0.55974833E+01</totfact>
</mgrwt>
</event>
<event>
12    1  0.2214165E-007  0.3759531E+04  0.7818608E-02  0.8054896E-01
         -2   -1    0    0    0  501 -0.00000000000E+00  0.00000000000E+00  0.10991719285E+04  0.10991719285E+04  0.00000000000E+00 0. -1.
          2   -1    0    0  501    0  0.00000000000E+00 -0.00000000000E+00 -0.32147097802E+04  0.32147097802E+04  0.00000000000E+00 0.  1.
         23    2    1    2    0    0  0.17456111746E+04  0.29057908608E+03 -0.95132302795E+03  0.20111301001E+04  0.89633687112E+02 0.  0.
        254    2    1    2    0    0 -0.17456111746E+04 -0.29057908608E+03 -0.11642148238E+04  0.23027516086E+04  0.90314685215E+03 0.  0.
        -24    2    4    4    0    0 -0.52319457647E+03 -0.13238069845E+03 -0.87849558950E+03  0.10349023691E+04  0.89505299090E+02 0.  0.
         24    2    4    4    0    0 -0.12224165982E+04 -0.15819838763E+03 -0.28571923428E+03  0.12678492395E+04  0.80480705332E+02 0.  0.
         11    1    3    3    0    0  0.95799239190E+02  0.51147983271E+01 -0.71979227532E+02  0.11993608543E+03  0.00000000000E+00 0.  1.
        -11    1    3    3    0    0  0.16498119355E+04  0.28546428776E+03 -0.87934380042E+03  0.18911940147E+04  0.00000000000E+00 0. -1.
          2    1    6    6  502    0 -0.55234536410E+03 -0.92535887701E+02 -0.94679999567E+02  0.56798995948E+03  0.00000000000E+00 0. -1.
          1    1    5    5  503    0 -0.29819287055E+03 -0.41265836071E+02 -0.42960038625E+03  0.52457444575E+03  0.00000000000E+00 0. -1.
         -2    1    5    5    0  503 -0.22500170592E+03 -0.91114862383E+02 -0.44889520325E+03  0.51032792331E+03  0.00000000000E+00 0.  1.
         -1    1    6    6    0  502 -0.67007123407E+03 -0.65662499928E+02 -0.19103923471E+03  0.69985928002E+03  0.00000000000E+00 0.  1.
<mgrwt>
<rscale>  0 0.37595312E+04</rscale>
<asrwt>0</asrwt>
<pdfrwt beam="1">  1        2 0.49457073E+00 0.37595312E+04</pdfrwt>
<pdfrwt beam="2">  1       -2 0.16910338E+00 0.37595312E+04</pdfrwt>
<totfact> 0.22045980E-01</totfact>
</mgrwt>
</event>
<event>
12    1  0.2214165E-007  0.1593854E+04  0.7818608E-02  0.8824333E-01
         -2   -1    0    0    0  501 -0.00000000000E+00  0.00000000000E+00  0.31367232361E+03  0.31367232361E+03  0.00000000000E+00 0. -1.
          2   -1    0    0  501    0  0.00000000000E+00 -0.00000000000E+00 -0.20247002382E+04  0.20247002382E+04  0.00000000000E+00 0.  1.
         23    2    1    2    0    0  0.20903113043E+03  0.21632699586E+03  0.67108499935E+02  0.32130747089E+03  0.90794038683E+02 0.  0.
        254    2    1    2    0    0 -0.20903113043E+03 -0.21632699586E+03 -0.17781364146E+04  0.20170650910E+04  0.90348828976E+03 0.  0.
        -24    2    4    4    0    0 -0.36423393053E+03  0.13645290184E+03 -0.14526414421E+04  0.15059261856E+04  0.79754413373E+02 0.  0.
         24    2    4    4    0    0  0.15520280010E+03 -0.35277989770E+03 -0.32549497245E+03  0.51113890539E+03  0.82306975004E+02 0.  0.
         11    1    3    3    0    0  0.72893483258E+02  0.43961580145E+02  0.54967304026E+02  0.10132859884E+03  0.00000000000E+00 0. -1.
        -11    1    3    3    0    0  0.13613764717E+03  0.17236541572E+03  0.12141195910E+02  0.21997887206E+03  0.00000000000E+00 0.  1.
          2    1    6    6  502    0  0.16124796847E+03 -0.32979201534E+03 -0.28733459707E+03  0.46618113582E+03  0.00000000000E+00 0. -1.
          1    1    5    5  503    0 -0.14820198819E+03  0.16098431638E+02 -0.58957089668E+03  0.60812567041E+03  0.00000000000E+00 0. -1.
         -2    1    5    5    0  503 -0.21603194233E+03  0.12035447020E+03 -0.86307054543E+03  0.89780051515E+03  0.00000000000E+00 0.  1.
         -1    1    6    6    0  502 -0.60451683715E+01 -0.22987882359E+02 -0.38160375376E+02  0.44957769572E+02  0.00000000000E+00 0.  1.
<mgrwt>
<rscale>  0 0.15938537E+04</rscale>
<asrwt>0</asrwt>
<pdfrwt beam="1">  1        2 0.31149236E+00 0.15938537E+04</pdfrwt>
<pdfrwt beam="2">  1       -2 0.48257279E-01 0.15938537E+04</pdfrwt>
<totfact> 0.25267923E+01</totfact>
</mgrwt>
</event>
<event>
12    1  0.2214165E-007  0.1123216E+04  0.7818608E-02  0.9182854E-01
          1   -1    0    0  501    0  0.00000000000E+00  0.00000000000E+00  0.11263490011E+04  0.11263490011E+04  0.00000000000E+00 0. -1.
         -1   -1    0    0    0  501 -0.00000000000E+00 -0.00000000000E+00 -0.28002317662E+03  0.28002317662E+03  0.00000000000E+00 0.  1.
         23    2    1    2    0    0  0.12864744525E+02  0.12276222444E+03 -0.14103402285E+02  0.15499956993E+03  0.92681688174E+02 0.  0.
        254    2    1    2    0    0 -0.12864744525E+02 -0.12276222444E+03  0.86042922673E+03  0.12513726077E+04  0.90019935782E+03 0.  0.
        -24    2    4    4    0    0  0.29624667596E+03 -0.34734658892E+03  0.67583002251E+03  0.81940797360E+03  0.79192562919E+02 0.  0.
         24    2    4    4    0    0 -0.30911142048E+03  0.22458436448E+03  0.18459920422E+03  0.43196463415E+03  0.80799578664E+02 0.  0.
         11    1    3    3    0    0  0.39315318877E+02  0.42306622640E+02 -0.35309869642E+02  0.67692920691E+02  0.00000000000E+00 0.  1.
        -11    1    3    3    0    0 -0.26450574351E+02  0.80455601796E+02  0.21206467356E+02  0.87306649240E+02  0.00000000000E+00 0. -1.
          4    1    6    6  502    0 -0.69574026664E+02  0.23411721628E+02  0.11037744789E+02  0.74232645823E+02  0.00000000000E+00 0. -1.
          3    1    5    5  503    0  0.20034525748E+02 -0.89565947152E+01  0.12742976582E+02  0.25376884423E+02  0.00000000000E+00 0. -1.
         -4    1    5    5    0  503  0.27621215021E+03 -0.33838999420E+03  0.66308704593E+03  0.79403108918E+03  0.00000000000E+00 0.  1.
         -3    1    6    6    0  502 -0.23953739382E+03  0.20117264286E+03  0.17356145943E+03  0.35773198833E+03  0.00000000000E+00 0.  1.
<mgrwt>
<rscale>  0 0.11232165E+04</rscale>
<asrwt>0</asrwt>
<pdfrwt beam="1">  1        1 0.17328446E+00 0.11232165E+04</pdfrwt>
<pdfrwt beam="2">  1       -1 0.43080489E-01 0.11232165E+04</pdfrwt>
<totfact> 0.63985813E+01</totfact>
</mgrwt>
</event>
<event>
12    1  0.2214165E-007  0.3471239E+04  0.7818608E-02  0.8120640E-01
         -2   -1    0    0    0  501 -0.00000000000E+00  0.00000000000E+00  0.96373762605E+03  0.96373762605E+03  0.00000000000E+00 0. -1.
          2   -1    0    0  501    0  0.00000000000E+00 -0.00000000000E+00 -0.31257218976E+04  0.31257218976E+04  0.00000000000E+00 0.  1.
         23    2    1    2    0    0 -0.56563083940E+03  0.14593247012E+04 -0.14947763315E+04  0.21659745726E+04  0.86733716318E+02 0.  0.
        254    2    1    2    0    0  0.56563083940E+03 -0.14593247012E+04 -0.66720794003E+03  0.19234849511E+04  0.89725196683E+03 0.  0.
        -24    2    4    4    0    0  0.48633124778E+03 -0.37060961198E+03 -0.54351841647E+03  0.82194409147E+03  0.79437103459E+02 0.  0.
         24    2    4    4    0    0  0.79299591613E+02 -0.10887150892E+04 -0.12368952356E+03  0.11015408597E+04  0.80648598990E+02 0.  0.
         11    1    3    3    0    0 -0.30956169617E+02  0.96150281675E+02 -0.12672685046E+03  0.16205818625E+03  0.00000000000E+00 0.  1.
        -11    1    3    3    0    0 -0.53467466978E+03  0.13631744195E+04 -0.13680494811E+04  0.20039163863E+04  0.00000000000E+00 0. -1.
          2    1    6    6  502    0  0.53257853863E+02 -0.70384437865E+03 -0.11863735927E+03  0.71575703376E+03  0.00000000000E+00 0. -1.
          3    1    5    5  503    0  0.46000927820E+03 -0.32530156603E+03 -0.48514283321E+03  0.74350064795E+03  0.00000000000E+00 0. -1.
         -4    1    5    5    0  503  0.26321969584E+02 -0.45308045950E+02 -0.58375583264E+02  0.78443443524E+02  0.00000000000E+00 0.  1.
         -1    1    6    6    0  502  0.26041737751E+02 -0.38487071058E+03 -0.50521642925E+01  0.38578382591E+03  0.00000000000E+00 0.  1.
<mgrwt>
<rscale>  0 0.34712394E+04</rscale>
<asrwt>0</asrwt>
<pdfrwt beam="1">  1        2 0.48088030E+00 0.34712394E+04</pdfrwt>
<pdfrwt beam="2">  1       -2 0.14826732E+00 0.34712394E+04</pdfrwt>
<totfact> 0.36835958E-01</totfact>
</mgrwt>
</event>
<event>
12    1  0.2214165E-007  0.1727439E+04  0.7818608E-02  0.8745868E-01
          2   -1    0    0  501    0  0.00000000000E+00  0.00000000000E+00  0.12000069235E+04  0.12000069235E+04  0.00000000000E+00 0. -1.
         -2   -1    0    0    0  501 -0.00000000000E+00 -0.00000000000E+00 -0.62167222548E+03  0.62167222548E+03  0.00000000000E+00 0.  1.
         23    2    1    2    0    0  0.32437160530E+03 -0.52171838293E+03  0.93369317290E+02  0.62804431888E+03  0.91185676863E+02 0.  0.
        254    2    1    2    0    0 -0.32437160530E+03  0.52171838293E+03  0.48496538077E+03  0.11936348301E+04  0.90120235117E+03 0.  0.
        -24    2    4    4    0    0  0.91314111318E+02  0.10658915499E+03  0.57123403057E+03  0.59440095787E+03  0.85467339703E+02 0.  0.
         24    2    4    4    0    0 -0.41568571662E+03  0.41512922793E+03 -0.86268649792E+02  0.59923387226E+03  0.80697353377E+02 0.  0.
         13    1    3    3    0    0  0.20988660271E+03 -0.27832045607E+03  0.19632072223E+02  0.34914192032E+03  0.00000000000E+00 0. -1.
        -13    1    3    3    0    0  0.11448500259E+03 -0.24339792686E+03  0.73737245067E+02  0.27890239857E+03  0.00000000000E+00 0.  1.
          2    1    6    6  502    0 -0.19655333393E+03  0.24905776900E+03 -0.31033619098E+02  0.31878844222E+03  0.00000000000E+00 0. -1.
          3    1    5    5  503    0  0.10038720051E+02 -0.10583596603E+02  0.12712369903E+03  0.12795789648E+03  0.00000000000E+00 0. -1.
         -2    1    5    5    0  503  0.81275391267E+02  0.11717275159E+03  0.44411033154E+03  0.46644306139E+03  0.00000000000E+00 0.  1.
         -1    1    6    6    0  502 -0.21913238269E+03  0.16607145893E+03 -0.55235030694E+02  0.28044543004E+03  0.00000000000E+00 0.  1.
<mgrwt>
<rscale>  0 0.17274385E+04</rscale>
<asrwt>0</asrwt>
<pdfrwt beam="1">  1        2 0.18461645E+00 0.17274385E+04</pdfrwt>
<pdfrwt beam="2">  1       -2 0.95641881E-01 0.17274385E+04</pdfrwt>
<totfact> 0.16502102E+01</totfact>
</mgrwt>
</event>
<event>
12    1  0.2214165E-007  0.1437808E+04  0.7818608E-02  0.8926897E-01
         -1   -1    0    0    0  501 -0.00000000000E+00  0.00000000000E+00  0.73013981829E+03  0.73013981829E+03  0.00000000000E+00 0.  1.
          1   -1    0    0  501    0  0.00000000000E+00 -0.00000000000E+00 -0.70784120636E+03  0.70784120636E+03  0.00000000000E+00 0. -1.
         23    2    1    2    0    0  0.14052481806E+03 -0.22563507444E+03  0.34538211875E+03  0.44516960878E+03  0.90712520202E+02 0.  0.
        254    2    1    2    0    0 -0.14052481806E+03  0.22563507444E+03 -0.32308350682E+03  0.99281141587E+03  0.90035167784E+03 0.  0.
        -24    2    4    4    0    0 -0.19935592540E+03  0.33054236052E+03 -0.57825015738E+03  0.69986545788E+03  0.80233269537E+02 0.  0.
         24    2    4    4    0    0  0.58831107335E+02 -0.10490728608E+03  0.25516665056E+03  0.29294595799E+03  0.78997954891E+02 0.  0.
         13    1    3    3    0    0  0.13965132459E+03 -0.18208922298E+03  0.32295393527E+03  0.39617953240E+03  0.00000000000E+00 0.  1.
        -13    1    3    3    0    0  0.87349347376E+00 -0.43545851451E+02  0.22428183481E+02  0.48990076380E+02  0.00000000000E+00 0. -1.
          2    1    6    6  502    0 -0.18721362019E+02 -0.15820071857E+02  0.60111151967E+02  0.64916212614E+02  0.00000000000E+00 0. -1.
          1    1    5    5  503    0 -0.32668598082E+02  0.12044155641E+03 -0.21045896436E+03  0.24467607461E+03  0.00000000000E+00 0. -1.
         -2    1    5    5    0  503 -0.16668732732E+03  0.21010080411E+03 -0.36779119302E+03  0.45518938327E+03  0.00000000000E+00 0.  1.
         -1    1    6    6    0  502  0.77552469354E+02 -0.89087214225E+02  0.19505549860E+03  0.22802974537E+03  0.00000000000E+00 0.  1.
<mgrwt>
<rscale>  0 0.14378081E+04</rscale>
<asrwt>0</asrwt>
<pdfrwt beam="1">  1        1 0.10889865E+00 0.14378081E+04</pdfrwt>
<pdfrwt beam="2">  1       -1 0.11232920E+00 0.14378081E+04</pdfrwt>
<totfact> 0.18914879E+01</totfact>
</mgrwt>
</event>
<event>
12    1  0.2214165E-007  0.4311959E+04  0.7818608E-02  0.7944410E-01
          1   -1    0    0  501    0  0.00000000000E+00  0.00000000000E+00  0.31319127910E+04  0.31319127910E+04  0.00000000000E+00 0. -1.
         -1   -1    0    0    0  501 -0.00000000000E+00 -0.00000000000E+00 -0.14841563594E+04  0.14841563594E+04  0.00000000000E+00 0.  1.
         23    2    1    2    0    0 -0.17779968579E+04 -0.17605394335E+03  0.18899277258E+04  0.26023841561E+04  0.91151902906E+02 0.  0.
        254    2    1    2    0    0  0.17779968579E+04  0.17605394335E+03 -0.24217129425E+03  0.20136849944E+04  0.89666744299E+03 0.  0.
        -24    2    4    4    0    0  0.17478823414E+04  0.11557173458E+03 -0.39582986369E+01  0.17535939532E+04  0.81403803939E+02 0.  0.
         24    2    4    4    0    0  0.30114516434E+02  0.60482208766E+02 -0.23821299561E+03  0.26009104117E+03  0.79604878891E+02 0.  0.
         11    1    3    3    0    0 -0.39625000950E+03 -0.37390319916E+02  0.47750238621E+03  0.62162740841E+03  0.00000000000E+00 0. -1.
        -11    1    3    3    0    0 -0.13817468484E+04 -0.13866362343E+03  0.14124253396E+04  0.19807567477E+04  0.00000000000E+00 0.  1.
          4    1    6    6  502    0  0.44282666036E+02  0.42583308569E+02 -0.22600037226E+03  0.23420175265E+03  0.00000000000E+00 0. -1.
          3    1    5    5  503    0  0.89699494060E+03  0.53349614493E+02  0.38220947459E+02  0.89939254258E+03  0.00000000000E+00 0. -1.
         -4    1    5    5    0  503  0.85088740083E+03  0.62222120090E+02 -0.42179246096E+02  0.85420141063E+03  0.00000000000E+00 0.  1.
         -3    1    6    6    0  502 -0.14168149602E+02  0.17898900197E+02 -0.12212623350E+02  0.25889288528E+02  0.00000000000E+00 0.  1.
<mgrwt>
<rscale>  0 0.43119593E+04</rscale>
<asrwt>0</asrwt>
<pdfrwt beam="1">  1        1 0.48183274E+00 0.43119593E+04</pdfrwt>
<pdfrwt beam="2">  1       -1 0.22833175E+00 0.43119593E+04</pdfrwt>
<totfact> 0.35287874E-02</totfact>
</mgrwt>
</event>
<event>
12    1  0.2214165E-007  0.1580347E+04  0.7818608E-02  0.8832713E-01
         -2   -1    0    0    0  501 -0.00000000000E+00  0.00000000000E+00  0.10440418649E+04  0.10440418649E+04  0.00000000000E+00 0.  1.
          2   -1    0    0  501    0  0.00000000000E+00 -0.00000000000E+00 -0.59803583467E+03  0.59803583467E+03  0.00000000000E+00 0. -1.
         23    2    1    2    0    0  0.92503829400E+02 -0.50246747154E+03  0.12106013501E+02  0.51914065985E+03  0.91268563771E+02 0.  0.
        254    2    1    2    0    0 -0.92503829400E+02  0.50246747154E+03  0.43390001668E+03  0.11229370397E+04  0.90093720769E+03 0.  0.
        -24    2    4    4    0    0  0.55924070519E+02  0.71284483073E+03  0.15524644490E+03  0.73511985654E+03  0.70883640314E+02 0.  0.
         24    2    4    4    0    0 -0.14842789992E+03 -0.21037735919E+03  0.27865357178E+03  0.38781718314E+03  0.80404475849E+02 0.  0.
         11    1    3    3    0    0 -0.11623536684E+01 -0.23329077044E+03 -0.79401055722E+01  0.23342874697E+03  0.00000000000E+00 0.  1.
        -11    1    3    3    0    0  0.93666183069E+02 -0.26917670111E+03  0.20046119073E+02  0.28571191288E+03  0.00000000000E+00 0. -1.
          2    1    6    6  502    0 -0.66912004915E+02 -0.44583616536E+02  0.53545789919E+02  0.96602623584E+02  0.00000000000E+00 0. -1.
          3    1    5    5  503    0  0.54567420601E+02  0.68782914325E+03  0.16283344440E+03  0.70894376668E+03  0.00000000000E+00 0. -1.
         -4    1    5    5    0  503  0.13566499175E+01  0.25015687477E+02 -0.75869995010E+01  0.26176089861E+02  0.00000000000E+00 0.  1.
         -1    1    6    6    0  502 -0.81515895004E+02 -0.16579374265E+03  0.22510778186E+03  0.29121455956E+03  0.00000000000E+00 0.  1.
<mgrwt>
<rscale>  0 0.15803474E+04</rscale>
<asrwt>0</asrwt>
<pdfrwt beam="1">  1        2 0.92005513E-01 0.15803474E+04</pdfrwt>
<pdfrwt beam="2">  1       -2 0.16062183E+00 0.15803474E+04</pdfrwt>
<totfact> 0.11908783E+01</totfact>
</mgrwt>
</event>
<event>
12    1  0.2214165E-007  0.3224212E+04  0.7818608E-02  0.8182452E-01
          2   -1    0    0  501    0  0.00000000000E+00  0.00000000000E+00  0.20726503934E+04  0.20726503934E+04  0.00000000000E+00 0. -1.
         -2   -1    0    0    0  501 -0.00000000000E+00 -0.00000000000E+00 -0.12538951858E+04  0.12538951858E+04  0.00000000000E+00 0.  1.
         23    2    1    2    0    0 -0.80570344393E+03  0.12417539913E+04  0.26254757983E+03  0.15058481826E+04  0.86813034563E+02 0.  0.
        254    2    1    2    0    0  0.80570344393E+03 -0.12417539913E+04  0.55620762781E+03  0.18206973965E+04  0.90247496914E+03 0.  0.
        -24    2    4    4    0    0 -0.12195409842E+03 -0.14415070394E+03 -0.11544643617E+03  0.23234885145E+03  0.70752254927E+02 0.  0.
         24    2    4    4    0    0  0.92765754236E+03 -0.10976032874E+04  0.67165406398E+03  0.15883485451E+04  0.80314547849E+02 0.  0.
         11    1    3    3    0    0 -0.46042505237E+03  0.74181982542E+03  0.19429195913E+03  0.89444801280E+03  0.00000000000E+00 0.  1.
        -11    1    3    3    0    0 -0.34527839157E+03  0.49993416591E+03  0.68255620693E+02  0.61140016984E+03  0.00000000000E+00 0. -1.
          2    1    6    6  502    0  0.24510605381E+03 -0.31455442041E+03  0.22232312125E+03  0.45656218772E+03  0.00000000000E+00 0. -1.
          1    1    5    5  503    0 -0.49663805979E+02 -0.10962727068E+03 -0.81450375979E+02  0.14532307404E+03  0.00000000000E+00 0. -1.
         -2    1    5    5    0  503 -0.72290292444E+02 -0.34523433263E+02 -0.33996060192E+02  0.87025777414E+02  0.00000000000E+00 0.  1.
         -1    1    6    6    0  502  0.68255148855E+03 -0.78304886698E+03  0.44933094273E+03  0.11317863574E+04  0.00000000000E+00 0.  1.
<mgrwt>
<rscale>  0 0.32242124E+04</rscale>
<asrwt>0</asrwt>
<pdfrwt beam="1">  1        2 0.31886929E+00 0.32242124E+04</pdfrwt>
<pdfrwt beam="2">  1       -2 0.19290695E+00 0.32242124E+04</pdfrwt>
<totfact> 0.75809076E-01</totfact>
</mgrwt>
</event>
<event>
12    1  0.2214165E-007  0.1536901E+04  0.7818608E-02  0.8860278E-01
          1   -1    0    0  501    0  0.00000000000E+00  0.00000000000E+00  0.41499085540E+04  0.41499085540E+04  0.00000000000E+00 0. -1.
         -1   -1    0    0    0  501 -0.00000000000E+00 -0.00000000000E+00 -0.14229626556E+03  0.14229626556E+03  0.00000000000E+00 0.  1.
         23    2    1    2    0    0  0.48656109857E+03  0.64445740308E+02  0.10671299624E+04  0.11778878945E+04  0.88082797090E+02 0.  0.
        254    2    1    2    0    0 -0.48656109857E+03 -0.64445740308E+02  0.29404823260E+04  0.31143169251E+04  0.90090989796E+03 0.  0.
        -24    2    4    4    0    0 -0.37047034939E+03  0.30275419317E+03  0.78211723273E+03  0.92045148205E+03  0.81333780214E+02 0.  0.
         24    2    4    4    0    0 -0.11609074919E+03 -0.36719993348E+03  0.21583650932E+04  0.21938654430E+04  0.78694682884E+02 0.  0.
         13    1    3    3    0    0  0.31400126893E+03  0.61243379826E+02  0.60121320737E+03  0.68103220862E+03  0.00000000000E+00 0. -1.
        -13    1    3    3    0    0  0.17255982964E+03  0.32023604825E+01  0.46591675506E+03  0.49685568585E+03  0.00000000000E+00 0.  1.
          2    1    6    6  502    0 -0.98956859243E+02 -0.18671573111E+03  0.11086920774E+04  0.11286511182E+04  0.00000000000E+00 0. -1.
          3    1    5    5  503    0 -0.71053028564E+02  0.10084843438E+03  0.17661385156E+03  0.21543303402E+03  0.00000000000E+00 0. -1.
         -4    1    5    5    0  503 -0.29941732082E+03  0.20190575879E+03  0.60550338117E+03  0.70501844802E+03  0.00000000000E+00 0.  1.
         -1    1    6    6    0  502 -0.17133889946E+02 -0.18048420237E+03  0.10496730158E+04  0.10652143248E+04  0.00000000000E+00 0.  1.
<mgrwt>
<rscale>  0 0.15369014E+04</rscale>
<asrwt>0</asrwt>
<pdfrwt beam="1">  1        1 0.63844738E+00 0.15369014E+04</pdfrwt>
<pdfrwt beam="2">  1       -1 0.21891736E-01 0.15369014E+04</pdfrwt>
<totfact> 0.12172450E+00</totfact>
</mgrwt>
</event>
<event>
12    1  0.2214165E-007  0.3242231E+04  0.7818608E-02  0.8177752E-01
         -2   -1    0    0    0  501 -0.00000000000E+00  0.00000000000E+00  0.94819950145E+03  0.94819950145E+03  0.00000000000E+00 0.  1.
          2   -1    0    0  501    0  0.00000000000E+00 -0.00000000000E+00 -0.27715844499E+04  0.27715844499E+04  0.00000000000E+00 0. -1.
         23    2    1    2    0    0  0.20256091086E+03  0.14624871009E+04 -0.57850461875E+03  0.15883640968E+04  0.91287826578E+02 0.  0.
        254    2    1    2    0    0 -0.20256091086E+03 -0.14624871009E+04 -0.12448803297E+04  0.21314198545E+04  0.90184484162E+03 0.  0.
        -24    2    4    4    0    0 -0.35678981146E+03 -0.13215880898E+04 -0.13121934680E+04  0.18978840938E+04  0.78856118896E+02 0.  0.
         24    2    4    4    0    0  0.15422890060E+03 -0.14089901107E+03  0.67313138279E+02  0.23353576075E+03  0.79804811036E+02 0.  0.
         13    1    3    3    0    0  0.11521447750E+03  0.60856272343E+03 -0.27802311826E+03  0.67891075883E+03  0.00000000000E+00 0. -1.
        -13    1    3    3    0    0  0.87346433358E+02  0.85392437743E+03 -0.30048150049E+03  0.90945333796E+03  0.00000000000E+00 0.  1.
          2    1    6    6  502    0  0.70282665684E+01 -0.38524446537E+02  0.32493805969E+02  0.50885920826E+02  0.00000000000E+00 0. -1.
          3    1    5    5  503    0 -0.23229925966E+02 -0.93761248230E+02 -0.12237898201E+03  0.15590835888E+03  0.00000000000E+00 0. -1.
         -4    1    5    5    0  503 -0.33355988549E+03 -0.12278268416E+04 -0.11898144860E+04  0.17419757349E+04  0.00000000000E+00 0.  1.
         -1    1    6    6    0  502  0.14720063403E+03 -0.10237456453E+03  0.34819332310E+02  0.18264983993E+03  0.00000000000E+00 0.  1.
<mgrwt>
<rscale>  0 0.32422307E+04</rscale>
<asrwt>0</asrwt>
<pdfrwt beam="1">  1        2 0.42639760E+00 0.32422307E+04</pdfrwt>
<pdfrwt beam="2">  1       -2 0.14587685E+00 0.32422307E+04</pdfrwt>
<totfact> 0.65077708E-01</totfact>
</mgrwt>
</event>
<event>
12    1  0.2214165E-007  0.2583354E+04  0.7818608E-02  0.8373877E-01
          2   -1    0    0  501    0  0.00000000000E+00  0.00000000000E+00  0.16544126211E+04  0.16544126211E+04  0.00000000000E+00 0. -1.
         -2   -1    0    0    0  501 -0.00000000000E+00 -0.00000000000E+00 -0.10084724934E+04  0.10084724934E+04  0.00000000000E+00 0.  1.
         23    2    1    2    0    0 -0.70404454455E+03  0.88349182681E+03  0.19991544747E+03  0.11508094316E+04  0.90330686696E+02 0.  0.
        254    2    1    2    0    0  0.70404454455E+03 -0.88349182681E+03  0.44602468025E+03  0.15120756828E+04  0.90066549088E+03 0.  0.
        -24    2    4    4    0    0  0.12279587994E+03  0.17779187619E+03  0.96852173500E+02  0.25015849360E+03  0.80685494584E+02 0.  0.
         24    2    4    4    0    0  0.58124866461E+03 -0.10612837030E+04  0.34917250675E+03  0.12619171892E+04  0.79626909094E+02 0.  0.
         13    1    3    3    0    0 -0.40865044107E+03  0.58006682952E+03  0.13770943137E+03  0.72279775677E+03  0.00000000000E+00 0.  1.
        -13    1    3    3    0    0 -0.29539410348E+03  0.30342499729E+03  0.62206016098E+02  0.42801167483E+03  0.00000000000E+00 0. -1.
          2    1    6    6  502    0  0.11744713368E+03 -0.17962288835E+03  0.88676389467E+02  0.23221049347E+03  0.00000000000E+00 0. -1.
          1    1    5    5  503    0  0.18901120029E+01 -0.83372658714E+01  0.19440997501E+01  0.87671004005E+01  0.00000000000E+00 0. -1.
         -2    1    5    5    0  503  0.12090576794E+03  0.18612914206E+03  0.94908073750E+02  0.24139139319E+03  0.00000000000E+00 0.  1.
         -1    1    6    6    0  502  0.46380153093E+03 -0.88166081465E+03  0.26049611728E+03  0.10297066958E+04  0.00000000000E+00 0.  1.
<mgrwt>
<rscale>  0 0.25833541E+04</rscale>
<asrwt>0</asrwt>
<pdfrwt beam="1">  1        2 0.25452502E+00 0.25833541E+04</pdfrwt>
<pdfrwt beam="2">  1       -2 0.15514961E+00 0.25833541E+04</pdfrwt>
<totfact> 0.25222610E+00</totfact>
</mgrwt>
</event>
<event>
12    1  0.2214165E-007  0.2545782E+04  0.7818608E-02  0.8386855E-01
          2   -1    0    0  501    0  0.00000000000E+00  0.00000000000E+00  0.69704401324E+03  0.69704401324E+03  0.00000000000E+00 0. -1.
         -2   -1    0    0    0  501 -0.00000000000E+00 -0.00000000000E+00 -0.23244607327E+04  0.23244607327E+04  0.00000000000E+00 0.  1.
         23    2    1    2    0    0  0.16510423040E+03 -0.10813143265E+04 -0.55922954183E+03  0.12320080833E+04  0.92769376369E+02 0.  0.
        254    2    1    2    0    0 -0.16510423040E+03  0.10813143265E+04 -0.10681871777E+04  0.17894966627E+04  0.92993245981E+03 0.  0.
        -24    2    4    4    0    0  0.23279618996E+03  0.88387910920E+03 -0.95426909680E+03  0.13237053586E+04  0.78294453167E+02 0.  0.
         24    2    4    4    0    0 -0.39790042035E+03  0.19743521728E+03 -0.11391808087E+03  0.46579130417E+03  0.81723927674E+02 0.  0.
         11    1    3    3    0    0  0.13419035589E+03 -0.63451080488E+03 -0.30056948043E+03  0.71480978288E+03  0.00000000000E+00 0. -1.
        -11    1    3    3    0    0  0.30913874509E+02 -0.44680352160E+03 -0.25866006139E+03  0.51719830037E+03  0.00000000000E+00 0.  1.
          2    1    6    6  502    0 -0.48842093015E+02  0.51741003265E+02 -0.35446909666E+02  0.79493175014E+02  0.00000000000E+00 0. -1.
          3    1    5    5  503    0  0.26608637535E+02  0.15489824970E+03 -0.20355923337E+03  0.25717279958E+03  0.00000000000E+00 0. -1.
         -4    1    5    5    0  503  0.20618755242E+03  0.72898085950E+03 -0.75070986343E+03  0.10665325590E+04  0.00000000000E+00 0.  1.
         -1    1    6    6    0  502 -0.34905832734E+03  0.14569421401E+03 -0.78471171200E+02  0.38629812916E+03  0.00000000000E+00 0.  1.
<mgrwt>
<rscale>  0 0.25457820E+04</rscale>
<asrwt>0</asrwt>
<pdfrwt beam="1">  1        2 0.10723754E+00 0.25457820E+04</pdfrwt>
<pdfrwt beam="2">  1       -2 0.35760934E+00 0.25457820E+04</pdfrwt>
<totfact> 0.50991708E-01</totfact>
</mgrwt>
</event>
<event>
12    1  0.2214165E-007  0.2884224E+04  0.7818608E-02  0.8277587E-01
         -2   -1    0    0    0  501 -0.00000000000E+00  0.00000000000E+00  0.94780770643E+03  0.94780770643E+03  0.00000000000E+00 0. -1.
          2   -1    0    0  501    0  0.00000000000E+00 -0.00000000000E+00 -0.21942080961E+04  0.21942080961E+04  0.00000000000E+00 0.  1.
         23    2    1    2    0    0 -0.12348692762E+04 -0.36382277964E+03 -0.37072187411E+03  0.13428719121E+04  0.92742224077E+02 0.  0.
        254    2    1    2    0    0  0.12348692762E+04  0.36382277964E+03 -0.87567851556E+03  0.17991438904E+04  0.90157458454E+03 0.  0.
        -24    2    4    4    0    0  0.11346361508E+04  0.56095640452E+03 -0.91130811018E+03  0.15617054238E+04  0.79812760246E+02 0.  0.
         24    2    4    4    0    0  0.10023312541E+03 -0.19713362488E+03  0.35629594627E+02  0.23743846657E+03  0.78735074169E+02 0.  0.
         13    1    3    3    0    0 -0.10568718088E+03 -0.16514444257E+02 -0.89954889387E+01  0.10734722117E+03  0.00000000000E+00 0. -1.
        -13    1    3    3    0    0 -0.11291820953E+04 -0.34730833538E+03 -0.36172638517E+03  0.12355246909E+04  0.00000000000E+00 0.  1.
          2    1    6    6  502    0  0.61312291949E+02 -0.14264591078E+03  0.59608611485E+02  0.16631367824E+03  0.00000000000E+00 0. -1.
          3    1    5    5  503    0  0.55320490511E+03  0.22916309081E+03 -0.42682194329E+03  0.73534234238E+03  0.00000000000E+00 0. -1.
         -4    1    5    5    0  503  0.58143124568E+03  0.33179331371E+03 -0.48448616689E+03  0.82636308145E+03  0.00000000000E+00 0.  1.
         -1    1    6    6    0  502  0.38920833462E+02 -0.54487714103E+02 -0.23979016858E+02  0.71124788330E+02  0.00000000000E+00 0.  1.
<mgrwt>
<rscale>  0 0.28842242E+04</rscale>
<asrwt>0</asrwt>
<pdfrwt beam="1">  1        2 0.33757048E+00 0.28842242E+04</pdfrwt>
<pdfrwt beam="2">  1       -2 0.14581657E+00 0.28842242E+04</pdfrwt>
<totfact> 0.14516222E+00</totfact>
</mgrwt>
</event>
<event>
12    1  0.2214165E-007  0.1528208E+04  0.7818608E-02  0.8865909E-01
          1   -1    0    0  501    0  0.00000000000E+00  0.00000000000E+00  0.79178395974E+03  0.79178395974E+03  0.00000000000E+00 0. -1.
         -1   -1    0    0    0  501 -0.00000000000E+00 -0.00000000000E+00 -0.73739159503E+03  0.73739159503E+03  0.00000000000E+00 0.  1.
         23    2    1    2    0    0 -0.12944738172E+03  0.35339924793E+03  0.33650310105E+03  0.51305045888E+03  0.91316938554E+02 0.  0.
        254    2    1    2    0    0  0.12944738172E+03 -0.35339924793E+03 -0.28211073635E+03  0.10161250959E+04  0.90070865981E+03 0.  0.
        -24    2    4    4    0    0  0.84667177427E+02 -0.12983321860E+03  0.32175509653E+03  0.36602653076E+03  0.80149132820E+02 0.  0.
         24    2    4    4    0    0  0.44780204295E+02 -0.22356602933E+03 -0.60386583288E+03  0.65009856512E+03  0.77376767110E+02 0.  0.
         13    1    3    3    0    0 -0.99063220781E+02  0.13885969366E+03  0.15118699134E+03  0.22793210082E+03  0.00000000000E+00 0. -1.
        -13    1    3    3    0    0 -0.30384160941E+02  0.21453955427E+03  0.18531610972E+03  0.28511835806E+03  0.00000000000E+00 0.  1.
          2    1    6    6  502    0 -0.35756411541E+01 -0.64269959371E+02 -0.95489285524E+02  0.11515909229E+03  0.00000000000E+00 0. -1.
          3    1    5    5  503    0  0.69896416407E+01  0.56885074996E+01  0.76202528648E+00  0.90440527628E+01  0.00000000000E+00 0. -1.
         -4    1    5    5    0  503  0.77677535786E+02 -0.13552172610E+03  0.32099307125E+03  0.35698247800E+03  0.00000000000E+00 0.  1.
         -3    1    6    6    0  502  0.48355845449E+02 -0.15929606996E+03 -0.50837654736E+03  0.53493947283E+03  0.00000000000E+00 0.  1.
<mgrwt>
<rscale>  0 0.15282079E+04</rscale>
<asrwt>0</asrwt>
<pdfrwt beam="1">  1        1 0.12181292E+00 0.15282079E+04</pdfrwt>
<pdfrwt beam="2">  1       -1 0.11344486E+00 0.15282079E+04</pdfrwt>
<totfact> 0.15390862E+01</totfact>
</mgrwt>
</event>
<event>
12    1  0.2214165E-007  0.2233099E+04  0.7818608E-02  0.8504776E-01
         -1   -1    0    0    0  501 -0.00000000000E+00  0.00000000000E+00  0.11398524364E+04  0.11398524364E+04  0.00000000000E+00 0.  1.
          1   -1    0    0  501    0  0.00000000000E+00 -0.00000000000E+00 -0.10937233372E+04  0.10937233372E+04  0.00000000000E+00 0. -1.
         23    2    1    2    0    0  0.28262128959E+03  0.84568831009E+03  0.29561959144E+03  0.94294821420E+03  0.81834471166E+02 0.  0.
        254    2    1    2    0    0 -0.28262128959E+03 -0.84568831009E+03 -0.24949049222E+03  0.12906275594E+04  0.89911649975E+03 0.  0.
        -24    2    4    4    0    0 -0.40657308352E+03 -0.26278666386E+03 -0.44193396852E+03  0.66021191017E+03  0.78839272341E+02 0.  0.
         24    2    4    4    0    0  0.12395179393E+03 -0.58290164623E+03  0.19244347630E+03  0.63041564919E+03  0.72463941195E+02 0.  0.
         11    1    3    3    0    0  0.84902660582E+02  0.23101553022E+03  0.11990164707E+03  0.27377553205E+03  0.00000000000E+00 0.  1.
        -11    1    3    3    0    0  0.19771862900E+03  0.61467277987E+03  0.17571794437E+03  0.66917268215E+03  0.00000000000E+00 0. -1.
          2    1    6    6  502    0 -0.36411941772E+01 -0.11717715516E+03  0.31112369587E+02  0.12129189390E+03  0.00000000000E+00 0. -1.
          1    1    5    5  503    0 -0.45030455641E+01  0.47741049327E+01 -0.11685150251E+02  0.13401948875E+02  0.00000000000E+00 0. -1.
         -2    1    5    5    0  503 -0.40207003795E+03 -0.26756076879E+03 -0.43024881827E+03  0.64680996130E+03  0.00000000000E+00 0.  1.
         -1    1    6    6    0  502  0.12759298811E+03 -0.46572449107E+03  0.16133110671E+03  0.50912375528E+03  0.00000000000E+00 0.  1.
<mgrwt>
<rscale>  0 0.22330994E+04</rscale>
<asrwt>0</asrwt>
<pdfrwt beam="1">  1        1 0.16826513E+00 0.22330994E+04</pdfrwt>
<pdfrwt beam="2">  1       -1 0.17536191E+00 0.22330994E+04</pdfrwt>
<totfact> 0.26198941E+00</totfact>
</mgrwt>
</event>
<event>
12    1  0.2214165E-007  0.3054981E+04  0.7818608E-02  0.8228203E-01
          2   -1    0    0  501    0  0.00000000000E+00  0.00000000000E+00  0.39324889476E+04  0.39324889476E+04  0.00000000000E+00 0. -1.
         -2   -1    0    0    0  501 -0.00000000000E+00 -0.00000000000E+00 -0.59332062496E+03  0.59332062496E+03  0.00000000000E+00 0.  1.
         23    2    1    2    0    0  0.29485487360E+02  0.34099594368E+03  0.35271366096E+04  0.35449277466E+04  0.93125927816E+02 0.  0.
        254    2    1    2    0    0 -0.29485487360E+02 -0.34099594368E+03 -0.18796828689E+03  0.98088182600E+03  0.89980523010E+03 0.  0.
        -24    2    4    4    0    0 -0.44410548821E+03 -0.22670832793E+03 -0.20117527413E+03  0.54310747289E+03  0.76602125172E+02 0.  0.
         24    2    4    4    0    0  0.41462000085E+03 -0.11428761575E+03  0.13206987235E+02  0.43777435310E+03  0.80626022509E+02 0.  0.
         11    1    3    3    0    0  0.17939523731E+02  0.15666709856E+03  0.11720725605E+04  0.11826328650E+04  0.00000000000E+00 0.  1.
        -11    1    3    3    0    0  0.11545963628E+02  0.18432884513E+03  0.23550640491E+04  0.23622948816E+04  0.00000000000E+00 0. -1.
          2    1    6    6  502    0  0.36881690629E+03 -0.73191202398E+02  0.13091200760E+02  0.37623694929E+03  0.00000000000E+00 0. -1.
          1    1    5    5  503    0 -0.43830784534E+03 -0.20890148730E+03 -0.19654748286E+03  0.52381725029E+03  0.00000000000E+00 0. -1.
         -2    1    5    5    0  503 -0.57976428702E+01 -0.17806840630E+02 -0.46277912677E+01  0.19290222603E+02  0.00000000000E+00 0.  1.
         -1    1    6    6    0  502  0.45803094558E+02 -0.41096413352E+02  0.11578647503E+00  0.61537403813E+02  0.00000000000E+00 0.  1.
<mgrwt>
<rscale>  0 0.30549807E+04</rscale>
<asrwt>0</asrwt>
<pdfrwt beam="1">  1        2 0.60499828E+00 0.30549807E+04</pdfrwt>
<pdfrwt beam="2">  1       -2 0.91280098E-01 0.30549807E+04</pdfrwt>
<totfact> 0.33745626E-01</totfact>
</mgrwt>
</event>
<event>
12    1  0.2214165E-007  0.2614388E+04  0.7818608E-02  0.8363330E-01
          1   -1    0    0  501    0  0.00000000000E+00  0.00000000000E+00  0.15100069397E+04  0.15100069397E+04  0.00000000000E+00 0. -1.
         -1   -1    0    0    0  501 -0.00000000000E+00 -0.00000000000E+00 -0.11316212820E+04  0.11316212820E+04  0.00000000000E+00 0.  1.
         23    2    1    2    0    0 -0.33595932385E+03 -0.30816444335E+03 -0.89339050368E+03  0.10070311283E+04  0.90172667455E+02 0.  0.
        254    2    1    2    0    0  0.33595932385E+03  0.30816444335E+03  0.12717761614E+04  0.16345970933E+04  0.92014078346E+03 0.  0.
        -24    2    4    4    0    0 -0.15658041427E+03  0.14275596097E+03  0.10324774165E+04  0.10570228356E+04  0.79943535900E+02 0.  0.
         24    2    4    4    0    0  0.49253973812E+03  0.16540848239E+03  0.23929874492E+03  0.57757425771E+03  0.79829657303E+02 0.  0.
         11    1    3    3    0    0 -0.14791336975E+03 -0.17788099321E+03 -0.37841670800E+03  0.44353040210E+03  0.00000000000E+00 0. -1.
        -11    1    3    3    0    0 -0.18804595410E+03 -0.13028345014E+03 -0.51497379568E+03  0.56350072624E+03  0.00000000000E+00 0.  1.
          4    1    6    6  502    0  0.18483747682E+02  0.57714134663E+01  0.29183498048E+02  0.35023345073E+02  0.00000000000E+00 0. -1.
          1    1    5    5  503    0 -0.10660660276E+03  0.55135843980E+02  0.44266183996E+03  0.45864412522E+03  0.00000000000E+00 0. -1.
         -2    1    5    5    0  503 -0.49973811505E+02  0.87620116987E+02  0.58981557655E+03  0.59837871041E+03  0.00000000000E+00 0.  1.
         -3    1    6    6    0  502  0.47405599044E+03  0.15963706892E+03  0.21011524687E+03  0.54255091264E+03  0.00000000000E+00 0.  1.
<mgrwt>
<rscale>  0 0.26143879E+04</rscale>
<asrwt>0</asrwt>
<pdfrwt beam="1">  1        1 0.23230876E+00 0.26143879E+04</pdfrwt>
<pdfrwt beam="2">  1       -1 0.17409558E+00 0.26143879E+04</pdfrwt>
<totfact> 0.13005900E+00</totfact>
</mgrwt>
</event>
<event>
12    1  0.2214165E-007  0.3037468E+04  0.7818608E-02  0.8233112E-01
          1   -1    0    0  501    0  0.00000000000E+00  0.00000000000E+00  0.20977447524E+04  0.20977447524E+04  0.00000000000E+00 0. -1.
         -1   -1    0    0    0  501 -0.00000000000E+00 -0.00000000000E+00 -0.10995392061E+04  0.10995392061E+04  0.00000000000E+00 0.  1.
         23    2    1    2    0    0  0.39361297810E+03  0.10385550373E+04 -0.41328640563E+03  0.11883538270E+04  0.88608256719E+02 0.  0.
        254    2    1    2    0    0 -0.39361297810E+03 -0.10385550373E+04  0.14114919519E+04  0.20089301314E+04  0.89997944459E+03 0.  0.
        -24    2    4    4    0    0 -0.58601683691E+03 -0.77142987872E+03  0.13502023057E+04  0.16637402918E+04  0.80409584672E+02 0.  0.
         24    2    4    4    0    0  0.19240385881E+03 -0.26712515857E+03  0.61289646224E+02  0.34518983965E+03  0.83812346566E+02 0.  0.
         13    1    3    3    0    0  0.37490475995E+03  0.90958345124E+03 -0.36196419702E+03  0.10482908536E+04  0.00000000000E+00 0. -1.
        -13    1    3    3    0    0  0.18708218146E+02  0.12897158605E+03 -0.51322208613E+02  0.14006297345E+03  0.00000000000E+00 0.  1.
          2    1    6    6  502    0  0.16190711181E+03 -0.26268819132E+03  0.51423404044E+02  0.31283120879E+03  0.00000000000E+00 0. -1.
          1    1    5    5  503    0 -0.38970655195E+03 -0.48244063066E+03  0.92069144889E+03  0.11100868898E+04  0.00000000000E+00 0. -1.
         -2    1    5    5    0  503 -0.19631028496E+03 -0.28898924806E+03  0.42951085678E+03  0.55365340202E+03  0.00000000000E+00 0.  1.
         -1    1    6    6    0  502  0.30496747006E+02 -0.44369672548E+01  0.98662421805E+01  0.32358630860E+02  0.00000000000E+00 0.  1.
<mgrwt>
<rscale>  0 0.30374678E+04</rscale>
<asrwt>0</asrwt>
<pdfrwt beam="1">  1        1 0.32272996E+00 0.30374678E+04</pdfrwt>
<pdfrwt beam="2">  1       -1 0.16915988E+00 0.30374678E+04</pdfrwt>
<totfact> 0.54148930E-01</totfact>
</mgrwt>
</event>
<event>
12    1  0.2214165E-007  0.2607571E+04  0.7818608E-02  0.8365634E-01
         -1   -1    0    0    0  501 -0.00000000000E+00  0.00000000000E+00  0.90927172797E+03  0.90927172797E+03  0.00000000000E+00 0.  1.
          1   -1    0    0  501    0  0.00000000000E+00 -0.00000000000E+00 -0.18694709888E+04  0.18694709888E+04  0.00000000000E+00 0. -1.
         23    2    1    2    0    0 -0.45117957515E+03  0.10527420937E+04 -0.37886050828E+03  0.12099048142E+04  0.92224995618E+02 0.  0.
        254    2    1    2    0    0  0.45117957515E+03 -0.10527420937E+04 -0.58133875255E+03  0.15688379026E+04  0.90081557185E+03 0.  0.
        -24    2    4    4    0    0  0.41862764856E+03 -0.42638189442E+03 -0.70180416130E+03  0.92519189056E+03  0.80002034446E+02 0.  0.
         24    2    4    4    0    0  0.32551926597E+02 -0.62636019927E+03  0.12046540875E+03  0.64364601201E+03  0.79884584976E+02 0.  0.
         11    1    3    3    0    0 -0.27895221804E+03  0.55473095462E+03 -0.17749886761E+03  0.64579146786E+03  0.00000000000E+00 0. -1.
        -11    1    3    3    0    0 -0.17222735712E+03  0.49801113907E+03 -0.20136164067E+03  0.56411334633E+03  0.00000000000E+00 0.  1.
          4    1    6    6  502    0  0.56549510375E+02 -0.33054106170E+03  0.57195268646E+02  0.34018603638E+03  0.00000000000E+00 0. -1.
          1    1    5    5  503    0  0.31413587996E+03 -0.27553286857E+03 -0.51713911469E+03  0.66485530507E+03  0.00000000000E+00 0. -1.
         -2    1    5    5    0  503  0.10449176860E+03 -0.15084902585E+03 -0.18466504662E+03  0.26033658549E+03  0.00000000000E+00 0.  1.
         -3    1    6    6    0  502 -0.23997583779E+02 -0.29581913757E+03  0.63270140108E+02  0.30345997563E+03  0.00000000000E+00 0.  1.
<mgrwt>
<rscale>  0 0.26075714E+04</rscale>
<asrwt>0</asrwt>
<pdfrwt beam="1">  1        1 0.28761092E+00 0.26075714E+04</pdfrwt>
<pdfrwt beam="2">  1       -1 0.13988796E+00 0.26075714E+04</pdfrwt>
<totfact> 0.13509425E+00</totfact>
</mgrwt>
</event>
<event>
12    1  0.2214165E-007  0.1688154E+04  0.7818608E-02  0.8768150E-01
         -2   -1    0    0    0  501 -0.00000000000E+00  0.00000000000E+00  0.23219902649E+03  0.23219902649E+03  0.00000000000E+00 0.  1.
          2   -1    0    0  501    0  0.00000000000E+00 -0.00000000000E+00 -0.30683419342E+04  0.30683419342E+04  0.00000000000E+00 0. -1.
         23    2    1    2    0    0  0.46425062024E+03 -0.37316491912E+03 -0.11552951971E+04  0.13033357795E+04  0.95898208353E+02 0.  0.
        254    2    1    2    0    0 -0.46425062024E+03  0.37316491912E+03 -0.16808477106E+04  0.19972051812E+04  0.89933242704E+03 0.  0.
        -24    2    4    4    0    0 -0.23525612333E+03 -0.28315997381E+03 -0.65051771920E+03  0.75165650602E+03  0.79304386489E+02 0.  0.
         24    2    4    4    0    0 -0.22899449691E+03  0.65632489293E+03 -0.10303299914E+04  0.12455486751E+04  0.81306619495E+02 0.  0.
         13    1    3    3    0    0  0.37561725010E+03 -0.33270550441E+03 -0.90590884516E+03  0.10355926356E+04  0.00000000000E+00 0. -1.
        -13    1    3    3    0    0  0.88633370143E+02 -0.40459414712E+02 -0.24938635196E+03  0.26774314386E+03  0.00000000000E+00 0.  1.
          2    1    6    6  502    0 -0.21218578036E+03  0.60929622552E+03 -0.98839994949E+03  0.11803385768E+04  0.00000000000E+00 0. -1.
          3    1    5    5  503    0 -0.23279098578E+03 -0.28829351868E+03 -0.64406006488E+03  0.74304654171E+03  0.00000000000E+00 0. -1.
         -4    1    5    5    0  503 -0.24651375480E+01  0.51335448727E+01 -0.64576543259E+01  0.86099643138E+01  0.00000000000E+00 0.  1.
         -1    1    6    6    0  502 -0.16808716554E+02  0.47028667407E+02 -0.41930041866E+02  0.65210098306E+02  0.00000000000E+00 0.  1.
<mgrwt>
<rscale>  0 0.16881540E+04</rscale>
<asrwt>0</asrwt>
<pdfrwt beam="1">  1        2 0.47205261E+00 0.16881540E+04</pdfrwt>
<pdfrwt beam="2">  1       -2 0.35722927E-01 0.16881540E+04</pdfrwt>
<totfact> 0.11121593E+01</totfact>
</mgrwt>
</event>
<event>
12    1  0.2214165E-007  0.1609299E+04  0.7818608E-02  0.8814855E-01
         -1   -1    0    0    0  501 -0.00000000000E+00  0.00000000000E+00  0.32668652326E+03  0.32668652326E+03  0.00000000000E+00 0.  1.
          1   -1    0    0  501    0  0.00000000000E+00 -0.00000000000E+00 -0.19819034033E+04  0.19819034033E+04  0.00000000000E+00 0. -1.
         23    2    1    2    0    0  0.52446040190E+03 -0.21403766322E+02 -0.34607641533E+03  0.63516798096E+03  0.90291995304E+02 0.  0.
        254    2    1    2    0    0 -0.52446040190E+03  0.21403766322E+02 -0.13091404647E+04  0.16734219456E+04  0.90054173545E+03 0.  0.
        -24    2    4    4    0    0 -0.47032805949E+03  0.28933248817E+03 -0.12699439221E+04  0.13871771610E+04  0.81124216551E+02 0.  0.
         24    2    4    4    0    0 -0.54132342408E+02 -0.26792872185E+03 -0.39196542624E+02  0.28624478460E+03  0.75389636366E+02 0.  0.
         13    1    3    3    0    0  0.42901101394E+03  0.17662460959E+02 -0.28380686108E+03  0.51469286667E+03  0.00000000000E+00 0.  1.
        -13    1    3    3    0    0  0.95449387960E+02 -0.39066227280E+02 -0.62269554248E+02  0.12047511429E+03  0.00000000000E+00 0. -1.
          4    1    6    6  502    0  0.20161918060E+00 -0.12699507802E+03  0.10004841642E+02  0.12738872536E+03  0.00000000000E+00 0. -1.
          3    1    5    5  503    0 -0.11842222346E+02 -0.54444717713E+01 -0.31444444766E+02  0.34038707519E+02  0.00000000000E+00 0. -1.
         -4    1    5    5    0  503 -0.45848583714E+03  0.29477695994E+03 -0.12384994773E+04  0.13531384535E+04  0.00000000000E+00 0.  1.
         -3    1    6    6    0  502 -0.54333961589E+02 -0.14093364382E+03 -0.49201384266E+02  0.15885605924E+03  0.00000000000E+00 0.  1.
<mgrwt>
<rscale>  0 0.16092994E+04</rscale>
<asrwt>0</asrwt>
<pdfrwt beam="1">  1        1 0.30490822E+00 0.16092994E+04</pdfrwt>
<pdfrwt beam="2">  1       -1 0.50259465E-01 0.16092994E+04</pdfrwt>
<totfact> 0.11686074E+01</totfact>
</mgrwt>
</event>
<event>
12    1  0.2214165E-007  0.2712626E+04  0.7818608E-02  0.8330920E-01
          1   -1    0    0  501    0  0.00000000000E+00  0.00000000000E+00  0.27371336566E+04  0.27371336566E+04  0.00000000000E+00 0. -1.
         -1   -1    0    0    0  501 -0.00000000000E+00 -0.00000000000E+00 -0.67208420079E+03  0.67208420079E+03  0.00000000000E+00 0.  1.
         23    2    1    2    0    0 -0.43605909261E+03  0.50924390265E+02  0.23307445127E+04  0.23734555844E+04  0.90446679182E+02 0.  0.
        254    2    1    2    0    0  0.43605909261E+03 -0.50924390265E+02 -0.26569505692E+03  0.10357622730E+04  0.89970483888E+03 0.  0.
        -24    2    4    4    0    0 -0.42933796893E+02 -0.27175549196E+02  0.28561867828E+03  0.30101740007E+03  0.80322004282E+02 0.  0.
         24    2    4    4    0    0  0.47899288951E+03 -0.23748841069E+02 -0.55131373520E+03  0.73474487292E+03  0.76843984828E+02 0.  0.
         11    1    3    3    0    0 -0.33757862415E+03  0.24610506082E+02  0.19572200973E+04  0.19862717624E+04  0.00000000000E+00 0. -1.
        -11    1    3    3    0    0 -0.98480468466E+02  0.26313884183E+02  0.37352441535E+03  0.38718382202E+03  0.00000000000E+00 0.  1.
          4    1    6    6  502    0  0.41098043701E+03 -0.47363948936E+02 -0.46877431414E+03  0.62521805866E+03  0.00000000000E+00 0. -1.
          3    1    5    5  503    0 -0.33057314803E+02 -0.58639552936E+00  0.26208279302E+03  0.26416002786E+03  0.00000000000E+00 0. -1.
         -2    1    5    5    0  503 -0.98764820900E+01 -0.26589153666E+02  0.23535885260E+02  0.36857372209E+02  0.00000000000E+00 0.  1.
         -3    1    6    6    0  502  0.68012452494E+02  0.23615107867E+02 -0.82539421057E+02  0.10952681426E+03  0.00000000000E+00 0.  1.
<mgrwt>
<rscale>  0 0.27126255E+04</rscale>
<asrwt>0</asrwt>
<pdfrwt beam="1">  1        1 0.42109748E+00 0.27126255E+04</pdfrwt>
<pdfrwt beam="2">  1       -1 0.10339757E+00 0.27126255E+04</pdfrwt>
<totfact> 0.71058907E-01</totfact>
</mgrwt>
</event>
<event>
12    1  0.2214165E-007  0.2957622E+04  0.7818608E-02  0.8255937E-01
          1   -1    0    0  501    0  0.00000000000E+00  0.00000000000E+00  0.28287321170E+04  0.28287321170E+04  0.00000000000E+00 0. -1.
         -1   -1    0    0    0  501 -0.00000000000E+00 -0.00000000000E+00 -0.77309619947E+03  0.77309619947E+03  0.00000000000E+00 0.  1.
         23    2    1    2    0    0 -0.88720334737E+03 -0.96224549983E+03  0.58270312920E+03  0.14353717412E+04  0.87766263460E+02 0.  0.
        254    2    1    2    0    0  0.88720334737E+03  0.96224549983E+03  0.14729327884E+04  0.21664565753E+04  0.90053146104E+03 0.  0.
        -24    2    4    4    0    0  0.33236014950E+03  0.57653005616E+03  0.16283854373E+03  0.68975390102E+03  0.79961728396E+02 0.  0.
         24    2    4    4    0    0  0.55484319787E+03  0.38571544366E+03  0.13100942446E+04  0.14767026743E+04  0.87615528613E+02 0.  0.
         13    1    3    3    0    0 -0.84328931621E+03 -0.91202283160E+03  0.53061265841E+03  0.13507302875E+04  0.00000000000E+00 0. -1.
        -13    1    3    3    0    0 -0.43914031162E+02 -0.50222668229E+02  0.52090470789E+02  0.84641453697E+02  0.00000000000E+00 0.  1.
          4    1    6    6  502    0  0.58923525914E+02  0.50948029986E+02  0.99944887947E+02  0.12671489373E+03  0.00000000000E+00 0. -1.
          1    1    5    5  503    0  0.20316138775E+02  0.64590118719E+02 -0.27389396492E+01  0.67765261906E+02  0.00000000000E+00 0. -1.
         -2    1    5    5    0  503  0.31204401073E+03  0.51193993744E+03  0.16557748338E+03  0.62198863911E+03  0.00000000000E+00 0.  1.
         -3    1    6    6    0  502  0.49591967196E+03  0.33476741368E+03  0.12101493567E+04  0.13499877806E+04  0.00000000000E+00 0.  1.
<mgrwt>
<rscale>  0 0.29576221E+04</rscale>
<asrwt>0</asrwt>
<pdfrwt beam="1">  1        1 0.43518955E+00 0.29576221E+04</pdfrwt>
<pdfrwt beam="2">  1       -1 0.11893788E+00 0.29576221E+04</pdfrwt>
<totfact> 0.42931985E-01</totfact>
</mgrwt>
</event>
<event>
12    1  0.2214165E-007  0.1321642E+04  0.7818608E-02  0.9012577E-01
         -2   -1    0    0    0  501 -0.00000000000E+00  0.00000000000E+00  0.25086589588E+03  0.25086589588E+03  0.00000000000E+00 0. -1.
          2   -1    0    0  501    0  0.00000000000E+00 -0.00000000000E+00 -0.17407080622E+04  0.17407080622E+04  0.00000000000E+00 0.  1.
         23    2    1    2    0    0 -0.22427853008E+03 -0.20804231676E+03 -0.18402816059E+03  0.36869879440E+03  0.92141046657E+02 0.  0.
        254    2    1    2    0    0  0.22427853008E+03  0.20804231676E+03 -0.13058140057E+04  0.16228751637E+04  0.91377848229E+03 0.  0.
        -24    2    4    4    0    0  0.10993533977E+03 -0.16272114550E+03  0.44532530552E+02  0.21551450073E+03  0.76807575311E+02 0.  0.
         24    2    4    4    0    0  0.11434319031E+03  0.37076346226E+03 -0.13503465363E+04  0.14073606629E+04  0.81782378634E+02 0.  0.
         11    1    3    3    0    0 -0.20592454878E+03 -0.14930831179E+03 -0.12493467360E+03  0.28338412875E+03  0.00000000000E+00 0. -1.
        -11    1    3    3    0    0 -0.18353981304E+02 -0.58734004974E+02 -0.59093486992E+02  0.85314665650E+02  0.00000000000E+00 0.  1.
          2    1    6    6  502    0  0.10080217551E+03  0.29677346872E+03 -0.11842866686E+04  0.12250593797E+04  0.00000000000E+00 0. -1.
          3    1    5    5  503    0  0.29552364634E+02 -0.94971437508E+02  0.47767683307E+02  0.11033887695E+03  0.00000000000E+00 0. -1.
         -4    1    5    5    0  503  0.80382975136E+02 -0.67749707991E+02 -0.32351527552E+01  0.10517562378E+03  0.00000000000E+00 0.  1.
         -1    1    6    6    0  502  0.13541014799E+02  0.73989993543E+02 -0.16605986764E+03  0.18230128323E+03  0.00000000000E+00 0.  1.
<mgrwt>
<rscale>  0 0.13216418E+04</rscale>
<asrwt>0</asrwt>
<pdfrwt beam="1">  1        2 0.26780123E+00 0.13216418E+04</pdfrwt>
<pdfrwt beam="2">  1       -2 0.38594754E-01 0.13216418E+04</pdfrwt>
<totfact> 0.57778547E+01</totfact>
</mgrwt>
</event>
<event>
12    1  0.2214165E-007  0.1900429E+04  0.7818608E-02  0.8654643E-01
          1   -1    0    0  501    0  0.00000000000E+00  0.00000000000E+00  0.28667147732E+04  0.28667147732E+04  0.00000000000E+00 0. -1.
         -1   -1    0    0    0  501 -0.00000000000E+00 -0.00000000000E+00 -0.31496235739E+03  0.31496235739E+03  0.00000000000E+00 0.  1.
         23    2    1    2    0    0  0.42152515301E+03  0.59328879773E+03  0.11502465268E+04  0.13645482682E+04  0.96176149907E+02 0.  0.
        254    2    1    2    0    0 -0.42152515301E+03 -0.59328879773E+03  0.14015058891E+04  0.18171288624E+04  0.89892351918E+03 0.  0.
        -24    2    4    4    0    0 -0.45032902974E+03 -0.59860996692E+02  0.11126916028E+04  0.12045682489E+04  0.80761929990E+02 0.  0.
         24    2    4    4    0    0  0.28803876730E+02 -0.53342780103E+03  0.28881428622E+03  0.61256061347E+03  0.80261641015E+02 0.  0.
         11    1    3    3    0    0  0.17921392316E+03  0.17941792923E+03  0.36551406312E+03  0.44486959203E+03  0.00000000000E+00 0.  1.
        -11    1    3    3    0    0  0.24231122985E+03  0.41387086850E+03  0.78473246367E+03  0.91967867619E+03  0.00000000000E+00 0. -1.
          4    1    6    6  502    0  0.52313218558E+01 -0.65275289494E+02  0.75827344831E+01  0.65922135957E+02  0.00000000000E+00 0. -1.
          1    1    5    5  503    0 -0.11116979092E+02  0.11998519844E+02  0.40428648769E+02  0.43612238465E+02  0.00000000000E+00 0. -1.
         -2    1    5    5    0  503 -0.43921205064E+03 -0.71859516536E+02  0.10722629541E+04  0.11609560105E+04  0.00000000000E+00 0.  1.
         -3    1    6    6    0  502  0.23572554874E+02 -0.46815251154E+03  0.28123155174E+03  0.54663847751E+03  0.00000000000E+00 0.  1.
<mgrwt>
<rscale>  0 0.19004286E+04</rscale>
<asrwt>0</asrwt>
<pdfrwt beam="1">  1        1 0.44103302E+00 0.19004286E+04</pdfrwt>
<pdfrwt beam="2">  1       -1 0.48455749E-01 0.19004286E+04</pdfrwt>
<totfact> 0.29815894E+00</totfact>
</mgrwt>
</event>
<event>
12    1  0.2214165E-007  0.2651058E+04  0.7818608E-02  0.8351062E-01
         -2   -1    0    0    0  501 -0.00000000000E+00  0.00000000000E+00  0.49979563026E+03  0.49979563026E+03  0.00000000000E+00 0. -1.
          2   -1    0    0  501    0  0.00000000000E+00 -0.00000000000E+00 -0.35154901993E+04  0.35154901993E+04  0.00000000000E+00 0.  1.
         23    2    1    2    0    0 -0.64254764795E+02 -0.10658253781E+04 -0.20606827103E+04  0.23226566003E+04  0.90598226968E+02 0.  0.
        254    2    1    2    0    0  0.64254764795E+02  0.10658253781E+04 -0.95501185874E+03  0.16926292293E+04  0.90157287342E+03 0.  0.
        -24    2    4    4    0    0  0.26261901660E+02  0.11824508030E+04 -0.98668492939E+03  0.15423480237E+04  0.80066768351E+02 0.  0.
         24    2    4    4    0    0  0.37992863136E+02 -0.11662542490E+03  0.31673070653E+02  0.15028120555E+03  0.80847448657E+02 0.  0.
         13    1    3    3    0    0 -0.53064500346E+02 -0.37175958491E+03 -0.79075972808E+03  0.87539818239E+03  0.00000000000E+00 0.  1.
        -13    1    3    3    0    0 -0.11190264449E+02 -0.69406579321E+03 -0.12699229822E+04  0.14472584179E+04  0.00000000000E+00 0. -1.
          2    1    6    6  502    0 -0.11575348363E+02 -0.29968944668E+02  0.38587079141E+02  0.50210447229E+02  0.00000000000E+00 0. -1.
          3    1    5    5  503    0  0.47050334665E+01  0.51316463632E+03 -0.47927047361E+03  0.70218250347E+03  0.00000000000E+00 0. -1.
         -4    1    5    5    0  503  0.21556868193E+02  0.66928616671E+03 -0.50741445578E+03  0.84016552027E+03  0.00000000000E+00 0.  1.
         -1    1    6    6    0  502  0.49568211499E+02 -0.86656480236E+02 -0.69140084879E+01  0.10007075832E+03  0.00000000000E+00 0.  1.
<mgrwt>
<rscale>  0 0.26510576E+04</rscale>
<asrwt>0</asrwt>
<pdfrwt beam="1">  1        2 0.54084463E+00 0.26510576E+04</pdfrwt>
<pdfrwt beam="2">  1       -2 0.76891638E-01 0.26510576E+04</pdfrwt>
<totfact> 0.10555608E+00</totfact>
</mgrwt>
</event>
<event>
12    1  0.2214165E-007  0.2067816E+04  0.7818608E-02  0.8575555E-01
         -2   -1    0    0    0  501 -0.00000000000E+00  0.00000000000E+00  0.85356413820E+03  0.85356413820E+03  0.00000000000E+00 0.  1.
          2   -1    0    0  501    0  0.00000000000E+00 -0.00000000000E+00 -0.12523551546E+04  0.12523551546E+04  0.00000000000E+00 0. -1.
         23    2    1    2    0    0  0.52844947107E+03  0.31367919481E+03  0.41346831161E+03  0.74708941832E+03  0.97637459641E+02 0.  0.
        254    2    1    2    0    0 -0.52844947107E+03 -0.31367919481E+03 -0.81225932800E+03  0.13588298745E+04  0.89944423458E+03 0.  0.
        -24    2    4    4    0    0 -0.13876696182E+03 -0.26492366194E+03 -0.89720014642E+03  0.94939366838E+03  0.83303171976E+02 0.  0.
         24    2    4    4    0    0 -0.38968250925E+03 -0.48755532876E+02  0.84940818422E+02  0.40943620610E+03  0.78698819781E+02 0.  0.
         11    1    3    3    0    0  0.10931783388E+03  0.30707973289E+02  0.10542962383E+03  0.15494764925E+03  0.00000000000E+00 0. -1.
        -11    1    3    3    0    0  0.41913163719E+03  0.28297122152E+03  0.30803868778E+03  0.59214176906E+03  0.00000000000E+00 0.  1.
          4    1    6    6  502    0 -0.58571753611E+02 -0.29499698656E+02  0.34019855679E+02  0.73879855997E+02  0.00000000000E+00 0. -1.
          3    1    5    5  503    0 -0.61564056236E+02 -0.79977939440E+02 -0.41719967474E+03  0.42923440265E+03  0.00000000000E+00 0. -1.
         -4    1    5    5    0  503 -0.77202905587E+02 -0.18494572250E+03 -0.48000047168E+03  0.52015926572E+03  0.00000000000E+00 0.  1.
         -3    1    6    6    0  502 -0.33111075564E+03 -0.19255834220E+02  0.50920962744E+02  0.33555635011E+03  0.00000000000E+00 0.  1.
<mgrwt>
<rscale>  0 0.20678157E+04</rscale>
<asrwt>0</asrwt>
<pdfrwt beam="1">  1        2 0.19267002E+00 0.20678157E+04</pdfrwt>
<pdfrwt beam="2">  1       -2 0.13131756E+00 0.20678157E+04</pdfrwt>
<totfact> 0.68973537E+00</totfact>
</mgrwt>
</event>
<event>
12    1  0.2214165E-007  0.2202365E+04  0.7818608E-02  0.8517444E-01
         -1   -1    0    0    0  501 -0.00000000000E+00  0.00000000000E+00  0.10643295673E+04  0.10643295673E+04  0.00000000000E+00 0.  1.
          1   -1    0    0  501    0  0.00000000000E+00 -0.00000000000E+00 -0.11393119217E+04  0.11393119217E+04  0.00000000000E+00 0. -1.
         23    2    1    2    0    0  0.28954311738E+03  0.86759862365E+03  0.43036213718E+02  0.92027269208E+03  0.92125585575E+02 0.  0.
        254    2    1    2    0    0 -0.28954311738E+03 -0.86759862365E+03 -0.11801856807E+03  0.12833687969E+04  0.89249341613E+03 0.  0.
        -24    2    4    4    0    0  0.30726931236E+03 -0.36541084923E+03  0.33400423457E+02  0.48516586468E+03  0.79566380527E+02 0.  0.
         24    2    4    4    0    0 -0.59681242974E+03 -0.50218777442E+03 -0.15141899152E+03  0.79820293221E+03  0.76305785660E+02 0.  0.
         11    1    3    3    0    0  0.13466048272E+03  0.29505385193E+03 -0.12371239184E+02  0.32456627783E+03  0.00000000000E+00 0.  1.
        -11    1    3    3    0    0  0.15488263466E+03  0.57254477172E+03  0.55407452901E+02  0.59570641425E+03  0.00000000000E+00 0. -1.
          4    1    6    6  502    0 -0.23554161297E+03 -0.24680033704E+03 -0.58868815148E+02  0.34620195725E+03  0.00000000000E+00 0. -1.
          3    1    5    5  503    0  0.58834997365E+02 -0.46803117764E+02  0.30515996968E+02  0.81137628868E+02  0.00000000000E+00 0. -1.
         -4    1    5    5    0  503  0.24843431499E+03 -0.31860773146E+03  0.28844264885E+01  0.40402823581E+03  0.00000000000E+00 0.  1.
         -3    1    6    6    0  502 -0.36127081677E+03 -0.25538743738E+03 -0.92550176377E+02  0.45200097496E+03  0.00000000000E+00 0.  1.
<mgrwt>
<rscale>  0 0.22023654E+04</rscale>
<asrwt>0</asrwt>
<pdfrwt beam="1">  1        1 0.17527876E+00 0.22023654E+04</pdfrwt>
<pdfrwt beam="2">  1       -1 0.16374301E+00 0.22023654E+04</pdfrwt>
<totfact> 0.29575709E+00</totfact>
</mgrwt>
</event>
<event>
12    1  0.2214165E-007  0.1486464E+04  0.7818608E-02  0.8893505E-01
         -2   -1    0    0    0  501 -0.00000000000E+00  0.00000000000E+00  0.46232965262E+03  0.46232965262E+03  0.00000000000E+00 0. -1.
          2   -1    0    0  501    0  0.00000000000E+00 -0.00000000000E+00 -0.11948048001E+04  0.11948048001E+04  0.00000000000E+00 0.  1.
         23    2    1    2    0    0  0.81224292894E+02  0.40222575594E+03 -0.47681118611E+03  0.63569930691E+03  0.91551936684E+02 0.  0.
        254    2    1    2    0    0 -0.81224292894E+02 -0.40222575594E+03 -0.25566396140E+03  0.10214351458E+04  0.89976816542E+03 0.  0.
        -24    2    4    4    0    0 -0.11533950190E+03 -0.12831007548E+03 -0.56707398758E+03  0.59775443247E+03  0.77270809378E+02 0.  0.
         24    2    4    4    0    0  0.34115209001E+02 -0.27391568046E+03  0.31141002617E+03  0.42368071337E+03  0.79595822704E+02 0.  0.
         13    1    3    3    0    0  0.52145691460E+02  0.16850644812E+03 -0.26859485631E+03  0.32133595042E+03  0.00000000000E+00 0.  1.
        -13    1    3    3    0    0  0.29078601434E+02  0.23371930782E+03 -0.20821632980E+03  0.31436335649E+03  0.00000000000E+00 0. -1.
          2    1    6    6  502    0  0.36449017205E+02 -0.27893851893E+03  0.30819713040E+03  0.41727772452E+03  0.00000000000E+00 0. -1.
          1    1    5    5  503    0 -0.62537057387E+02 -0.11890993692E+03 -0.43249086778E+03  0.45287835823E+03  0.00000000000E+00 0. -1.
         -2    1    5    5    0  503 -0.52802444509E+02 -0.94001385626E+01 -0.13458311980E+03  0.14487607424E+03  0.00000000000E+00 0.  1.
         -1    1    6    6    0  502 -0.23338082037E+01  0.50228384621E+01  0.32128957749E+01  0.64029888496E+01  0.00000000000E+00 0.  1.
<mgrwt>
<rscale>  0 0.14864638E+04</rscale>
<asrwt>0</asrwt>
<pdfrwt beam="1">  1        2 0.18381612E+00 0.14864638E+04</pdfrwt>
<pdfrwt beam="2">  1       -2 0.71127639E-01 0.14864638E+04</pdfrwt>
<totfact> 0.33121818E+01</totfact>
</mgrwt>
</event>
<event>
12    1  0.2214165E-007  0.2105341E+04  0.7818608E-02  0.8558894E-01
         -3   -1    0    0    0  501 -0.00000000000E+00  0.00000000000E+00  0.92621619223E+03  0.92621619223E+03  0.00000000000E+00 0.  1.
          3   -1    0    0  501    0  0.00000000000E+00 -0.00000000000E+00 -0.11963890056E+04  0.11963890056E+04  0.00000000000E+00 0. -1.
         23    2    1    2    0    0 -0.22934594393E+03 -0.51314234138E+03 -0.76292318750E+03  0.95189946020E+03  0.90256123303E+02 0.  0.
        254    2    1    2    0    0  0.22934594393E+03  0.51314234138E+03  0.49275037414E+03  0.11707057376E+04  0.90101851721E+03 0.  0.
        -24    2    4    4    0    0 -0.45986930198E+02 -0.18899998356E+03 -0.75671334012E+02  0.22324883216E+03  0.79234454193E+02 0.  0.
         24    2    4    4    0    0  0.27533287413E+03  0.70214232494E+03  0.56842170816E+03  0.94745690546E+03  0.75890140022E+02 0.  0.
         13    1    3    3    0    0 -0.24733236043E+02 -0.99790480693E+02 -0.19351096369E+03  0.21912637010E+03  0.00000000000E+00 0. -1.
        -13    1    3    3    0    0 -0.20461270789E+03 -0.41335186068E+03 -0.56941222380E+03  0.73277309010E+03  0.00000000000E+00 0.  1.
          2    1    6    6  502    0  0.28374149536E+02  0.43687101604E+02  0.61254033592E+02  0.80409650165E+02  0.00000000000E+00 0. -1.
          3    1    5    5  503    0 -0.41952600363E+02 -0.92776455036E+02 -0.17396353063E+01  0.10183573841E+03  0.00000000000E+00 0. -1.
         -4    1    5    5    0  503 -0.40343298349E+01 -0.96223528528E+02 -0.73931698705E+02  0.12141309375E+03  0.00000000000E+00 0.  1.
         -3    1    6    6    0  502  0.24695872460E+03  0.65845522334E+03  0.50716767456E+03  0.86704725530E+03  0.00000000000E+00 0.  1.
<mgrwt>
<rscale>  0 0.21053407E+04</rscale>
<asrwt>0</asrwt>
<pdfrwt beam="1">  1        3 0.18405985E+00 0.21053407E+04</pdfrwt>
<pdfrwt beam="2">  1       -3 0.14249480E+00 0.21053407E+04</pdfrwt>
<totfact> 0.16527047E-01</totfact>
</mgrwt>
</event>
<event>
12    1  0.2214165E-007  0.1402089E+04  0.7818608E-02  0.8952308E-01
         -2   -1    0    0    0  501 -0.00000000000E+00  0.00000000000E+00  0.21870779897E+03  0.21870779897E+03  0.00000000000E+00 0.  1.
          2   -1    0    0  501    0  0.00000000000E+00 -0.00000000000E+00 -0.22471244994E+04  0.22471244994E+04  0.00000000000E+00 0. -1.
         23    2    1    2    0    0  0.26809635614E+03  0.18846830703E+03 -0.10121286666E+04  0.10675175677E+04  0.88280012282E+02 0.  0.
        254    2    1    2    0    0 -0.26809635614E+03 -0.18846830703E+03 -0.10162880339E+04  0.13983147307E+04  0.90279940161E+03 0.  0.
        -24    2    4    4    0    0  0.30195158986E+03  0.31243924221E+02 -0.51921677514E+03  0.60674700126E+03  0.80030734881E+02 0.  0.
         24    2    4    4    0    0 -0.57004794600E+03 -0.21971223125E+03 -0.49707125871E+03  0.79156772949E+03  0.79192858450E+02 0.  0.
         11    1    3    3    0    0  0.59421380241E+02  0.90389584542E+02 -0.29313222819E+03  0.31245428566E+03  0.00000000000E+00 0. -1.
        -11    1    3    3    0    0  0.20867497590E+03  0.98078722488E+02 -0.71899643843E+03  0.75506328201E+03  0.00000000000E+00 0.  1.
          2    1    6    6  502    0 -0.11439431006E+01 -0.92967881747E+01 -0.93788819046E+01  0.13255274496E+02  0.00000000000E+00 0. -1.
          3    1    5    5  503    0  0.65812062974E+01  0.15718706236E+02 -0.41692094339E+02  0.45040212393E+02  0.00000000000E+00 0. -1.
         -4    1    5    5    0  503  0.29537038356E+03  0.15525217985E+02 -0.47752468080E+03  0.56170678886E+03  0.00000000000E+00 0.  1.
         -1    1    6    6    0  502 -0.56890400290E+03 -0.21041544308E+03 -0.48769237681E+03  0.77831245500E+03  0.00000000000E+00 0.  1.
<mgrwt>
<rscale>  0 0.14020894E+04</rscale>
<asrwt>0</asrwt>
<pdfrwt beam="1">  1        2 0.34571147E+00 0.14020894E+04</pdfrwt>
<pdfrwt beam="2">  1       -2 0.33647352E-01 0.14020894E+04</pdfrwt>
<totfact> 0.39112974E+01</totfact>
</mgrwt>
</event>
<event>
12    1  0.2214165E-007  0.3046173E+04  0.7818608E-02  0.8230667E-01
          1   -1    0    0  501    0  0.00000000000E+00  0.00000000000E+00  0.20563713302E+04  0.20563713302E+04  0.00000000000E+00 0. -1.
         -1   -1    0    0    0  501 -0.00000000000E+00 -0.00000000000E+00 -0.11280999806E+04  0.11280999806E+04  0.00000000000E+00 0.  1.
         23    2    1    2    0    0 -0.13285279380E+04 -0.37844086091E+03  0.56364312359E+03  0.14959233097E+04  0.10903673899E+03 0.  0.
        254    2    1    2    0    0  0.13285279380E+04  0.37844086091E+03  0.36462822595E+03  0.16885480012E+04  0.90002035640E+03 0.  0.
        -24    2    4    4    0    0  0.57176436736E+03  0.31355041480E+03 -0.25477939149E+03  0.70539253198E+03  0.86242283361E+02 0.  0.
         24    2    4    4    0    0  0.75676357060E+03  0.64890446111E+02  0.61940761744E+03  0.98315546919E+03  0.77633808746E+02 0.  0.
         11    1    3    3    0    0 -0.48821566605E+03 -0.11182746623E+03  0.15555704854E+03  0.52445964013E+03  0.00000000000E+00 0.  1.
        -11    1    3    3    0    0 -0.84031227192E+03 -0.26661339469E+03  0.40808607505E+03  0.97146366953E+03  0.00000000000E+00 0. -1.
          4    1    6    6  502    0  0.18733122438E+03  0.17551468967E+02  0.11186037212E+03  0.21889217560E+03  0.00000000000E+00 0. -1.
          3    1    5    5  503    0  0.20761694868E+03  0.95929615060E+02 -0.49001156746E+02  0.23389827231E+03  0.00000000000E+00 0. -1.
         -4    1    5    5    0  503  0.36414741868E+03  0.21762079974E+03 -0.20577823474E+03  0.47149425968E+03  0.00000000000E+00 0.  1.
         -3    1    6    6    0  502  0.56943234622E+03  0.47338977145E+02  0.50754724533E+03  0.76426329359E+03  0.00000000000E+00 0.  1.
<mgrwt>
<rscale>  0 0.30461730E+04</rscale>
<asrwt>0</asrwt>
<pdfrwt beam="1">  1        1 0.31636482E+00 0.30461730E+04</pdfrwt>
<pdfrwt beam="2">  1       -1 0.17355384E+00 0.30461730E+04</pdfrwt>
<totfact> 0.53602303E-01</totfact>
</mgrwt>
</event>
<event>
12    1  0.2214165E-007  0.1886180E+04  0.7818608E-02  0.8661766E-01
          1   -1    0    0  501    0  0.00000000000E+00  0.00000000000E+00  0.66385786909E+03  0.66385786909E+03  0.00000000000E+00 0. -1.
         -1   -1    0    0    0  501 -0.00000000000E+00 -0.00000000000E+00 -0.13397732646E+04  0.13397732646E+04  0.00000000000E+00 0.  1.
         23    2    1    2    0    0  0.69622824401E+03 -0.19863003156E+03 -0.23802857681E+03  0.76833144062E+03  0.97406067946E+02 0.  0.
        254    2    1    2    0    0 -0.69622824401E+03  0.19863003156E+03 -0.43788681868E+03  0.12352996930E+04  0.90001822673E+03 0.  0.
        -24    2    4    4    0    0 -0.75058571363E+02 -0.12401532575E+03  0.21797794094E+03  0.27329693145E+03  0.78506304509E+02 0.  0.
         24    2    4    4    0    0 -0.62116967265E+03  0.32264535731E+03 -0.65586475961E+03  0.96200276159E+03  0.73068061396E+02 0.  0.
         11    1    3    3    0    0  0.29816783353E+03 -0.11962555164E+03 -0.68336189536E+02  0.32845724890E+03  0.00000000000E+00 0. -1.
        -11    1    3    3    0    0  0.39806041049E+03 -0.79004479916E+02 -0.16969238728E+03  0.43987419172E+03  0.00000000000E+00 0.  1.
          4    1    6    6  502    0 -0.37450003155E+02  0.37077168287E+01 -0.24514749450E+02  0.44913503993E+02  0.00000000000E+00 0. -1.
          1    1    5    5  503    0 -0.15977751609E+02  0.89462271066E+01  0.35212147674E+02  0.39689027069E+02  0.00000000000E+00 0. -1.
         -2    1    5    5    0  503 -0.59080819754E+02 -0.13296155286E+03  0.18276579326E+03  0.23360790438E+03  0.00000000000E+00 0.  1.
         -3    1    6    6    0  502 -0.58371966950E+03  0.31893764048E+03 -0.63135001016E+03  0.91708925760E+03  0.00000000000E+00 0.  1.
<mgrwt>
<rscale>  0 0.18861803E+04</rscale>
<asrwt>0</asrwt>
<pdfrwt beam="1">  1        1 0.10213198E+00 0.18861803E+04</pdfrwt>
<pdfrwt beam="2">  1       -1 0.20611896E+00 0.18861803E+04</pdfrwt>
<totfact> 0.37765125E+00</totfact>
</mgrwt>
</event>
<event>
12    1  0.2214165E-007  0.1563736E+04  0.7818608E-02  0.8843141E-01
          2   -1    0    0  501    0  0.00000000000E+00  0.00000000000E+00  0.38739398923E+04  0.38739398923E+04  0.00000000000E+00 0. -1.
         -2   -1    0    0    0  501 -0.00000000000E+00 -0.00000000000E+00 -0.15780258180E+03  0.15780258180E+03  0.00000000000E+00 0.  1.
         23    2    1    2    0    0  0.38447078537E+03 -0.29938857250E+03  0.79637614153E+03  0.93780487197E+03  0.88383917886E+02 0.  0.
        254    2    1    2    0    0 -0.38447078537E+03  0.29938857250E+03  0.29197611690E+04  0.30939376022E+04  0.89999627776E+03 0.  0.
        -24    2    4    4    0    0 -0.56300234284E+03  0.44264076077E+03  0.16362757818E+04  0.17879640114E+04  0.80711775833E+02 0.  0.
         24    2    4    4    0    0  0.17853155747E+03 -0.14325218827E+03  0.12834853872E+04  0.13059735908E+04  0.76404019736E+02 0.  0.
         11    1    3    3    0    0  0.30147035260E+03 -0.20963277046E+03  0.65499841443E+03  0.75090158800E+03  0.00000000000E+00 0.  1.
        -11    1    3    3    0    0  0.83000432765E+02 -0.89755802038E+02  0.14137772710E+03  0.18690328397E+03  0.00000000000E+00 0. -1.
          2    1    6    6  502    0  0.13267418780E+03 -0.60966195032E+02  0.71804358500E+03  0.73273863485E+03  0.00000000000E+00 0. -1.
          3    1    5    5  503    0 -0.32006405629E+03  0.23467980890E+03  0.81127471174E+03  0.90315130003E+03  0.00000000000E+00 0. -1.
         -4    1    5    5    0  503 -0.24293828655E+03  0.20796095188E+03  0.82500107008E+03  0.88481271138E+03  0.00000000000E+00 0.  1.
         -1    1    6    6    0  502  0.45857369674E+02 -0.82285993237E+02  0.56544180216E+03  0.57323495590E+03  0.00000000000E+00 0.  1.
<mgrwt>
<rscale>  0 0.15637362E+04</rscale>
<asrwt>0</asrwt>
<pdfrwt beam="1">  1        2 0.59599068E+00 0.15637362E+04</pdfrwt>
<pdfrwt beam="2">  1       -2 0.24277323E-01 0.15637362E+04</pdfrwt>
<totfact> 0.63872921E+00</totfact>
</mgrwt>
</event>
<event>
12    1  0.2214165E-007  0.1187008E+04  0.7818608E-02  0.9124305E-01
          3   -1    0    0  501    0  0.00000000000E+00  0.00000000000E+00  0.17781132285E+04  0.17781132285E+04  0.00000000000E+00 0. -1.
         -3   -1    0    0    0  501 -0.00000000000E+00 -0.00000000000E+00 -0.19810161512E+03  0.19810161512E+03  0.00000000000E+00 0.  1.
         23    2    1    2    0    0 -0.19005667865E+03  0.39320377741E+02  0.10735964893E+03  0.23947542345E+03  0.90303660033E+02 0.  0.
        254    2    1    2    0    0  0.19005667865E+03 -0.39320377741E+02  0.14726519645E+04  0.17367394202E+04  0.89994020466E+03 0.  0.
        -24    2    4    4    0    0  0.23934865259E+03  0.26410473518E+03  0.18391274325E+03  0.40923490943E+03  0.81303292245E+02 0.  0.
         24    2    4    4    0    0 -0.49291973943E+02 -0.30342511292E+03  0.12887392213E+04  0.13275045108E+04  0.83204254087E+02 0.  0.
         13    1    3    3    0    0 -0.11398731081E+03  0.65420185659E+02  0.83015627963E+02  0.15544935575E+03  0.00000000000E+00 0. -1.
        -13    1    3    3    0    0 -0.76069367834E+02 -0.26099807918E+02  0.24344020962E+02  0.84026067697E+02  0.00000000000E+00 0.  1.
          2    1    6    6  502    0  0.70063304493E+01 -0.10487480378E+03  0.31294181556E+03  0.33012178519E+03  0.00000000000E+00 0. -1.
          1    1    5    5  503    0  0.68162724660E+02  0.84031986177E+02  0.99030907058E+02  0.14667873836E+03  0.00000000000E+00 0. -1.
         -2    1    5    5    0  503  0.17118592793E+03  0.18007274900E+03  0.84881836189E+02  0.26255617107E+03  0.00000000000E+00 0.  1.
         -1    1    6    6    0  502 -0.56298304392E+02 -0.19855030914E+03  0.97579740569E+03  0.99738272558E+03  0.00000000000E+00 0.  1.
<mgrwt>
<rscale>  0 0.11870082E+04</rscale>
<asrwt>0</asrwt>
<pdfrwt beam="1">  1        3 0.27355587E+00 0.11870082E+04</pdfrwt>
<pdfrwt beam="2">  1       -3 0.30477173E-01 0.11870082E+04</pdfrwt>
<totfact> 0.14904535E+00</totfact>
</mgrwt>
</event>
<event>
12    1  0.2214165E-007  0.1865049E+04  0.7818608E-02  0.8672452E-01
          2   -1    0    0  501    0  0.00000000000E+00  0.00000000000E+00  0.10243875230E+04  0.10243875230E+04  0.00000000000E+00 0. -1.
         -2   -1    0    0    0  501 -0.00000000000E+00 -0.00000000000E+00 -0.84889911212E+03  0.84889911212E+03  0.00000000000E+00 0.  1.
         23    2    1    2    0    0  0.14695408481E+03  0.63000144529E+03  0.36512523771E+03  0.74878678823E+03  0.94169479691E+02 0.  0.
        254    2    1    2    0    0 -0.14695408481E+03 -0.63000144529E+03 -0.18963682684E+03  0.11244998469E+04  0.90002247495E+03 0.  0.
        -24    2    4    4    0    0 -0.28314362468E+03 -0.83849886382E+02 -0.41272068017E+03  0.51378844801E+03  0.80243964407E+02 0.  0.
         24    2    4    4    0    0  0.13618953987E+03 -0.54615155891E+03  0.22308385333E+03  0.61071139886E+03  0.79830389068E+02 0.  0.
         11    1    3    3    0    0  0.34968340110E+02  0.69798184257E+02  0.74136232366E+02  0.10766035614E+03  0.00000000000E+00 0. -1.
        -11    1    3    3    0    0  0.11198574470E+03  0.56020326103E+03  0.29098900534E+03  0.64112643208E+03  0.00000000000E+00 0.  1.
          2    1    6    6  502    0  0.11657552446E+03 -0.31329418315E+03  0.11808423080E+03  0.35452360100E+03  0.00000000000E+00 0. -1.
          1    1    5    5  503    0 -0.25261675740E+03 -0.97221563757E+02 -0.34686540854E+03  0.43998053391E+03  0.00000000000E+00 0. -1.
         -2    1    5    5    0  503 -0.30526867274E+02  0.13371677375E+02 -0.65855271638E+02  0.73807914101E+02  0.00000000000E+00 0.  1.
         -1    1    6    6    0  502  0.19614015406E+02 -0.23285737576E+03  0.10499962254E+03  0.25618779787E+03  0.00000000000E+00 0.  1.
<mgrwt>
<rscale>  0 0.18650487E+04</rscale>
<asrwt>0</asrwt>
<pdfrwt beam="1">  1        2 0.15759808E+00 0.18650487E+04</pdfrwt>
<pdfrwt beam="2">  1       -2 0.13059986E+00 0.18650487E+04</pdfrwt>
<totfact> 0.97965129E+00</totfact>
</mgrwt>
</event>
<event>
12    1  0.2214165E-007  0.1699737E+04  0.7818608E-02  0.8761515E-01
         -1   -1    0    0    0  501 -0.00000000000E+00  0.00000000000E+00  0.30074617782E+03  0.30074617782E+03  0.00000000000E+00 0.  1.
          1   -1    0    0  501    0  0.00000000000E+00 -0.00000000000E+00 -0.24016138379E+04  0.24016138379E+04  0.00000000000E+00 0. -1.
         23    2    1    2    0    0  0.34025684526E+03 -0.25041175275E+03 -0.65799480632E+02  0.43750050144E+03  0.92716505799E+02 0.  0.
        254    2    1    2    0    0 -0.34025684526E+03  0.25041175275E+03 -0.20350681794E+04  0.22648595142E+04  0.89978072756E+03 0.  0.
        -24    2    4    4    0    0 -0.39150486983E+03 -0.24826535288E+03 -0.11828567433E+04  0.12729439426E+04  0.79526456875E+02 0.  0.
         24    2    4    4    0    0  0.51248024571E+02  0.49867710563E+03 -0.85221143613E+03  0.99191557163E+03  0.79542150222E+02 0.  0.
         13    1    3    3    0    0  0.18388788657E+03 -0.10672728684E+03  0.77723148435E+01  0.21275779060E+03  0.00000000000E+00 0.  1.
        -13    1    3    3    0    0  0.15636895869E+03 -0.14368446591E+03 -0.73571795476E+02  0.22474271084E+03  0.00000000000E+00 0. -1.
          4    1    6    6  502    0  0.71489012834E+02  0.43001684300E+03 -0.73783192592E+03  0.85698373096E+03  0.00000000000E+00 0. -1.
          3    1    5    5  503    0 -0.35883577139E+03 -0.24971341295E+03 -0.10847584258E+04  0.11695386876E+04  0.00000000000E+00 0. -1.
         -4    1    5    5    0  503 -0.32669098445E+02  0.14480600667E+01 -0.98098317493E+02  0.10340525502E+03  0.00000000000E+00 0.  1.
         -3    1    6    6    0  502 -0.20240988263E+02  0.68660262634E+02 -0.11437951021E+03  0.13493184067E+03  0.00000000000E+00 0.  1.
<mgrwt>
<rscale>  0 0.16997367E+04</rscale>
<asrwt>0</asrwt>
<pdfrwt beam="1">  1        1 0.36947907E+00 0.16997367E+04</pdfrwt>
<pdfrwt beam="2">  1       -1 0.46268640E-01 0.16997367E+04</pdfrwt>
<totfact> 0.70185575E+00</totfact>
</mgrwt>
</event>
<event>
12    1  0.2214165E-007  0.1249305E+04  0.7818608E-02  0.9070762E-01
          2   -1    0    0  501    0  0.00000000000E+00  0.00000000000E+00  0.10655328850E+04  0.10655328850E+04  0.00000000000E+00 0.  1.
         -2   -1    0    0    0  501 -0.00000000000E+00 -0.00000000000E+00 -0.36619316606E+03  0.36619316606E+03  0.00000000000E+00 0. -1.
         23    2    1    2    0    0 -0.11748313695E+03  0.11674968357E+03  0.42887005499E+03  0.46893834518E+03  0.92416835237E+02 0.  0.
        254    2    1    2    0    0  0.11748313695E+03 -0.11674968357E+03  0.27046966395E+03  0.96278770588E+03  0.90905090693E+03 0.  0.
        -24    2    4    4    0    0 -0.76493934209E+02 -0.39089864467E+03 -0.13693336865E+03  0.42858487701E+03  0.79253876707E+02 0.  0.
         24    2    4    4    0    0  0.19397707116E+03  0.27414896110E+03  0.40740303261E+03  0.53420282887E+03  0.81306053837E+02 0.  0.
         13    1    3    3    0    0 -0.93299952365E+02  0.30660985197E+02  0.25850253351E+03  0.27652945043E+03  0.00000000000E+00 0. -1.
        -13    1    3    3    0    0 -0.24183184582E+02  0.86088698378E+02  0.17036752148E+03  0.19240889475E+03  0.00000000000E+00 0.  1.
          2    1    6    6  502    0  0.18499510053E+02  0.75692792935E+02  0.12238517380E+03  0.14508535949E+03  0.00000000000E+00 0. -1.
          3    1    5    5  503    0 -0.28811086444E+02 -0.28355734584E+02 -0.15237450484E+02  0.43200767159E+02  0.00000000000E+00 0. -1.
         -4    1    5    5    0  503 -0.47682847765E+02 -0.36254291009E+03 -0.12169591817E+03  0.38538410985E+03  0.00000000000E+00 0.  1.
         -1    1    6    6    0  502  0.17547756110E+03  0.19845616816E+03  0.28501785881E+03  0.38911746938E+03  0.00000000000E+00 0.  1.
<mgrwt>
<rscale>  0 0.12493052E+04</rscale>
<asrwt>0</asrwt>
<pdfrwt beam="1">  1        2 0.16392813E+00 0.12493052E+04</pdfrwt>
<pdfrwt beam="2">  1       -2 0.56337411E-01 0.12493052E+04</pdfrwt>
<totfact> 0.66565951E+01</totfact>
</mgrwt>
</event>
<event>
12    1  0.2214165E-007  0.1224490E+04  0.7818608E-02  0.9091687E-01
         -2   -1    0    0    0  501 -0.00000000000E+00  0.00000000000E+00  0.72610808403E+03  0.72610808403E+03  0.00000000000E+00 0. -1.
          2   -1    0    0  501    0  0.00000000000E+00 -0.00000000000E+00 -0.51623694683E+03  0.51623694683E+03  0.00000000000E+00 0.  1.
         23    2    1    2    0    0 -0.12143385849E+03 -0.20616650074E+03 -0.75660156410E+02  0.26720262778E+03  0.91771330000E+02 0.  0.
        254    2    1    2    0    0  0.12143385849E+03  0.20616650074E+03  0.28553129361E+03  0.97514240308E+03  0.90117910464E+03 0.  0.
        -24    2    4    4    0    0  0.52242439822E+02  0.36909980883E+03 -0.21550178384E+03  0.43810895610E+03  0.80836236818E+02 0.  0.
         24    2    4    4    0    0  0.69191418668E+02 -0.16293330809E+03  0.50103307745E+03  0.53703344698E+03  0.77692104989E+02 0.  0.
         11    1    3    3    0    0 -0.22967314935E+02 -0.95522717189E+02  0.53341922576E+01  0.98389738599E+02  0.00000000000E+00 0. -1.
        -11    1    3    3    0    0 -0.98466543554E+02 -0.11064378355E+03 -0.80994348667E+02  0.16881288918E+03  0.00000000000E+00 0.  1.
          4    1    6    6  502    0  0.39872444040E+02 -0.16512049963E+02  0.13430748548E+03  0.14107076325E+03  0.00000000000E+00 0. -1.
          3    1    5    5  503    0  0.28747582694E+02  0.15858789117E+03 -0.13921074828E+03  0.21296989264E+03  0.00000000000E+00 0. -1.
         -4    1    5    5    0  503  0.23494857128E+02  0.21051191766E+03 -0.76291035560E+02  0.22513906346E+03  0.00000000000E+00 0.  1.
         -3    1    6    6    0  502  0.29318974628E+02 -0.14642125812E+03  0.36672559197E+03  0.39596268373E+03  0.00000000000E+00 0.  1.
<mgrwt>
<rscale>  0 0.12244898E+04</rscale>
<asrwt>0</asrwt>
<pdfrwt beam="1">  1        2 0.79421069E-01 0.12244898E+04</pdfrwt>
<pdfrwt beam="2">  1       -2 0.11170894E+00 0.12244898E+04</pdfrwt>
<totfact> 0.36985608E+01</totfact>
</mgrwt>
</event>
<event>
12    1  0.2214165E-007  0.1848998E+04  0.7818608E-02  0.8680668E-01
         -1   -1    0    0    0  501 -0.00000000000E+00  0.00000000000E+00  0.10047966797E+04  0.10047966797E+04  0.00000000000E+00 0.  1.
          1   -1    0    0  501    0  0.00000000000E+00 -0.00000000000E+00 -0.85061867878E+03  0.85061867878E+03  0.00000000000E+00 0. -1.
         23    2    1    2    0    0  0.38343401911E+03 -0.57635423110E+03  0.16061974823E+03  0.71665292099E+03  0.92665305885E+02 0.  0.
        254    2    1    2    0    0 -0.38343401911E+03  0.57635423110E+03 -0.64417472815E+01  0.11387624375E+04  0.90417506396E+03 0.  0.
        -24    2    4    4    0    0 -0.33332463617E+03  0.76350951805E+03  0.18271564523E+03  0.85654677294E+03  0.78963725881E+02 0.  0.
         24    2    4    4    0    0 -0.50109382946E+02 -0.18715528694E+03 -0.18915739251E+03  0.28221566458E+03  0.79543136128E+02 0.  0.
         11    1    3    3    0    0  0.10811357684E+03 -0.19882655708E+03  0.13247569310E+02  0.22670695488E+03  0.00000000000E+00 0. -1.
        -11    1    3    3    0    0  0.27532044227E+03 -0.37752767402E+03  0.14737217892E+03  0.48994596611E+03  0.00000000000E+00 0.  1.
          4    1    6    6  502    0 -0.37485507805E+01 -0.11928630888E+03 -0.72935464560E+02  0.13986728392E+03  0.00000000000E+00 0. -1.
          3    1    5    5  503    0 -0.24103902067E+03  0.48595157297E+03  0.91152348872E+02  0.55005226249E+03  0.00000000000E+00 0. -1.
         -4    1    5    5    0  503 -0.92285615495E+02  0.27755794507E+03  0.91563296355E+02  0.30649451046E+03  0.00000000000E+00 0.  1.
         -3    1    6    6    0  502 -0.46360832165E+02 -0.67868978062E+02 -0.11622192795E+03  0.14234838067E+03  0.00000000000E+00 0.  1.
<mgrwt>
<rscale>  0 0.18489985E+04</rscale>
<asrwt>0</asrwt>
<pdfrwt beam="1">  1        1 0.13086441E+00 0.18489985E+04</pdfrwt>
<pdfrwt beam="2">  1       -1 0.15458410E+00 0.18489985E+04</pdfrwt>
<totfact> 0.60432792E+00</totfact>
</mgrwt>
</event>
<event>
12    1  0.2214165E-007  0.2948499E+04  0.7818608E-02  0.8258592E-01
          2   -1    0    0  501    0  0.00000000000E+00  0.00000000000E+00  0.16694209589E+04  0.16694209589E+04  0.00000000000E+00 0. -1.
         -2   -1    0    0    0  501 -0.00000000000E+00 -0.00000000000E+00 -0.13018956119E+04  0.13018956119E+04  0.00000000000E+00 0.  1.
         23    2    1    2    0    0  0.24729505723E+03  0.11791434264E+04 -0.41373434306E+03  0.12766399860E+04  0.84258422813E+02 0.  0.
        254    2    1    2    0    0 -0.24729505723E+03 -0.11791434264E+04  0.78125969009E+03  0.16946765848E+04  0.90001553222E+03 0.  0.
        -24    2    4    4    0    0 -0.22100380601E+03 -0.77798774216E+03  0.95123352613E+03  0.12510755994E+04  0.78976736525E+02 0.  0.
         24    2    4    4    0    0 -0.26291251219E+02 -0.40115568427E+03 -0.16997383603E+03  0.44360098541E+03  0.79206163945E+02 0.  0.
         11    1    3    3    0    0  0.12163026648E+03  0.73929411870E+03 -0.23088214443E+03  0.78400017875E+03  0.00000000000E+00 0. -1.
        -11    1    3    3    0    0  0.12566479075E+03  0.43984930773E+03 -0.18285219863E+03  0.49263980725E+03  0.00000000000E+00 0.  1.
          4    1    6    6  502    0 -0.41534252401E+02 -0.11002382037E+03 -0.37996693482E+02  0.12358836469E+03  0.00000000000E+00 0. -1.
          3    1    5    5  503    0 -0.84590540830E+02 -0.28707836875E+03  0.41170334408E+03  0.50898840157E+03  0.00000000000E+00 0. -1.
         -4    1    5    5    0  503 -0.13641326518E+03 -0.49090937341E+03  0.53953018205E+03  0.74208719781E+03  0.00000000000E+00 0.  1.
         -3    1    6    6    0  502  0.15243001182E+02 -0.29113186390E+03 -0.13197714255E+03  0.32001262072E+03  0.00000000000E+00 0.  1.
<mgrwt>
<rscale>  0 0.29484992E+04</rscale>
<asrwt>0</asrwt>
<pdfrwt beam="1">  1        2 0.25683400E+00 0.29484992E+04</pdfrwt>
<pdfrwt beam="2">  1       -2 0.20029163E+00 0.29484992E+04</pdfrwt>
<totfact> 0.11611007E+00</totfact>
</mgrwt>
</event>
<event>
12    1  0.2214165E-007  0.1148875E+04  0.7818608E-02  0.9158822E-01
         -1   -1    0    0    0  501 -0.00000000000E+00  0.00000000000E+00  0.42251415214E+03  0.42251415214E+03  0.00000000000E+00 0.  1.
          1   -1    0    0  501    0  0.00000000000E+00 -0.00000000000E+00 -0.78098788207E+03  0.78098788207E+03  0.00000000000E+00 0. -1.
         23    2    1    2    0    0  0.14239937016E+03  0.13014204241E+03 -0.14285135411E+03  0.25814435702E+03  0.94960348931E+02 0.  0.
        254    2    1    2    0    0 -0.14239937016E+03 -0.13014204241E+03 -0.21562237582E+03  0.94535767718E+03  0.89999644278E+03 0.  0.
        -24    2    4    4    0    0 -0.33203586961E+03 -0.79066093355E+02  0.25197165819E+03  0.43201289578E+03  0.81523982747E+02 0.  0.
         24    2    4    4    0    0  0.18963649946E+03 -0.51075949054E+02 -0.46759403401E+03  0.51334478139E+03  0.79422474402E+02 0.  0.
         13    1    3    3    0    0  0.32375077451E+02  0.60542750625E+01  0.80710528306E+01  0.33910791501E+02  0.00000000000E+00 0.  1.
        -13    1    3    3    0    0  0.11002429271E+03  0.12408776735E+03 -0.15092240694E+03  0.22423356552E+03  0.00000000000E+00 0. -1.
          2    1    6    6  502    0  0.19108998715E+03 -0.43916951656E+02 -0.40118294521E+03  0.44653313131E+03  0.00000000000E+00 0. -1.
          3    1    5    5  503    0 -0.29773521158E+03 -0.90871645022E+02  0.20527996554E+03  0.37288574167E+03  0.00000000000E+00 0. -1.
         -4    1    5    5    0  503 -0.34300658032E+02  0.11805551667E+02  0.46691692650E+02  0.59127154118E+02  0.00000000000E+00 0.  1.
         -1    1    6    6    0  502 -0.14534876972E+01 -0.71589973974E+01 -0.66411088805E+02  0.66811650081E+02  0.00000000000E+00 0.  1.
<mgrwt>
<rscale>  0 0.11488750E+04</rscale>
<asrwt>0</asrwt>
<pdfrwt beam="1">  1        1 0.12015198E+00 0.11488750E+04</pdfrwt>
<pdfrwt beam="2">  1       -1 0.65002178E-01 0.11488750E+04</pdfrwt>
<totfact> 0.54773888E+01</totfact>
</mgrwt>
</event>
<event>
12    1  0.2214165E-007  0.2115361E+04  0.7818608E-02  0.8554507E-01
          2   -1    0    0  501    0  0.00000000000E+00  0.00000000000E+00  0.22041925672E+04  0.22041925672E+04  0.00000000000E+00 0. -1.
         -2   -1    0    0    0  501 -0.00000000000E+00 -0.00000000000E+00 -0.50752732597E+03  0.50752732597E+03  0.00000000000E+00 0.  1.
         23    2    1    2    0    0 -0.72001521775E+03  0.96092516111E+02  0.97960095080E+02  0.73862027384E+03  0.91148468162E+02 0.  0.
        254    2    1    2    0    0  0.72001521775E+03 -0.96092516111E+02  0.15987051462E+04  0.19730996193E+04  0.89978235036E+03 0.  0.
        -24    2    4    4    0    0  0.17689143103E+03 -0.26552782506E+03  0.65606377988E+02  0.33602584841E+03  0.82544349995E+02 0.  0.
         24    2    4    4    0    0  0.54312378672E+03  0.16943530895E+03  0.15330987682E+04  0.16370737709E+04  0.76986536833E+02 0.  0.
         13    1    3    3    0    0 -0.49251531940E+03  0.34496993189E+02  0.95739355872E+02  0.50291888674E+03  0.00000000000E+00 0. -1.
        -13    1    3    3    0    0 -0.22749989836E+03  0.61595522922E+02  0.22207392075E+01  0.23570138710E+03  0.00000000000E+00 0.  1.
          4    1    6    6  502    0  0.42540788546E+03  0.15015126380E+03  0.12825689311E+04  0.13595956509E+04  0.00000000000E+00 0. -1.
          3    1    5    5  503    0  0.15367008077E+03 -0.18520318688E+03  0.74544271256E+02  0.25193563173E+03  0.00000000000E+00 0. -1.
         -4    1    5    5    0  503  0.23221350254E+02 -0.80324638182E+02 -0.89378932677E+01  0.84090216689E+02  0.00000000000E+00 0.  1.
         -3    1    6    6    0  502  0.11771590126E+03  0.19284045153E+02  0.25052983711E+03  0.27747812002E+03  0.00000000000E+00 0.  1.
<mgrwt>
<rscale>  0 0.21153609E+04</rscale>
<asrwt>0</asrwt>
<pdfrwt beam="1">  1        2 0.33910654E+00 0.21153609E+04</pdfrwt>
<pdfrwt beam="2">  1       -2 0.78081129E-01 0.21153609E+04</pdfrwt>
<totfact> 0.68996979E+00</totfact>
</mgrwt>
</event>
<event>
12    1  0.2214165E-007  0.1838194E+04  0.7818608E-02  0.8686248E-01
          1   -1    0    0  501    0  0.00000000000E+00  0.00000000000E+00  0.13246805606E+04  0.13246805606E+04  0.00000000000E+00 0. -1.
         -1   -1    0    0    0  501 -0.00000000000E+00 -0.00000000000E+00 -0.63769298775E+03  0.63769298775E+03  0.00000000000E+00 0.  1.
         23    2    1    2    0    0  0.37665015065E+02 -0.69305620877E+03  0.25164117985E+03  0.74289374511E+03  0.82597041461E+02 0.  0.
        254    2    1    2    0    0 -0.37665015065E+02  0.69305620877E+03  0.43534639298E+03  0.12194798032E+04  0.90324910556E+03 0.  0.
        -24    2    4    4    0    0  0.15778712445E+03  0.61598749697E+03 -0.91224099698E+02  0.64750539033E+03  0.81265128278E+02 0.  0.
         24    2    4    4    0    0 -0.19545213952E+03  0.77068711798E+02  0.52657049268E+03  0.57197441289E+03  0.75743779014E+02 0.  0.
         11    1    3    3    0    0  0.21432400993E+02 -0.11491263027E+03  0.71900916728E+02  0.13723702938E+03  0.00000000000E+00 0. -1.
        -11    1    3    3    0    0  0.16232614072E+02 -0.57814357851E+03  0.17974026312E+03  0.60565671573E+03  0.00000000000E+00 0.  1.
          4    1    6    6  502    0 -0.77378668021E+01  0.21626505669E+02  0.10057664828E+03  0.10316609186E+03  0.00000000000E+00 0. -1.
          1    1    5    5  503    0  0.72354320168E+02  0.39960445280E+03 -0.84329316664E+02  0.41476535534E+03  0.00000000000E+00 0. -1.
         -2    1    5    5    0  503  0.85432804283E+02  0.21638304417E+03 -0.68947830343E+01  0.23274003499E+03  0.00000000000E+00 0.  1.
         -3    1    6    6    0  502 -0.18771427271E+03  0.55442206129E+02  0.42599384439E+03  0.46880832103E+03  0.00000000000E+00 0.  1.
<mgrwt>
<rscale>  0 0.18381942E+04</rscale>
<asrwt>0</asrwt>
<pdfrwt beam="1">  1        1 0.20379701E+00 0.18381942E+04</pdfrwt>
<pdfrwt beam="2">  1       -1 0.98106614E-01 0.18381942E+04</pdfrwt>
<totfact> 0.81339150E+00</totfact>
</mgrwt>
</event>
<event>
12    1  0.2214165E-007  0.2950357E+04  0.7818608E-02  0.8258050E-01
          1   -1    0    0  501    0  0.00000000000E+00  0.00000000000E+00  0.26558258022E+04  0.26558258022E+04  0.00000000000E+00 0. -1.
         -1   -1    0    0    0  501 -0.00000000000E+00 -0.00000000000E+00 -0.81938800063E+03  0.81938800063E+03  0.00000000000E+00 0.  1.
         23    2    1    2    0    0 -0.77745635571E+03  0.67965812693E+03  0.18343321851E+04  0.21068495247E+04  0.87560262669E+02 0.  0.
        254    2    1    2    0    0  0.77745635571E+03 -0.67965812693E+03  0.21056164831E+01  0.13683642782E+04  0.89779886934E+03 0.  0.
        -24    2    4    4    0    0  0.77328872995E+03 -0.68185697528E+03 -0.28281416318E+03  0.10720855975E+04  0.80493992433E+02 0.  0.
         24    2    4    4    0    0  0.41676257584E+01  0.21988483505E+01  0.28491977966E+03  0.29627868075E+03  0.81114559643E+02 0.  0.
         13    1    3    3    0    0 -0.49051604797E+03  0.40909441804E+03  0.12137764410E+04  0.13715748193E+04  0.00000000000E+00 0. -1.
        -13    1    3    3    0    0 -0.28694030774E+03  0.27056370889E+03  0.62055574412E+03  0.73527470535E+03  0.00000000000E+00 0.  1.
          2    1    6    6  502    0 -0.34596220698E+02 -0.54160210048E+01  0.76305539422E+02  0.83956936084E+02  0.00000000000E+00 0. -1.
          3    1    5    5  503    0  0.37703410380E+03 -0.31927560067E+03 -0.95127515072E+02  0.50313106517E+03  0.00000000000E+00 0. -1.
         -4    1    5    5    0  503  0.39625462614E+03 -0.36258137461E+03 -0.18768664811E+03  0.56895453231E+03  0.00000000000E+00 0.  1.
         -1    1    6    6    0  502  0.38763846457E+02  0.76148693553E+01  0.20861424024E+03  0.21232174467E+03  0.00000000000E+00 0.  1.
<mgrwt>
<rscale>  0 0.29503571E+04</rscale>
<asrwt>0</asrwt>
<pdfrwt beam="1">  1        1 0.40858858E+00 0.29503571E+04</pdfrwt>
<pdfrwt beam="2">  1       -1 0.12605969E+00 0.29503571E+04</pdfrwt>
<totfact> 0.49350977E-01</totfact>
</mgrwt>
</event>
<event>
12    1  0.2214165E-007  0.1738585E+04  0.7818608E-02  0.8739659E-01
          1   -1    0    0  501    0  0.00000000000E+00  0.00000000000E+00  0.20299061737E+04  0.20299061737E+04  0.00000000000E+00 0. -1.
         -1   -1    0    0    0  501 -0.00000000000E+00 -0.00000000000E+00 -0.37226835895E+03  0.37226835895E+03  0.00000000000E+00 0.  1.
         23    2    1    2    0    0 -0.28208453305E+03  0.39504707143E+03  0.11777154340E+04  0.12771897220E+04  0.92553066360E+02 0.  0.
        254    2    1    2    0    0  0.28208453305E+03 -0.39504707143E+03  0.47992238078E+03  0.11249848107E+04  0.89422114726E+03 0.  0.
        -24    2    4    4    0    0  0.17246604666E+03 -0.75285286221E+02 -0.24639181561E+03  0.31999753811E+03  0.79228063352E+02 0.  0.
         24    2    4    4    0    0  0.10961848639E+03 -0.31976178521E+03  0.72631419639E+03  0.80498727255E+03  0.78793307172E+02 0.  0.
         11    1    3    3    0    0 -0.84328766314E+02  0.80713091214E+02  0.20364460520E+03  0.23472764888E+03  0.00000000000E+00 0.  1.
        -11    1    3    3    0    0 -0.19775576673E+03  0.31433398022E+03  0.97407082878E+03  0.10424620731E+04  0.00000000000E+00 0. -1.
          2    1    6    6  502    0 -0.92879662110E+00 -0.85970784268E+02  0.14195571387E+03  0.16596163144E+03  0.00000000000E+00 0. -1.
          1    1    5    5  503    0  0.61791955498E+02  0.11588957275E+02 -0.64925068106E+02  0.90375960098E+02  0.00000000000E+00 0. -1.
         -2    1    5    5    0  503  0.11067409116E+03 -0.86874243495E+02 -0.18146674751E+03  0.22962157801E+03  0.00000000000E+00 0.  1.
         -1    1    6    6    0  502  0.11054728301E+03 -0.23379100094E+03  0.58435848252E+03  0.63902564111E+03  0.00000000000E+00 0.  1.
<mgrwt>
<rscale>  0 0.17385854E+04</rscale>
<asrwt>0</asrwt>
<pdfrwt beam="1">  1        1 0.31229325E+00 0.17385854E+04</pdfrwt>
<pdfrwt beam="2">  1       -1 0.57272056E-01 0.17385854E+04</pdfrwt>
<totfact> 0.83299308E+00</totfact>
</mgrwt>
</event>
<event>
12    1  0.2214165E-007  0.4004062E+04  0.7818608E-02  0.8003728E-01
          2   -1    0    0  501    0  0.00000000000E+00  0.00000000000E+00  0.18471924784E+04  0.18471924784E+04  0.00000000000E+00 0. -1.
         -2   -1    0    0    0  501 -0.00000000000E+00 -0.00000000000E+00 -0.21698486905E+04  0.21698486905E+04  0.00000000000E+00 0.  1.
         23    2    1    2    0    0  0.13100641910E+04 -0.91068709407E+03  0.88076063935E+03  0.18255553240E+04  0.10627214867E+03 0.  0.
        254    2    1    2    0    0 -0.13100641910E+04  0.91068709407E+03 -0.12034168514E+04  0.21914858449E+04  0.89932136756E+03 0.  0.
        -24    2    4    4    0    0 -0.73654315056E+03  0.96045106300E+03 -0.10111242202E+04  0.15791471142E+04  0.79820814862E+02 0.  0.
         24    2    4    4    0    0 -0.57352104040E+03 -0.49763968927E+02 -0.19229263121E+03  0.61233873066E+03  0.81113677467E+02 0.  0.
         11    1    3    3    0    0  0.11239818801E+04 -0.73515496055E+03  0.72989365922E+03  0.15285721562E+04  0.00000000000E+00 0.  1.
        -11    1    3    3    0    0  0.18608231084E+03 -0.17553213352E+03  0.15086698013E+03  0.29698316787E+03  0.00000000000E+00 0. -1.
          4    1    6    6  502    0 -0.16993973972E+03 -0.38242265169E+02 -0.27907687160E+02  0.17641095483E+03  0.00000000000E+00 0. -1.
          1    1    5    5  503    0 -0.44559592828E+03  0.52867263756E+03 -0.60707095418E+03  0.92010088165E+03  0.00000000000E+00 0. -1.
         -2    1    5    5    0  503 -0.29094722228E+03  0.43177842544E+03 -0.40405326605E+03  0.65904623254E+03  0.00000000000E+00 0.  1.
         -3    1    6    6    0  502 -0.40358130068E+03 -0.11521703758E+02 -0.16438494405E+03  0.43592777583E+03  0.00000000000E+00 0.  1.
<mgrwt>
<rscale>  0 0.40040620E+04</rscale>
<asrwt>0</asrwt>
<pdfrwt beam="1">  1        2 0.28418346E+00 0.40040620E+04</pdfrwt>
<pdfrwt beam="2">  1       -2 0.33382288E+00 0.40040620E+04</pdfrwt>
<totfact> 0.12588017E-01</totfact>
</mgrwt>
</event>
<event>
12    1  0.2214165E-007  0.1994642E+04  0.7818608E-02  0.8609130E-01
         -2   -1    0    0    0  501 -0.00000000000E+00  0.00000000000E+00  0.43679152539E+03  0.43679152539E+03  0.00000000000E+00 0. -1.
          2   -1    0    0  501    0  0.00000000000E+00 -0.00000000000E+00 -0.22771710116E+04  0.22771710116E+04  0.00000000000E+00 0.  1.
         23    2    1    2    0    0  0.51138457024E+03 -0.59573736996E+03 -0.63480348742E+03  0.10162087882E+04  0.11527203051E+03 0.  0.
        254    2    1    2    0    0 -0.51138457024E+03  0.59573736996E+03 -0.12055759988E+04  0.16977537487E+04  0.90140840348E+03 0.  0.
        -24    2    4    4    0    0  0.21606538611E+02  0.46206262637E+03 -0.99895274640E+03  0.11038210200E+04  0.80904520900E+02 0.  0.
         24    2    4    4    0    0 -0.53299110885E+03  0.13367474358E+03 -0.20662325236E+03  0.59393272870E+03  0.90080289830E+02 0.  0.
         11    1    3    3    0    0  0.20588122606E+03 -0.15992789382E+03 -0.19006451648E+03  0.32262754205E+03  0.00000000000E+00 0.  1.
        -11    1    3    3    0    0  0.30550334419E+03 -0.43580947614E+03 -0.44473897094E+03  0.69358124620E+03  0.00000000000E+00 0. -1.
          4    1    6    6  502    0 -0.29371478234E+03  0.10206845551E+03 -0.15364025035E+03  0.34683089468E+03  0.00000000000E+00 0. -1.
          1    1    5    5  503    0  0.25907457828E+02  0.24617021710E+03 -0.62128811073E+03  0.66878239263E+03  0.00000000000E+00 0. -1.
         -2    1    5    5    0  503 -0.43009192174E+01  0.21589240927E+03 -0.37766463567E+03  0.43503862739E+03  0.00000000000E+00 0.  1.
         -3    1    6    6    0  502 -0.23927632651E+03  0.31606288072E+02 -0.52983002012E+02  0.24710183402E+03  0.00000000000E+00 0.  1.
<mgrwt>
<rscale>  0 0.19946418E+04</rscale>
<asrwt>0</asrwt>
<pdfrwt beam="1">  1        2 0.35033400E+00 0.19946418E+04</pdfrwt>
<pdfrwt beam="2">  1       -2 0.67198696E-01 0.19946418E+04</pdfrwt>
<totfact> 0.88217563E+00</totfact>
</mgrwt>
</event>
<event>
12    1  0.3190564E-007  0.2222408E+04  0.7818608E-02  0.8509159E-01
         -2   -1    0    0    0  501 -0.00000000000E+00  0.00000000000E+00  0.99791902990E+03  0.99791902990E+03  0.00000000000E+00 0.  1.
          2   -1    0    0  501    0  0.00000000000E+00 -0.00000000000E+00 -0.12373488056E+04  0.12373488056E+04  0.00000000000E+00 0. -1.
         23    2    1    2    0    0  0.61971711656E+02  0.88902199004E+03 -0.35686054827E+03  0.96448062009E+03  0.93127996887E+02 0.  0.
        254    2    1    2    0    0 -0.61971711656E+02 -0.88902199004E+03  0.11743077253E+03  0.12707872155E+04  0.89828145300E+03 0.  0.
        -24    2    4    4    0    0 -0.62632981352E+02  0.17038076898E+03  0.63710043054E+02  0.20693562308E+03  0.76229165832E+02 0.  0.
         24    2    4    4    0    0  0.66126969511E+00 -0.10594027590E+04  0.53720729479E+02  0.10638515924E+04  0.80991670705E+02 0.  0.
         13    1    3    3    0    0  0.21624619628E+02  0.34478836840E+03 -0.18755144211E+03  0.39309310169E+03  0.00000000000E+00 0. -1.
        -13    1    3    3    0    0  0.40347092028E+02  0.54423362164E+03 -0.16930910615E+03  0.57138751840E+03  0.00000000000E+00 0.  1.
          4    1    6    6  502    0  0.12014810443E+02 -0.37210603063E+02  0.11360476581E+02  0.40719099676E+02  0.00000000000E+00 0. -1.
          1    1    5    5  503    0 -0.26125946260E+02  0.48926451434E+02 -0.15272981187E+02  0.57529354875E+02  0.00000000000E+00 0. -1.
         -2    1    5    5    0  503 -0.36507035091E+02  0.12145431754E+03  0.78983024241E+02  0.14940626821E+03  0.00000000000E+00 0.  1.
         -3    1    6    6    0  502 -0.11353540748E+02 -0.10221921560E+04  0.42360252898E+02  0.10231324927E+04  0.00000000000E+00 0.  1.
<mgrwt>
<rscale>  0 0.22224076E+04</rscale>
<asrwt>0</asrwt>
<pdfrwt beam="1">  1        2 0.19036136E+00 0.22224076E+04</pdfrwt>
<pdfrwt beam="2">  1       -2 0.15352600E+00 0.22224076E+04</pdfrwt>
<totfact> 0.46244186E+00</totfact>
</mgrwt>
</event>
<event>
12    1  0.2214165E-007  0.2485982E+04  0.7818608E-02  0.8407997E-01
         -2   -1    0    0    0  501 -0.00000000000E+00  0.00000000000E+00  0.15530876772E+04  0.15530876772E+04  0.00000000000E+00 0.  1.
          2   -1    0    0  501    0  0.00000000000E+00 -0.00000000000E+00 -0.99480930937E+03  0.99480930937E+03  0.00000000000E+00 0. -1.
         23    2    1    2    0    0  0.89109199068E+02  0.10720052341E+04  0.31541911115E+03  0.11247899016E+04  0.92344115787E+02 0.  0.
        254    2    1    2    0    0 -0.89109199068E+02 -0.10720052341E+04  0.24285925668E+03  0.14231070849E+04  0.89950958042E+03 0.  0.
        -24    2    4    4    0    0  0.83746507764E+02 -0.16110947052E+03  0.43021105506E+03  0.47376306439E+03  0.80000938944E+02 0.  0.
         24    2    4    4    0    0 -0.17285570683E+03 -0.91089576362E+03 -0.18735179838E+03  0.94934402055E+03  0.80889958776E+02 0.  0.
         11    1    3    3    0    0  0.18044960344E+02  0.62643539684E+02  0.97724373688E+00  0.65198072542E+02  0.00000000000E+00 0. -1.
        -11    1    3    3    0    0  0.71064238724E+02  0.10093616945E+04  0.31444186741E+03  0.10595918291E+04  0.00000000000E+00 0.  1.
          2    1    6    6  502    0 -0.17528592578E+03 -0.77289800276E+03 -0.15392526347E+03  0.80733479126E+03  0.00000000000E+00 0. -1.
          3    1    5    5  503    0  0.19188485977E+02 -0.53305347496E+01  0.13051119143E+02  0.23810592300E+02  0.00000000000E+00 0. -1.
         -2    1    5    5    0  503  0.64558021787E+02 -0.15577893577E+03  0.41715993592E+03  0.44995247209E+03  0.00000000000E+00 0.  1.
         -1    1    6    6    0  502  0.24302189511E+01 -0.13799776086E+03 -0.33426534914E+02  0.14200922929E+03  0.00000000000E+00 0.  1.
<mgrwt>
<rscale>  0 0.24859816E+04</rscale>
<asrwt>0</asrwt>
<pdfrwt beam="1">  1        2 0.15304759E+00 0.24859816E+04</pdfrwt>
<pdfrwt beam="2">  1       -2 0.23893656E+00 0.24859816E+04</pdfrwt>
<totfact> 0.17043380E+00</totfact>
</mgrwt>
</event>
<event>
12    1  0.2214165E-007  0.3074441E+04  0.7818608E-02  0.8222788E-01
         -2   -1    0    0    0  501 -0.00000000000E+00  0.00000000000E+00  0.11618205246E+04  0.11618205246E+04  0.00000000000E+00 0.  1.
          2   -1    0    0  501    0  0.00000000000E+00 -0.00000000000E+00 -0.20339173044E+04  0.20339173044E+04  0.00000000000E+00 0. -1.
         23    2    1    2    0    0 -0.75251371103E+03 -0.23885884733E+03  0.80791469606E+03  0.11335403720E+04  0.94112616882E+02 0.  0.
        254    2    1    2    0    0  0.75251371103E+03  0.23885884733E+03 -0.16800114758E+04  0.20621974570E+04  0.89827020351E+03 0.  0.
        -24    2    4    4    0    0  0.50856091652E+03 -0.11180883821E+02 -0.22188859807E+03  0.56079321208E+03  0.80593168391E+02 0.  0.
         24    2    4    4    0    0  0.24395279451E+03  0.25003973116E+03 -0.14581228777E+04  0.15014042449E+04  0.77843091721E+02 0.  0.
         13    1    3    3    0    0 -0.47040524129E+03 -0.13494283744E+03  0.56140564573E+03  0.74475966558E+03  0.00000000000E+00 0.  1.
        -13    1    3    3    0    0 -0.28210846974E+03 -0.10391600990E+03  0.24650905033E+03  0.38878070645E+03  0.00000000000E+00 0. -1.
          2    1    6    6  502    0  0.20341919684E+03  0.23879052340E+03 -0.12256004740E+04  0.12651074285E+04  0.00000000000E+00 0. -1.
          3    1    5    5  503    0  0.42018250383E+03  0.17328377184E+02 -0.19848384586E+03  0.46502628554E+03  0.00000000000E+00 0. -1.
         -4    1    5    5    0  503  0.88378412692E+02 -0.28509261005E+02 -0.23404752210E+02  0.95766926541E+02  0.00000000000E+00 0.  1.
         -1    1    6    6    0  502  0.40533597670E+02  0.11249207751E+02 -0.23252240374E+03  0.23629681643E+03  0.00000000000E+00 0.  1.
<mgrwt>
<rscale>  0 0.30744410E+04</rscale>
<asrwt>0</asrwt>
<pdfrwt beam="1">  1        2 0.31291035E+00 0.30744410E+04</pdfrwt>
<pdfrwt beam="2">  1       -2 0.17874162E+00 0.30744410E+04</pdfrwt>
<totfact> 0.10069470E+00</totfact>
</mgrwt>
</event>
<event>
12    1  0.2214165E-007  0.2667551E+04  0.7818608E-02  0.8345611E-01
         -1   -1    0    0    0  501 -0.00000000000E+00  0.00000000000E+00  0.71062003774E+03  0.71062003774E+03  0.00000000000E+00 0.  1.
          1   -1    0    0  501    0  0.00000000000E+00 -0.00000000000E+00 -0.25033870408E+04  0.25033870408E+04  0.00000000000E+00 0. -1.
         23    2    1    2    0    0  0.11011077820E+04  0.38274199964E+03 -0.57987198971E+03  0.13054362521E+04  0.94776040792E+02 0.  0.
        254    2    1    2    0    0 -0.11011077820E+04 -0.38274199964E+03 -0.12128950133E+04  0.19085708264E+04  0.90144245541E+03 0.  0.
        -24    2    4    4    0    0 -0.17440465965E+03 -0.30185731963E+03 -0.82180399295E+03  0.89624787714E+03  0.79772349393E+02 0.  0.
         24    2    4    4    0    0 -0.92670312233E+03 -0.80884680019E+02 -0.39109102036E+03  0.10123229493E+04  0.80774742884E+02 0.  0.
         11    1    3    3    0    0  0.77415487581E+03  0.25957041010E+03 -0.35793314231E+03  0.89152044502E+03  0.00000000000E+00 0.  1.
        -11    1    3    3    0    0  0.32695290618E+03  0.12317158954E+03 -0.22193884740E+03  0.41391580704E+03  0.00000000000E+00 0. -1.
          4    1    6    6  502    0 -0.77479051461E+03 -0.38098367301E+02 -0.31753608585E+03  0.83820104566E+03  0.00000000000E+00 0. -1.
          1    1    5    5  503    0 -0.14304932886E+03 -0.24883065547E+03 -0.74095906223E+03  0.79460690753E+03  0.00000000000E+00 0. -1.
         -2    1    5    5    0  503 -0.31355330792E+02 -0.53026664153E+02 -0.80844930717E+02  0.10164096961E+03  0.00000000000E+00 0.  1.
         -3    1    6    6    0  502 -0.15191260772E+03 -0.42786312718E+02 -0.73554934513E+02  0.17412190365E+03  0.00000000000E+00 0.  1.
<mgrwt>
<rscale>  0 0.26675509E+04</rscale>
<asrwt>0</asrwt>
<pdfrwt beam="1">  1        1 0.38513646E+00 0.26675509E+04</pdfrwt>
<pdfrwt beam="2">  1       -1 0.10932616E+00 0.26675509E+04</pdfrwt>
<totfact> 0.91318701E-01</totfact>
</mgrwt>
</event>
<event>
12    1  0.2214165E-007  0.1898892E+04  0.7818608E-02  0.8655408E-01
         -1   -1    0    0    0  501 -0.00000000000E+00  0.00000000000E+00  0.49386947455E+03  0.49386947455E+03  0.00000000000E+00 0.  1.
          1   -1    0    0  501    0  0.00000000000E+00 -0.00000000000E+00 -0.18252755838E+04  0.18252755838E+04  0.00000000000E+00 0. -1.
         23    2    1    2    0    0  0.23950218997E+03 -0.69143228302E+03 -0.44253708099E+03  0.86014499613E+03  0.92576699664E+02 0.  0.
        254    2    1    2    0    0 -0.23950218997E+03  0.69143228302E+03 -0.88886902823E+03  0.14590000622E+04  0.89618811146E+03 0.  0.
        -24    2    4    4    0    0 -0.38237820102E+02  0.62093047828E+03 -0.96388616434E+02  0.63441221120E+03  0.78557613204E+02 0.  0.
         24    2    4    4    0    0 -0.20126436987E+03  0.70501804737E+02 -0.79248041179E+03  0.82458785099E+03  0.80262506051E+02 0.  0.
         11    1    3    3    0    0  0.17181659038E+03 -0.39495145947E+03 -0.29569638773E+03  0.52244037916E+03  0.00000000000E+00 0. -1.
        -11    1    3    3    0    0  0.67685599595E+02 -0.29648082355E+03 -0.14684069326E+03  0.33770461697E+03  0.00000000000E+00 0.  1.
          4    1    6    6  502    0 -0.13368484983E+03  0.41489835857E+02 -0.64219322815E+03  0.65727101552E+03  0.00000000000E+00 0. -1.
          3    1    5    5  503    0  0.95133349220E+01  0.38851624562E+03 -0.78404692996E+02  0.39646270006E+03  0.00000000000E+00 0. -1.
         -4    1    5    5    0  503 -0.47751155024E+02  0.23241423266E+03 -0.17983923438E+02  0.23794951114E+03  0.00000000000E+00 0.  1.
         -3    1    6    6    0  502 -0.67579520036E+02  0.29011968880E+02 -0.15028718364E+03  0.16731683548E+03  0.00000000000E+00 0.  1.
<mgrwt>
<rscale>  0 0.18988922E+04</rscale>
<asrwt>0</asrwt>
<pdfrwt beam="1">  1        1 0.28081163E+00 0.18988922E+04</pdfrwt>
<pdfrwt beam="2">  1       -1 0.75979918E-01 0.18988922E+04</pdfrwt>
<totfact> 0.63746601E+00</totfact>
</mgrwt>
</event>
<event>
12    1  0.2214165E-007  0.1589257E+04  0.7818608E-02  0.8827175E-01
         -2   -1    0    0    0  501 -0.00000000000E+00  0.00000000000E+00  0.33427714495E+03  0.33427714495E+03  0.00000000000E+00 0.  1.
          2   -1    0    0  501    0  0.00000000000E+00 -0.00000000000E+00 -0.18889538204E+04  0.18889538204E+04  0.00000000000E+00 0. -1.
         23    2    1    2    0    0  0.14950758406E+03 -0.33035111578E+03  0.18545247819E+02  0.37482596589E+03  0.93092433083E+02 0.  0.
        254    2    1    2    0    0 -0.14950758406E+03  0.33035111578E+03 -0.15732219232E+04  0.18484049994E+04  0.90004969018E+03 0.  0.
        -24    2    4    4    0    0 -0.46140006033E+03 -0.27944922419E+02 -0.59423218433E+03  0.75731594504E+03  0.82125619378E+02 0.  0.
         24    2    4    4    0    0  0.31189247627E+03  0.35829603820E+03 -0.97898973890E+03  0.10910890544E+04  0.80009049471E+02 0.  0.
         11    1    3    3    0    0  0.11943618920E+03 -0.24530491300E+03 -0.26275571121E+02  0.27409835693E+03  0.00000000000E+00 0. -1.
        -11    1    3    3    0    0  0.30071394857E+02 -0.85046202785E+02  0.44820818940E+02  0.10072760896E+03  0.00000000000E+00 0.  1.
          2    1    6    6  502    0  0.61378960748E+02  0.11929753124E+03 -0.31091112844E+03  0.33862221954E+03  0.00000000000E+00 0. -1.
          3    1    5    5  503    0 -0.13343208422E+03 -0.42518607511E+02 -0.15400832046E+03  0.20815983247E+03  0.00000000000E+00 0. -1.
         -4    1    5    5    0  503 -0.32796797611E+03  0.14573685092E+02 -0.44022386387E+03  0.54915611257E+03  0.00000000000E+00 0.  1.
         -1    1    6    6    0  502  0.25051351552E+03  0.23899850697E+03 -0.66807861047E+03  0.75246683485E+03  0.00000000000E+00 0.  1.
<mgrwt>
<rscale>  0 0.15892565E+04</rscale>
<asrwt>0</asrwt>
<pdfrwt beam="1">  1        2 0.29060827E+00 0.15892565E+04</pdfrwt>
<pdfrwt beam="2">  1       -2 0.51427254E-01 0.15892565E+04</pdfrwt>
<totfact> 0.26404164E+01</totfact>
</mgrwt>
</event>
<event>
12    1  0.2214165E-007  0.3385706E+04  0.7818608E-02  0.8141424E-01
          2   -1    0    0  501    0  0.00000000000E+00  0.00000000000E+00  0.23518629917E+04  0.23518629917E+04  0.00000000000E+00 0.  1.
         -2   -1    0    0    0  501 -0.00000000000E+00 -0.00000000000E+00 -0.12185024423E+04  0.12185024423E+04  0.00000000000E+00 0. -1.
         23    2    1    2    0    0 -0.45823232526E+03  0.14733477008E+04  0.21247120794E+03  0.15601185381E+04  0.89975148068E+02 0.  0.
        254    2    1    2    0    0  0.45823232526E+03 -0.14733477008E+04  0.92088934149E+03  0.20102468960E+04  0.90129079227E+03 0.  0.
        -24    2    4    4    0    0  0.62690065333E+03 -0.61657308915E+03  0.28735435265E+03  0.92843709065E+03  0.79095536471E+02 0.  0.
         24    2    4    4    0    0 -0.16866832806E+03 -0.85677461163E+03  0.63353498884E+03  0.10818098053E+04  0.80213046466E+02 0.  0.
         13    1    3    3    0    0 -0.14692637902E+03  0.36999515524E+03  0.29632103157E+02  0.39920149961E+03  0.00000000000E+00 0. -1.
        -13    1    3    3    0    0 -0.31130594625E+03  0.11033525455E+04  0.18283910478E+03  0.11609170385E+04  0.00000000000E+00 0.  1.
          4    1    6    6  502    0 -0.13151106584E+03 -0.47700888795E+03  0.33934097739E+03  0.59998744867E+03  0.00000000000E+00 0. -1.
          1    1    5    5  503    0  0.15335444323E+03 -0.20019663839E+03  0.75830423471E+02  0.26333729779E+03  0.00000000000E+00 0. -1.
         -2    1    5    5    0  503  0.47354621010E+03 -0.41637645076E+03  0.21152392918E+03  0.66509979286E+03  0.00000000000E+00 0.  1.
         -3    1    6    6    0  502 -0.37157262220E+02 -0.37976572368E+03  0.29419401145E+03  0.48182235667E+03  0.00000000000E+00 0.  1.
<mgrwt>
<rscale>  0 0.33857057E+04</rscale>
<asrwt>0</asrwt>
<pdfrwt beam="1">  1        2 0.36182508E+00 0.33857057E+04</pdfrwt>
<pdfrwt beam="2">  1       -2 0.18746191E+00 0.33857057E+04</pdfrwt>
<totfact> 0.56638293E-01</totfact>
</mgrwt>
</event>
<event>
12    1  0.2214165E-007  0.1194200E+04  0.7818608E-02  0.9117949E-01
          1   -1    0    0  501    0  0.00000000000E+00  0.00000000000E+00  0.37492243572E+04  0.37492243572E+04  0.00000000000E+00 0. -1.
         -1   -1    0    0    0  501 -0.00000000000E+00 -0.00000000000E+00 -0.95093873217E+02  0.95093873217E+02  0.00000000000E+00 0.  1.
         23    2    1    2    0    0  0.11120449823E+03  0.97236877122E+02  0.14321831938E+04  0.14427261649E+04  0.92133792233E+02 0.  0.
        254    2    1    2    0    0 -0.11120449823E+03 -0.97236877122E+02  0.22219472902E+04  0.24015920655E+04  0.89931820730E+03 0.  0.
        -24    2    4    4    0    0 -0.36895187025E+03 -0.23575289566E+01  0.20116414510E+04  0.20467367114E+04  0.79364966524E+02 0.  0.
         24    2    4    4    0    0  0.25774737202E+03 -0.94879348165E+02  0.21030583918E+03  0.35485535409E+03  0.79107381687E+02 0.  0.
         11    1    3    3    0    0  0.38315454292E+02  0.57048106078E+02  0.10148253818E+04  0.10171495052E+04  0.00000000000E+00 0. -1.
        -11    1    3    3    0    0  0.72889043935E+02  0.40188771043E+02  0.41735781201E+03  0.42557665971E+03  0.00000000000E+00 0.  1.
          4    1    6    6  502    0  0.27421618583E+02 -0.14309168242E+01  0.55791769866E+02  0.62182909818E+02  0.00000000000E+00 0. -1.
          3    1    5    5  503    0 -0.32643488862E+02  0.10820260934E+02  0.10142874963E+03  0.10710026453E+03  0.00000000000E+00 0. -1.
         -4    1    5    5    0  503 -0.33630838139E+03 -0.13177789891E+02  0.19102127014E+04  0.19396364469E+04  0.00000000000E+00 0.  1.
         -3    1    6    6    0  502  0.23032575344E+03 -0.93448431341E+02  0.15451406932E+03  0.29267244427E+03  0.00000000000E+00 0.  1.
<mgrwt>
<rscale>  0 0.11941998E+04</rscale>
<asrwt>0</asrwt>
<pdfrwt beam="1">  1        1 0.57680363E+00 0.11941998E+04</pdfrwt>
<pdfrwt beam="2">  1       -1 0.14629830E-01 0.11941998E+04</pdfrwt>
<totfact> 0.54856388E+00</totfact>
</mgrwt>
</event>
<event>
12    1  0.2214165E-007  0.1396511E+04  0.7818608E-02  0.8956348E-01
          1   -1    0    0  501    0  0.00000000000E+00  0.00000000000E+00  0.55973266610E+03  0.55973266610E+03  0.00000000000E+00 0. -1.
         -1   -1    0    0    0  501 -0.00000000000E+00 -0.00000000000E+00 -0.87105954075E+03  0.87105954075E+03  0.00000000000E+00 0.  1.
         23    2    1    2    0    0 -0.11144491952E+03 -0.27831643992E+03  0.18072116131E+03  0.36142654059E+03  0.89938841885E+02 0.  0.
        254    2    1    2    0    0  0.11144491952E+03  0.27831643992E+03 -0.49204803595E+03  0.10693656663E+04  0.90086161406E+03 0.  0.
        -24    2    4    4    0    0  0.37506853336E+03 -0.16330659879E+03 -0.13047112032E+03  0.43674334545E+03  0.79853532352E+02 0.  0.
         24    2    4    4    0    0 -0.26362361384E+03  0.44162303871E+03 -0.36157691563E+03  0.63262232081E+03  0.70319391235E+02 0.  0.
         11    1    3    3    0    0 -0.10157660461E+03 -0.27545813408E+03  0.15134033845E+03  0.33030120841E+03  0.00000000000E+00 0. -1.
        -11    1    3    3    0    0 -0.98683149110E+01 -0.28583058446E+01  0.29380822861E+02  0.31125332183E+02  0.00000000000E+00 0.  1.
          4    1    6    6  502    0 -0.11854095091E+03  0.24828023071E+03 -0.16296898554E+03  0.31977166893E+03  0.00000000000E+00 0. -1.
          3    1    5    5  503    0  0.20915045911E+02 -0.33724075070E+02 -0.12169450843E+02  0.41507203213E+02  0.00000000000E+00 0. -1.
         -4    1    5    5    0  503  0.35415348745E+03 -0.12958252372E+03 -0.11830166948E+03  0.39523614224E+03  0.00000000000E+00 0.  1.
         -1    1    6    6    0  502 -0.14508266293E+03  0.19334280799E+03 -0.19860793009E+03  0.31285065188E+03  0.00000000000E+00 0.  1.
<mgrwt>
<rscale>  0 0.13965106E+04</rscale>
<asrwt>0</asrwt>
<pdfrwt beam="1">  1        1 0.86112719E-01 0.13965106E+04</pdfrwt>
<pdfrwt beam="2">  1       -1 0.13400916E+00 0.13965106E+04</pdfrwt>
<totfact> 0.17327657E+01</totfact>
</mgrwt>
</event>
<event>
12    1  0.2214165E-007  0.1375478E+04  0.7818608E-02  0.8971763E-01
         -1   -1    0    0    0  501 -0.00000000000E+00  0.00000000000E+00  0.51500059695E+03  0.51500059695E+03  0.00000000000E+00 0.  1.
          1   -1    0    0  501    0  0.00000000000E+00 -0.00000000000E+00 -0.91841581956E+03  0.91841581956E+03  0.00000000000E+00 0. -1.
         23    2    1    2    0    0  0.28656971647E+03  0.24569693818E+03 -0.44568453372E+02  0.39127509056E+03  0.92847518171E+02 0.  0.
        254    2    1    2    0    0 -0.28656971647E+03 -0.24569693818E+03 -0.35884676924E+03  0.10421413259E+04  0.90266181465E+03 0.  0.
        -24    2    4    4    0    0  0.16328533554E+02 -0.19921119595E+03  0.26546092905E+03  0.34205158793E+03  0.81105254799E+02 0.  0.
         24    2    4    4    0    0 -0.30289825002E+03 -0.46485742226E+02 -0.62430769828E+03  0.70008973802E+03  0.80357109484E+02 0.  0.
         13    1    3    3    0    0  0.49778571633E+02  0.13550470599E+02 -0.29275095510E+02  0.59317389224E+02  0.00000000000E+00 0. -1.
        -13    1    3    3    0    0  0.23679114483E+03  0.23214646758E+03 -0.15293357862E+02  0.33195770133E+03  0.00000000000E+00 0.  1.
          4    1    6    6  502    0 -0.25631167246E+03 -0.38830900633E+02 -0.58019831986E+03  0.63547903400E+03  0.00000000000E+00 0. -1.
          3    1    5    5  503    0  0.23136202980E+01 -0.11945729703E+03  0.21690030572E+03  0.24763105879E+03  0.00000000000E+00 0. -1.
         -4    1    5    5    0  503  0.14014913256E+02 -0.79753898918E+02  0.48560623322E+02  0.94420529143E+02  0.00000000000E+00 0.  1.
         -3    1    6    6    0  502 -0.46586577565E+02 -0.76548415930E+01 -0.44109378422E+02  0.64610704019E+02  0.00000000000E+00 0.  1.
<mgrwt>
<rscale>  0 0.13754777E+04</rscale>
<asrwt>0</asrwt>
<pdfrwt beam="1">  1        1 0.14129474E+00 0.13754777E+04</pdfrwt>
<pdfrwt beam="2">  1       -1 0.79230862E-01 0.13754777E+04</pdfrwt>
<totfact> 0.27349975E+01</totfact>
</mgrwt>
</event>
<event>
12    1  0.2214165E-007  0.1777785E+04  0.7818608E-02  0.8718203E-01
          1   -1    0    0  501    0  0.00000000000E+00  0.00000000000E+00  0.10393279348E+04  0.10393279348E+04  0.00000000000E+00 0. -1.
         -1   -1    0    0    0  501 -0.00000000000E+00 -0.00000000000E+00 -0.76023155330E+03  0.76023155330E+03  0.00000000000E+00 0.  1.
         23    2    1    2    0    0 -0.62803438797E+03  0.18437874318E+03  0.50530956977E+02  0.66287198602E+03  0.91777877641E+02 0.  0.
        254    2    1    2    0    0  0.62803438797E+03 -0.18437874318E+03  0.22856542450E+03  0.11366875021E+04  0.90077389542E+03 0.  0.
        -24    2    4    4    0    0  0.57781255194E+03  0.11213678515E+03 -0.18315417794E+03  0.62131053985E+03  0.77713128027E+02 0.  0.
         24    2    4    4    0    0  0.50221836036E+02 -0.29651552833E+03  0.41171960244E+03  0.51537696222E+03  0.75210975248E+02 0.  0.
         11    1    3    3    0    0 -0.14148992413E+03  0.75894245166E+02  0.33919139130E+02  0.16410314768E+03  0.00000000000E+00 0. -1.
        -11    1    3    3    0    0 -0.48654446384E+03  0.10848449801E+03  0.16611817847E+02  0.49876883834E+03  0.00000000000E+00 0.  1.
          2    1    6    6  502    0 -0.19146196048E+02 -0.59258719776E+02  0.95434351646E+02  0.11395564122E+03  0.00000000000E+00 0. -1.
          3    1    5    5  503    0  0.76404965132E+02  0.31586748265E+02 -0.39083926207E+01  0.82769057598E+02  0.00000000000E+00 0. -1.
         -2    1    5    5    0  503  0.50140758681E+03  0.80550036887E+02 -0.17924578532E+03  0.53854148225E+03  0.00000000000E+00 0.  1.
         -1    1    6    6    0  502  0.69368032084E+02 -0.23725680855E+03  0.31628525079E+03  0.40142132099E+03  0.00000000000E+00 0.  1.
<mgrwt>
<rscale>  0 0.17777850E+04</rscale>
<asrwt>0</asrwt>
<pdfrwt beam="1">  1        1 0.15989660E+00 0.17777850E+04</pdfrwt>
<pdfrwt beam="2">  1       -1 0.11695870E+00 0.17777850E+04</pdfrwt>
<totfact> 0.87884135E+00</totfact>
</mgrwt>
</event>
<event>
12    1  0.2214165E-007  0.2696031E+04  0.7818608E-02  0.8336294E-01
          1   -1    0    0  501    0  0.00000000000E+00  0.00000000000E+00  0.18657138797E+04  0.18657138797E+04  0.00000000000E+00 0. -1.
         -1   -1    0    0    0  501 -0.00000000000E+00 -0.00000000000E+00 -0.97396791334E+03  0.97396791334E+03  0.00000000000E+00 0.  1.
         23    2    1    2    0    0 -0.89268759266E+03 -0.80201066264E+03  0.43962514636E+03  0.12812266604E+04  0.90328538368E+02 0.  0.
        254    2    1    2    0    0  0.89268759266E+03  0.80201066264E+03  0.45212081998E+03  0.15584551327E+04  0.88558281576E+03 0.  0.
        -24    2    4    4    0    0  0.81169955637E+03  0.97176645070E+03  0.47370020457E+03  0.13542270811E+04  0.79705074307E+02 0.  0.
         24    2    4    4    0    0  0.80988036294E+02 -0.16975578807E+03 -0.21579384587E+02  0.20422805155E+03  0.76598548261E+02 0.  0.
         11    1    3    3    0    0 -0.78991845617E+03 -0.72853015737E+03  0.36712233510E+03  0.11355642503E+04  0.00000000000E+00 0. -1.
        -11    1    3    3    0    0 -0.10276913650E+03 -0.73480505263E+02  0.72502811264E+02  0.14566241008E+03  0.00000000000E+00 0.  1.
          2    1    6    6  502    0  0.84796319350E+02 -0.13207274541E+03 -0.40208415765E+02  0.16201957460E+03  0.00000000000E+00 0. -1.
          1    1    5    5  503    0  0.64825961683E+03  0.76459275733E+03  0.40814931424E+03  0.10823254954E+04  0.00000000000E+00 0. -1.
         -2    1    5    5    0  503  0.16343993954E+03  0.20717369337E+03  0.65550890329E+02  0.27190158567E+03  0.00000000000E+00 0.  1.
         -1    1    6    6    0  502 -0.38082830566E+01 -0.37683042658E+02  0.18629031178E+02  0.42208476950E+02  0.00000000000E+00 0.  1.
<mgrwt>
<rscale>  0 0.26960308E+04</rscale>
<asrwt>0</asrwt>
<pdfrwt beam="1">  1        1 0.28703290E+00 0.26960308E+04</pdfrwt>
<pdfrwt beam="2">  1       -1 0.14984122E+00 0.26960308E+04</pdfrwt>
<totfact> 0.11233807E+00</totfact>
</mgrwt>
</event>
<event>
12    1  0.2214165E-007  0.1897821E+04  0.7818608E-02  0.8655942E-01
          2   -1    0    0  501    0  0.00000000000E+00  0.00000000000E+00  0.14355279560E+04  0.14355279560E+04  0.00000000000E+00 0. -1.
         -2   -1    0    0    0  501 -0.00000000000E+00 -0.00000000000E+00 -0.62724732680E+03  0.62724732680E+03  0.00000000000E+00 0.  1.
         23    2    1    2    0    0  0.12479093967E+03 -0.70307857894E+02  0.10939815877E+04  0.11072068159E+04  0.92710545934E+02 0.  0.
        254    2    1    2    0    0 -0.12479093967E+03  0.70307857894E+02 -0.28570095855E+03  0.95556846691E+03  0.90053877414E+03 0.  0.
        -24    2    4    4    0    0 -0.15464717120E+03 -0.29045684432E+03  0.16101404387E+03  0.37489272983E+03  0.79612251489E+02 0.  0.
         24    2    4    4    0    0  0.29856231531E+02  0.36076470222E+03 -0.44671500241E+03  0.58067573708E+03  0.81163127861E+02 0.  0.
         13    1    3    3    0    0  0.74800230395E+02 -0.30556819227E+02  0.30097482825E+03  0.31163222058E+03  0.00000000000E+00 0.  1.
        -13    1    3    3    0    0  0.49990709274E+02 -0.39751038667E+02  0.79300675946E+03  0.79557459527E+03  0.00000000000E+00 0. -1.
          4    1    6    6  502    0 -0.17970671703E+02  0.54010393686E+02 -0.42723811302E+02  0.71171565388E+02  0.00000000000E+00 0. -1.
          1    1    5    5  503    0  0.50847791518E+00 -0.52428327193E+02  0.40536874976E+02  0.66273873245E+02  0.00000000000E+00 0. -1.
         -2    1    5    5    0  503 -0.15515564912E+03 -0.23802851713E+03  0.12047716889E+03  0.30861885659E+03  0.00000000000E+00 0.  1.
         -3    1    6    6    0  502  0.47826903234E+02  0.30675430853E+03 -0.40399119111E+03  0.50950417169E+03  0.00000000000E+00 0.  1.
<mgrwt>
<rscale>  0 0.18978209E+04</rscale>
<asrwt>0</asrwt>
<pdfrwt beam="1">  1        2 0.22085045E+00 0.18978209E+04</pdfrwt>
<pdfrwt beam="2">  1       -2 0.96499589E-01 0.18978209E+04</pdfrwt>
<totfact> 0.11623128E+01</totfact>
</mgrwt>
</event>
<event>
12    1  0.2214165E-007  0.2101328E+04  0.7818608E-02  0.8560658E-01
          2   -1    0    0  501    0  0.00000000000E+00  0.00000000000E+00  0.18434951961E+04  0.18434951961E+04  0.00000000000E+00 0. -1.
         -2   -1    0    0    0  501 -0.00000000000E+00 -0.00000000000E+00 -0.59880557605E+03  0.59880557605E+03  0.00000000000E+00 0.  1.
         23    2    1    2    0    0 -0.13034863446E+03 -0.80888035156E+03  0.22349340299E+03  0.85415962806E+03  0.91439484817E+02 0.  0.
        254    2    1    2    0    0  0.13034863446E+03  0.80888035156E+03  0.10211962171E+04  0.15881411441E+04  0.89892846779E+03 0.  0.
        -24    2    4    4    0    0 -0.24716735926E+03  0.13749375014E+03 -0.15050568530E+02  0.29451208173E+03  0.80713145522E+02 0.  0.
         24    2    4    4    0    0  0.37751599373E+03  0.67138660142E+03  0.10362467856E+04  0.12936290624E+04  0.79940329418E+02 0.  0.
         13    1    3    3    0    0 -0.12923492150E+03 -0.53063775563E+03  0.14615314174E+03  0.56536610570E+03  0.00000000000E+00 0. -1.
        -13    1    3    3    0    0 -0.11137129585E+01 -0.27824259593E+03  0.77340261255E+02  0.28879352236E+03  0.00000000000E+00 0.  1.
          4    1    6    6  502    0  0.13872651844E+02  0.18503983838E+02  0.59095436030E+02  0.63459581205E+02  0.00000000000E+00 0. -1.
          1    1    5    5  503    0 -0.86936052968E+02  0.45318723970E+02  0.33127522190E+02  0.10348476590E+03  0.00000000000E+00 0. -1.
         -2    1    5    5    0  503 -0.16023130629E+03  0.92175026173E+02 -0.48178090720E+02  0.19102731583E+03  0.00000000000E+00 0.  1.
         -3    1    6    6    0  502  0.36364334188E+03  0.65288261758E+03  0.97715134960E+03  0.12301694812E+04  0.00000000000E+00 0.  1.
<mgrwt>
<rscale>  0 0.21013283E+04</rscale>
<asrwt>0</asrwt>
<pdfrwt beam="1">  1        2 0.28361464E+00 0.21013283E+04</pdfrwt>
<pdfrwt beam="2">  1       -2 0.92123936E-01 0.21013283E+04</pdfrwt>
<totfact> 0.75300203E+00</totfact>
</mgrwt>
</event>
<event>
12    1  0.2214165E-007  0.1955657E+04  0.7818608E-02  0.8627638E-01
         -2   -1    0    0    0  501 -0.00000000000E+00  0.00000000000E+00  0.58166604863E+03  0.58166604863E+03  0.00000000000E+00 0.  1.
          2   -1    0    0  501    0  0.00000000000E+00 -0.00000000000E+00 -0.16438105677E+04  0.16438105677E+04  0.00000000000E+00 0. -1.
         23    2    1    2    0    0  0.41884389383E+03 -0.59898364770E+03 -0.15517559509E+03  0.75244276825E+03  0.88763937396E+02 0.  0.
        254    2    1    2    0    0 -0.41884389383E+03  0.59898364770E+03 -0.90696892395E+03  0.14730338481E+04  0.90167869604E+03 0.  0.
        -24    2    4    4    0    0 -0.28579132672E+03  0.10471005287E+03 -0.90119317696E+03  0.95461659245E+03  0.80640056947E+02 0.  0.
         24    2    4    4    0    0 -0.13305256710E+03  0.49427359483E+03 -0.57757469908E+01  0.51841725560E+03  0.81937290031E+02 0.  0.
         13    1    3    3    0    0  0.18279643674E+03 -0.20525519663E+03 -0.87318178949E+02  0.28838983582E+03  0.00000000000E+00 0. -1.
        -13    1    3    3    0    0  0.23604745709E+03 -0.39372845107E+03 -0.67857416145E+02  0.46405293244E+03  0.00000000000E+00 0.  1.
          4    1    6    6  502    0 -0.70696931724E+02  0.12755310835E+03  0.92671011094E+01  0.14612915783E+03  0.00000000000E+00 0. -1.
          1    1    5    5  503    0 -0.55168790574E+02  0.41949005128E+02 -0.13118651621E+03  0.14836851593E+03  0.00000000000E+00 0. -1.
         -2    1    5    5    0  503 -0.23062253615E+03  0.62761047741E+02 -0.77000666074E+03  0.80624807651E+03  0.00000000000E+00 0.  1.
         -1    1    6    6    0  502 -0.62355635380E+02  0.36672048647E+03 -0.15042848100E+02  0.37228809777E+03  0.00000000000E+00 0.  1.
<mgrwt>
<rscale>  0 0.19556572E+04</rscale>
<asrwt>0</asrwt>
<pdfrwt beam="1">  1        2 0.25289393E+00 0.19556572E+04</pdfrwt>
<pdfrwt beam="2">  1       -2 0.89487085E-01 0.19556572E+04</pdfrwt>
<totfact> 0.10524004E+01</totfact>
</mgrwt>
</event>
<event>
12    1  0.2214165E-007  0.2266550E+04  0.7818608E-02  0.8491228E-01
         -4   -1    0    0    0  501 -0.00000000000E+00  0.00000000000E+00  0.72742899162E+03  0.72742899162E+03  0.00000000000E+00 0.  1.
          4   -1    0    0  501    0  0.00000000000E+00 -0.00000000000E+00 -0.17655507019E+04  0.17655507019E+04  0.00000000000E+00 0. -1.
         23    2    1    2    0    0 -0.91651053146E+03  0.22146239710E+03 -0.49714293325E+03  0.10698120494E+04  0.91156883695E+02 0.  0.
        254    2    1    2    0    0  0.91651053146E+03 -0.22146239710E+03 -0.54097877703E+03  0.14231676441E+04  0.91853740171E+03 0.  0.
        -24    2    4    4    0    0 -0.65131519894E+01  0.12976082678E+03  0.15210354327E+03  0.21403057128E+03  0.76113758633E+02 0.  0.
         24    2    4    4    0    0  0.92302368345E+03 -0.35122322388E+03 -0.69308232030E+03  0.12091370728E+04  0.79491413962E+02 0.  0.
         13    1    3    3    0    0 -0.26700625071E+03  0.80758006855E+02 -0.19128364791E+03  0.33823605300E+03  0.00000000000E+00 0. -1.
        -13    1    3    3    0    0 -0.64950428074E+03  0.14070439025E+03 -0.30585928534E+03  0.73157599644E+03  0.00000000000E+00 0.  1.
          2    1    6    6  502    0  0.70999135827E+03 -0.24165925249E+03 -0.49898746397E+03  0.90081930060E+03  0.00000000000E+00 0. -1.
          3    1    5    5  503    0 -0.33461241624E+02  0.42857186073E+02  0.85292468393E+02  0.10114938583E+03  0.00000000000E+00 0. -1.
         -4    1    5    5    0  503  0.26948089635E+02  0.86903640710E+02  0.66811074874E+02  0.11288118545E+03  0.00000000000E+00 0.  1.
         -1    1    6    6    0  502  0.21303232518E+03 -0.10956397139E+03 -0.19409485633E+03  0.30831777219E+03  0.00000000000E+00 0.  1.
<mgrwt>
<rscale>  0 0.22665505E+04</rscale>
<asrwt>0</asrwt>
<pdfrwt beam="1">  1        4 0.27162319E+00 0.22665505E+04</pdfrwt>
<pdfrwt beam="2">  1       -4 0.11191215E+00 0.22665505E+04</pdfrwt>
<totfact> 0.52966536E-02</totfact>
</mgrwt>
</event>
<event>
12    1  0.2214165E-007  0.1896149E+04  0.7818608E-02  0.8656776E-01
          2   -1    0    0  501    0  0.00000000000E+00  0.00000000000E+00  0.18234818096E+04  0.18234818096E+04  0.00000000000E+00 0. -1.
         -2   -1    0    0    0  501 -0.00000000000E+00 -0.00000000000E+00 -0.49292800291E+03  0.49292800291E+03  0.00000000000E+00 0.  1.
         23    2    1    2    0    0 -0.30526684872E+03 -0.47964867647E+03 -0.35725466744E+02  0.57690914880E+03  0.91088721785E+02 0.  0.
        254    2    1    2    0    0  0.30526684872E+03  0.47964867647E+03  0.13662792734E+04  0.17395006637E+04  0.91427173434E+03 0.  0.
        -24    2    4    4    0    0  0.58871567312E+03  0.11308253748E+03  0.72244119471E+03  0.94221242817E+03  0.80431187439E+02 0.  0.
         24    2    4    4    0    0 -0.28344882440E+03  0.36656613898E+03  0.64383807869E+03  0.79728823550E+03  0.80169124924E+02 0.  0.
         11    1    3    3    0    0 -0.53845863059E+02 -0.16040020143E+03 -0.29120701755E+01  0.16922198953E+03  0.00000000000E+00 0. -1.
        -11    1    3    3    0    0 -0.25142098566E+03 -0.31924847504E+03 -0.32813396568E+02  0.40768715927E+03  0.00000000000E+00 0.  1.
          2    1    6    6  502    0 -0.26952453882E+03  0.36780894115E+03  0.62906867415E+03  0.77695192324E+03  0.00000000000E+00 0. -1.
          3    1    5    5  503    0  0.51244205170E+03  0.12470836388E+03  0.62012665730E+03  0.81406762831E+03  0.00000000000E+00 0. -1.
         -4    1    5    5    0  503  0.76273621425E+02 -0.11625826394E+02  0.10231453741E+03  0.12814479986E+03  0.00000000000E+00 0.  1.
         -1    1    6    6    0  502 -0.13924285582E+02 -0.12428021677E+01  0.14769404541E+02  0.20336312269E+02  0.00000000000E+00 0.  1.
<mgrwt>
<rscale>  0 0.18961490E+04</rscale>
<asrwt>0</asrwt>
<pdfrwt beam="1">  1        2 0.28053566E+00 0.18961490E+04</pdfrwt>
<pdfrwt beam="2">  1       -2 0.75835078E-01 0.18961490E+04</pdfrwt>
<totfact> 0.12221102E+01</totfact>
</mgrwt>
</event>
<event>
12    1  0.2214165E-007  0.2723724E+04  0.7818608E-02  0.8327348E-01
         -2   -1    0    0    0  501 -0.00000000000E+00  0.00000000000E+00  0.87187769683E+03  0.87187769683E+03  0.00000000000E+00 0.  1.
          2   -1    0    0  501    0  0.00000000000E+00 -0.00000000000E+00 -0.21272114884E+04  0.21272114884E+04  0.00000000000E+00 0. -1.
         23    2    1    2    0    0 -0.78490127042E+03 -0.42708136325E+03 -0.14614409601E+04  0.17152873940E+04  0.89065532278E+02 0.  0.
        254    2    1    2    0    0  0.78490127042E+03  0.42708136325E+03  0.20610716858E+03  0.12838017912E+04  0.89844219566E+03 0.  0.
        -24    2    4    4    0    0  0.55389742199E+02 -0.22174338162E+03  0.18418197374E+03  0.30402832726E+03  0.79196423492E+02 0.  0.
         24    2    4    4    0    0  0.72951152822E+03  0.64882474487E+03  0.21925194841E+02  0.97977346391E+03  0.79465131040E+02 0.  0.
         11    1    3    3    0    0 -0.59981031306E+03 -0.29039357123E+03 -0.11284450134E+04  0.13105300402E+04  0.00000000000E+00 0. -1.
        -11    1    3    3    0    0 -0.18509095736E+03 -0.13668779202E+03 -0.33299594669E+03  0.40475735385E+03  0.00000000000E+00 0.  1.
          2    1    6    6  502    0  0.43716185268E+03  0.42119923585E+03 -0.16413628129E+02  0.60727974518E+03  0.00000000000E+00 0. -1.
          3    1    5    5  503    0  0.54475883926E+02 -0.22270854683E+03  0.15946885765E+03  0.27927949320E+03  0.00000000000E+00 0. -1.
         -4    1    5    5    0  503  0.91385827296E+00  0.96516520689E+00  0.24713116088E+02  0.24748834065E+02  0.00000000000E+00 0.  1.
         -3    1    6    6    0  502  0.29234967554E+03  0.22762550902E+03  0.38338822970E+02  0.37249371873E+03  0.00000000000E+00 0.  1.
<mgrwt>
<rscale>  0 0.27237241E+04</rscale>
<asrwt>0</asrwt>
<pdfrwt beam="1">  1        2 0.32726331E+00 0.27237241E+04</pdfrwt>
<pdfrwt beam="2">  1       -2 0.13413503E+00 0.27237241E+04</pdfrwt>
<totfact> 0.19922149E+00</totfact>
</mgrwt>
</event>
<event>
12    1  0.2214165E-007  0.1140066E+04  0.7818608E-02  0.9166997E-01
          1   -1    0    0  501    0  0.00000000000E+00  0.00000000000E+00  0.94290443293E+03  0.94290443293E+03  0.00000000000E+00 0. -1.
         -1   -1    0    0    0  501 -0.00000000000E+00 -0.00000000000E+00 -0.34461362725E+03  0.34461362725E+03  0.00000000000E+00 0.  1.
         23    2    1    2    0    0  0.18706545505E+03  0.69887340802E+02  0.13176896335E+03  0.25482501555E+03  0.87721171739E+02 0.  0.
        254    2    1    2    0    0 -0.18706545505E+03 -0.69887340802E+02  0.46652184233E+03  0.10326930446E+04  0.89940789977E+03 0.  0.
        -24    2    4    4    0    0 -0.51762627326E+03  0.68239838715E+01  0.11136045835E+03  0.53555460691E+03  0.80212591154E+02 0.  0.
         24    2    4    4    0    0  0.33056081821E+03 -0.76711324673E+02  0.35516138398E+03  0.49713843772E+03  0.76497945843E+02 0.  0.
         13    1    3    3    0    0  0.14844039684E+02  0.91835501662E+01  0.53276841776E+02  0.56063401408E+02  0.00000000000E+00 0. -1.
        -13    1    3    3    0    0  0.17222141537E+03  0.60703790636E+02  0.78492121578E+02  0.19876161415E+03  0.00000000000E+00 0.  1.
          4    1    6    6  502    0  0.90480747854E+02 -0.54787721668E+02  0.91304908559E+02  0.13973205253E+03  0.00000000000E+00 0. -1.
          3    1    5    5  503    0 -0.13783187545E+03 -0.18004950709E+02  0.36616641681E-01  0.13900289739E+03  0.00000000000E+00 0. -1.
         -4    1    5    5    0  503 -0.37979439780E+03  0.24828934580E+02  0.11132384171E+03  0.39655170953E+03  0.00000000000E+00 0.  1.
         -3    1    6    6    0  502  0.24008007035E+03 -0.21923603005E+02  0.26385647542E+03  0.35740638519E+03  0.00000000000E+00 0.  1.
<mgrwt>
<rscale>  0 0.11400662E+04</rscale>
<asrwt>0</asrwt>
<pdfrwt beam="1">  1        1 0.14506222E+00 0.11400662E+04</pdfrwt>
<pdfrwt beam="2">  1       -1 0.53017481E-01 0.11400662E+04</pdfrwt>
<totfact> 0.59858073E+01</totfact>
</mgrwt>
</event>
<event>
12    1  0.2214165E-007  0.2085271E+04  0.7818608E-02  0.8567760E-01
         -1   -1    0    0    0  501 -0.00000000000E+00  0.00000000000E+00  0.82697619584E+03  0.82697619584E+03  0.00000000000E+00 0.  1.
          1   -1    0    0  501    0  0.00000000000E+00 -0.00000000000E+00 -0.13145344988E+04  0.13145344988E+04  0.00000000000E+00 0. -1.
         23    2    1    2    0    0  0.62521885806E+03 -0.32614614447E+03  0.27941957338E+03  0.76440225887E+03  0.94686785496E+02 0.  0.
        254    2    1    2    0    0 -0.62521885806E+03  0.32614614447E+03 -0.76697787633E+03  0.13771084358E+04  0.90050133429E+03 0.  0.
        -24    2    4    4    0    0  0.78264088552E+02 -0.18283945687E+03  0.21559537558E+01  0.21424458792E+03  0.79627638251E+02 0.  0.
         24    2    4    4    0    0 -0.70348294662E+03  0.50898560134E+03 -0.76913383008E+03  0.11628638478E+04  0.82041949583E+02 0.  0.
         13    1    3    3    0    0  0.30010468005E+03 -0.19758803239E+03  0.10907249821E+03  0.37550054514E+03  0.00000000000E+00 0. -1.
        -13    1    3    3    0    0  0.32511417801E+03 -0.12855811208E+03  0.17034707517E+03  0.38890171373E+03  0.00000000000E+00 0.  1.
          4    1    6    6  502    0 -0.16081295180E+03  0.16037693360E+03 -0.20640763350E+03  0.30689685150E+03  0.00000000000E+00 0. -1.
          3    1    5    5  503    0  0.19013011289E+02 -0.67907115245E+02 -0.36337528325E+02  0.79330239278E+02  0.00000000000E+00 0. -1.
         -4    1    5    5    0  503  0.59251077263E+02 -0.11493234162E+03  0.38493482081E+02  0.13491434865E+03  0.00000000000E+00 0.  1.
         -3    1    6    6    0  502 -0.54266999481E+03  0.34860866774E+03 -0.56272619659E+03  0.85596699634E+03  0.00000000000E+00 0.  1.
<mgrwt>
<rscale>  0 0.20852710E+04</rscale>
<asrwt>0</asrwt>
<pdfrwt beam="1">  1        1 0.20223607E+00 0.20852710E+04</pdfrwt>
<pdfrwt beam="2">  1       -1 0.12722711E+00 0.20852710E+04</pdfrwt>
<totfact> 0.43550066E+00</totfact>
</mgrwt>
</event>
<event>
12    1  0.2214165E-007  0.2541074E+04  0.7818608E-02  0.8388497E-01
         -1   -1    0    0    0  501 -0.00000000000E+00  0.00000000000E+00  0.45516306836E+03  0.45516306836E+03  0.00000000000E+00 0.  1.
          1   -1    0    0  501    0  0.00000000000E+00 -0.00000000000E+00 -0.35465618272E+04  0.35465618272E+04  0.00000000000E+00 0. -1.
         23    2    1    2    0    0 -0.81325862273E+03 -0.74271054722E+03 -0.15618898979E+04  0.19132977008E+04  0.90551059176E+02 0.  0.
        254    2    1    2    0    0  0.81325862273E+03  0.74271054722E+03 -0.15295088610E+04  0.20884271948E+04  0.89951222772E+03 0.  0.
        -24    2    4    4    0    0  0.84246166878E+03  0.46061403378E+03 -0.65406564054E+03  0.11644563051E+04  0.79054871759E+02 0.  0.
         24    2    4    4    0    0 -0.29203046057E+02  0.28209651344E+03 -0.87544322046E+03  0.92397088978E+03  0.83006699218E+02 0.  0.
         11    1    3    3    0    0 -0.21595663395E+03 -0.24083267537E+03 -0.50316198590E+03  0.59817190616E+03  0.00000000000E+00 0. -1.
        -11    1    3    3    0    0 -0.59730198878E+03 -0.50187787185E+03 -0.10587279120E+04  0.13151257946E+04  0.00000000000E+00 0.  1.
          4    1    6    6  502    0 -0.36273998888E+02  0.11353205160E+03 -0.26359626470E+03  0.28928933699E+03  0.00000000000E+00 0. -1.
          3    1    5    5  503    0  0.42619955241E+03  0.21651776201E+03 -0.36996001054E+03  0.60448028019E+03  0.00000000000E+00 0. -1.
         -4    1    5    5    0  503  0.41626211637E+03  0.24409627177E+03 -0.28410563001E+03  0.55997602486E+03  0.00000000000E+00 0.  1.
         -3    1    6    6    0  502  0.70709528310E+01  0.16856446184E+03 -0.61184695576E+03  0.63468155279E+03  0.00000000000E+00 0.  1.
<mgrwt>
<rscale>  0 0.25410738E+04</rscale>
<asrwt>0</asrwt>
<pdfrwt beam="1">  1        1 0.54562491E+00 0.25410738E+04</pdfrwt>
<pdfrwt beam="2">  1       -1 0.70025086E-01 0.25410738E+04</pdfrwt>
<totfact> 0.41928775E-01</totfact>
</mgrwt>
</event>
<event>
12    1  0.2214165E-007  0.4228223E+04  0.7818608E-02  0.7960025E-01
          1   -1    0    0  501    0  0.00000000000E+00  0.00000000000E+00  0.17688556655E+04  0.17688556655E+04  0.00000000000E+00 0. -1.
         -1   -1    0    0    0  501 -0.00000000000E+00 -0.00000000000E+00 -0.25267566355E+04  0.25267566355E+04  0.00000000000E+00 0.  1.
         23    2    1    2    0    0 -0.15310934546E+04  0.47949635487E+02 -0.16953919254E+04  0.22867417766E+04  0.91037565016E+02 0.  0.
        254    2    1    2    0    0  0.15310934546E+04 -0.47949635487E+02  0.93749095541E+03  0.20088705244E+04  0.90006952956E+03 0.  0.
        -24    2    4    4    0    0  0.72363159921E+03 -0.12107355389E+03 -0.36456597126E+02  0.73907297630E+03  0.81229822097E+02 0.  0.
         24    2    4    4    0    0  0.80746185535E+03  0.73123918406E+02  0.97394755253E+03  0.12697975481E+04  0.80437694497E+02 0.  0.
         11    1    3    3    0    0 -0.31710399389E+03 -0.26576457271E+02 -0.35956072421E+03  0.48015119017E+03  0.00000000000E+00 0. -1.
        -11    1    3    3    0    0 -0.12139894607E+04  0.74526092758E+02 -0.13358312012E+04  0.18065905865E+04  0.00000000000E+00 0.  1.
          2    1    6    6  502    0  0.25478662321E+03  0.43422182890E+02  0.26211305793E+03  0.36810998964E+03  0.00000000000E+00 0. -1.
          1    1    5    5  503    0  0.32100985045E+03 -0.44828392645E+02  0.23300520132E+02  0.32496126402E+03  0.00000000000E+00 0. -1.
         -2    1    5    5    0  503  0.40262174875E+03 -0.76245161249E+02 -0.59757117258E+02  0.41411171228E+03  0.00000000000E+00 0.  1.
         -1    1    6    6    0  502  0.55267523214E+03  0.29701735516E+02  0.71183449461E+03  0.90168755843E+03  0.00000000000E+00 0.  1.
<mgrwt>
<rscale>  0 0.42282232E+04</rscale>
<asrwt>0</asrwt>
<pdfrwt beam="1">  1        1 0.27213164E+00 0.42282232E+04</pdfrwt>
<pdfrwt beam="2">  1       -1 0.38873179E+00 0.42282232E+04</pdfrwt>
<totfact> 0.28043922E-02</totfact>
</mgrwt>
</event>
<event>
12    1  0.2214165E-007  0.1621671E+04  0.7818608E-02  0.8807344E-01
          1   -1    0    0  501    0  0.00000000000E+00  0.00000000000E+00  0.28457802567E+04  0.28457802567E+04  0.00000000000E+00 0. -1.
         -1   -1    0    0    0  501 -0.00000000000E+00 -0.00000000000E+00 -0.23102775710E+03  0.23102775710E+03  0.00000000000E+00 0.  1.
         23    2    1    2    0    0  0.43774795341E+03  0.11440398152E+03  0.15125761723E+04  0.15831709762E+04  0.11761003867E+03 0.  0.
        254    2    1    2    0    0 -0.43774795341E+03 -0.11440398152E+03  0.11021763273E+04  0.14936370376E+04  0.90080375325E+03 0.  0.
        -24    2    4    4    0    0 -0.19846349811E+03  0.11979154032E+03 -0.83579344876E+02  0.25893785064E+03  0.79533203065E+02 0.  0.
         24    2    4    4    0    0 -0.23928445530E+03 -0.23419552183E+03  0.11857556721E+04  0.12346991869E+04  0.79755721820E+02 0.  0.
         11    1    3    3    0    0  0.83674759065E+02  0.63761702644E+01  0.15775839270E+03  0.17868920314E+03  0.00000000000E+00 0. -1.
        -11    1    3    3    0    0  0.35407319434E+03  0.10802781125E+03  0.13548177796E+04  0.14044817731E+04  0.00000000000E+00 0.  1.
          2    1    6    6  502    0 -0.11463577695E+03 -0.75494745632E+02  0.37909385476E+03  0.40317858164E+03  0.00000000000E+00 0. -1.
          1    1    5    5  503    0 -0.50771805690E+01 -0.10648132477E+02 -0.46630533845E+01  0.12684815909E+02  0.00000000000E+00 0. -1.
         -2    1    5    5    0  503 -0.19338631754E+03  0.13043967279E+03 -0.78916291492E+02  0.24625303473E+03  0.00000000000E+00 0.  1.
         -1    1    6    6    0  502 -0.12464867834E+03 -0.15870077620E+03  0.80666181738E+03  0.83152060528E+03  0.00000000000E+00 0.  1.
<mgrwt>
<rscale>  0 0.16216710E+04</rscale>
<asrwt>0</asrwt>
<pdfrwt beam="1">  1        1 0.43781232E+00 0.16216710E+04</pdfrwt>
<pdfrwt beam="2">  1       -1 0.35542734E-01 0.16216710E+04</pdfrwt>
<totfact> 0.56085066E+00</totfact>
</mgrwt>
</event>
<event>
12    1  0.2214165E-007  0.1491576E+04  0.7818608E-02  0.8890074E-01
         -2   -1    0    0    0  501 -0.00000000000E+00  0.00000000000E+00  0.18601736513E+03  0.18601736513E+03  0.00000000000E+00 0.  1.
          2   -1    0    0  501    0  0.00000000000E+00 -0.00000000000E+00 -0.29900408324E+04  0.29900408324E+04  0.00000000000E+00 0. -1.
         23    2    1    2    0    0 -0.94811082307E+02  0.72962389022E+02 -0.18617085892E+04  0.18677863582E+04  0.91402173679E+02 0.  0.
        254    2    1    2    0    0  0.94811082307E+02 -0.72962389022E+02 -0.94231487803E+03  0.13082718393E+04  0.89961393081E+03 0.  0.
        -24    2    4    4    0    0 -0.17968618180E+03 -0.12225874469E+03  0.80402613061E+02  0.24532453113E+03  0.80530868638E+02 0.  0.
         24    2    4    4    0    0  0.27449726411E+03  0.49296355672E+02 -0.10227174911E+04  0.10629473081E+04  0.78275376667E+02 0.  0.
         13    1    3    3    0    0 -0.76374113584E+02  0.35483876002E+02 -0.65986520597E+03  0.66521740862E+03  0.00000000000E+00 0.  1.
        -13    1    3    3    0    0 -0.18436968723E+02  0.37478513020E+02 -0.12018433832E+04  0.12025689496E+04  0.00000000000E+00 0. -1.
          4    1    6    6  502    0  0.26472273505E+03  0.38852370859E+02 -0.88692781773E+03  0.92640627536E+03  0.00000000000E+00 0. -1.
          1    1    5    5  503    0 -0.13055391266E+03 -0.41839699148E+02  0.40194182206E+02  0.14286517007E+03  0.00000000000E+00 0. -1.
         -2    1    5    5    0  503 -0.49132269140E+02 -0.80419045546E+02  0.40208430855E+02  0.10245936106E+03  0.00000000000E+00 0.  1.
         -3    1    6    6    0  502  0.97745290628E+01  0.10443984814E+02 -0.13578967337E+03  0.13654103277E+03  0.00000000000E+00 0.  1.
<mgrwt>
<rscale>  0 0.14915757E+04</rscale>
<asrwt>0</asrwt>
<pdfrwt beam="1">  1        2 0.46000625E+00 0.14915757E+04</pdfrwt>
<pdfrwt beam="2">  1       -2 0.28618058E-01 0.14915757E+04</pdfrwt>
<totfact> 0.19259755E+01</totfact>
</mgrwt>
</event>
<event>
12    1  0.2214165E-007  0.2116202E+04  0.7818608E-02  0.8554140E-01
          2   -1    0    0  501    0  0.00000000000E+00  0.00000000000E+00  0.21649994718E+04  0.21649994718E+04  0.00000000000E+00 0. -1.
         -2   -1    0    0    0  501 -0.00000000000E+00 -0.00000000000E+00 -0.51712585618E+03  0.51712585618E+03  0.00000000000E+00 0.  1.
         23    2    1    2    0    0 -0.82106708180E+03  0.11127310954E+03  0.36681803554E+03  0.91074982518E+03  0.91525489013E+02 0.  0.
        254    2    1    2    0    0  0.82106708180E+03 -0.11127310954E+03  0.12810555801E+04  0.17713755028E+04  0.90007494964E+03 0.  0.
        -24    2    4    4    0    0  0.88904005347E+03 -0.34995971552E+03  0.94311159258E+03  0.13448307526E+04  0.79033271416E+02 0.  0.
         24    2    4    4    0    0 -0.67972971672E+02  0.23868660598E+03  0.33794398753E+03  0.42654475020E+03  0.78375152081E+02 0.  0.
         11    1    3    3    0    0 -0.25875001495E+03  0.30703424226E+02  0.69929287233E+02  0.26978579597E+03  0.00000000000E+00 0.  1.
        -11    1    3    3    0    0 -0.56231706686E+03  0.80569685314E+02  0.29688874830E+03  0.64096402921E+03  0.00000000000E+00 0. -1.
          2    1    6    6  502    0 -0.55028900245E+02  0.73564320625E+02  0.15130093961E+03  0.17700808868E+03  0.00000000000E+00 0. -1.
          1    1    5    5  503    0  0.37683855267E+03 -0.13099165814E+03  0.34425280440E+03  0.52694981035E+03  0.00000000000E+00 0. -1.
         -2    1    5    5    0  503  0.51220150080E+03 -0.21896805738E+03  0.59885878817E+03  0.81788094228E+03  0.00000000000E+00 0.  1.
         -1    1    6    6    0  502 -0.12944071427E+02  0.16512228535E+03  0.18664304791E+03  0.24953666152E+03  0.00000000000E+00 0.  1.
<mgrwt>
<rscale>  0 0.21162015E+04</rscale>
<asrwt>0</asrwt>
<pdfrwt beam="1">  1        2 0.33307684E+00 0.21162015E+04</pdfrwt>
<pdfrwt beam="2">  1       -2 0.79557825E-01 0.21162015E+04</pdfrwt>
<totfact> 0.69594668E+00</totfact>
</mgrwt>
</event>
<event>
12    1  0.2214165E-007  0.2731861E+04  0.7818608E-02  0.8324741E-01
          2   -1    0    0  501    0  0.00000000000E+00  0.00000000000E+00  0.23432538410E+04  0.23432538410E+04  0.00000000000E+00 0. -1.
         -2   -1    0    0    0  501 -0.00000000000E+00 -0.00000000000E+00 -0.79622881844E+03  0.79622881844E+03  0.00000000000E+00 0.  1.
         23    2    1    2    0    0 -0.47782803449E+03  0.11012296011E+04  0.46082753773E+03  0.12891846690E+04  0.92783760296E+02 0.  0.
        254    2    1    2    0    0  0.47782803449E+03 -0.11012296011E+04  0.10861974848E+04  0.18502979905E+04  0.89596395717E+03 0.  0.
        -24    2    4    4    0    0  0.16065352243E+03 -0.84432103118E+03  0.22226015220E+03  0.89133412624E+03  0.79933668618E+02 0.  0.
         24    2    4    4    0    0  0.31717451206E+03 -0.25690856996E+03  0.86393733261E+03  0.95896386423E+03  0.81377477246E+02 0.  0.
         11    1    3    3    0    0 -0.60253901208E+02  0.80838458797E+02  0.27005658497E+02  0.10437765385E+03  0.00000000000E+00 0.  1.
        -11    1    3    3    0    0 -0.41757413328E+03  0.10203911423E+04  0.43382187923E+03  0.11848070151E+04  0.00000000000E+00 0. -1.
          4    1    6    6  502    0  0.73852847722E+02 -0.71244993913E+02  0.14547340188E+03  0.17802416389E+03  0.00000000000E+00 0. -1.
          3    1    5    5  503    0  0.40195504963E+02 -0.24125464308E+03  0.10046706610E+03  0.26441087874E+03  0.00000000000E+00 0. -1.
         -4    1    5    5    0  503  0.12045801747E+03 -0.60306638810E+03  0.12179308610E+03  0.62692324750E+03  0.00000000000E+00 0.  1.
         -3    1    6    6    0  502  0.24332166433E+03 -0.18566357605E+03  0.71846393073E+03  0.78093970034E+03  0.00000000000E+00 0.  1.
<mgrwt>
<rscale>  0 0.27318611E+04</rscale>
<asrwt>0</asrwt>
<pdfrwt beam="1">  1        2 0.36050059E+00 0.27318611E+04</pdfrwt>
<pdfrwt beam="2">  1       -2 0.12249674E+00 0.27318611E+04</pdfrwt>
<totfact> 0.18905001E+00</totfact>
</mgrwt>
</event>
<event>
12    1  0.2214165E-007  0.3549526E+04  0.7818608E-02  0.8102152E-01
         -2   -1    0    0    0  501 -0.00000000000E+00  0.00000000000E+00  0.13044603200E+04  0.13044603200E+04  0.00000000000E+00 0.  1.
          2   -1    0    0  501    0  0.00000000000E+00 -0.00000000000E+00 -0.24146257362E+04  0.24146257362E+04  0.00000000000E+00 0. -1.
         23    2    1    2    0    0 -0.12885295090E+04  0.55399941435E+03  0.40917645005E+03  0.14633496786E+04  0.82117404116E+02 0.  0.
        254    2    1    2    0    0  0.12885295090E+04 -0.55399941435E+03 -0.15193418662E+04  0.22557363776E+04  0.90151164839E+03 0.  0.
        -24    2    4    4    0    0  0.24744346958E+03  0.17397528043E+03 -0.59534244136E+02  0.31879514842E+03  0.81180980491E+02 0.  0.
         24    2    4    4    0    0  0.10410860394E+04 -0.72797469478E+03 -0.14598076220E+04  0.19369412291E+04  0.83040557295E+02 0.  0.
         13    1    3    3    0    0 -0.86569559687E+03  0.35255427820E+03  0.23671916032E+03  0.96424029494E+03  0.00000000000E+00 0. -1.
        -13    1    3    3    0    0 -0.42283391210E+03  0.20144513615E+03  0.17245728973E+03  0.49910938368E+03  0.00000000000E+00 0.  1.
          2    1    6    6  502    0  0.70851939813E+03 -0.51384553333E+03 -0.10582564705E+04  0.13732966639E+04  0.00000000000E+00 0. -1.
          3    1    5    5  503    0  0.18597815443E+03  0.16937367932E+03 -0.48432951599E+02  0.25616609450E+03  0.00000000000E+00 0. -1.
         -4    1    5    5    0  503  0.61465315152E+02  0.46016011165E+01 -0.11101292537E+02  0.62629053925E+02  0.00000000000E+00 0.  1.
         -1    1    6    6    0  502  0.33256664126E+03 -0.21412916146E+03 -0.40155115155E+03  0.56364456529E+03  0.00000000000E+00 0.  1.
<mgrwt>
<rscale>  0 0.35495259E+04</rscale>
<asrwt>0</asrwt>
<pdfrwt beam="1">  1        2 0.37148088E+00 0.35495259E+04</pdfrwt>
<pdfrwt beam="2">  1       -2 0.20068620E+00 0.35495259E+04</pdfrwt>
<totfact> 0.42003498E-01</totfact>
</mgrwt>
</event>
<event>
12    1  0.2214165E-007  0.4859215E+04  0.7818608E-02  0.7850599E-01
          2   -1    0    0  501    0  0.00000000000E+00  0.00000000000E+00  0.27640013481E+04  0.27640013481E+04  0.00000000000E+00 0. -1.
         -2   -1    0    0    0  501 -0.00000000000E+00 -0.00000000000E+00 -0.21356690954E+04  0.21356690954E+04  0.00000000000E+00 0.  1.
         23    2    1    2    0    0  0.34777088464E+03  0.20173885231E+04  0.14560170720E+04  0.25137516833E+04  0.90336981351E+02 0.  0.
        254    2    1    2    0    0 -0.34777088464E+03 -0.20173885231E+04 -0.82768481921E+03  0.23859187602E+04  0.90373952487E+03 0.  0.
        -24    2    4    4    0    0 -0.22836306581E+03 -0.14876421751E+04 -0.10022839396E+04  0.18099568479E+04  0.78369412751E+02 0.  0.
         24    2    4    4    0    0 -0.11940781883E+03 -0.52974634803E+03  0.17459912035E+03  0.57596191227E+03  0.79736134321E+02 0.  0.
         13    1    3    3    0    0  0.13254906822E+03  0.53503698590E+03  0.38549172249E+03  0.67263489344E+03  0.00000000000E+00 0. -1.
        -13    1    3    3    0    0  0.21522181642E+03  0.14823515372E+04  0.10705253495E+04  0.18411167899E+04  0.00000000000E+00 0.  1.
          4    1    6    6  502    0 -0.75416279034E+02 -0.18791571550E+03  0.86799172134E+02  0.22030439751E+03  0.00000000000E+00 0. -1.
          1    1    5    5  503    0 -0.17253438933E+03 -0.11320141046E+04 -0.80199356258E+03  0.13980049080E+04  0.00000000000E+00 0. -1.
         -2    1    5    5    0  503 -0.55828676481E+02 -0.35562807056E+03 -0.20029037698E+03  0.41195193991E+03  0.00000000000E+00 0.  1.
         -3    1    6    6    0  502 -0.43991539799E+02 -0.34183063252E+03  0.87799948215E+02  0.35565751477E+03  0.00000000000E+00 0.  1.
<mgrwt>
<rscale>  0 0.48592149E+04</rscale>
<asrwt>0</asrwt>
<pdfrwt beam="1">  1        2 0.42523098E+00 0.48592149E+04</pdfrwt>
<pdfrwt beam="2">  1       -2 0.32856448E+00 0.48592149E+04</pdfrwt>
<totfact> 0.37919161E-02</totfact>
</mgrwt>
</event>
<event>
12    1  0.2214165E-007  0.1918715E+04  0.7818608E-02  0.8645596E-01
         -1   -1    0    0    0  501 -0.00000000000E+00  0.00000000000E+00  0.13965602082E+04  0.13965602082E+04  0.00000000000E+00 0.  1.
          1   -1    0    0  501    0  0.00000000000E+00 -0.00000000000E+00 -0.65902439973E+03  0.65902439973E+03  0.00000000000E+00 0. -1.
         23    2    1    2    0    0 -0.44663820791E+03  0.45500593366E+03  0.70605973853E+03  0.95574821071E+03  0.91750746409E+02 0.  0.
        254    2    1    2    0    0  0.44663820791E+03 -0.45500593366E+03  0.31476069934E+02  0.10998363972E+04  0.89561893081E+03 0.  0.
        -24    2    4    4    0    0 -0.24396409315E+03 -0.20075324547E+03  0.13415307931E+03  0.35270774461E+03  0.81150231721E+02 0.  0.
         24    2    4    4    0    0  0.69060230106E+03 -0.25425268819E+03 -0.10267700937E+03  0.74712865261E+03  0.77991586838E+02 0.  0.
         13    1    3    3    0    0 -0.35316060915E+03  0.32118343105E+03  0.56796521721E+03  0.74193375728E+03  0.00000000000E+00 0.  1.
        -13    1    3    3    0    0 -0.93477598761E+02  0.13382250261E+03  0.13809452133E+03  0.21381445343E+03  0.00000000000E+00 0. -1.
          4    1    6    6  502    0  0.31066012478E+03 -0.15527956111E+03 -0.54682494223E+02  0.35158445700E+03  0.00000000000E+00 0. -1.
          3    1    5    5  503    0 -0.19501352126E+03 -0.12660829443E+03  0.68992324088E+02  0.24252809007E+03  0.00000000000E+00 0. -1.
         -4    1    5    5    0  503 -0.48950571890E+02 -0.74144951040E+02  0.65160755219E+02  0.11017965454E+03  0.00000000000E+00 0.  1.
         -3    1    6    6    0  502  0.37994217627E+03 -0.98973127079E+02 -0.47994515150E+02  0.39554419561E+03  0.00000000000E+00 0.  1.
<mgrwt>
<rscale>  0 0.19187155E+04</rscale>
<asrwt>0</asrwt>
<pdfrwt beam="1">  1        1 0.10138837E+00 0.19187155E+04</pdfrwt>
<pdfrwt beam="2">  1       -1 0.21485542E+00 0.19187155E+04</pdfrwt>
<totfact> 0.33213075E+00</totfact>
</mgrwt>
</event>
<event>
12    1  0.2214165E-007  0.1801900E+04  0.7818608E-02  0.8705290E-01
          2   -1    0    0  501    0  0.00000000000E+00  0.00000000000E+00  0.32935104042E+04  0.32935104042E+04  0.00000000000E+00 0. -1.
         -2   -1    0    0    0  501 -0.00000000000E+00 -0.00000000000E+00 -0.24645774346E+03  0.24645774346E+03  0.00000000000E+00 0.  1.
         23    2    1    2    0    0 -0.14673654243E+03  0.55091535194E+03  0.44659596130E+03  0.72996159435E+03  0.91414652514E+02 0.  0.
        254    2    1    2    0    0  0.14673654243E+03 -0.55091535194E+03  0.26004566994E+04  0.28100065533E+04  0.89928996777E+03 0.  0.
        -24    2    4    4    0    0  0.14141820679E+03 -0.63617958990E+03  0.26101510201E+04  0.26914530108E+04  0.79419026053E+02 0.  0.
         24    2    4    4    0    0  0.53183356393E+01  0.85264237959E+02 -0.96943206903E+01  0.11855354251E+03  0.81625287863E+02 0.  0.
         11    1    3    3    0    0 -0.42209254096E+02  0.20144268645E+03  0.10879352745E+03  0.23280208047E+03  0.00000000000E+00 0.  1.
        -11    1    3    3    0    0 -0.10452728834E+03  0.34947266548E+03  0.33780243385E+03  0.49715951388E+03  0.00000000000E+00 0. -1.
          2    1    6    6  502    0  0.11620689205E+02  0.48355691618E+02  0.34577195662E+02  0.60571410660E+02  0.00000000000E+00 0. -1.
          3    1    5    5  503    0  0.13095484409E+03 -0.61745504594E+03  0.25641935778E+04  0.26407363763E+04  0.00000000000E+00 0. -1.
         -4    1    5    5    0  503  0.10463362698E+02 -0.18724543961E+02  0.45957442327E+02  0.50716634458E+02  0.00000000000E+00 0.  1.
         -1    1    6    6    0  502 -0.63023535661E+01  0.36908546341E+02 -0.44271516352E+02  0.57982131848E+02  0.00000000000E+00 0.  1.
<mgrwt>
<rscale>  0 0.18019003E+04</rscale>
<asrwt>0</asrwt>
<pdfrwt beam="1">  1        2 0.50669387E+00 0.18019003E+04</pdfrwt>
<pdfrwt beam="2">  1       -2 0.37916578E-01 0.18019003E+04</pdfrwt>
<totfact> 0.70147678E+00</totfact>
</mgrwt>
</event>
<event>
12    1  0.2214165E-007  0.1565738E+04  0.7818608E-02  0.8841878E-01
          2   -1    0    0  501    0  0.00000000000E+00  0.00000000000E+00  0.15838128970E+04  0.15838128970E+04  0.00000000000E+00 0. -1.
         -2   -1    0    0    0  501 -0.00000000000E+00 -0.00000000000E+00 -0.38696715939E+03  0.38696715939E+03  0.00000000000E+00 0.  1.
         23    2    1    2    0    0 -0.30995829702E+03 -0.70550732047E+02  0.91644809971E+03  0.97451209037E+03  0.93515469953E+02 0.  0.
        254    2    1    2    0    0  0.30995829702E+03  0.70550732047E+02  0.28039763785E+03  0.99626796598E+03  0.90159606978E+03 0.  0.
        -24    2    4    4    0    0 -0.85663124068E+02  0.40022703518E+03  0.30602722870E+02  0.41813865568E+03  0.79897172757E+02 0.  0.
         24    2    4    4    0    0  0.39562142109E+03 -0.32967630313E+03  0.24979491498E+03  0.57812931030E+03  0.81444620487E+02 0.  0.
         11    1    3    3    0    0 -0.20184299372E+03 -0.10355201055E+02  0.65072538663E+03  0.68138928162E+03  0.00000000000E+00 0. -1.
        -11    1    3    3    0    0 -0.10811530330E+03 -0.60195530992E+02  0.26572271308E+03  0.29312280874E+03  0.00000000000E+00 0.  1.
          4    1    6    6  502    0  0.63401343397E+01  0.46724107484E+01  0.65379464027E+01  0.10235891207E+02  0.00000000000E+00 0. -1.
          1    1    5    5  503    0  0.15657991797E+02  0.46526994853E+02  0.36075206485E+01  0.49223451346E+02  0.00000000000E+00 0. -1.
         -2    1    5    5    0  503 -0.10132111587E+03  0.35370004032E+03  0.26995202221E+02  0.36891520433E+03  0.00000000000E+00 0.  1.
         -3    1    6    6    0  502  0.38928128675E+03 -0.33434871388E+03  0.24325696858E+03  0.56789341909E+03  0.00000000000E+00 0.  1.
<mgrwt>
<rscale>  0 0.15657376E+04</rscale>
<asrwt>0</asrwt>
<pdfrwt beam="1">  1        2 0.24366352E+00 0.15657376E+04</pdfrwt>
<pdfrwt beam="2">  1       -2 0.59533410E-01 0.15657376E+04</pdfrwt>
<totfact> 0.28823114E+01</totfact>
</mgrwt>
</event>
<event>
12    1  0.2634066E-007  0.3120471E+04  0.7818608E-02  0.8210142E-01
         -2   -1    0    0    0  501 -0.00000000000E+00  0.00000000000E+00  0.12348261127E+04  0.12348261127E+04  0.00000000000E+00 0. -1.
          2   -1    0    0  501    0  0.00000000000E+00 -0.00000000000E+00 -0.19713993584E+04  0.19713993584E+04  0.00000000000E+00 0.  1.
         23    2    1    2    0    0  0.16785396183E+03 -0.14160830649E+04 -0.24971814119E+03  0.14522837563E+04  0.11533758930E+03 0.  0.
        254    2    1    2    0    0 -0.16785396183E+03  0.14160830649E+04 -0.48685510453E+03  0.17539417147E+04  0.89767335183E+03 0.  0.
        -24    2    4    4    0    0  0.10927788701E+03  0.30935581556E+02 -0.29505467731E+03  0.32613607211E+03  0.80055031894E+02 0.  0.
         24    2    4    4    0    0 -0.27713184884E+03  0.13851474834E+04 -0.19180042722E+03  0.14278056426E+04  0.80037096961E+02 0.  0.
         13    1    3    3    0    0  0.22767951600E+02 -0.59776622956E+03 -0.13595378647E+03  0.61345438044E+03  0.00000000000E+00 0.  1.
        -13    1    3    3    0    0  0.14508601023E+03 -0.81831683537E+03 -0.11376435472E+03  0.83882937586E+03  0.00000000000E+00 0. -1.
          4    1    6    6  502    0 -0.22914520534E+03  0.10608816163E+04 -0.11745843043E+03  0.10916839340E+04  0.00000000000E+00 0. -1.
          1    1    5    5  503    0  0.10959871972E+03  0.45439993697E+02 -0.22261650115E+03  0.25225934864E+03  0.00000000000E+00 0. -1.
         -2    1    5    5    0  503 -0.32083270821E+00 -0.14504412141E+02 -0.72438176157E+02  0.73876723467E+02  0.00000000000E+00 0.  1.
         -3    1    6    6    0  502 -0.47986643496E+02  0.32426586708E+03 -0.74341996790E+02  0.33612170860E+03  0.00000000000E+00 0.  1.
<mgrwt>
<rscale>  0 0.31204714E+04</rscale>
<asrwt>0</asrwt>
<pdfrwt beam="1">  1        2 0.30329221E+00 0.31204714E+04</pdfrwt>
<pdfrwt beam="2">  1       -2 0.18997325E+00 0.31204714E+04</pdfrwt>
<totfact> 0.91097098E-01</totfact>
</mgrwt>
</event>
<event>
12    1  0.2214165E-007  0.3356546E+04  0.7818608E-02  0.8148654E-01
          1   -1    0    0  501    0  0.00000000000E+00  0.00000000000E+00  0.16454019639E+04  0.16454019639E+04  0.00000000000E+00 0. -1.
         -1   -1    0    0    0  501 -0.00000000000E+00 -0.00000000000E+00 -0.17118007747E+04  0.17118007747E+04  0.00000000000E+00 0.  1.
         23    2    1    2    0    0  0.11193103384E+04  0.97470069574E+03  0.43758407541E+03  0.15500613171E+04  0.91176661088E+02 0.  0.
        254    2    1    2    0    0 -0.11193103384E+04 -0.97470069574E+03 -0.50398288621E+03  0.18071414216E+04  0.89936882752E+03 0.  0.
        -24    2    4    4    0    0 -0.25675184372E+03  0.82240292385E+02  0.11823460276E+03  0.30539439418E+03  0.81248629299E+02 0.  0.
         24    2    4    4    0    0 -0.86255849473E+03 -0.10569409881E+04 -0.62221748897E+03  0.15017470274E+04  0.83415355111E+02 0.  0.
         11    1    3    3    0    0  0.59095909809E+03  0.55021903806E+03  0.19967584898E+03  0.83177165744E+03  0.00000000000E+00 0.  1.
        -11    1    3    3    0    0  0.52835124036E+03  0.42448165768E+03  0.23790822643E+03  0.71828965961E+03  0.00000000000E+00 0. -1.
          4    1    6    6  502    0 -0.80593680821E+03 -0.98316122523E+03 -0.55579827913E+03  0.13874623817E+04  0.00000000000E+00 0. -1.
          3    1    5    5  503    0 -0.17492889924E+03  0.74670631451E+02  0.11681961555E+03  0.22320986888E+03  0.00000000000E+00 0. -1.
         -4    1    5    5    0  503 -0.81822944478E+02  0.75696609337E+01  0.14149872168E+01  0.82184525298E+02  0.00000000000E+00 0.  1.
         -3    1    6    6    0  502 -0.56621686518E+02 -0.73779762893E+02 -0.66419209840E+02  0.11428464565E+03  0.00000000000E+00 0.  1.
<mgrwt>
<rscale>  0 0.33565461E+04</rscale>
<asrwt>0</asrwt>
<pdfrwt beam="1">  1        1 0.25313877E+00 0.33565461E+04</pdfrwt>
<pdfrwt beam="2">  1       -1 0.26335396E+00 0.33565461E+04</pdfrwt>
<totfact> 0.24472671E-01</totfact>
</mgrwt>
</event>
<event>
12    1  0.2214165E-007  0.1379642E+04  0.7818608E-02  0.8968688E-01
          1   -1    0    0  501    0  0.00000000000E+00  0.00000000000E+00  0.36613525866E+03  0.36613525866E+03  0.00000000000E+00 0. -1.
         -1   -1    0    0    0  501 -0.00000000000E+00 -0.00000000000E+00 -0.12996649409E+04  0.12996649409E+04  0.00000000000E+00 0.  1.
         23    2    1    2    0    0 -0.12992143636E+03 -0.36593478207E+03 -0.28693950446E+03  0.49128285104E+03  0.90756355977E+02 0.  0.
        254    2    1    2    0    0  0.12992143636E+03  0.36593478207E+03 -0.64659017779E+03  0.11745173485E+04  0.90034676634E+03 0.  0.
        -24    2    4    4    0    0 -0.23766459691E+03 -0.17344808847E+03 -0.10438826141E+03  0.32226623514E+03  0.79936957494E+02 0.  0.
         24    2    4    4    0    0  0.36758603327E+03  0.53938287054E+03 -0.54220191639E+03  0.85225111340E+03  0.79345253608E+02 0.  0.
         11    1    3    3    0    0 -0.20865780229E+02 -0.67312906322E+02 -0.13073782054E+02  0.71675183427E+02  0.00000000000E+00 0. -1.
        -11    1    3    3    0    0 -0.10905565613E+03 -0.29862187575E+03 -0.27386572241E+03  0.41960766761E+03  0.00000000000E+00 0.  1.
          4    1    6    6  502    0  0.34247645240E+03  0.50185351624E+03 -0.47465923990E+03  0.77100484190E+03  0.00000000000E+00 0. -1.
          1    1    5    5  503    0 -0.18479937406E+03 -0.10752102167E+03 -0.43689663190E+02  0.21822090969E+03  0.00000000000E+00 0. -1.
         -2    1    5    5    0  503 -0.52865222853E+02 -0.65927066794E+02 -0.60698598217E+02  0.10404532545E+03  0.00000000000E+00 0.  1.
         -3    1    6    6    0  502  0.25109580871E+02  0.37529354299E+02 -0.67542676484E+02  0.81246271498E+02  0.00000000000E+00 0.  1.
<mgrwt>
<rscale>  0 0.13796422E+04</rscale>
<asrwt>0</asrwt>
<pdfrwt beam="1">  1        1 0.56328501E-01 0.13796422E+04</pdfrwt>
<pdfrwt beam="2">  1       -1 0.19994845E+00 0.13796422E+04</pdfrwt>
<totfact> 0.99259832E+00</totfact>
</mgrwt>
</event>
<event>
12    1  0.2214165E-007  0.3127480E+04  0.7818608E-02  0.8208236E-01
         -2   -1    0    0    0  501 -0.00000000000E+00  0.00000000000E+00  0.67447555041E+03  0.67447555041E+03  0.00000000000E+00 0.  1.
          2   -1    0    0  501    0  0.00000000000E+00 -0.00000000000E+00 -0.36254586827E+04  0.36254586827E+04  0.00000000000E+00 0. -1.
         23    2    1    2    0    0 -0.14166584688E+04  0.67367324909E+02 -0.10742547358E+04  0.17814463369E+04  0.89823384030E+02 0.  0.
        254    2    1    2    0    0  0.14166584688E+04 -0.67367324909E+02 -0.18767283965E+04  0.25184878962E+04  0.89956224653E+03 0.  0.
        -24    2    4    4    0    0  0.70857445120E+02  0.12963963338E+03  0.33958460846E+02  0.17171850849E+03  0.80665091719E+02 0.  0.
         24    2    4    4    0    0  0.13458010237E+04 -0.19700695829E+03 -0.19106868573E+04  0.23467693877E+04  0.81302861682E+02 0.  0.
         13    1    3    3    0    0 -0.71824577943E+03 -0.10247708816E+02 -0.53419349589E+03  0.89517858903E+03  0.00000000000E+00 0.  1.
        -13    1    3    3    0    0 -0.69841268934E+03  0.77615033725E+02 -0.54006123988E+03  0.88626774787E+03  0.00000000000E+00 0. -1.
          2    1    6    6  502    0  0.32353282739E+03 -0.13368028036E+02 -0.44032866624E+03  0.54657252848E+03  0.00000000000E+00 0. -1.
          3    1    5    5  503    0  0.28878482248E+02 -0.30785124283E+01  0.79512483767E+01  0.30110900460E+02  0.00000000000E+00 0. -1.
         -2    1    5    5    0  503  0.41978962872E+02  0.13271814581E+03  0.26007212469E+02  0.14160760803E+03  0.00000000000E+00 0.  1.
         -1    1    6    6    0  502  0.10222681963E+04 -0.18363893026E+03 -0.14703581911E+04  0.18001968592E+04  0.00000000000E+00 0.  1.
<mgrwt>
<rscale>  0 0.31274803E+04</rscale>
<asrwt>0</asrwt>
<pdfrwt beam="1">  1        2 0.55776288E+00 0.31274803E+04</pdfrwt>
<pdfrwt beam="2">  1       -2 0.10376547E+00 0.31274803E+04</pdfrwt>
<totfact> 0.42345307E-01</totfact>
</mgrwt>
</event>
<event>
12    1  0.2214165E-007  0.1527923E+04  0.7818608E-02  0.8866094E-01
         -2   -1    0    0    0  501 -0.00000000000E+00  0.00000000000E+00  0.34004404873E+03  0.34004404873E+03  0.00000000000E+00 0.  1.
          2   -1    0    0  501    0  0.00000000000E+00 -0.00000000000E+00 -0.17163567972E+04  0.17163567972E+04  0.00000000000E+00 0. -1.
         23    2    1    2    0    0  0.13812731049E+03 -0.29327155253E+03 -0.95097931936E+03  0.10090900526E+04  0.93881366331E+02 0.  0.
        254    2    1    2    0    0 -0.13812731049E+03  0.29327155253E+03 -0.42533342907E+03  0.10473107933E+04  0.90047988010E+03 0.  0.
        -24    2    4    4    0    0 -0.30972166522E+03 -0.23419968402E+03 -0.18576603603E+03  0.43796309708E+03  0.80781510040E+02 0.  0.
         24    2    4    4    0    0  0.17159435473E+03  0.52747123655E+03 -0.23956739303E+03  0.60934769623E+03  0.79003488102E+02 0.  0.
         11    1    3    3    0    0  0.11976255221E+03 -0.19137298120E+03 -0.74650451634E+03  0.77989465940E+03  0.00000000000E+00 0. -1.
        -11    1    3    3    0    0  0.18364758277E+02 -0.10189857133E+03 -0.20447480302E+03  0.22919539318E+03  0.00000000000E+00 0.  1.
          2    1    6    6  502    0  0.44196989164E+02  0.12807124491E+03 -0.22773188065E+02  0.13738353511E+03  0.00000000000E+00 0. -1.
          3    1    5    5  503    0 -0.16469743214E+03 -0.12085015061E+03 -0.14194329226E+03  0.24875269099E+03  0.00000000000E+00 0. -1.
         -4    1    5    5    0  503 -0.14502423307E+03 -0.11334953341E+03 -0.43822743773E+02  0.18921040609E+03  0.00000000000E+00 0.  1.
         -1    1    6    6    0  502  0.12739736557E+03  0.39939999163E+03 -0.21679420497E+03  0.47196416112E+03  0.00000000000E+00 0.  1.
<mgrwt>
<rscale>  0 0.15279227E+04</rscale>
<asrwt>0</asrwt>
<pdfrwt beam="1">  1        2 0.26405488E+00 0.15279227E+04</pdfrwt>
<pdfrwt beam="2">  1       -2 0.52314471E-01 0.15279227E+04</pdfrwt>
<totfact> 0.31928775E+01</totfact>
</mgrwt>
</event>
<event>
12    1  0.2214165E-007  0.1605103E+04  0.7818608E-02  0.8817419E-01
         -2   -1    0    0    0  501 -0.00000000000E+00  0.00000000000E+00  0.11681201121E+04  0.11681201121E+04  0.00000000000E+00 0.  1.
          2   -1    0    0  501    0  0.00000000000E+00 -0.00000000000E+00 -0.55138939676E+03  0.55138939676E+03  0.00000000000E+00 0. -1.
         23    2    1    2    0    0  0.25328575019E+03  0.18642108491E+03 -0.26412659596E+03  0.42085580942E+03  0.91925303799E+02 0.  0.
        254    2    1    2    0    0 -0.25328575019E+03 -0.18642108491E+03  0.88085731130E+03  0.12986536994E+04  0.90093581128E+03 0.  0.
        -24    2    4    4    0    0  0.28955535604E+03 -0.23459902295E+03  0.50202956615E+03  0.63032460602E+03  0.79977608697E+02 0.  0.
         24    2    4    4    0    0 -0.54284110622E+03  0.48177938041E+02  0.37882774515E+03  0.66832909341E+03  0.78458500397E+02 0.  0.
         11    1    3    3    0    0  0.10411973014E+03  0.59130131924E+02 -0.47930491907E+02  0.12897527965E+03  0.00000000000E+00 0.  1.
        -11    1    3    3    0    0  0.14916602004E+03  0.12729095299E+03 -0.21619610406E+03  0.29188052977E+03  0.00000000000E+00 0. -1.
          4    1    6    6  502    0 -0.19386400602E+03  0.59423355994E+01  0.92168579536E+02  0.21474080012E+03  0.00000000000E+00 0. -1.
          3    1    5    5  503    0  0.13564818540E+03 -0.11842754839E+03  0.30797425798E+03  0.35675433845E+03  0.00000000000E+00 0. -1.
         -4    1    5    5    0  503  0.15390717064E+03 -0.11617147457E+03  0.19405530816E+03  0.27357026758E+03  0.00000000000E+00 0.  1.
         -3    1    6    6    0  502 -0.34897710020E+03  0.42235602441E+02  0.28665916561E+03  0.45358829329E+03  0.00000000000E+00 0.  1.
<mgrwt>
<rscale>  0 0.16051032E+04</rscale>
<asrwt>0</asrwt>
<pdfrwt beam="1">  1        2 0.84829138E-01 0.16051032E+04</pdfrwt>
<pdfrwt beam="2">  1       -2 0.17971079E+00 0.16051032E+04</pdfrwt>
<totfact> 0.95745237E+00</totfact>
</mgrwt>
</event>
<event>
12    1  0.2214165E-007  0.1967713E+04  0.7818608E-02  0.8621866E-01
          2   -1    0    0  501    0  0.00000000000E+00  0.00000000000E+00  0.12509601645E+04  0.12509601645E+04  0.00000000000E+00 0. -1.
         -2   -1    0    0    0  501 -0.00000000000E+00 -0.00000000000E+00 -0.77378463260E+03  0.77378463260E+03  0.00000000000E+00 0.  1.
         23    2    1    2    0    0 -0.53627362707E+03 -0.51605730656E+03 -0.20863514958E+02  0.75030694481E+03  0.92847608601E+02 0.  0.
        254    2    1    2    0    0  0.53627362707E+03  0.51605730656E+03  0.49803904691E+03  0.12744378523E+04  0.90677692983E+03 0.  0.
        -24    2    4    4    0    0  0.33959222091E+03  0.62052821132E+03 -0.12147821707E+02  0.71185584111E+03  0.78822784776E+02 0.  0.
         24    2    4    4    0    0  0.19668140616E+03 -0.10447090475E+03  0.51018686862E+03  0.56258201123E+03  0.81302724337E+02 0.  0.
         11    1    3    3    0    0 -0.35229190571E+03 -0.31995241203E+03  0.29177541755E+02  0.47679184320E+03  0.00000000000E+00 0. -1.
        -11    1    3    3    0    0 -0.18398172135E+03 -0.19610489453E+03 -0.50041056713E+02  0.27351510161E+03  0.00000000000E+00 0.  1.
          4    1    6    6  502    0  0.92568047379E+02 -0.86506933216E+02  0.22158359842E+03  0.25524808320E+03  0.00000000000E+00 0. -1.
          1    1    5    5  503    0  0.34134819565E+03  0.61697501996E+03 -0.17343672705E+02  0.70532089783E+03  0.00000000000E+00 0. -1.
         -2    1    5    5    0  503 -0.17559747334E+01  0.35531913549E+01  0.51958509982E+01  0.65349432793E+01  0.00000000000E+00 0.  1.
         -3    1    6    6    0  502  0.10411335878E+03 -0.17963971539E+02  0.28860327020E+03  0.30733392803E+03  0.00000000000E+00 0.  1.
<mgrwt>
<rscale>  0 0.19677131E+04</rscale>
<asrwt>0</asrwt>
<pdfrwt beam="1">  1        2 0.19245541E+00 0.19677131E+04</pdfrwt>
<pdfrwt beam="2">  1       -2 0.11904379E+00 0.19677131E+04</pdfrwt>
<totfact> 0.89142891E+00</totfact>
</mgrwt>
</event>
<event>
12    1  0.2214165E-007  0.1947706E+04  0.7818608E-02  0.8631468E-01
         -2   -1    0    0    0  501 -0.00000000000E+00  0.00000000000E+00  0.11876700998E+04  0.11876700998E+04  0.00000000000E+00 0.  1.
          2   -1    0    0  501    0  0.00000000000E+00 -0.00000000000E+00 -0.79852928210E+03  0.79852928210E+03  0.00000000000E+00 0. -1.
         23    2    1    2    0    0  0.63109789876E+03 -0.10927420203E+03 -0.26836350625E+03  0.70050000591E+03  0.91955846744E+02 0.  0.
        254    2    1    2    0    0 -0.63109789876E+03  0.10927420203E+03  0.65750432391E+03  0.12856993760E+04  0.90026970421E+03 0.  0.
        -24    2    4    4    0    0 -0.35452451598E+02  0.10443907370E+03  0.67154803832E+03  0.68531115965E+03  0.80685942513E+02 0.  0.
         24    2    4    4    0    0 -0.59564544716E+03  0.48351283282E+01 -0.14043714417E+02  0.60038821630E+03  0.73837031165E+02 0.  0.
         13    1    3    3    0    0  0.17579351871E+03 -0.41532196108E+02 -0.12002017007E+03  0.21687121929E+03  0.00000000000E+00 0.  1.
        -13    1    3    3    0    0  0.45530438005E+03 -0.67742005925E+02 -0.14834333618E+03  0.48362878662E+03  0.00000000000E+00 0. -1.
          4    1    6    6  502    0 -0.44481351643E+02 -0.32511926729E+01 -0.20595867471E+02  0.49125865434E+02  0.00000000000E+00 0. -1.
          3    1    5    5  503    0  0.22588280895E+02  0.10525233012E+02  0.16504098212E+03  0.16691176335E+03  0.00000000000E+00 0. -1.
         -4    1    5    5    0  503 -0.58040732493E+02  0.93913840693E+02  0.50650705620E+03  0.51839939630E+03  0.00000000000E+00 0.  1.
         -3    1    6    6    0  502 -0.55116409552E+03  0.80863210010E+01  0.65521530540E+01  0.55126235087E+03  0.00000000000E+00 0.  1.
<mgrwt>
<rscale>  0 0.19477057E+04</rscale>
<asrwt>0</asrwt>
<pdfrwt beam="1">  1        2 0.12285066E+00 0.19477057E+04</pdfrwt>
<pdfrwt beam="2">  1       -2 0.18271848E+00 0.19477057E+04</pdfrwt>
<totfact> 0.55923606E+00</totfact>
</mgrwt>
</event>
<event>
12    1  0.2214165E-007  0.1634436E+04  0.7818608E-02  0.8799667E-01
         -2   -1    0    0    0  501 -0.00000000000E+00  0.00000000000E+00  0.32997292967E+03  0.32997292967E+03  0.00000000000E+00 0.  1.
          2   -1    0    0  501    0  0.00000000000E+00 -0.00000000000E+00 -0.20239407760E+04  0.20239407760E+04  0.00000000000E+00 0. -1.
         23    2    1    2    0    0  0.51934501422E+02 -0.46253964632E+03 -0.10516104646E+04  0.11535070836E+04  0.89743555865E+02 0.  0.
        254    2    1    2    0    0 -0.51934501422E+02  0.46253964632E+03 -0.64235738167E+03  0.12004066220E+04  0.90095112828E+03 0.  0.
        -24    2    4    4    0    0 -0.55758615451E+02  0.67196069225E+03 -0.69382986816E+03  0.97070429215E+03  0.78909706134E+02 0.  0.
         24    2    4    4    0    0  0.38241140292E+01 -0.20942104594E+03  0.51472486489E+02  0.22970232986E+03  0.79005981737E+02 0.  0.
         13    1    3    3    0    0  0.60991151255E+02 -0.35793449376E+03 -0.88479184881E+03  0.95639617213E+03  0.00000000000E+00 0. -1.
        -13    1    3    3    0    0 -0.90566498338E+01 -0.10460515256E+03 -0.16681861584E+03  0.19711091151E+03  0.00000000000E+00 0.  1.
          4    1    6    6  502    0 -0.41910602485E+01 -0.96599806876E+02  0.63927630770E+02  0.11591302623E+03  0.00000000000E+00 0. -1.
          1    1    5    5  503    0 -0.64052351441E+01  0.11574963866E+03 -0.16486089223E+03  0.20153937500E+03  0.00000000000E+00 0. -1.
         -2    1    5    5    0  503 -0.49353380307E+02  0.55621105359E+03 -0.52896897592E+03  0.76916491715E+03  0.00000000000E+00 0.  1.
         -3    1    6    6    0  502  0.80151742776E+01 -0.11282123906E+03 -0.12455144281E+02  0.11378930363E+03  0.00000000000E+00 0.  1.
<mgrwt>
<rscale>  0 0.16344365E+04</rscale>
<asrwt>0</asrwt>
<pdfrwt beam="1">  1        2 0.31137551E+00 0.16344365E+04</pdfrwt>
<pdfrwt beam="2">  1       -2 0.50765065E-01 0.16344365E+04</pdfrwt>
<totfact> 0.22737846E+01</totfact>
</mgrwt>
</event>
<event>
12    1  0.2214165E-007  0.2613852E+04  0.7818608E-02  0.8363511E-01
         -2   -1    0    0    0  501 -0.00000000000E+00  0.00000000000E+00  0.19486399567E+04  0.19486399567E+04  0.00000000000E+00 0.  1.
          2   -1    0    0  501    0  0.00000000000E+00 -0.00000000000E+00 -0.87653760112E+03  0.87653760112E+03  0.00000000000E+00 0. -1.
         23    2    1    2    0    0 -0.32272148245E+03 -0.10411491524E+04  0.84957111673E+02  0.10966836014E+04  0.85770030296E+02 0.  0.
        254    2    1    2    0    0  0.32272148245E+03  0.10411491524E+04  0.98714524388E+03  0.17284939564E+04  0.90834735201E+03 0.  0.
        -24    2    4    4    0    0  0.26891060490E+03  0.10436115067E+04  0.43114914093E+03  0.11641433570E+04  0.88894789263E+02 0.  0.
         24    2    4    4    0    0  0.53810877557E+02 -0.24623543419E+01  0.55599610295E+03  0.56435059934E+03  0.80363292303E+02 0.  0.
         13    1    3    3    0    0 -0.27334827300E+03 -0.84209726386E+03  0.10036397720E+03  0.89102188978E+03  0.00000000000E+00 0. -1.
        -13    1    3    3    0    0 -0.49373209455E+02 -0.19905188852E+03 -0.15406865524E+02  0.20566171166E+03  0.00000000000E+00 0.  1.
          2    1    6    6  502    0  0.21397853051E+02  0.22695069438E+02  0.70114706393E+02  0.76739861510E+02  0.00000000000E+00 0. -1.
          1    1    5    5  503    0  0.71136873289E+02  0.22181644113E+03  0.57224612033E+02  0.23987005757E+03  0.00000000000E+00 0. -1.
         -2    1    5    5    0  503  0.19777373161E+03  0.82179506559E+03  0.37392452889E+03  0.92427329944E+03  0.00000000000E+00 0.  1.
         -1    1    6    6    0  502  0.32413024506E+02 -0.25157423780E+02  0.48588139656E+03  0.48761073783E+03  0.00000000000E+00 0.  1.
<mgrwt>
<rscale>  0 0.26138525E+04</rscale>
<asrwt>0</asrwt>
<pdfrwt beam="1">  1        2 0.13485194E+00 0.26138525E+04</pdfrwt>
<pdfrwt beam="2">  1       -2 0.29979076E+00 0.26138525E+04</pdfrwt>
<totfact> 0.85694052E-01</totfact>
</mgrwt>
</event>
<event>
12    1  0.2214165E-007  0.2594445E+04  0.7818608E-02  0.8370091E-01
          2   -1    0    0  501    0  0.00000000000E+00  0.00000000000E+00  0.18832635521E+04  0.18832635521E+04  0.00000000000E+00 0. -1.
         -2   -1    0    0    0  501 -0.00000000000E+00 -0.00000000000E+00 -0.89354776672E+03  0.89354776672E+03  0.00000000000E+00 0.  1.
         23    2    1    2    0    0 -0.18855784013E+03  0.10216251634E+04 -0.63971098831E+02  0.10447718028E+04  0.90464274641E+02 0.  0.
        254    2    1    2    0    0  0.18855784013E+03 -0.10216251634E+04  0.10536868842E+04  0.17320395160E+04  0.90024041311E+03 0.  0.
        -24    2    4    4    0    0 -0.25103747318E+03 -0.30808664416E+03  0.72034691422E+03  0.82664152166E+03  0.80618454854E+02 0.  0.
         24    2    4    4    0    0  0.43959531331E+03 -0.71353851922E+03  0.33333996999E+03  0.90539799431E+03  0.79048938106E+02 0.  0.
         13    1    3    3    0    0 -0.75088566052E+01  0.25432390878E+03 -0.14211203124E+02  0.25483130066E+03  0.00000000000E+00 0. -1.
        -13    1    3    3    0    0 -0.18104898352E+03  0.76730125461E+03 -0.49759895707E+02  0.78994050218E+03  0.00000000000E+00 0.  1.
          4    1    6    6  502    0  0.19004679569E+03 -0.26116202382E+03  0.16002804956E+03  0.36046132093E+03  0.00000000000E+00 0. -1.
          3    1    5    5  503    0 -0.16126151513E+03 -0.16780169570E+03  0.34686184332E+03  0.41770303290E+03  0.00000000000E+00 0. -1.
         -4    1    5    5    0  503 -0.89775958048E+02 -0.14028494846E+03  0.37348507090E+03  0.40893848876E+03  0.00000000000E+00 0.  1.
         -3    1    6    6    0  502  0.24954851762E+03 -0.45237649540E+03  0.17331192043E+03  0.54493667338E+03  0.00000000000E+00 0.  1.
<mgrwt>
<rscale>  0 0.25944448E+04</rscale>
<asrwt>0</asrwt>
<pdfrwt beam="1">  1        2 0.28973285E+00 0.25944448E+04</pdfrwt>
<pdfrwt beam="2">  1       -2 0.13746889E+00 0.25944448E+04</pdfrwt>
<totfact> 0.25854968E+00</totfact>
</mgrwt>
</event>
<event>
12    1  0.2214165E-007  0.1691229E+04  0.7818608E-02  0.8766382E-01
         -1   -1    0    0    0  501 -0.00000000000E+00  0.00000000000E+00  0.54883265503E+03  0.54883265503E+03  0.00000000000E+00 0.  1.
          1   -1    0    0  501    0  0.00000000000E+00 -0.00000000000E+00 -0.13028819392E+04  0.13028819392E+04  0.00000000000E+00 0. -1.
         23    2    1    2    0    0  0.58415396623E+03 -0.63948187789E+02 -0.12852960843E+03  0.60841433454E+03  0.91230012880E+02 0.  0.
        254    2    1    2    0    0 -0.58415396623E+03  0.63948187789E+02 -0.62551967574E+03  0.12433002597E+04  0.89955291340E+03 0.  0.
        -24    2    4    4    0    0 -0.64487177598E+02 -0.14016932481E+03 -0.65573801189E+03  0.67847499268E+03  0.80808042706E+02 0.  0.
         24    2    4    4    0    0 -0.51966678863E+03  0.20411751260E+03  0.30218336152E+02  0.56482526700E+03  0.79980649229E+02 0.  0.
         11    1    3    3    0    0  0.53795754654E+03 -0.41806431669E+02 -0.13648014289E+03  0.55657248316E+03  0.00000000000E+00 0. -1.
        -11    1    3    3    0    0  0.46196419686E+02 -0.22141756120E+02  0.79505344661E+01  0.51841851376E+02  0.00000000000E+00 0.  1.
          2    1    6    6  502    0 -0.95086533509E+00  0.21072704758E+01 -0.65526592108E+01  0.69485305264E+01  0.00000000000E+00 0. -1.
          3    1    5    5  503    0  0.92930204179E+01  0.99511655399E+00 -0.97811439288E+02  0.98256949582E+02  0.00000000000E+00 0. -1.
         -4    1    5    5    0  503 -0.73780198016E+02 -0.14116444136E+03 -0.55792657260E+03  0.58021804310E+03  0.00000000000E+00 0.  1.
         -1    1    6    6    0  502 -0.51871592329E+03  0.20201024212E+03  0.36770995363E+02  0.55787673648E+03  0.00000000000E+00 0.  1.
<mgrwt>
<rscale>  0 0.16912293E+04</rscale>
<asrwt>0</asrwt>
<pdfrwt beam="1">  1        1 0.20044337E+00 0.16912293E+04</pdfrwt>
<pdfrwt beam="2">  1       -1 0.84435793E-01 0.16912293E+04</pdfrwt>
<totfact> 0.11909177E+01</totfact>
</mgrwt>
</event>
<event>
12    1  0.2214165E-007  0.1987890E+04  0.7818608E-02  0.8612303E-01
         -2   -1    0    0    0  501 -0.00000000000E+00  0.00000000000E+00  0.14252082438E+04  0.14252082438E+04  0.00000000000E+00 0.  1.
          2   -1    0    0  501    0  0.00000000000E+00 -0.00000000000E+00 -0.69318063072E+03  0.69318063072E+03  0.00000000000E+00 0. -1.
         23    2    1    2    0    0 -0.10859914101E+03  0.77943658210E+03  0.31929115682E+03  0.85399673328E+03  0.89712979446E+02 0.  0.
        254    2    1    2    0    0  0.10859914101E+03 -0.77943658210E+03  0.41273645620E+03  0.12643921412E+04  0.89945591637E+03 0.  0.
        -24    2    4    4    0    0  0.33274974456E+03  0.35742695064E+02  0.15560856508E+03  0.37726795346E+03  0.78212214037E+02 0.  0.
         24    2    4    4    0    0 -0.22415060356E+03 -0.81517927717E+03  0.25712789113E+03  0.88712418774E+03  0.78190952640E+02 0.  0.
         11    1    3    3    0    0 -0.43592127823E+02  0.37788019298E+03  0.20171710277E+03  0.43056184620E+03  0.00000000000E+00 0.  1.
        -11    1    3    3    0    0 -0.65007013184E+02  0.40155638913E+03  0.11757405405E+03  0.42343488708E+03  0.00000000000E+00 0. -1.
          4    1    6    6  502    0 -0.17410622696E+02 -0.12360300661E+03  0.14706645474E+02  0.12568658818E+03  0.00000000000E+00 0. -1.
          1    1    5    5  503    0  0.20195441191E+03 -0.13977830967E+02  0.10812535188E+03  0.22950393454E+03  0.00000000000E+00 0. -1.
         -2    1    5    5    0  503  0.13079533265E+03  0.49720526031E+02  0.47483213197E+02  0.14776401892E+03  0.00000000000E+00 0.  1.
         -3    1    6    6    0  502 -0.20673998086E+03 -0.69157627055E+03  0.24242124565E+03  0.76143759956E+03  0.00000000000E+00 0.  1.
<mgrwt>
<rscale>  0 0.19878901E+04</rscale>
<asrwt>0</asrwt>
<pdfrwt beam="1">  1        2 0.10664317E+00 0.19878901E+04</pdfrwt>
<pdfrwt beam="2">  1       -2 0.21926281E+00 0.19878901E+04</pdfrwt>
<totfact> 0.38521305E+00</totfact>
</mgrwt>
</event>
<event>
12    1  0.2214165E-007  0.2507927E+04  0.7818608E-02  0.8400167E-01
         -1   -1    0    0    0  501 -0.00000000000E+00  0.00000000000E+00  0.12297901574E+04  0.12297901574E+04  0.00000000000E+00 0.  1.
          1   -1    0    0  501    0  0.00000000000E+00 -0.00000000000E+00 -0.12786116048E+04  0.12786116048E+04  0.00000000000E+00 0. -1.
         23    2    1    2    0    0  0.25427421892E+03 -0.79013646135E+03  0.68612349702E+03  0.10807836697E+04  0.91415980543E+02 0.  0.
        254    2    1    2    0    0 -0.25427421892E+03  0.79013646135E+03 -0.73494494444E+03  0.14276180926E+04  0.89943223256E+03 0.  0.
        -24    2    4    4    0    0  0.52535373636E+02  0.88470409473E+03 -0.56865323015E+03  0.10559615826E+04  0.78911767706E+02 0.  0.
         24    2    4    4    0    0 -0.30680959255E+03 -0.94567633383E+02 -0.16629171428E+03  0.37165650997E+03  0.86025948379E+02 0.  0.
         13    1    3    3    0    0  0.13757242699E+03 -0.41886372869E+03  0.30522701674E+03  0.53622432585E+03  0.00000000000E+00 0.  1.
        -13    1    3    3    0    0  0.11670179193E+03 -0.37127273266E+03  0.38089648028E+03  0.54455934382E+03  0.00000000000E+00 0. -1.
          2    1    6    6  502    0 -0.28101849274E+03 -0.11032540257E+03 -0.14685610966E+03  0.33572280926E+03  0.00000000000E+00 0. -1.
          1    1    5    5  503    0  0.22006337233E+02  0.33786431133E+03 -0.17231185100E+03  0.37990517994E+03  0.00000000000E+00 0. -1.
         -2    1    5    5    0  503  0.30529036403E+02  0.54683978340E+03 -0.39634137915E+03  0.67605640268E+03  0.00000000000E+00 0.  1.
         -1    1    6    6    0  502 -0.25791099815E+02  0.15757769186E+02 -0.19435604622E+02  0.35933700706E+02  0.00000000000E+00 0.  1.
<mgrwt>
<rscale>  0 0.25079266E+04</rscale>
<asrwt>0</asrwt>
<pdfrwt beam="1">  1        1 0.19670948E+00 0.25079266E+04</pdfrwt>
<pdfrwt beam="2">  1       -1 0.18919849E+00 0.25079266E+04</pdfrwt>
<totfact> 0.14893065E+00</totfact>
</mgrwt>
</event>
<event>
12    1  0.2214165E-007  0.2031629E+04  0.7818608E-02  0.8591974E-01
         -1   -1    0    0    0  501 -0.00000000000E+00  0.00000000000E+00  0.12559255419E+04  0.12559255419E+04  0.00000000000E+00 0. -1.
          1   -1    0    0  501    0  0.00000000000E+00 -0.00000000000E+00 -0.82160837846E+03  0.82160837846E+03  0.00000000000E+00 0.  1.
         23    2    1    2    0    0 -0.71342924444E+03  0.26121283445E+03  0.46782384359E+03  0.89671322511E+03  0.89565773322E+02 0.  0.
        254    2    1    2    0    0  0.71342924444E+03 -0.26121283445E+03 -0.33506680097E+02  0.11808206953E+04  0.90332794993E+03 0.  0.
        -24    2    4    4    0    0  0.46711595194E+03 -0.58226300197E+03 -0.11751798126E+03  0.75982847841E+03  0.79380883495E+02 0.  0.
         24    2    4    4    0    0  0.24631329250E+03  0.32105016752E+03  0.84011301161E+02  0.42099221689E+03  0.80206607159E+02 0.  0.
         13    1    3    3    0    0 -0.27456657163E+03  0.82458777086E+02  0.22385551332E+03  0.36372729210E+03  0.00000000000E+00 0. -1.
        -13    1    3    3    0    0 -0.43886267281E+03  0.17875405737E+03  0.24396833027E+03  0.53298593301E+03  0.00000000000E+00 0.  1.
          2    1    6    6  502    0  0.23864994867E+03  0.30040804304E+03  0.96586087448E+02  0.39563577014E+03  0.00000000000E+00 0. -1.
          1    1    5    5  503    0  0.46838264753E+03 -0.58333986064E+03 -0.11910350390E+03  0.75753108329E+03  0.00000000000E+00 0. -1.
         -2    1    5    5    0  503 -0.12666955855E+01  0.10768586666E+01  0.15855226401E+01  0.22973951198E+01  0.00000000000E+00 0.  1.
         -1    1    6    6    0  502  0.76633438247E+01  0.20642124474E+02 -0.12574786286E+02  0.25356446745E+02  0.00000000000E+00 0.  1.
<mgrwt>
<rscale>  0 0.20316289E+04</rscale>
<asrwt>0</asrwt>
<pdfrwt beam="1">  1        1 0.12640129E+00 0.20316289E+04</pdfrwt>
<pdfrwt beam="2">  1       -1 0.19321931E+00 0.20316289E+04</pdfrwt>
<totfact> 0.32860831E+00</totfact>
</mgrwt>
</event>
<event>
12    1  0.2214165E-007  0.1924308E+04  0.7818608E-02  0.8642851E-01
          1   -1    0    0  501    0  0.00000000000E+00  0.00000000000E+00  0.12707244693E+04  0.12707244693E+04  0.00000000000E+00 0. -1.
         -1   -1    0    0    0  501 -0.00000000000E+00 -0.00000000000E+00 -0.72851348142E+03  0.72851348142E+03  0.00000000000E+00 0.  1.
         23    2    1    2    0    0 -0.72267419602E+03  0.78519335261E+02  0.26005932689E+02  0.73311323150E+03  0.91407997847E+02 0.  0.
        254    2    1    2    0    0  0.72267419602E+03 -0.78519335261E+02  0.51620505517E+03  0.12661247192E+04  0.89898880192E+03 0.  0.
        -24    2    4    4    0    0  0.24861011162E+03  0.17506202852E+03  0.63621459878E+03  0.70973962880E+03  0.80669842997E+02 0.  0.
         24    2    4    4    0    0  0.47406408440E+03 -0.25358136378E+03 -0.12000954361E+03  0.55638509039E+03  0.78242022482E+02 0.  0.
         13    1    3    3    0    0 -0.54654587473E+03  0.51304107298E+02  0.58147203441E+02  0.55201956657E+03  0.00000000000E+00 0. -1.
        -13    1    3    3    0    0 -0.17612832129E+03  0.27215227964E+02 -0.32141270752E+02  0.18109366493E+03  0.00000000000E+00 0.  1.
          2    1    6    6  502    0  0.29262943381E+03 -0.12415847013E+03 -0.96924470556E+02  0.33232764590E+03  0.00000000000E+00 0. -1.
          3    1    5    5  503    0  0.45506636854E+02  0.80733154579E+00  0.11871422483E+03  0.12713997388E+03  0.00000000000E+00 0. -1.
         -4    1    5    5    0  503  0.20310347477E+03  0.17425469697E+03  0.51750037395E+03  0.58259965493E+03  0.00000000000E+00 0.  1.
         -1    1    6    6    0  502  0.18143465059E+03 -0.12942289365E+03 -0.23085073052E+02  0.22405744450E+03  0.00000000000E+00 0.  1.
<mgrwt>
<rscale>  0 0.19243076E+04</rscale>
<asrwt>0</asrwt>
<pdfrwt beam="1">  1        1 0.19549607E+00 0.19243076E+04</pdfrwt>
<pdfrwt beam="2">  1       -1 0.11207900E+00 0.19243076E+04</pdfrwt>
<totfact> 0.64713869E+00</totfact>
</mgrwt>
</event>
<event>
12    1  0.2214165E-007  0.4111741E+04  0.7818608E-02  0.7982377E-01
         -2   -1    0    0    0  501 -0.00000000000E+00  0.00000000000E+00  0.21519107821E+04  0.21519107821E+04  0.00000000000E+00 0. -1.
          2   -1    0    0  501    0  0.00000000000E+00 -0.00000000000E+00 -0.19641161203E+04  0.19641161203E+04  0.00000000000E+00 0.  1.
         23    2    1    2    0    0  0.94837250332E+03  0.34042593490E+03 -0.15890477401E+04  0.18831800126E+04  0.77421038285E+02 0.  0.
        254    2    1    2    0    0 -0.94837250332E+03 -0.34042593490E+03  0.17768424019E+04  0.22328468899E+04  0.90174058918E+03 0.  0.
        -24    2    4    4    0    0 -0.34149781850E+03  0.27118024510E+03  0.88815757657E+03  0.99249889425E+03  0.77914625636E+02 0.  0.
         24    2    4    4    0    0 -0.60687468482E+03 -0.61160618000E+03  0.88868482532E+03  0.12403479956E+04  0.79645646266E+02 0.  0.
         11    1    3    3    0    0  0.31614124743E+03  0.76276285472E+02 -0.49477846149E+03  0.59208874843E+03  0.00000000000E+00 0. -1.
        -11    1    3    3    0    0  0.63223125589E+03  0.26414964943E+03 -0.10942692786E+04  0.12910912641E+04  0.00000000000E+00 0.  1.
          4    1    6    6  502    0 -0.33782364021E+03 -0.30804514906E+03  0.42409119000E+03  0.62359438995E+03  0.00000000000E+00 0. -1.
          3    1    5    5  503    0 -0.16484162211E+03  0.13887041950E+03  0.52512479287E+03  0.56763879526E+03  0.00000000000E+00 0. -1.
         -4    1    5    5    0  503 -0.17665619639E+03  0.13230982560E+03  0.36303278369E+03  0.42486009899E+03  0.00000000000E+00 0.  1.
         -3    1    6    6    0  502 -0.26905104461E+03 -0.30356103094E+03  0.46459363532E+03  0.61675360566E+03  0.00000000000E+00 0.  1.
<mgrwt>
<rscale>  0 0.41117406E+04</rscale>
<asrwt>0</asrwt>
<pdfrwt beam="1">  1        2 0.30217171E+00 0.41117406E+04</pdfrwt>
<pdfrwt beam="2">  1       -2 0.33106320E+00 0.41117406E+04</pdfrwt>
<totfact> 0.11180538E-01</totfact>
</mgrwt>
</event>
<event>
12    1  0.2214165E-007  0.1752860E+04  0.7818608E-02  0.8731777E-01
         -2   -1    0    0    0  501 -0.00000000000E+00  0.00000000000E+00  0.42908007455E+03  0.42908007455E+03  0.00000000000E+00 0.  1.
          2   -1    0    0  501    0  0.00000000000E+00 -0.00000000000E+00 -0.17901781773E+04  0.17901781773E+04  0.00000000000E+00 0. -1.
         23    2    1    2    0    0 -0.13277997476E+03 -0.31973586423E+03  0.18062479461E+03  0.40098473184E+03  0.91114730793E+02 0.  0.
        254    2    1    2    0    0  0.13277997476E+03  0.31973586423E+03 -0.15417228973E+04  0.18182735200E+04  0.89963745852E+03 0.  0.
        -24    2    4    4    0    0 -0.22860130075E+03 -0.10954185263E+03 -0.99419192638E+03  0.10291500945E+04  0.80463396978E+02 0.  0.
         24    2    4    4    0    0  0.36138127552E+03  0.42927771686E+03 -0.54753097095E+03  0.78912342554E+03  0.89720856511E+02 0.  0.
         13    1    3    3    0    0 -0.10888645879E+03 -0.20501783362E+03  0.77051811271E+02  0.24459262996E+03  0.00000000000E+00 0. -1.
        -13    1    3    3    0    0 -0.23893515969E+02 -0.11471803061E+03  0.10357298334E+03  0.15639210188E+03  0.00000000000E+00 0.  1.
          4    1    6    6  502    0  0.20264949376E+03  0.30676768242E+03 -0.34735405531E+03  0.50579449190E+03  0.00000000000E+00 0. -1.
          3    1    5    5  503    0 -0.17704765624E+03 -0.11815094464E+03 -0.82881492075E+03  0.85571005087E+03  0.00000000000E+00 0. -1.
         -4    1    5    5    0  503 -0.51553644512E+02  0.86090920143E+01 -0.16537700563E+03  0.17344004358E+03  0.00000000000E+00 0.  1.
         -3    1    6    6    0  502  0.15873178176E+03  0.12251003444E+03 -0.20017691564E+03  0.28332893363E+03  0.00000000000E+00 0.  1.
<mgrwt>
<rscale>  0 0.17528603E+04</rscale>
<asrwt>0</asrwt>
<pdfrwt beam="1">  1        2 0.27541203E+00 0.17528603E+04</pdfrwt>
<pdfrwt beam="2">  1       -2 0.66012319E-01 0.17528603E+04</pdfrwt>
<totfact> 0.17482390E+01</totfact>
</mgrwt>
</event>
<event>
12    1  0.2214165E-007  0.1976152E+04  0.7818608E-02  0.8617852E-01
          2   -1    0    0  501    0  0.00000000000E+00  0.00000000000E+00  0.12094514119E+04  0.12094514119E+04  0.00000000000E+00 0.  1.
         -2   -1    0    0    0  501 -0.00000000000E+00 -0.00000000000E+00 -0.80722052413E+03  0.80722052413E+03  0.00000000000E+00 0. -1.
         23    2    1    2    0    0  0.44568567556E+03 -0.17859644564E+03  0.78756612648E+03  0.92691310615E+03  0.91515523161E+02 0.  0.
        254    2    1    2    0    0 -0.44568567556E+03  0.17859644564E+03 -0.38533523876E+03  0.10897588298E+04  0.89919889301E+03 0.  0.
        -24    2    4    4    0    0 -0.56411831040E+03  0.43522321012E+03 -0.33844881293E+03  0.79241382130E+03  0.75652854922E+02 0.  0.
         24    2    4    4    0    0  0.11843263485E+03 -0.25662676448E+03 -0.46886425828E+02  0.29734500853E+03  0.79574694025E+02 0.  0.
         11    1    3    3    0    0  0.12620990834E+03 -0.90459749026E+02  0.29244008059E+03  0.33110890639E+03  0.00000000000E+00 0. -1.
        -11    1    3    3    0    0  0.31947576721E+03 -0.88136696611E+02  0.49512604589E+03  0.59580419976E+03  0.00000000000E+00 0.  1.
          4    1    6    6  502    0  0.10511073521E+03 -0.13969348112E+03 -0.15296309707E+02  0.17548935128E+03  0.00000000000E+00 0. -1.
          1    1    5    5  503    0 -0.37434312631E+03  0.24772670811E+03 -0.23067704215E+03  0.50469118865E+03  0.00000000000E+00 0. -1.
         -2    1    5    5    0  503 -0.18977518409E+03  0.18749650200E+03 -0.10777177078E+03  0.28772263265E+03  0.00000000000E+00 0.  1.
         -3    1    6    6    0  502  0.13321899639E+02 -0.11693328336E+03 -0.31590116121E+02  0.12185565725E+03  0.00000000000E+00 0.  1.
<mgrwt>
<rscale>  0 0.19761518E+04</rscale>
<asrwt>0</asrwt>
<pdfrwt beam="1">  1        2 0.18606945E+00 0.19761518E+04</pdfrwt>
<pdfrwt beam="2">  1       -2 0.12418777E+00 0.19761518E+04</pdfrwt>
<totfact> 0.84835075E+00</totfact>
</mgrwt>
</event>
<event>
12    1  0.2214165E-007  0.1782315E+04  0.7818608E-02  0.8715761E-01
         -1   -1    0    0    0  501 -0.00000000000E+00  0.00000000000E+00  0.77437083055E+03  0.77437083055E+03  0.00000000000E+00 0.  1.
          1   -1    0    0  501    0  0.00000000000E+00 -0.00000000000E+00 -0.10255568954E+04  0.10255568954E+04  0.00000000000E+00 0. -1.
         23    2    1    2    0    0  0.19744312172E+03  0.62486420612E+03 -0.11603879346E+03  0.67176341808E+03  0.91444113377E+02 0.  0.
        254    2    1    2    0    0 -0.19744312172E+03 -0.62486420612E+03 -0.13514727135E+03  0.11281643078E+04  0.90832310225E+03 0.  0.
        -24    2    4    4    0    0 -0.14276478556E+03 -0.39580631100E+03 -0.51752961150E+03  0.67183765037E+03  0.80526454330E+02 0.  0.
         24    2    4    4    0    0 -0.54678336167E+02 -0.22905789512E+03  0.38238234015E+03  0.45632665746E+03  0.80997064656E+02 0.  0.
         13    1    3    3    0    0  0.12670312417E+03  0.51026624810E+03 -0.10876541752E+03  0.53689406932E+03  0.00000000000E+00 0.  1.
        -13    1    3    3    0    0  0.70739997553E+02  0.11459795803E+03 -0.72733759483E+01  0.13486934876E+03  0.00000000000E+00 0. -1.
          2    1    6    6  502    0 -0.11500699335E+02 -0.16043345466E+03  0.19940135518E+03  0.25618754830E+03  0.00000000000E+00 0. -1.
          3    1    5    5  503    0 -0.15088393911E+03 -0.38605851344E+03 -0.50956327691E+03  0.65685757365E+03  0.00000000000E+00 0. -1.
         -4    1    5    5    0  503  0.81191535536E+01 -0.97477975603E+01 -0.79663345863E+01  0.14980076717E+02  0.00000000000E+00 0.  1.
         -1    1    6    6    0  502 -0.43177636833E+02 -0.68624440464E+02  0.18298098497E+03  0.20013910915E+03  0.00000000000E+00 0.  1.
<mgrwt>
<rscale>  0 0.17823146E+04</rscale>
<asrwt>0</asrwt>
<pdfrwt beam="1">  1        1 0.15777798E+00 0.17823146E+04</pdfrwt>
<pdfrwt beam="2">  1       -1 0.11913397E+00 0.17823146E+04</pdfrwt>
<totfact> 0.86087345E+00</totfact>
</mgrwt>
</event>
<event>
12    1  0.2374142E-007  0.1936581E+04  0.7818608E-02  0.8636859E-01
         -1   -1    0    0    0  501 -0.00000000000E+00  0.00000000000E+00  0.75924395752E+03  0.75924395752E+03  0.00000000000E+00 0.  1.
          1   -1    0    0  501    0  0.00000000000E+00 -0.00000000000E+00 -0.12348950187E+04  0.12348950187E+04  0.00000000000E+00 0. -1.
         23    2    1    2    0    0 -0.26670408075E+03 -0.59492699222E+03  0.20569247267E+03  0.68947806402E+03  0.89450627175E+02 0.  0.
        254    2    1    2    0    0  0.26670408075E+03  0.59492699222E+03 -0.68134353381E+03  0.13046609122E+04  0.90157744641E+03 0.  0.
        -24    2    4    4    0    0 -0.49062247604E+01  0.72420840823E+03 -0.67507045715E+03  0.99321301712E+03  0.79057483380E+02 0.  0.
         24    2    4    4    0    0  0.27161030551E+03 -0.12928141601E+03 -0.62730766657E+01  0.31144789503E+03  0.80464882042E+02 0.  0.
         13    1    3    3    0    0 -0.21353257073E+03 -0.41827470002E+03  0.11305318827E+03  0.48304337985E+03  0.00000000000E+00 0. -1.
        -13    1    3    3    0    0 -0.53171510021E+02 -0.17665229220E+03  0.92639284402E+02  0.20643468418E+03  0.00000000000E+00 0.  1.
          2    1    6    6  502    0  0.20532847172E+03 -0.56538378001E+02 -0.36736141747E+01  0.21300203034E+03  0.00000000000E+00 0. -1.
          1    1    5    5  503    0 -0.35809501736E+02  0.49995055134E+03 -0.48780837891E+03  0.69942110974E+03  0.00000000000E+00 0. -1.
         -4    1    5    5    0  503  0.30903276976E+02  0.22425785689E+03 -0.18726207823E+03  0.29379190739E+03  0.00000000000E+00 0.  1.
         -1    1    6    6    0  502  0.66281833784E+02 -0.72743038013E+02 -0.25994624910E+01  0.98445864689E+02  0.00000000000E+00 0.  1.
<mgrwt>
<rscale>  0 0.19365811E+04</rscale>
<asrwt>0</asrwt>
<pdfrwt beam="1">  1        1 0.18998385E+00 0.19365811E+04</pdfrwt>
<pdfrwt beam="2">  1       -1 0.11680676E+00 0.19365811E+04</pdfrwt>
<totfact> 0.62145437E+00</totfact>
</mgrwt>
</event>
<event>
12    1  0.2214165E-007  0.2460299E+04  0.7818608E-02  0.8417267E-01
         -1   -1    0    0    0  501 -0.00000000000E+00  0.00000000000E+00  0.16548992145E+04  0.16548992145E+04  0.00000000000E+00 0.  1.
          1   -1    0    0  501    0  0.00000000000E+00 -0.00000000000E+00 -0.91441654465E+03  0.91441654465E+03  0.00000000000E+00 0. -1.
         23    2    1    2    0    0  0.74730539097E+03 -0.47254234166E+03  0.93772876999E+03  0.12920516139E+04  0.91107162171E+02 0.  0.
        254    2    1    2    0    0 -0.74730539097E+03  0.47254234166E+03 -0.19724610013E+03  0.12772641452E+04  0.90040882969E+03 0.  0.
        -24    2    4    4    0    0 -0.25902815173E+03 -0.39467167189E+02  0.30186843655E+03  0.40745746260E+03  0.79017657317E+02 0.  0.
         24    2    4    4    0    0 -0.48827723924E+03  0.51200950885E+03 -0.49911453669E+03  0.86980668261E+03  0.82945433048E+02 0.  0.
         11    1    3    3    0    0  0.26539087602E+03 -0.21827828770E+03  0.38045890749E+03  0.51266627376E+03  0.00000000000E+00 0. -1.
        -11    1    3    3    0    0  0.48191451495E+03 -0.25426405396E+03  0.55726986250E+03  0.77938534019E+03  0.00000000000E+00 0.  1.
          2    1    6    6  502    0 -0.73617647613E+02  0.41402731590E+02 -0.47413271393E+02  0.96859498901E+02  0.00000000000E+00 0. -1.
          3    1    5    5  503    0 -0.19016866792E+02 -0.26248071393E+02  0.25968575543E+02  0.41532750813E+02  0.00000000000E+00 0. -1.
         -4    1    5    5    0  503 -0.24001128494E+03 -0.13219095796E+02  0.27589986101E+03  0.36592471179E+03  0.00000000000E+00 0.  1.
         -1    1    6    6    0  502 -0.41465959163E+03  0.47060677726E+03 -0.45170126529E+03  0.77294718371E+03  0.00000000000E+00 0.  1.
<mgrwt>
<rscale>  0 0.24602985E+04</rscale>
<asrwt>0</asrwt>
<pdfrwt beam="1">  1        1 0.14067947E+00 0.24602985E+04</pdfrwt>
<pdfrwt beam="2">  1       -1 0.25459988E+00 0.24602985E+04</pdfrwt>
<totfact> 0.10270651E+00</totfact>
</mgrwt>
</event>
<event>
12    1  0.2214165E-007  0.2183937E+04  0.7818608E-02  0.8525144E-01
         -2   -1    0    0    0  501 -0.00000000000E+00  0.00000000000E+00  0.15291751784E+04  0.15291751784E+04  0.00000000000E+00 0.  1.
          2   -1    0    0  501    0  0.00000000000E+00 -0.00000000000E+00 -0.77976361187E+03  0.77976361187E+03  0.00000000000E+00 0. -1.
         23    2    1    2    0    0 -0.27578274861E+03  0.62847816296E+03  0.93320933451E+03  0.11616343823E+04  0.86451433128E+02 0.  0.
        254    2    1    2    0    0  0.27578274861E+03 -0.62847816296E+03 -0.18379776801E+03  0.11473044080E+04  0.90082454413E+03 0.  0.
        -24    2    4    4    0    0  0.11910853785E+03  0.11419059136E+03 -0.32328134867E+03  0.37174726072E+03  0.80367036235E+02 0.  0.
         24    2    4    4    0    0  0.15667421076E+03 -0.74266875432E+03  0.13948358066E+03  0.77555714726E+03  0.77003457272E+02 0.  0.
         11    1    3    3    0    0 -0.69610928776E+01 -0.12060427043E+01  0.10373092627E+02  0.12550394563E+02  0.00000000000E+00 0.  1.
        -11    1    3    3    0    0 -0.26882165573E+03  0.62968420566E+03  0.92283624189E+03  0.11490839877E+04  0.00000000000E+00 0. -1.
          4    1    6    6  502    0  0.50695887416E+02 -0.24364363690E+03  0.92115004637E+01  0.24903242067E+03  0.00000000000E+00 0. -1.
          3    1    5    5  503    0  0.42998800542E+02  0.95871851403E+02 -0.19333387059E+03  0.22004157393E+03  0.00000000000E+00 0. -1.
         -4    1    5    5    0  503  0.76109737308E+02  0.18318739961E+02 -0.12994747808E+03  0.15170568680E+03  0.00000000000E+00 0.  1.
         -3    1    6    6    0  502  0.10597832334E+03 -0.49902511742E+03  0.13027208019E+03  0.52652472659E+03  0.00000000000E+00 0.  1.
<mgrwt>
<rscale>  0 0.21839370E+04</rscale>
<asrwt>0</asrwt>
<pdfrwt beam="1">  1        2 0.11996363E+00 0.21839370E+04</pdfrwt>
<pdfrwt beam="2">  1       -2 0.23525772E+00 0.21839370E+04</pdfrwt>
<totfact> 0.25847910E+00</totfact>
</mgrwt>
</event>
<event>
12    1  0.2214165E-007  0.2300345E+04  0.7818608E-02  0.8477785E-01
          2   -1    0    0  501    0  0.00000000000E+00  0.00000000000E+00  0.21568861401E+04  0.21568861401E+04  0.00000000000E+00 0. -1.
         -2   -1    0    0    0  501 -0.00000000000E+00 -0.00000000000E+00 -0.61333647529E+03  0.61333647529E+03  0.00000000000E+00 0.  1.
         23    2    1    2    0    0 -0.85779980921E+03 -0.19782037520E+03  0.16056692234E+03  0.89997536342E+03  0.96023459115E+02 0.  0.
        254    2    1    2    0    0  0.85779980921E+03  0.19782037520E+03  0.13829827425E+04  0.18702472520E+04  0.90012782652E+03 0.  0.
        -24    2    4    4    0    0  0.91956216869E+02 -0.29327589890E+03  0.54724260229E+03  0.63224285357E+03  0.76091139036E+02 0.  0.
         24    2    4    4    0    0  0.76584359234E+03  0.49109627410E+03  0.83574014022E+03  0.12380043984E+04  0.80630950803E+02 0.  0.
         13    1    3    3    0    0 -0.35736414548E+03 -0.77833820692E+02  0.11475078430E+03  0.38332098640E+03  0.00000000000E+00 0. -1.
        -13    1    3    3    0    0 -0.50043566373E+03 -0.11998655451E+03  0.45816138047E+02  0.51665437703E+03  0.00000000000E+00 0.  1.
          2    1    6    6  502    0  0.50688795255E+03  0.27922420555E+03  0.52337298189E+03  0.78026971719E+03  0.00000000000E+00 0. -1.
          3    1    5    5  503    0  0.31308284037E+02 -0.15310992101E+03  0.34559754966E+03  0.37928949747E+03  0.00000000000E+00 0. -1.
         -4    1    5    5    0  503  0.60647932832E+02 -0.14016597789E+03  0.20164505263E+03  0.25295335611E+03  0.00000000000E+00 0.  1.
         -1    1    6    6    0  502  0.25895563979E+03  0.21187206855E+03  0.31236715834E+03  0.45773468125E+03  0.00000000000E+00 0.  1.
<mgrwt>
<rscale>  0 0.23003451E+04</rscale>
<asrwt>0</asrwt>
<pdfrwt beam="1">  1        2 0.33182863E+00 0.23003451E+04</pdfrwt>
<pdfrwt beam="2">  1       -2 0.94359459E-01 0.23003451E+04</pdfrwt>
<totfact> 0.46864978E+00</totfact>
</mgrwt>
</event>
<event>
12    1  0.2214165E-007  0.1151063E+04  0.7818608E-02  0.9156803E-01
         -1   -1    0    0    0  501 -0.00000000000E+00  0.00000000000E+00  0.23403834099E+03  0.23403834099E+03  0.00000000000E+00 0.  1.
          1   -1    0    0  501    0  0.00000000000E+00 -0.00000000000E+00 -0.14153088660E+04  0.14153088660E+04  0.00000000000E+00 0. -1.
         23    2    1    2    0    0  0.13145401227E+03 -0.10620605159E+03 -0.37223376287E+03  0.41871816476E+03  0.90592740023E+02 0.  0.
        254    2    1    2    0    0 -0.13145401227E+03  0.10620605159E+03 -0.80903676212E+03  0.12306290422E+04  0.91178258062E+03 0.  0.
        -24    2    4    4    0    0 -0.67301906605E+02 -0.35330626884E+03 -0.62329959127E+03  0.72394816324E+03  0.79017063616E+02 0.  0.
         24    2    4    4    0    0 -0.64152105665E+02  0.45951232043E+03 -0.18573717085E+03  0.50668087897E+03  0.83427520569E+02 0.  0.
         13    1    3    3    0    0  0.11784071870E+03 -0.11878472187E+03 -0.29361244762E+03  0.33794158450E+03  0.00000000000E+00 0.  1.
        -13    1    3    3    0    0  0.13613293567E+02  0.12578670280E+02 -0.78621315248E+02  0.80776580263E+02  0.00000000000E+00 0. -1.
          4    1    6    6  502    0 -0.55469998319E+00  0.12163056382E+03 -0.85078239576E+02  0.14843385260E+03  0.00000000000E+00 0. -1.
          1    1    5    5  503    0  0.16184413663E+02 -0.47657561113E+02 -0.67793837322E+02  0.84434487952E+02  0.00000000000E+00 0. -1.
         -2    1    5    5    0  503 -0.83486320268E+02 -0.30564870772E+03 -0.55550575395E+03  0.63951367528E+03  0.00000000000E+00 0.  1.
         -3    1    6    6    0  502 -0.63597405682E+02  0.33788175661E+03 -0.10065893128E+03  0.35824702637E+03  0.00000000000E+00 0.  1.
<mgrwt>
<rscale>  0 0.11510631E+04</rscale>
<asrwt>0</asrwt>
<pdfrwt beam="1">  1        1 0.21773982E+00 0.11510631E+04</pdfrwt>
<pdfrwt beam="2">  1       -1 0.36005900E-01 0.11510631E+04</pdfrwt>
<totfact> 0.54864415E+01</totfact>
</mgrwt>
</event>
<event>
12    1  0.2214165E-007  0.1135852E+04  0.7818608E-02  0.9170936E-01
          2   -1    0    0  501    0  0.00000000000E+00  0.00000000000E+00  0.92714139399E+03  0.92714139399E+03  0.00000000000E+00 0. -1.
         -2   -1    0    0    0  501 -0.00000000000E+00 -0.00000000000E+00 -0.34788653927E+03  0.34788653927E+03  0.00000000000E+00 0.  1.
         23    2    1    2    0    0  0.10498398865E+03  0.16610093753E+03  0.70224862900E+02  0.22422359093E+03  0.82058077236E+02 0.  0.
        254    2    1    2    0    0 -0.10498398865E+03 -0.16610093753E+03  0.50902999182E+03  0.10508043423E+04  0.89803511844E+03 0.  0.
        -24    2    4    4    0    0  0.11441088355E+03 -0.49536018187E+03  0.26787374625E+03  0.58025688254E+03  0.80437216188E+02 0.  0.
         24    2    4    4    0    0 -0.21939487219E+03  0.32925924435E+03  0.24115624557E+03  0.47054745978E+03  0.81931783808E+02 0.  0.
         11    1    3    3    0    0  0.86944654229E+02  0.12712494013E+03  0.15694461852E+02  0.15481097970E+03  0.00000000000E+00 0.  1.
        -11    1    3    3    0    0  0.18039334417E+02  0.38975997396E+02  0.54530401048E+02  0.69412611229E+02  0.00000000000E+00 0. -1.
          2    1    6    6  502    0 -0.20781213416E+03  0.29426095935E+03  0.24146189304E+03  0.43368103612E+03  0.00000000000E+00 0. -1.
          1    1    5    5  503    0  0.70067424843E+02 -0.36244057607E+03  0.15518344390E+03  0.40044290038E+03  0.00000000000E+00 0. -1.
         -2    1    5    5    0  503  0.44343458702E+02 -0.13291960581E+03  0.11269030235E+03  0.17981398216E+03  0.00000000000E+00 0.  1.
         -1    1    6    6    0  502 -0.11582738028E+02  0.34998285001E+02 -0.30564746831E+00  0.36866423661E+02  0.00000000000E+00 0.  1.
<mgrwt>
<rscale>  0 0.11358521E+04</rscale>
<asrwt>0</asrwt>
<pdfrwt beam="1">  1        2 0.14263714E+00 0.11358521E+04</pdfrwt>
<pdfrwt beam="2">  1       -2 0.53521006E-01 0.11358521E+04</pdfrwt>
<totfact> 0.91640459E+01</totfact>
</mgrwt>
</event>
<event>
12    1  0.2214165E-007  0.2903953E+04  0.7818608E-02  0.8271702E-01
          1   -1    0    0  501    0  0.00000000000E+00  0.00000000000E+00  0.15346139838E+04  0.15346139838E+04  0.00000000000E+00 0. -1.
         -1   -1    0    0    0  501 -0.00000000000E+00 -0.00000000000E+00 -0.13737886795E+04  0.13737886795E+04  0.00000000000E+00 0.  1.
         23    2    1    2    0    0 -0.10721427208E+04  0.19788332520E+03 -0.65343862964E+03  0.12744228472E+04  0.92324030041E+02 0.  0.
        254    2    1    2    0    0  0.10721427208E+04 -0.19788332520E+03  0.81426393390E+03  0.16339798162E+04  0.90455318331E+03 0.  0.
        -24    2    4    4    0    0 -0.12558790470E+03  0.80380084993E+02  0.27961189459E+02  0.17209084523E+03  0.81241313526E+02 0.  0.
         24    2    4    4    0    0  0.11977306255E+04 -0.27826341019E+03  0.78630274444E+03  0.14618889709E+04  0.82814133706E+02 0.  0.
         13    1    3    3    0    0 -0.61535260290E+03  0.67141249036E+02 -0.36622260500E+03  0.71922581268E+03  0.00000000000E+00 0.  1.
        -13    1    3    3    0    0 -0.45679011789E+03  0.13074207616E+03 -0.28721602464E+03  0.55519703448E+03  0.00000000000E+00 0. -1.
          2    1    6    6  502    0  0.32589509579E+03 -0.69204957252E+02  0.25685101624E+03  0.42067729213E+03  0.00000000000E+00 0. -1.
          3    1    5    5  503    0 -0.11847053988E+03  0.84368295763E+02  0.26163184795E+01  0.14546519609E+03  0.00000000000E+00 0. -1.
         -4    1    5    5    0  503 -0.71173648190E+01 -0.39882107692E+01  0.25344870979E+02  0.26625649139E+02  0.00000000000E+00 0.  1.
         -1    1    6    6    0  502  0.87183552970E+03 -0.20905845294E+03  0.52945172820E+03  0.10412116788E+04  0.00000000000E+00 0.  1.
<mgrwt>
<rscale>  0 0.29039527E+04</rscale>
<asrwt>0</asrwt>
<pdfrwt beam="1">  1        1 0.23609446E+00 0.29039527E+04</pdfrwt>
<pdfrwt beam="2">  1       -1 0.21135210E+00 0.29039527E+04</pdfrwt>
<totfact> 0.66861930E-01</totfact>
</mgrwt>
</event>
<event>
12    1  0.2214165E-007  0.1983133E+04  0.7818608E-02  0.8614547E-01
         -2   -1    0    0    0  501 -0.00000000000E+00  0.00000000000E+00  0.46634610561E+03  0.46634610561E+03  0.00000000000E+00 0.  1.
          2   -1    0    0  501    0  0.00000000000E+00 -0.00000000000E+00 -0.21083147334E+04  0.21083147334E+04  0.00000000000E+00 0. -1.
         23    2    1    2    0    0  0.54100591096E+03 -0.55489998293E+03 -0.81081174307E+03  0.11252615200E+04  0.90534076436E+02 0.  0.
        254    2    1    2    0    0 -0.54100591096E+03  0.55489998293E+03 -0.83115688467E+03  0.14493993189E+04  0.89963060867E+03 0.  0.
        -24    2    4    4    0    0 -0.65523638346E+03  0.84433692631E+02 -0.63802932618E+03  0.92187937953E+03  0.79475799260E+02 0.  0.
         24    2    4    4    0    0  0.11423047251E+03  0.47046629030E+03 -0.19312755849E+03  0.52751993941E+03  0.81190525731E+02 0.  0.
         13    1    3    3    0    0  0.34553418578E+03 -0.36148673588E+03 -0.58367289107E+03  0.76859649852E+03  0.00000000000E+00 0. -1.
        -13    1    3    3    0    0  0.19547172518E+03 -0.19341324705E+03 -0.22713885200E+03  0.35666502151E+03  0.00000000000E+00 0.  1.
          2    1    6    6  502    0  0.10870911806E+03  0.46232464050E+03 -0.20019970003E+03  0.51540437081E+03  0.00000000000E+00 0. -1.
          1    1    5    5  503    0 -0.42919627844E+03  0.92230736470E+02 -0.43294103632E+03  0.61656621307E+03  0.00000000000E+00 0. -1.
         -2    1    5    5    0  503 -0.22604010502E+03 -0.77970438392E+01 -0.20508828986E+03  0.30531316645E+03  0.00000000000E+00 0.  1.
         -1    1    6    6    0  502  0.55213544506E+01  0.81416498020E+01  0.70721415403E+01  0.12115568597E+02  0.00000000000E+00 0.  1.
<mgrwt>
<rscale>  0 0.19831332E+04</rscale>
<asrwt>0</asrwt>
<pdfrwt beam="1">  1        2 0.32435611E+00 0.19831332E+04</pdfrwt>
<pdfrwt beam="2">  1       -2 0.71745556E-01 0.19831332E+04</pdfrwt>
<totfact> 0.95246796E+00</totfact>
</mgrwt>
</event>
<event>
12    1  0.3375004E-007  0.3905388E+04  0.7818608E-02  0.8023909E-01
         -2   -1    0    0    0  501 -0.00000000000E+00  0.00000000000E+00  0.17219575503E+04  0.17219575503E+04  0.00000000000E+00 0.  1.
          2   -1    0    0  501    0  0.00000000000E+00 -0.00000000000E+00 -0.22143489034E+04  0.22143489034E+04  0.00000000000E+00 0. -1.
         23    2    1    2    0    0  0.28676630202E+03  0.15793266065E+04  0.68879573512E+03  0.17490777605E+04  0.91246947895E+02 0.  0.
        254    2    1    2    0    0 -0.28676630202E+03 -0.15793266065E+04 -0.11811870883E+04  0.21872286933E+04  0.90125411355E+03 0.  0.
        -24    2    4    4    0    0 -0.89203021288E+02 -0.10645285834E+04 -0.12262425869E+04  0.16282650184E+04  0.79986275244E+02 0.  0.
         24    2    4    4    0    0 -0.19756328073E+03 -0.51479802315E+03  0.45055498663E+02  0.55896367491E+03  0.79763007597E+02 0.  0.
         13    1    3    3    0    0  0.17148087539E+03  0.87455357417E+03  0.42969844540E+03  0.98938890164E+03  0.00000000000E+00 0. -1.
        -13    1    3    3    0    0  0.11528542663E+03  0.70477303233E+03  0.25909728972E+03  0.75968885883E+03  0.00000000000E+00 0.  1.
          4    1    6    6  502    0 -0.10972074968E+03 -0.35751629208E+03  0.57573417141E+02  0.37837975682E+03  0.00000000000E+00 0. -1.
          3    1    5    5  503    0 -0.10107702563E+03 -0.98695027406E+03 -0.11208431406E+04  0.14968556225E+04  0.00000000000E+00 0. -1.
         -4    1    5    5    0  503  0.11874004339E+02 -0.77578309293E+02 -0.10539944628E+03  0.13140939589E+03  0.00000000000E+00 0.  1.
         -3    1    6    6    0  502 -0.87842531049E+02 -0.15728173107E+03 -0.12517918478E+02  0.18058391809E+03  0.00000000000E+00 0.  1.
<mgrwt>
<rscale>  0 0.39053885E+04</rscale>
<asrwt>0</asrwt>
<pdfrwt beam="1">  1        2 0.34066906E+00 0.39053885E+04</pdfrwt>
<pdfrwt beam="2">  1       -2 0.26491655E+00 0.39053885E+04</pdfrwt>
<totfact> 0.20977885E-01</totfact>
</mgrwt>
</event>
<event>
12    1  0.2214165E-007  0.2064692E+04  0.7818608E-02  0.8576958E-01
          2   -1    0    0  501    0  0.00000000000E+00  0.00000000000E+00  0.20827708171E+04  0.20827708171E+04  0.00000000000E+00 0. -1.
         -2   -1    0    0    0  501 -0.00000000000E+00 -0.00000000000E+00 -0.51169266712E+03  0.51169266712E+03  0.00000000000E+00 0.  1.
         23    2    1    2    0    0  0.71096445638E+03  0.41482464171E+03  0.47587135895E+03  0.95512115968E+03  0.90845681232E+02 0.  0.
        254    2    1    2    0    0 -0.71096445638E+03 -0.41482464171E+03  0.10952067911E+04  0.16393423246E+04  0.90023074840E+03 0.  0.
        -24    2    4    4    0    0 -0.84966551866E+03 -0.42359377092E+03  0.11267734952E+04  0.14757586349E+04  0.82956993273E+02 0.  0.
         24    2    4    4    0    0  0.13870106228E+03  0.87691292043E+01 -0.31566704126E+02  0.16358368965E+03  0.80301210496E+02 0.  0.
         13    1    3    3    0    0  0.28320221612E+03  0.14057958222E+03  0.13839525628E+03  0.34513672815E+03  0.00000000000E+00 0.  1.
        -13    1    3    3    0    0  0.42776224026E+03  0.27424505949E+03  0.33747610267E+03  0.60998443154E+03  0.00000000000E+00 0. -1.
          2    1    6    6  502    0  0.48527993570E+02  0.60960430025E+01  0.27155626674E+02  0.55942434343E+02  0.00000000000E+00 0. -1.
          1    1    5    5  503    0 -0.25460881667E+03 -0.88234942279E+02  0.34063737896E+03  0.43433268183E+03  0.00000000000E+00 0. -1.
         -2    1    5    5    0  503 -0.59505670199E+03 -0.33535882864E+03  0.78613611624E+03  0.10414259531E+04  0.00000000000E+00 0.  1.
         -1    1    6    6    0  502  0.90173068710E+02  0.26730862018E+01 -0.58722330800E+02  0.10764125531E+03  0.00000000000E+00 0.  1.
<mgrwt>
<rscale>  0 0.20646923E+04</rscale>
<asrwt>0</asrwt>
<pdfrwt beam="1">  1        2 0.32042628E+00 0.20646923E+04</pdfrwt>
<pdfrwt beam="2">  1       -2 0.78721950E-01 0.20646923E+04</pdfrwt>
<totfact> 0.79570339E+00</totfact>
</mgrwt>
</event>
<event>
12    1  0.2214165E-007  0.1378061E+04  0.7818608E-02  0.8969854E-01
          1   -1    0    0  501    0  0.00000000000E+00  0.00000000000E+00  0.88662425176E+03  0.88662425176E+03  0.00000000000E+00 0. -1.
         -1   -1    0    0    0  501 -0.00000000000E+00 -0.00000000000E+00 -0.53547231383E+03  0.53547231383E+03  0.00000000000E+00 0.  1.
         23    2    1    2    0    0 -0.14403096007E+03  0.27707075399E+03  0.33533764073E+03  0.46756959603E+03  0.93042321885E+02 0.  0.
        254    2    1    2    0    0  0.14403096007E+03 -0.27707075399E+03  0.15814297201E+02  0.95452696957E+03  0.90186391626E+03 0.  0.
        -24    2    4    4    0    0  0.25472363909E+03 -0.55873500205E+03  0.10686555741E+03  0.62830466113E+03  0.79231086179E+02 0.  0.
         24    2    4    4    0    0 -0.11069267902E+03  0.28166424805E+03 -0.91051260211E+02  0.32622230843E+03  0.80889088959E+02 0.  0.
         11    1    3    3    0    0 -0.12129356929E+03  0.20386961381E+03  0.19264683226E+03  0.30559409577E+03  0.00000000000E+00 0.  1.
        -11    1    3    3    0    0 -0.22737390779E+02  0.73201140183E+02  0.14269080847E+03  0.16197550026E+03  0.00000000000E+00 0. -1.
          4    1    6    6  502    0 -0.51428881355E+02  0.19370778499E+03 -0.26756778373E+02  0.20219683724E+03  0.00000000000E+00 0. -1.
          1    1    5    5  503    0  0.20564181072E+03 -0.50696139212E+03  0.10418240788E+03  0.55691326212E+03  0.00000000000E+00 0. -1.
         -2    1    5    5    0  503  0.49081828373E+02 -0.51773609925E+02  0.26831495279E+01  0.71391399009E+02  0.00000000000E+00 0.  1.
         -3    1    6    6    0  502 -0.59263797666E+02  0.87956463064E+02 -0.64294481838E+02  0.12402547119E+03  0.00000000000E+00 0.  1.
<mgrwt>
<rscale>  0 0.13780606E+04</rscale>
<asrwt>0</asrwt>
<pdfrwt beam="1">  1        1 0.13640373E+00 0.13780606E+04</pdfrwt>
<pdfrwt beam="2">  1       -1 0.82380356E-01 0.13780606E+04</pdfrwt>
<totfact> 0.26714949E+01</totfact>
</mgrwt>
</event>
<event>
12    1  0.2214165E-007  0.5099700E+04  0.7818608E-02  0.7813309E-01
          2   -1    0    0  501    0  0.00000000000E+00  0.00000000000E+00  0.21392144541E+04  0.21392144541E+04  0.00000000000E+00 0.  1.
         -2   -1    0    0    0  501 -0.00000000000E+00 -0.00000000000E+00 -0.30393091934E+04  0.30393091934E+04  0.00000000000E+00 0. -1.
         23    2    1    2    0    0 -0.20498895219E+04 -0.48274058017E+03  0.87400875232E+03  0.22819981510E+04  0.92405315157E+02 0.  0.
        254    2    1    2    0    0  0.20498895219E+04  0.48274058017E+03 -0.17741034917E+04  0.28965254965E+04  0.89851612854E+03 0.  0.
        -24    2    4    4    0    0  0.16512098114E+04  0.67338242080E+03 -0.16489344746E+04  0.24302079168E+04  0.83593609137E+02 0.  0.
         24    2    4    4    0    0  0.39867971054E+03 -0.19064184063E+03 -0.12516901711E+03  0.46631757979E+03  0.80591434937E+02 0.  0.
         11    1    3    3    0    0 -0.91957849693E+03 -0.20340215486E+03  0.34315032933E+03  0.10023717859E+04  0.00000000000E+00 0. -1.
        -11    1    3    3    0    0 -0.11303110250E+04 -0.27933842531E+03  0.53085842299E+03  0.12796263651E+04  0.00000000000E+00 0.  1.
          4    1    6    6  502    0  0.26641176503E+03 -0.87698443572E+02 -0.94214322417E+02  0.29587596067E+03  0.00000000000E+00 0. -1.
          3    1    5    5  503    0  0.11339919534E+04  0.50376792718E+03 -0.11517712166E+04  0.16930141200E+04  0.00000000000E+00 0. -1.
         -4    1    5    5    0  503  0.51721785793E+03  0.16961449361E+03 -0.49716325793E+03  0.73719379680E+03  0.00000000000E+00 0.  1.
         -3    1    6    6    0  502  0.13226794551E+03 -0.10294339706E+03 -0.30954694695E+02  0.17044161913E+03  0.00000000000E+00 0.  1.
<mgrwt>
<rscale>  0 0.50996997E+04</rscale>
<asrwt>0</asrwt>
<pdfrwt beam="1">  1        2 0.32910992E+00 0.50996997E+04</pdfrwt>
<pdfrwt beam="2">  1       -2 0.46758603E+00 0.50996997E+04</pdfrwt>
<totfact> 0.10774802E-02</totfact>
</mgrwt>
</event>
<event>
12    1  0.2214165E-007  0.2558800E+04  0.7818608E-02  0.8382332E-01
          2   -1    0    0  501    0  0.00000000000E+00  0.00000000000E+00  0.11423455676E+04  0.11423455676E+04  0.00000000000E+00 0. -1.
         -2   -1    0    0    0  501 -0.00000000000E+00 -0.00000000000E+00 -0.14328976263E+04  0.14328976263E+04  0.00000000000E+00 0.  1.
         23    2    1    2    0    0  0.63707416106E+03  0.51651263854E+03  0.64056033356E+03  0.10445792778E+04  0.90440777864E+02 0.  0.
        254    2    1    2    0    0 -0.63707416106E+03 -0.51651263854E+03 -0.93111239234E+03  0.15306639160E+04  0.89627726973E+03 0.  0.
        -24    2    4    4    0    0 -0.33401428114E+03 -0.20063532355E+03 -0.10039698051E+04  0.10797878808E+04  0.78526587791E+02 0.  0.
         24    2    4    4    0    0 -0.30305987992E+03 -0.31587731499E+03  0.72857412747E+02  0.45087603521E+03  0.79732224328E+02 0.  0.
         11    1    3    3    0    0  0.17764229702E+03  0.18116292569E+03  0.23661174678E+03  0.34693214041E+03  0.00000000000E+00 0. -1.
        -11    1    3    3    0    0  0.45943186403E+03  0.33534971284E+03  0.40394858679E+03  0.69764713743E+03  0.00000000000E+00 0.  1.
          4    1    6    6  502    0 -0.11750065680E+03 -0.75950540796E+02  0.46299463125E+01  0.13998687581E+03  0.00000000000E+00 0. -1.
          1    1    5    5  503    0 -0.14896022815E+03 -0.13390169157E+03 -0.53244447911E+03  0.56887251288E+03  0.00000000000E+00 0. -1.
         -2    1    5    5    0  503 -0.18505405299E+03 -0.66733631979E+02 -0.47152532597E+03  0.51091536794E+03  0.00000000000E+00 0.  1.
         -3    1    6    6    0  502 -0.18555922311E+03 -0.23992677419E+03  0.68227466434E+02  0.31088915940E+03  0.00000000000E+00 0.  1.
<mgrwt>
<rscale>  0 0.25587999E+04</rscale>
<asrwt>0</asrwt>
<pdfrwt beam="1">  1        2 0.17574547E+00 0.25587999E+04</pdfrwt>
<pdfrwt beam="2">  1       -2 0.22044579E+00 0.25587999E+04</pdfrwt>
<totfact> 0.17883886E+00</totfact>
</mgrwt>
</event>
<event>
12    1  0.2214165E-007  0.3249043E+04  0.7818608E-02  0.8175984E-01
          4   -1    0    0  501    0  0.00000000000E+00  0.00000000000E+00  0.17504272773E+04  0.17504272773E+04  0.00000000000E+00 0. -1.
         -4   -1    0    0    0  501 -0.00000000000E+00 -0.00000000000E+00 -0.15076721753E+04  0.15076721753E+04  0.00000000000E+00 0.  1.
         23    2    1    2    0    0  0.11658177329E+04  0.80961046884E+03 -0.36859576056E+03  0.14693085747E+04  0.91677452335E+02 0.  0.
        254    2    1    2    0    0 -0.11658177329E+04 -0.80961046884E+03  0.61135086264E+03  0.17887908779E+04  0.90079011424E+03 0.  0.
        -24    2    4    4    0    0  0.12434191672E+03 -0.20615785073E+03  0.10996950924E+03  0.27660785258E+03  0.80353216953E+02 0.  0.
         24    2    4    4    0    0 -0.12901596497E+04 -0.60345261811E+03  0.50138135340E+03  0.15121830253E+04  0.81530709535E+02 0.  0.
         13    1    3    3    0    0  0.12556574886E+03  0.57280926544E+02 -0.47622297808E+02  0.14599912698E+03  0.00000000000E+00 0.  1.
        -13    1    3    3    0    0  0.10402519841E+04  0.75232954230E+03 -0.32097346275E+03  0.13233094477E+04  0.00000000000E+00 0. -1.
          4    1    6    6  502    0 -0.27580024338E+03 -0.96557633642E+02  0.87172203785E+02  0.30493957430E+03  0.00000000000E+00 0. -1.
          1    1    5    5  503    0  0.33580192185E+02 -0.13194985201E+03  0.66964475903E+02  0.15173211192E+03  0.00000000000E+00 0. -1.
         -2    1    5    5    0  503  0.90761724535E+02 -0.74207998722E+02  0.43005033340E+02  0.12487574067E+03  0.00000000000E+00 0.  1.
         -3    1    6    6    0  502 -0.10143594063E+04 -0.50689498446E+03  0.41420914961E+03  0.12072434510E+04  0.00000000000E+00 0.  1.
<mgrwt>
<rscale>  0 0.32490432E+04</rscale>
<asrwt>0</asrwt>
<pdfrwt beam="1">  1        4 0.26929650E+00 0.32490432E+04</pdfrwt>
<pdfrwt beam="2">  1       -4 0.23194957E+00 0.32490432E+04</pdfrwt>
<totfact> 0.65146559E-03</totfact>
</mgrwt>
</event>
<event>
12    1  0.2214165E-007  0.1631336E+04  0.7818608E-02  0.8801525E-01
          1   -1    0    0  501    0  0.00000000000E+00  0.00000000000E+00  0.20908453300E+04  0.20908453300E+04  0.00000000000E+00 0. -1.
         -1   -1    0    0    0  501 -0.00000000000E+00 -0.00000000000E+00 -0.31820343793E+03  0.31820343793E+03  0.00000000000E+00 0.  1.
         23    2    1    2    0    0 -0.93318977648E+01  0.24278544894E+03 -0.13046380394E+03  0.29036267768E+03  0.90872558649E+02 0.  0.
        254    2    1    2    0    0  0.93318977648E+01 -0.24278544894E+03  0.19031056960E+04  0.21186860903E+04  0.89888130492E+03 0.  0.
        -24    2    4    4    0    0  0.41268602623E+03 -0.29501883440E+03  0.96421927157E+03  0.10924268442E+04  0.79572215364E+02 0.  0.
         24    2    4    4    0    0 -0.40335412846E+03  0.52233385456E+02  0.93888642446E+03  0.10262592460E+04  0.79230313228E+02 0.  0.
         13    1    3    3    0    0 -0.29159285649E+02  0.26506658903E+02 -0.54896242642E+01  0.39786968725E+02  0.00000000000E+00 0. -1.
        -13    1    3    3    0    0  0.19827387884E+02  0.21627879004E+03 -0.12497417968E+03  0.25057570895E+03  0.00000000000E+00 0.  1.
          4    1    6    6  502    0 -0.25176436005E+03  0.58929381768E+02  0.65852678089E+03  0.70747119106E+03  0.00000000000E+00 0. -1.
          3    1    5    5  503    0  0.32383101433E+03 -0.23452249653E+03  0.68389799322E+03  0.79220186339E+03  0.00000000000E+00 0. -1.
         -4    1    5    5    0  503  0.88855011900E+02 -0.60496337873E+02  0.28032127834E+03  0.30022498085E+03  0.00000000000E+00 0.  1.
         -3    1    6    6    0  502 -0.15158976841E+03 -0.66959963119E+01  0.28035964357E+03  0.31878805498E+03  0.00000000000E+00 0.  1.
<mgrwt>
<rscale>  0 0.16313359E+04</rscale>
<asrwt>0</asrwt>
<pdfrwt beam="1">  1        1 0.32166850E+00 0.16313359E+04</pdfrwt>
<pdfrwt beam="2">  1       -1 0.48954376E-01 0.16313359E+04</pdfrwt>
<totfact> 0.10344694E+01</totfact>
</mgrwt>
</event>
<event>
12    1  0.2214165E-007  0.1657996E+04  0.7818608E-02  0.8785690E-01
          2   -1    0    0  501    0  0.00000000000E+00  0.00000000000E+00  0.62044774749E+03  0.62044774749E+03  0.00000000000E+00 0.  1.
         -2   -1    0    0    0  501 -0.00000000000E+00 -0.00000000000E+00 -0.11076473246E+04  0.11076473246E+04  0.00000000000E+00 0. -1.
         23    2    1    2    0    0  0.27260881383E+02  0.55458664613E+03 -0.34886257457E+03  0.66238959875E+03  0.93516741173E+02 0.  0.
        254    2    1    2    0    0 -0.27260881383E+02 -0.55458664613E+03 -0.13833700252E+03  0.10657054733E+04  0.89904478525E+03 0.  0.
        -24    2    4    4    0    0  0.36481311790E+03 -0.91917912763E+01  0.92819408996E+01  0.37366731939E+03  0.79799819138E+02 0.  0.
         24    2    4    4    0    0 -0.39207399928E+03 -0.54539485485E+03 -0.14761894342E+03  0.69203815393E+03  0.77122535113E+02 0.  0.
         11    1    3    3    0    0 -0.30152849661E+02  0.19090405504E+03 -0.14425681973E+03  0.24117127235E+03  0.00000000000E+00 0. -1.
        -11    1    3    3    0    0  0.57413731044E+02  0.36368259109E+03 -0.20460575484E+03  0.42121832639E+03  0.00000000000E+00 0.  1.
          2    1    6    6  502    0 -0.83471002889E+02 -0.17564427341E+03 -0.45313768225E+02  0.19967888395E+03  0.00000000000E+00 0. -1.
          1    1    5    5  503    0  0.33290681319E+02  0.19537698157E+02 -0.11433746149E+02  0.40258187527E+02  0.00000000000E+00 0. -1.
         -2    1    5    5    0  503  0.33152243658E+03 -0.28729489433E+02  0.20715687049E+02  0.33340913186E+03  0.00000000000E+00 0.  1.
         -1    1    6    6    0  502 -0.30860299639E+03 -0.36975058144E+03 -0.10230517520E+03  0.49235926997E+03  0.00000000000E+00 0.  1.
<mgrwt>
<rscale>  0 0.16579955E+04</rscale>
<asrwt>0</asrwt>
<pdfrwt beam="1">  1        2 0.95453500E-01 0.16579955E+04</pdfrwt>
<pdfrwt beam="2">  1       -2 0.17040728E+00 0.16579955E+04</pdfrwt>
<totfact> 0.96152607E+00</totfact>
</mgrwt>
</event>
<event>
12    1  0.2214165E-007  0.1979567E+04  0.7818608E-02  0.8616234E-01
         -2   -1    0    0    0  501 -0.00000000000E+00  0.00000000000E+00  0.63877543413E+03  0.63877543413E+03  0.00000000000E+00 0.  1.
          2   -1    0    0  501    0  0.00000000000E+00 -0.00000000000E+00 -0.15336713332E+04  0.15336713332E+04  0.00000000000E+00 0. -1.
         23    2    1    2    0    0  0.68979054518E+03 -0.30956717883E+03 -0.57535307418E+03  0.95443532979E+03  0.90954957897E+02 0.  0.
        254    2    1    2    0    0 -0.68979054518E+03  0.30956717883E+03 -0.31954282493E+03  0.12180114376E+04  0.89988966584E+03 0.  0.
        -24    2    4    4    0    0 -0.51637121471E+03 -0.18213228701E+03 -0.40219210770E+03  0.68404765519E+03  0.79695054572E+02 0.  0.
         24    2    4    4    0    0 -0.17341933047E+03  0.49169946583E+03  0.82649282767E+02  0.53396378239E+03  0.80273208999E+02 0.  0.
         13    1    3    3    0    0  0.18514148960E+03 -0.42817977725E+02 -0.16144668237E+03  0.24935072014E+03  0.00000000000E+00 0.  1.
        -13    1    3    3    0    0  0.50464905557E+03 -0.26674920110E+03 -0.41390639181E+03  0.70508460965E+03  0.00000000000E+00 0. -1.
          2    1    6    6  502    0 -0.12611568031E+03  0.41500671260E+03  0.44188957891E+02  0.43599128469E+03  0.00000000000E+00 0. -1.
          3    1    5    5  503    0 -0.65589110571E+02 -0.16932707200E+02 -0.20694806790E+02  0.70830240905E+02  0.00000000000E+00 0. -1.
         -4    1    5    5    0  503 -0.45078210414E+03 -0.16519957981E+03 -0.38149730091E+03  0.61321741428E+03  0.00000000000E+00 0.  1.
         -1    1    6    6    0  502 -0.47303650163E+02  0.76692753234E+02  0.38460324876E+02  0.97972497707E+02  0.00000000000E+00 0.  1.
<mgrwt>
<rscale>  0 0.19795672E+04</rscale>
<asrwt>0</asrwt>
<pdfrwt beam="1">  1        2 0.23594943E+00 0.19795672E+04</pdfrwt>
<pdfrwt beam="2">  1       -2 0.98273146E-01 0.19795672E+04</pdfrwt>
<totfact> 0.97333340E+00</totfact>
</mgrwt>
</event>
<event>
12    1  0.2214165E-007  0.1599103E+04  0.7818608E-02  0.8821099E-01
          1   -1    0    0  501    0  0.00000000000E+00  0.00000000000E+00  0.18983390300E+04  0.18983390300E+04  0.00000000000E+00 0. -1.
         -1   -1    0    0    0  501 -0.00000000000E+00 -0.00000000000E+00 -0.33675879684E+03  0.33675879684E+03  0.00000000000E+00 0.  1.
         23    2    1    2    0    0 -0.86300723312E+02  0.15064862239E+03 -0.18160751422E+03  0.26694493682E+03  0.90196938970E+02 0.  0.
        254    2    1    2    0    0  0.86300723312E+02 -0.15064862239E+03  0.17431877473E+04  0.19681528900E+04  0.89709500811E+03 0.  0.
        -24    2    4    4    0    0  0.17206214869E+03 -0.50193351202E+03  0.91720404136E+03  0.10628837590E+04  0.83162479952E+02 0.  0.
         24    2    4    4    0    0 -0.85761425378E+02  0.35128488963E+03  0.82598370598E+03  0.90526913102E+03  0.80666109793E+02 0.  0.
         13    1    3    3    0    0 -0.28270444813E+02  0.18935637955E+01 -0.59605119305E+02  0.65996771748E+02  0.00000000000E+00 0.  1.
        -13    1    3    3    0    0 -0.58030278499E+02  0.14875505859E+03 -0.12200239491E+03  0.20094816507E+03  0.00000000000E+00 0. -1.
          2    1    6    6  502    0 -0.55237931081E+02  0.82496772587E+02  0.24700246501E+03  0.26620887333E+03  0.00000000000E+00 0. -1.
          3    1    5    5  503    0  0.95957572508E+02 -0.15847992909E+03  0.32197142612E+03  0.37146916815E+03  0.00000000000E+00 0. -1.
         -4    1    5    5    0  503  0.76104576182E+02 -0.34345358292E+03  0.59523261524E+03  0.69141459081E+03  0.00000000000E+00 0.  1.
         -1    1    6    6    0  502 -0.30523494297E+02  0.26878811704E+03  0.57898124097E+03  0.63906025770E+03  0.00000000000E+00 0.  1.
<mgrwt>
<rscale>  0 0.15991027E+04</rscale>
<asrwt>0</asrwt>
<pdfrwt beam="1">  1        1 0.29205215E+00 0.15991027E+04</pdfrwt>
<pdfrwt beam="2">  1       -1 0.51809047E-01 0.15991027E+04</pdfrwt>
<totfact> 0.12573218E+01</totfact>
</mgrwt>
</event>
<event>
12    1  0.2214165E-007  0.1736371E+04  0.7818608E-02  0.8740888E-01
         -2   -1    0    0    0  501 -0.00000000000E+00  0.00000000000E+00  0.44292440348E+03  0.44292440348E+03  0.00000000000E+00 0.  1.
          2   -1    0    0  501    0  0.00000000000E+00 -0.00000000000E+00 -0.17017492425E+04  0.17017492425E+04  0.00000000000E+00 0. -1.
         23    2    1    2    0    0  0.11470415710E+03 -0.27076654128E+03  0.22759204865E+03  0.38287149748E+03  0.91218854650E+02 0.  0.
        254    2    1    2    0    0 -0.11470415710E+03  0.27076654128E+03 -0.14864168877E+04  0.17618021485E+04  0.89891049778E+03 0.  0.
        -24    2    4    4    0    0 -0.28031402644E+03  0.17519285933E+03 -0.92649368691E+02  0.35267652828E+03  0.80798123120E+02 0.  0.
         24    2    4    4    0    0  0.16560986933E+03  0.95573681944E+02 -0.13937675190E+04  0.14091256203E+04  0.80536694339E+02 0.  0.
         13    1    3    3    0    0  0.95705119457E+02 -0.14437539923E+03  0.16994168586E+03  0.24266005519E+03  0.00000000000E+00 0.  1.
        -13    1    3    3    0    0  0.18999037645E+02 -0.12639114204E+03  0.57650362791E+02  0.14021144229E+03  0.00000000000E+00 0. -1.
          4    1    6    6  502    0  0.95232235337E+02  0.51781144679E+02 -0.10466489249E+04  0.10522473272E+04  0.00000000000E+00 0. -1.
          1    1    5    5  503    0 -0.28032787091E+03  0.17900970137E+03 -0.83745527846E+02  0.34298906955E+03  0.00000000000E+00 0. -1.
         -4    1    5    5    0  503  0.13844474101E-01 -0.38168420397E+01 -0.89038408450E+01  0.96874587286E+01  0.00000000000E+00 0.  1.
         -3    1    6    6    0  502  0.70377633997E+02  0.43792537265E+02 -0.34711859407E+03  0.35687829303E+03  0.00000000000E+00 0.  1.
<mgrwt>
<rscale>  0 0.17363712E+04</rscale>
<asrwt>0</asrwt>
<pdfrwt beam="1">  1        2 0.26180757E+00 0.17363712E+04</pdfrwt>
<pdfrwt beam="2">  1       -2 0.68142216E-01 0.17363712E+04</pdfrwt>
<totfact> 0.18299331E+01</totfact>
</mgrwt>
</event>
<event>
12    1  0.2214165E-007  0.2213777E+04  0.7818608E-02  0.8512716E-01
         -2   -1    0    0    0  501 -0.00000000000E+00  0.00000000000E+00  0.18714973140E+04  0.18714973140E+04  0.00000000000E+00 0.  1.
          2   -1    0    0  501    0  0.00000000000E+00 -0.00000000000E+00 -0.65466422518E+03  0.65466422518E+03  0.00000000000E+00 0. -1.
         23    2    1    2    0    0  0.36153575470E+03 -0.84638934369E+03  0.48234002300E+03  0.10431525154E+04  0.91827281410E+02 0.  0.
        254    2    1    2    0    0 -0.36153575470E+03  0.84638934369E+03  0.73449306583E+03  0.14830090238E+04  0.90152796837E+03 0.  0.
        -24    2    4    4    0    0 -0.32375534392E+03 -0.88089186107E+02  0.25832930324E+03  0.43056672981E+03  0.77951603456E+02 0.  0.
         24    2    4    4    0    0 -0.37780410781E+02  0.93447852980E+03  0.47616376259E+03  0.10524422939E+04  0.78901021493E+02 0.  0.
         11    1    3    3    0    0  0.15913676820E+03 -0.48491597315E+03  0.27941421826E+03  0.58184217566E+03  0.00000000000E+00 0. -1.
        -11    1    3    3    0    0  0.20239898650E+03 -0.36147337055E+03  0.20292580473E+03  0.46131033977E+03  0.00000000000E+00 0.  1.
          4    1    6    6  502    0 -0.77959020439E+01  0.70373919826E+01  0.35051822028E+01  0.11071913876E+02  0.00000000000E+00 0. -1.
          1    1    5    5  503    0 -0.42525999967E+02 -0.40096673066E+02  0.33824071432E+02  0.67529783595E+02  0.00000000000E+00 0. -1.
         -2    1    5    5    0  503 -0.28122934395E+03 -0.47992513041E+02  0.22450523181E+03  0.36303694621E+03  0.00000000000E+00 0.  1.
         -3    1    6    6    0  502 -0.29984508737E+02  0.92744113782E+03  0.47265858039E+03  0.10413703801E+04  0.00000000000E+00 0.  1.
<mgrwt>
<rscale>  0 0.22137772E+04</rscale>
<asrwt>0</asrwt>
<pdfrwt beam="1">  1        2 0.10071757E+00 0.22137772E+04</pdfrwt>
<pdfrwt beam="2">  1       -2 0.28792266E+00 0.22137772E+04</pdfrwt>
<totfact> 0.15334161E+00</totfact>
</mgrwt>
</event>
<event>
12    1  0.2214165E-007  0.2525339E+04  0.7818608E-02  0.8394014E-01
         -1   -1    0    0    0  501 -0.00000000000E+00  0.00000000000E+00  0.72517460073E+03  0.72517460073E+03  0.00000000000E+00 0.  1.
          1   -1    0    0  501    0  0.00000000000E+00 -0.00000000000E+00 -0.21985518793E+04  0.21985518793E+04  0.00000000000E+00 0. -1.
         23    2    1    2    0    0  0.60210996041E+03 -0.76746622449E+03 -0.63068434274E+02  0.98188570072E+03  0.92634182212E+02 0.  0.
        254    2    1    2    0    0 -0.60210996041E+03  0.76746622449E+03 -0.14103088443E+04  0.19418407793E+04  0.91117164447E+03 0.  0.
        -24    2    4    4    0    0 -0.68394860212E+03  0.40680448945E+03 -0.13351382520E+04  0.15563431222E+04  0.79587555288E+02 0.  0.
         24    2    4    4    0    0  0.81838641711E+02  0.36066173504E+03 -0.75170592221E+02  0.38549765708E+03  0.78634440794E+02 0.  0.
         13    1    3    3    0    0  0.49520503526E+03 -0.58024896831E+03 -0.27099544588E+02  0.76331597487E+03  0.00000000000E+00 0.  1.
        -13    1    3    3    0    0  0.10690492515E+03 -0.18721725618E+03 -0.35968889686E+02  0.21856972585E+03  0.00000000000E+00 0. -1.
          4    1    6    6  502    0  0.54371370475E-01  0.44439835945E+02  0.14569685833E+02  0.46767271894E+02  0.00000000000E+00 0. -1.
          3    1    5    5  503    0 -0.12053494382E+02  0.23000411468E+02 -0.43542109375E+02  0.50697346512E+02  0.00000000000E+00 0. -1.
         -4    1    5    5    0  503 -0.67189510774E+03  0.38380407798E+03 -0.12915961427E+04  0.15056457757E+04  0.00000000000E+00 0.  1.
         -1    1    6    6    0  502  0.81784270341E+02  0.31622189910E+03 -0.89740278054E+02  0.33873038519E+03  0.00000000000E+00 0.  1.
<mgrwt>
<rscale>  0 0.25253388E+04</rscale>
<asrwt>0</asrwt>
<pdfrwt beam="1">  1        1 0.33823876E+00 0.25253388E+04</pdfrwt>
<pdfrwt beam="2">  1       -1 0.11156532E+00 0.25253388E+04</pdfrwt>
<totfact> 0.14280869E+00</totfact>
</mgrwt>
</event>
<event>
12    1  0.2214165E-007  0.1425166E+04  0.7818608E-02  0.8935801E-01
          1   -1    0    0  501    0  0.00000000000E+00  0.00000000000E+00  0.65931067894E+03  0.65931067894E+03  0.00000000000E+00 0. -1.
         -1   -1    0    0    0  501 -0.00000000000E+00 -0.00000000000E+00 -0.77015958793E+03  0.77015958793E+03  0.00000000000E+00 0.  1.
         23    2    1    2    0    0 -0.19112156333E+03  0.34770367567E+03 -0.17620231385E+03  0.44361126356E+03  0.91205261423E+02 0.  0.
        254    2    1    2    0    0  0.19112156333E+03 -0.34770367567E+03  0.65353404854E+02  0.98585900331E+03  0.90012310760E+03 0.  0.
        -24    2    4    4    0    0 -0.10513137452E+03 -0.55674166080E+03  0.17658011326E+03  0.59912202094E+03  0.82175280944E+02 0.  0.
         24    2    4    4    0    0  0.29625293784E+03  0.20903798513E+03 -0.11122670840E+03  0.38673698237E+03  0.75706211528E+02 0.  0.
         13    1    3    3    0    0 -0.14863964688E+03  0.19485684279E+03 -0.78703480484E+02  0.25740468458E+03  0.00000000000E+00 0. -1.
        -13    1    3    3    0    0 -0.42481916447E+02  0.15284683288E+03 -0.97498833368E+02  0.18620657898E+03  0.00000000000E+00 0.  1.
          2    1    6    6  502    0  0.35633464321E+02  0.92047657903E+01 -0.32311635567E+02  0.48974618792E+02  0.00000000000E+00 0. -1.
          3    1    5    5  503    0 -0.11792257346E+02 -0.49245688560E+02 -0.76495911213E+01  0.51212414700E+02  0.00000000000E+00 0. -1.
         -4    1    5    5    0  503 -0.93339117170E+02 -0.50749597224E+03  0.18422970438E+03  0.54790960624E+03  0.00000000000E+00 0.  1.
         -1    1    6    6    0  502  0.26061947352E+03  0.19983321934E+03 -0.78915072835E+02  0.33776236358E+03  0.00000000000E+00 0.  1.
<mgrwt>
<rscale>  0 0.14251659E+04</rscale>
<asrwt>0</asrwt>
<pdfrwt beam="1">  1        1 0.10143241E+00 0.14251659E+04</pdfrwt>
<pdfrwt beam="2">  1       -1 0.11848609E+00 0.14251659E+04</pdfrwt>
<totfact> 0.18537947E+01</totfact>
</mgrwt>
</event>
<event>
12    1  0.2214165E-007  0.1503414E+04  0.7818608E-02  0.8882186E-01
         -1   -1    0    0    0  501 -0.00000000000E+00  0.00000000000E+00  0.33616309098E+03  0.33616309098E+03  0.00000000000E+00 0.  1.
          1   -1    0    0  501    0  0.00000000000E+00 -0.00000000000E+00 -0.16809203584E+04  0.16809203584E+04  0.00000000000E+00 0. -1.
         23    2    1    2    0    0  0.36024761775E+03  0.18432049357E+03 -0.96032810373E+02  0.42602744170E+03  0.92329247642E+02 0.  0.
        254    2    1    2    0    0 -0.36024761775E+03 -0.18432049357E+03 -0.12487244571E+04  0.15910560077E+04  0.89910736818E+03 0.  0.
        -24    2    4    4    0    0  0.24604021215E+03 -0.25615591166E+03 -0.55263786412E+03  0.66189299393E+03  0.80883184168E+02 0.  0.
         24    2    4    4    0    0 -0.60628782991E+03  0.71835418087E+02 -0.69608659298E+03  0.92916301379E+03  0.77859497114E+02 0.  0.
         11    1    3    3    0    0  0.87473268038E+02  0.81846191905E+02 -0.18861786935E+01  0.11980788547E+03  0.00000000000E+00 0.  1.
        -11    1    3    3    0    0  0.27277434971E+03  0.10247430167E+03 -0.94146631679E+02  0.30621955623E+03  0.00000000000E+00 0. -1.
          4    1    6    6  502    0 -0.24867508458E+03  0.64287832148E+02 -0.26591541347E+03  0.36970695175E+03  0.00000000000E+00 0. -1.
          3    1    5    5  503    0  0.11927876657E+03 -0.81807224991E+02 -0.17470348569E+03  0.22680642435E+03  0.00000000000E+00 0. -1.
         -4    1    5    5    0  503  0.12676144559E+03 -0.17434868667E+03 -0.37793437842E+03  0.43508656958E+03  0.00000000000E+00 0.  1.
         -3    1    6    6    0  502 -0.35761274532E+03  0.75475859390E+01 -0.43017117951E+03  0.55945606204E+03  0.00000000000E+00 0.  1.
<mgrwt>
<rscale>  0 0.15034140E+04</rscale>
<asrwt>0</asrwt>
<pdfrwt beam="1">  1        1 0.25860313E+00 0.15034140E+04</pdfrwt>
<pdfrwt beam="2">  1       -1 0.51717399E-01 0.15034140E+04</pdfrwt>
<totfact> 0.17872133E+01</totfact>
</mgrwt>
</event>
<event>
12    1  0.2214165E-007  0.1376459E+04  0.7818608E-02  0.8971037E-01
          2   -1    0    0  501    0  0.00000000000E+00  0.00000000000E+00  0.11040938880E+04  0.11040938880E+04  0.00000000000E+00 0. -1.
         -2   -1    0    0    0  501 -0.00000000000E+00 -0.00000000000E+00 -0.42900336470E+03  0.42900336470E+03  0.00000000000E+00 0.  1.
         23    2    1    2    0    0  0.23392755165E+03  0.13611087532E+03 -0.10992586614E+03  0.30699176777E+03  0.94403281907E+02 0.  0.
        254    2    1    2    0    0 -0.23392755165E+03 -0.13611087532E+03  0.78501638947E+03  0.12261054850E+04  0.90212840477E+03 0.  0.
        -24    2    4    4    0    0 -0.40134920223E+03 -0.33455160043E+03  0.79393493788E+03  0.95433759023E+03  0.86148679885E+02 0.  0.
         24    2    4    4    0    0  0.16742165058E+03  0.19844072511E+03 -0.89185484169E+01  0.27176789472E+03  0.79809257785E+02 0.  0.
         11    1    3    3    0    0  0.10019181034E+03  0.14048157510E+02 -0.14150953202E+02  0.10215673774E+03  0.00000000000E+00 0. -1.
        -11    1    3    3    0    0  0.13373574131E+03  0.12206271781E+03 -0.95774912937E+02  0.20483503003E+03  0.00000000000E+00 0.  1.
          2    1    6    6  502    0  0.46834347288E+01  0.30252575693E+02 -0.21483049006E+02  0.37398854147E+02  0.00000000000E+00 0. -1.
          1    1    5    5  503    0 -0.54379528235E+02 -0.11769732512E+02  0.80846962355E+02  0.98142197940E+02  0.00000000000E+00 0. -1.
         -2    1    5    5    0  503 -0.34696967399E+03 -0.32278186792E+03  0.71308797553E+03  0.85619539229E+03  0.00000000000E+00 0.  1.
         -1    1    6    6    0  502  0.16273821585E+03  0.16818814942E+03  0.12564500589E+02  0.23436904058E+03  0.00000000000E+00 0.  1.
<mgrwt>
<rscale>  0 0.13764592E+04</rscale>
<asrwt>0</asrwt>
<pdfrwt beam="1">  1        2 0.16986060E+00 0.13764592E+04</pdfrwt>
<pdfrwt beam="2">  1       -2 0.66000518E-01 0.13764592E+04</pdfrwt>
<totfact> 0.44613771E+01</totfact>
</mgrwt>
</event>
<event>
12    1  0.2214165E-007  0.1944984E+04  0.7818608E-02  0.8632783E-01
         -1   -1    0    0    0  501 -0.00000000000E+00  0.00000000000E+00  0.75994922166E+03  0.75994922166E+03  0.00000000000E+00 0.  1.
          1   -1    0    0  501    0  0.00000000000E+00 -0.00000000000E+00 -0.12444791626E+04  0.12444791626E+04  0.00000000000E+00 0. -1.
         23    2    1    2    0    0  0.51882611367E+03  0.45518568475E+03  0.13992392918E+03  0.71018341791E+03  0.91690988065E+02 0.  0.
        254    2    1    2    0    0 -0.51882611367E+03 -0.45518568475E+03 -0.62445387014E+03  0.12942449664E+04  0.89930687378E+03 0.  0.
        -24    2    4    4    0    0 -0.11273615071E+03 -0.38939885960E+03  0.12832112763E+03  0.43264988106E+03  0.79866740596E+02 0.  0.
         24    2    4    4    0    0 -0.40608996296E+03 -0.65786825153E+02 -0.75277499777E+03  0.86159508531E+03  0.80242939769E+02 0.  0.
         11    1    3    3    0    0  0.31791653061E+03  0.32098099735E+03  0.60241910419E+02  0.45577276012E+03  0.00000000000E+00 0. -1.
        -11    1    3    3    0    0  0.20090958306E+03  0.13420468740E+03  0.79682018761E+02  0.25441065779E+03  0.00000000000E+00 0.  1.
          4    1    6    6  502    0 -0.31701632152E+03 -0.84550705172E+02 -0.58672980340E+03  0.67223510177E+03  0.00000000000E+00 0. -1.
          3    1    5    5  503    0 -0.10319254492E+03 -0.34761321689E+03  0.13923605345E+03  0.38842029873E+03  0.00000000000E+00 0. -1.
         -4    1    5    5    0  503 -0.95436057921E+01 -0.41785642704E+02 -0.10914925816E+02  0.44229582332E+02  0.00000000000E+00 0.  1.
         -3    1    6    6    0  502 -0.89073641443E+02  0.18763880018E+02 -0.16604519437E+03  0.18935998354E+03  0.00000000000E+00 0.  1.
<mgrwt>
<rscale>  0 0.19449843E+04</rscale>
<asrwt>0</asrwt>
<pdfrwt beam="1">  1        1 0.19145833E+00 0.19449843E+04</pdfrwt>
<pdfrwt beam="2">  1       -1 0.11691527E+00 0.19449843E+04</pdfrwt>
<totfact> 0.60977753E+00</totfact>
</mgrwt>
</event>
<event>
12    1  0.2214165E-007  0.5571746E+04  0.7818608E-02  0.7745893E-01
          2   -1    0    0  501    0  0.00000000000E+00  0.00000000000E+00  0.41564322450E+04  0.41564322450E+04  0.00000000000E+00 0. -1.
         -2   -1    0    0    0  501 -0.00000000000E+00 -0.00000000000E+00 -0.18672478731E+04  0.18672478731E+04  0.00000000000E+00 0.  1.
         23    2    1    2    0    0  0.15620638014E+04  0.20355079617E+04  0.16480364328E+03  0.25726944053E+04  0.90886083768E+02 0.  0.
        254    2    1    2    0    0 -0.15620638014E+04 -0.20355079617E+04  0.21243807287E+04  0.34509857129E+04  0.90165011415E+03 0.  0.
        -24    2    4    4    0    0 -0.15049059768E+04 -0.18320610365E+04  0.15500301303E+04  0.28337710975E+04  0.80471038088E+02 0.  0.
         24    2    4    4    0    0 -0.57157824573E+02 -0.20344692524E+03  0.57435059839E+03  0.61721461535E+03  0.80109944667E+02 0.  0.
         11    1    3    3    0    0  0.38477513958E+03  0.55564927236E+03  0.66063388925E+02  0.67908938533E+03  0.00000000000E+00 0. -1.
        -11    1    3    3    0    0  0.11772886618E+04  0.14798586894E+04  0.98740254353E+02  0.18936050199E+04  0.00000000000E+00 0.  1.
          2    1    6    6  502    0 -0.94989293795E+01 -0.69445019424E+02  0.30128115174E+03  0.30932696742E+03  0.00000000000E+00 0. -1.
          1    1    5    5  503    0 -0.14759531678E+04 -0.18116672551E+04  0.15294543455E+04  0.27928133829E+04  0.00000000000E+00 0. -1.
         -2    1    5    5    0  503 -0.28952808998E+02 -0.20393781426E+02  0.20575784724E+02  0.40957714618E+02  0.00000000000E+00 0.  1.
         -1    1    6    6    0  502 -0.47658895194E+02 -0.13400190582E+03  0.27306944665E+03  0.30788764793E+03  0.00000000000E+00 0.  1.
<mgrwt>
<rscale>  0 0.55717463E+04</rscale>
<asrwt>0</asrwt>
<pdfrwt beam="1">  1        2 0.63945111E+00 0.55717463E+04</pdfrwt>
<pdfrwt beam="2">  1       -2 0.28726891E+00 0.55717463E+04</pdfrwt>
<totfact> 0.66636107E-03</totfact>
</mgrwt>
</event>
<event>
12    1  0.2214165E-007  0.2578814E+04  0.7818608E-02  0.8375433E-01
         -2   -1    0    0    0  501 -0.00000000000E+00  0.00000000000E+00  0.14292874166E+04  0.14292874166E+04  0.00000000000E+00 0.  1.
          2   -1    0    0  501    0  0.00000000000E+00 -0.00000000000E+00 -0.11632166924E+04  0.11632166924E+04  0.00000000000E+00 0. -1.
         23    2    1    2    0    0 -0.30388312532E+03 -0.10579759709E+04 -0.14112381957E+03  0.11136711747E+04  0.93217187135E+02 0.  0.
        254    2    1    2    0    0  0.30388312532E+03  0.10579759709E+04  0.40719454375E+03  0.14788329343E+04  0.89971181065E+03 0.  0.
        -24    2    4    4    0    0  0.65184775488E+02 -0.19332927533E+02  0.35661070023E+03  0.37137531784E+03  0.78266328264E+02 0.  0.
         24    2    4    4    0    0  0.23869834983E+03  0.10773088984E+04  0.50583843527E+02  0.11074576164E+04  0.79575638038E+02 0.  0.
         11    1    3    3    0    0 -0.75698312962E+02 -0.41489385967E+03 -0.36319343510E+02  0.42330396182E+03  0.00000000000E+00 0. -1.
        -11    1    3    3    0    0 -0.22818481236E+03 -0.64308211121E+03 -0.10480447606E+03  0.69036721283E+03  0.00000000000E+00 0.  1.
          4    1    6    6  502    0  0.21923498882E+03  0.87407897401E+03  0.23040274632E+02  0.90144821670E+03  0.00000000000E+00 0. -1.
          3    1    5    5  503    0  0.53625434856E+02  0.19232123530E+02  0.26886189931E+03  0.27483137147E+03  0.00000000000E+00 0. -1.
         -4    1    5    5    0  503  0.11559340632E+02 -0.38565051063E+02  0.87748800911E+02  0.96543946370E+02  0.00000000000E+00 0.  1.
         -3    1    6    6    0  502  0.19463361011E+02  0.20322992441E+03  0.27543568894E+02  0.20600939975E+03  0.00000000000E+00 0.  1.
<mgrwt>
<rscale>  0 0.25788144E+04</rscale>
<asrwt>0</asrwt>
<pdfrwt beam="1">  1        2 0.17895642E+00 0.25788144E+04</pdfrwt>
<pdfrwt beam="2">  1       -2 0.21989037E+00 0.25788144E+04</pdfrwt>
<totfact> 0.17482460E+00</totfact>
</mgrwt>
</event>
<event>
12    1  0.2214165E-007  0.2032110E+04  0.7818608E-02  0.8591754E-01
          2   -1    0    0  501    0  0.00000000000E+00  0.00000000000E+00  0.15406968531E+04  0.15406968531E+04  0.00000000000E+00 0. -1.
         -2   -1    0    0    0  501 -0.00000000000E+00 -0.00000000000E+00 -0.67006531106E+03  0.67006531106E+03  0.00000000000E+00 0.  1.
         23    2    1    2    0    0 -0.66310182936E+03 -0.13330148930E+03  0.84274134019E+03  0.10838844905E+04  0.84375939809E+02 0.  0.
        254    2    1    2    0    0  0.66310182936E+03  0.13330148930E+03  0.27890201819E+02  0.11268776736E+04  0.90088961849E+03 0.  0.
        -24    2    4    4    0    0  0.73555294584E+03  0.39357334014E+03  0.74088922697E+02  0.84145613352E+03  0.81370424385E+02 0.  0.
         24    2    4    4    0    0 -0.72451116474E+02 -0.26027185084E+03 -0.46198720878E+02  0.28542154006E+03  0.79627464497E+02 0.  0.
         13    1    3    3    0    0 -0.36273431056E+03 -0.75214328676E+02  0.52763893035E+03  0.64469854670E+03  0.00000000000E+00 0. -1.
        -13    1    3    3    0    0 -0.30036751881E+03 -0.58087160620E+02  0.31510240984E+03  0.43918594384E+03  0.00000000000E+00 0.  1.
          2    1    6    6  502    0 -0.85788669068E+02 -0.18308753019E+03 -0.44735253263E+02  0.20707965215E+03  0.00000000000E+00 0. -1.
          3    1    5    5  503    0  0.65608520998E+03  0.37056656619E+03  0.49405840623E+02  0.75512139410E+03  0.00000000000E+00 0. -1.
         -4    1    5    5    0  503  0.79467735858E+02  0.23006773946E+02  0.24683082074E+02  0.86334739419E+02  0.00000000000E+00 0.  1.
         -1    1    6    6    0  502  0.13337552594E+02 -0.77184320657E+02 -0.14634676149E+01  0.78341887914E+02  0.00000000000E+00 0.  1.
<mgrwt>
<rscale>  0 0.20321098E+04</rscale>
<asrwt>0</asrwt>
<pdfrwt beam="1">  1        2 0.23703028E+00 0.20321098E+04</pdfrwt>
<pdfrwt beam="2">  1       -2 0.10308697E+00 0.20321098E+04</pdfrwt>
<totfact> 0.85721322E+00</totfact>
</mgrwt>
</event>
<event>
12    1  0.2214165E-007  0.1471619E+04  0.7818608E-02  0.8903548E-01
          1   -1    0    0  501    0  0.00000000000E+00  0.00000000000E+00  0.16030602006E+04  0.16030602006E+04  0.00000000000E+00 0. -1.
         -1   -1    0    0    0  501 -0.00000000000E+00 -0.00000000000E+00 -0.33773898315E+03  0.33773898315E+03  0.00000000000E+00 0.  1.
         23    2    1    2    0    0 -0.92360106138E+02 -0.44426705875E+03  0.40197312080E+03  0.61353896861E+03  0.94573079971E+02 0.  0.
        254    2    1    2    0    0  0.92360106138E+02  0.44426705875E+03  0.86334809667E+03  0.13272602152E+04  0.90019227617E+03 0.  0.
        -24    2    4    4    0    0  0.37552765379E+03  0.41237246715E+02  0.70502720089E+03  0.80369594251E+03  0.78372729532E+02 0.  0.
         24    2    4    4    0    0 -0.28316754765E+03  0.40302981203E+03  0.15832089578E+03  0.52356427266E+03  0.80231864850E+02 0.  0.
         11    1    3    3    0    0 -0.65550193608E+02 -0.42503854081E+03  0.36593640901E+03  0.56468048000E+03  0.00000000000E+00 0.  1.
        -11    1    3    3    0    0 -0.26809912530E+02 -0.19228517942E+02  0.36036711789E+02  0.48858488604E+02  0.00000000000E+00 0. -1.
          4    1    6    6  502    0 -0.24192874413E+03  0.36724571025E+03  0.16243107076E+03  0.46880996329E+03  0.00000000000E+00 0. -1.
          1    1    5    5  503    0  0.17587628916E+03 -0.19815411648E+02  0.31629073465E+03  0.36244302787E+03  0.00000000000E+00 0. -1.
         -2    1    5    5    0  503  0.19965136464E+03  0.61052658364E+02  0.38873646624E+03  0.44125291464E+03  0.00000000000E+00 0.  1.
         -3    1    6    6    0  502 -0.41238803525E+02  0.35784101787E+02 -0.41101749786E+01  0.54754309376E+02  0.00000000000E+00 0.  1.
<mgrwt>
<rscale>  0 0.14716194E+04</rscale>
<asrwt>0</asrwt>
<pdfrwt beam="1">  1        1 0.24662464E+00 0.14716194E+04</pdfrwt>
<pdfrwt beam="2">  1       -1 0.51959844E-01 0.14716194E+04</pdfrwt>
<totfact> 0.20077765E+01</totfact>
</mgrwt>
</event>
<event>
12    1  0.2214165E-007  0.2185134E+04  0.7818608E-02  0.8524641E-01
          1   -1    0    0  501    0  0.00000000000E+00  0.00000000000E+00  0.41311359384E+04  0.41311359384E+04  0.00000000000E+00 0. -1.
         -1   -1    0    0    0  501 -0.00000000000E+00 -0.00000000000E+00 -0.28895263429E+03  0.28895263429E+03  0.00000000000E+00 0.  1.
         23    2    1    2    0    0 -0.60437141783E+03  0.60059912902E+03  0.22101685437E+04  0.23704649025E+04  0.90965588969E+02 0.  0.
        254    2    1    2    0    0  0.60437141783E+03 -0.60059912902E+03  0.16320147605E+04  0.20496236702E+04  0.90083343990E+03 0.  0.
        -24    2    4    4    0    0  0.45388439523E+03 -0.72503960027E+03  0.74579489955E+03  0.11376862129E+04  0.80164959020E+02 0.  0.
         24    2    4    4    0    0  0.15048702260E+03  0.12444047125E+03  0.88621986094E+03  0.91193745727E+03  0.90069468744E+02 0.  0.
         13    1    3    3    0    0 -0.50686474794E+03  0.50819983046E+03  0.19450121175E+04  0.20732223898E+04  0.00000000000E+00 0. -1.
        -13    1    3    3    0    0 -0.97506669883E+02  0.92399298565E+02  0.26515642614E+03  0.29724251273E+03  0.00000000000E+00 0.  1.
          2    1    6    6  502    0  0.71866585179E+02  0.31617003714E+02  0.52370108558E+03  0.52955383865E+03  0.00000000000E+00 0. -1.
          3    1    5    5  503    0  0.31453838388E+03 -0.53937585724E+03  0.50319512404E+03  0.80191398739E+03  0.00000000000E+00 0. -1.
         -4    1    5    5    0  503  0.13934601134E+03 -0.18566374303E+03  0.24259977551E+03  0.33577222552E+03  0.00000000000E+00 0.  1.
         -1    1    6    6    0  502  0.78620437421E+02  0.92823467531E+02  0.36251877536E+03  0.38238361862E+03  0.00000000000E+00 0.  1.
<mgrwt>
<rscale>  0 0.21851340E+04</rscale>
<asrwt>0</asrwt>
<pdfrwt beam="1">  1        1 0.63555933E+00 0.21851340E+04</pdfrwt>
<pdfrwt beam="2">  1       -1 0.44454254E-01 0.21851340E+04</pdfrwt>
<totfact> 0.33707112E-01</totfact>
</mgrwt>
</event>
<event>
12    1  0.2214165E-007  0.1542845E+04  0.7818608E-02  0.8856451E-01
         -1   -1    0    0    0  501 -0.00000000000E+00  0.00000000000E+00  0.46048653927E+03  0.46048653927E+03  0.00000000000E+00 0.  1.
          1   -1    0    0  501    0  0.00000000000E+00 -0.00000000000E+00 -0.12923135977E+04  0.12923135977E+04  0.00000000000E+00 0. -1.
         23    2    1    2    0    0 -0.25243689836E+03 -0.42679564508E+03 -0.34517155883E+03  0.61089226918E+03  0.90371727901E+02 0.  0.
        254    2    1    2    0    0  0.25243689836E+03  0.42679564508E+03 -0.48665549959E+03  0.11419078678E+04  0.90622353364E+03 0.  0.
        -24    2    4    4    0    0 -0.13079754090E+03 -0.11771785598E+03 -0.42671327491E+03  0.46852391124E+03  0.80404888510E+02 0.  0.
         24    2    4    4    0    0  0.38323443926E+03  0.54451350106E+03 -0.59942224672E+02  0.67338395654E+03  0.80556156584E+02 0.  0.
         13    1    3    3    0    0 -0.14681153921E+03 -0.30728011586E+03 -0.26983258841E+03  0.43449317994E+03  0.00000000000E+00 0. -1.
        -13    1    3    3    0    0 -0.10562535914E+03 -0.11951552922E+03 -0.75338970426E+02  0.17639908923E+03  0.00000000000E+00 0.  1.
          4    1    6    6  502    0  0.31580792166E+03  0.39636939482E+03 -0.28423283961E+02  0.50759356142E+03  0.00000000000E+00 0. -1.
          3    1    5    5  503    0 -0.10975144977E+03 -0.12289040816E+03 -0.40754434111E+03  0.43959051754E+03  0.00000000000E+00 0. -1.
         -4    1    5    5    0  503 -0.21046091125E+02  0.51725521767E+01 -0.19168933803E+02  0.28933393697E+02  0.00000000000E+00 0.  1.
         -3    1    6    6    0  502  0.67426517598E+02  0.14814410624E+03 -0.31518940712E+02  0.16579039512E+03  0.00000000000E+00 0.  1.
<mgrwt>
<rscale>  0 0.15428454E+04</rscale>
<asrwt>0</asrwt>
<pdfrwt beam="1">  1        1 0.19881748E+00 0.15428454E+04</pdfrwt>
<pdfrwt beam="2">  1       -1 0.70844083E-01 0.15428454E+04</pdfrwt>
<totfact> 0.17776645E+01</totfact>
</mgrwt>
</event>
<event>
12    1  0.2214165E-007  0.1583471E+04  0.7818608E-02  0.8830767E-01
          1   -1    0    0  501    0  0.00000000000E+00  0.00000000000E+00  0.18533158814E+04  0.18533158814E+04  0.00000000000E+00 0. -1.
         -1   -1    0    0    0  501 -0.00000000000E+00 -0.00000000000E+00 -0.33822893502E+03  0.33822893502E+03  0.00000000000E+00 0.  1.
         23    2    1    2    0    0 -0.52102829204E+03  0.60865728089E+02  0.39046472001E+03  0.66033983464E+03  0.91710859097E+02 0.  0.
        254    2    1    2    0    0  0.52102829204E+03 -0.60865728089E+02  0.11246222264E+04  0.15312049818E+04  0.89701640241E+03 0.  0.
        -24    2    4    4    0    0  0.52554699458E+03  0.47897534166E+02  0.12393484026E+04  0.13496343723E+04  0.83872872530E+02 0.  0.
         24    2    4    4    0    0 -0.45187025353E+01 -0.10876326225E+03 -0.11472617620E+03  0.18157060944E+03  0.89195991043E+02 0.  0.
         11    1    3    3    0    0 -0.33166065920E+03  0.79399265327E+02  0.22892545901E+03  0.41074310947E+03  0.00000000000E+00 0. -1.
        -11    1    3    3    0    0 -0.18936763284E+03 -0.18533537237E+02  0.16153926100E+03  0.24959672517E+03  0.00000000000E+00 0.  1.
          4    1    6    6  502    0  0.58218884868E+01 -0.10662271632E+03 -0.53488493576E+02  0.11942912947E+03  0.00000000000E+00 0. -1.
          1    1    5    5  503    0  0.10985302399E+03  0.24269262227E+02  0.35021099889E+03  0.36783750177E+03  0.00000000000E+00 0. -1.
         -2    1    5    5    0  503  0.41569397059E+03  0.23628271938E+02  0.88913740369E+03  0.98179687057E+03  0.00000000000E+00 0.  1.
         -3    1    6    6    0  502 -0.10340591022E+02 -0.21405459319E+01 -0.61237682620E+02  0.62141479965E+02  0.00000000000E+00 0.  1.
<mgrwt>
<rscale>  0 0.15834709E+04</rscale>
<asrwt>0</asrwt>
<pdfrwt beam="1">  1        1 0.28512552E+00 0.15834709E+04</pdfrwt>
<pdfrwt beam="2">  1       -1 0.52035222E-01 0.15834709E+04</pdfrwt>
<totfact> 0.13394174E+01</totfact>
</mgrwt>
</event>
<event>
12    1  0.2214165E-007  0.1656129E+04  0.7818608E-02  0.8786789E-01
         -2   -1    0    0    0  501 -0.00000000000E+00  0.00000000000E+00  0.51627819593E+03  0.51627819593E+03  0.00000000000E+00 0.  1.
          2   -1    0    0  501    0  0.00000000000E+00 -0.00000000000E+00 -0.13281415423E+04  0.13281415423E+04  0.00000000000E+00 0. -1.
         23    2    1    2    0    0  0.49999237769E+03  0.29020686353E+03 -0.27416709545E+03  0.64631699380E+03  0.91354577648E+02 0.  0.
        254    2    1    2    0    0 -0.49999237769E+03 -0.29020686353E+03 -0.53769625092E+03  0.11981027444E+04  0.90117730030E+03 0.  0.
        -24    2    4    4    0    0  0.44975809986E+02 -0.28988694464E+02 -0.57807718572E+03  0.58634802231E+03  0.82265440622E+02 0.  0.
         24    2    4    4    0    0 -0.54496818768E+03 -0.26121816906E+03  0.40380934805E+02  0.61175472212E+03  0.85953258902E+02 0.  0.
         13    1    3    3    0    0  0.27299611363E+03  0.11548631099E+03 -0.16872632919E+03  0.34107556383E+03  0.00000000000E+00 0. -1.
        -13    1    3    3    0    0  0.22699626406E+03  0.17472055254E+03 -0.10544076626E+03  0.30524142996E+03  0.00000000000E+00 0.  1.
          4    1    6    6  502    0 -0.91338485441E+02 -0.78392769801E+02  0.21736118316E+02  0.12231354839E+03  0.00000000000E+00 0. -1.
          1    1    5    5  503    0 -0.59964798141E+01 -0.17458947514E+02 -0.26472708460E+02  0.32273470710E+02  0.00000000000E+00 0. -1.
         -2    1    5    5    0  503  0.50972289801E+02 -0.11529746950E+02 -0.55160447726E+03  0.55407455160E+03  0.00000000000E+00 0.  1.
         -1    1    6    6    0  502 -0.45362970224E+03 -0.18282539926E+03  0.18644816489E+02  0.48944117374E+03  0.00000000000E+00 0.  1.
<mgrwt>
<rscale>  0 0.16561286E+04</rscale>
<asrwt>0</asrwt>
<pdfrwt beam="1">  1        2 0.20432946E+00 0.16561286E+04</pdfrwt>
<pdfrwt beam="2">  1       -2 0.79427416E-01 0.16561286E+04</pdfrwt>
<totfact> 0.21354275E+01</totfact>
</mgrwt>
</event>
<event>
12    1  0.2214165E-007  0.2190722E+04  0.7818608E-02  0.8522300E-01
          1   -1    0    0  501    0  0.00000000000E+00  0.00000000000E+00  0.14217503735E+04  0.14217503735E+04  0.00000000000E+00 0. -1.
         -1   -1    0    0    0  501 -0.00000000000E+00 -0.00000000000E+00 -0.84390029683E+03  0.84390029683E+03  0.00000000000E+00 0.  1.
         23    2    1    2    0    0 -0.59339707686E+02  0.89618048684E+03  0.10089826557E+03  0.90850154569E+03  0.92379286798E+02 0.  0.
        254    2    1    2    0    0  0.59339707686E+02 -0.89618048684E+03  0.47695181110E+03  0.13571491246E+04  0.89872690539E+03 0.  0.
        -24    2    4    4    0    0  0.45824104233E+03 -0.59227075102E+03  0.19802349196E+03  0.77861668183E+03  0.79127355928E+02 0.  0.
         24    2    4    4    0    0 -0.39890133464E+03 -0.30390973582E+03  0.27892831914E+03  0.57853244280E+03  0.73589250960E+02 0.  0.
         11    1    3    3    0    0 -0.51599964291E+02  0.23019319703E+03  0.81877605286E+01  0.23604767250E+03  0.00000000000E+00 0.  1.
        -11    1    3    3    0    0 -0.77397433953E+01  0.66598728982E+03  0.92710505039E+02  0.67245387319E+03  0.00000000000E+00 0. -1.
          2    1    6    6  502    0 -0.79452277998E+02 -0.33032550445E+02  0.67479189833E+02  0.10934923378E+03  0.00000000000E+00 0. -1.
          1    1    5    5  503    0  0.11133209991E+03 -0.11522463339E+03  0.14495624687E+02  0.16087782863E+03  0.00000000000E+00 0. -1.
         -4    1    5    5    0  503  0.34690894242E+03 -0.47704611763E+03  0.18352786728E+03  0.61773885320E+03  0.00000000000E+00 0.  1.
         -1    1    6    6    0  502 -0.31944905664E+03 -0.27087718537E+03  0.21144912930E+03  0.46918320902E+03  0.00000000000E+00 0.  1.
<mgrwt>
<rscale>  0 0.21907219E+04</rscale>
<asrwt>0</asrwt>
<pdfrwt beam="1">  1        1 0.21873083E+00 0.21907219E+04</pdfrwt>
<pdfrwt beam="2">  1       -1 0.12983082E+00 0.21907219E+04</pdfrwt>
<totfact> 0.34438389E+00</totfact>
</mgrwt>
</event>
<event>
12    1  0.2214165E-007  0.2725388E+04  0.7818608E-02  0.8326814E-01
         -1   -1    0    0    0  501 -0.00000000000E+00  0.00000000000E+00  0.94948668478E+03  0.94948668478E+03  0.00000000000E+00 0.  1.
          1   -1    0    0  501    0  0.00000000000E+00 -0.00000000000E+00 -0.19557254940E+04  0.19557254940E+04  0.00000000000E+00 0. -1.
         23    2    1    2    0    0  0.91723002645E+02 -0.82244639033E+03 -0.13925404277E+04  0.16227948551E+04  0.97278594684E+02 0.  0.
        254    2    1    2    0    0 -0.91723002645E+02  0.82244639033E+03  0.38630161847E+03  0.12824173236E+04  0.90029666071E+03 0.  0.
        -24    2    4    4    0    0  0.17526992071E+03  0.81236407573E+03  0.37057934913E+02  0.83594383519E+03  0.82303514042E+02 0.  0.
         24    2    4    4    0    0 -0.26699292335E+03  0.10082314602E+02  0.34924368356E+03  0.44647348842E+03  0.77334023319E+02 0.  0.
         13    1    3    3    0    0  0.90756388676E+02 -0.47952391332E+03 -0.87629734375E+03  0.10030338679E+04  0.00000000000E+00 0. -1.
        -13    1    3    3    0    0  0.96661396869E+00 -0.34292247700E+03 -0.51624308390E+03  0.61976098720E+03  0.00000000000E+00 0.  1.
          4    1    6    6  502    0 -0.26290583280E+02  0.25696684958E+02  0.51780493783E+02  0.63503810306E+02  0.00000000000E+00 0. -1.
          3    1    5    5  503    0  0.60176323731E+01  0.18124008880E+03  0.18144878296E+02  0.18224548910E+03  0.00000000000E+00 0. -1.
         -4    1    5    5    0  503  0.16925228834E+03  0.63112398692E+03  0.18913056617E+02  0.65369834609E+03  0.00000000000E+00 0.  1.
         -3    1    6    6    0  502 -0.24070234007E+03 -0.15614370356E+02  0.29746318978E+03  0.38296967811E+03  0.00000000000E+00 0.  1.
<mgrwt>
<rscale>  0 0.27253883E+04</rscale>
<asrwt>0</asrwt>
<pdfrwt beam="1">  1        1 0.30088085E+00 0.27253883E+04</pdfrwt>
<pdfrwt beam="2">  1       -1 0.14607487E+00 0.27253883E+04</pdfrwt>
<totfact> 0.10422824E+00</totfact>
</mgrwt>
</event>
<event>
12    1  0.2214165E-007  0.2166529E+04  0.7818608E-02  0.8532490E-01
          1   -1    0    0  501    0  0.00000000000E+00  0.00000000000E+00  0.14695741395E+04  0.14695741395E+04  0.00000000000E+00 0. -1.
         -1   -1    0    0    0  501 -0.00000000000E+00 -0.00000000000E+00 -0.79850504394E+03  0.79850504394E+03  0.00000000000E+00 0.  1.
         23    2    1    2    0    0  0.19935501904E+03  0.82652932575E+02  0.11832199716E+04  0.12080464160E+04  0.11310486768E+03 0.  0.
        254    2    1    2    0    0 -0.19935501904E+03 -0.82652932575E+02 -0.51215087598E+03  0.10600327675E+04  0.90266107567E+03 0.  0.
        -24    2    4    4    0    0  0.23108335654E+03 -0.71831263248E+02  0.12767435302E+03  0.28480908313E+03  0.79096304361E+02 0.  0.
         24    2    4    4    0    0 -0.43043837559E+03 -0.10821669327E+02 -0.63982522900E+03  0.77522368438E+03  0.78747275828E+02 0.  0.
         11    1    3    3    0    0  0.14643704793E+03  0.10502630029E+03  0.99734588740E+03  0.10134955115E+04  0.00000000000E+00 0. -1.
        -11    1    3    3    0    0  0.52917971113E+02 -0.22373367710E+02  0.18587408418E+03  0.19455090444E+03  0.00000000000E+00 0.  1.
          4    1    6    6  502    0 -0.21098734388E+03  0.12738059449E+02 -0.25120555980E+03  0.32830192005E+03  0.00000000000E+00 0. -1.
          1    1    5    5  503    0  0.56049108732E+02 -0.62666360589E+01 -0.34293556912E+01  0.56502511427E+02  0.00000000000E+00 0. -1.
         -2    1    5    5    0  503  0.17503424781E+03 -0.65564627189E+02  0.13110370871E+03  0.22830657170E+03  0.00000000000E+00 0.  1.
         -3    1    6    6    0  502 -0.21945103170E+03 -0.23559728775E+02 -0.38861966920E+03  0.44692176432E+03  0.00000000000E+00 0.  1.
<mgrwt>
<rscale>  0 0.21665294E+04</rscale>
<asrwt>0</asrwt>
<pdfrwt beam="1">  1        1 0.22608833E+00 0.21665294E+04</pdfrwt>
<pdfrwt beam="2">  1       -1 0.12284693E+00 0.21665294E+04</pdfrwt>
<totfact> 0.36695947E+00</totfact>
</mgrwt>
</event>
<event>
12    1  0.2214165E-007  0.1237198E+04  0.7818608E-02  0.9080906E-01
          2   -1    0    0  501    0  0.00000000000E+00  0.00000000000E+00  0.22582006022E+04  0.22582006022E+04  0.00000000000E+00 0. -1.
         -2   -1    0    0    0  501 -0.00000000000E+00 -0.00000000000E+00 -0.16945572751E+03  0.16945572751E+03  0.00000000000E+00 0.  1.
         23    2    1    2    0    0 -0.21247779484E+03  0.12299396800E+03  0.23362755265E+03  0.35104712126E+03  0.91530970309E+02 0.  0.
        254    2    1    2    0    0  0.21247779484E+03 -0.12299396800E+03  0.18551173220E+04  0.20766092084E+04  0.90031727551E+03 0.  0.
        -24    2    4    4    0    0 -0.33009774881E+03 -0.10895900868E+03  0.50328145745E+03  0.61746518811E+03  0.84465636642E+02 0.  0.
         24    2    4    4    0    0  0.54257554365E+03 -0.14034959318E+02  0.13518358646E+04  0.14591440203E+04  0.83999206131E+02 0.  0.
         11    1    3    3    0    0 -0.21749727165E+03  0.10661358492E+03  0.22891866459E+03  0.33327957433E+03  0.00000000000E+00 0.  1.
        -11    1    3    3    0    0  0.50194768179E+01  0.16380383076E+02  0.47088880618E+01  0.17767546933E+02  0.00000000000E+00 0. -1.
          2    1    6    6  502    0  0.41963351100E+03 -0.14419529567E+02  0.11304873546E+04  0.12059443873E+04  0.00000000000E+00 0. -1.
          3    1    5    5  503    0 -0.23085581783E+03 -0.50711956482E+02  0.28119738898E+03  0.36733919301E+03  0.00000000000E+00 0. -1.
         -4    1    5    5    0  503 -0.99241930983E+02 -0.58247052196E+02  0.22208406847E+03  0.25012599510E+03  0.00000000000E+00 0.  1.
         -1    1    6    6    0  502  0.12294203265E+03  0.38457024953E+00  0.22134851002E+03  0.25319963304E+03  0.00000000000E+00 0.  1.
<mgrwt>
<rscale>  0 0.12371985E+04</rscale>
<asrwt>0</asrwt>
<pdfrwt beam="1">  1        2 0.34741546E+00 0.12371985E+04</pdfrwt>
<pdfrwt beam="2">  1       -2 0.26070114E-01 0.12371985E+04</pdfrwt>
<totfact> 0.62836444E+01</totfact>
</mgrwt>
</event>
<event>
12    1  0.2214165E-007  0.2654859E+04  0.7818608E-02  0.8349802E-01
         -1   -1    0    0    0  501 -0.00000000000E+00  0.00000000000E+00  0.88538981525E+03  0.88538981525E+03  0.00000000000E+00 0.  1.
          1   -1    0    0  501    0  0.00000000000E+00 -0.00000000000E+00 -0.19901621056E+04  0.19901621056E+04  0.00000000000E+00 0. -1.
         23    2    1    2    0    0 -0.52775246642E+02  0.11718828863E+04 -0.52148223977E+03  0.12872775882E+04  0.95105924817E+02 0.  0.
        254    2    1    2    0    0  0.52775246642E+02 -0.11718828863E+04 -0.58329005059E+03  0.15882743326E+04  0.89793838692E+03 0.  0.
        -24    2    4    4    0    0 -0.39106739831E+03 -0.79388161194E+03 -0.36383293642E+03  0.96028664410E+03  0.81205353364E+02 0.  0.
         24    2    4    4    0    0  0.44384264496E+03 -0.37800127436E+03 -0.21945711417E+03  0.62798768852E+03  0.79535244243E+02 0.  0.
         11    1    3    3    0    0 -0.94769447500E-01  0.52563428805E+03 -0.18875507306E+03  0.55849788841E+03  0.00000000000E+00 0.  1.
        -11    1    3    3    0    0 -0.52680477195E+02  0.64624859825E+03 -0.33272716671E+03  0.72877969983E+03  0.00000000000E+00 0. -1.
          2    1    6    6  502    0  0.36253727653E+03 -0.34114043847E+03 -0.20085871185E+03  0.53680005380E+03  0.00000000000E+00 0. -1.
          3    1    5    5  503    0 -0.27807246803E+03 -0.53448447336E+03 -0.20874393045E+03  0.63762996968E+03  0.00000000000E+00 0. -1.
         -4    1    5    5    0  503 -0.11299493029E+03 -0.25939713858E+03 -0.15508900597E+03  0.32265667442E+03  0.00000000000E+00 0.  1.
         -1    1    6    6    0  502  0.81305368429E+02 -0.36860835888E+02 -0.18598402323E+02  0.91187634725E+02  0.00000000000E+00 0.  1.
<mgrwt>
<rscale>  0 0.26548591E+04</rscale>
<asrwt>0</asrwt>
<pdfrwt beam="1">  1        1 0.30617878E+00 0.26548591E+04</pdfrwt>
<pdfrwt beam="2">  1       -1 0.13621382E+00 0.26548591E+04</pdfrwt>
<totfact> 0.11939367E+00</totfact>
</mgrwt>
</event>
<event>
12    1  0.2214165E-007  0.2281508E+04  0.7818608E-02  0.8485248E-01
         -2   -1    0    0    0  501 -0.00000000000E+00  0.00000000000E+00  0.70478849822E+03  0.70478849822E+03  0.00000000000E+00 0.  1.
          2   -1    0    0  501    0  0.00000000000E+00 -0.00000000000E+00 -0.18463971495E+04  0.18463971495E+04  0.00000000000E+00 0. -1.
         23    2    1    2    0    0  0.49002970476E+03 -0.50585316411E+03 -0.12119966928E+04  0.14046738300E+04  0.90310853334E+02 0.  0.
        254    2    1    2    0    0 -0.49002970476E+03  0.50585316411E+03  0.70388041469E+02  0.11465118177E+04  0.90195251352E+03 0.  0.
        -24    2    4    4    0    0 -0.51704139848E+03 -0.22787146947E+02  0.25290045348E+03  0.58162273907E+03  0.80469307327E+02 0.  0.
         24    2    4    4    0    0  0.27011693715E+02  0.52864031106E+03 -0.18251241201E+03  0.56488907867E+03  0.74824331526E+02 0.  0.
         11    1    3    3    0    0  0.13707869077E+03 -0.10457340289E+03 -0.35594900901E+03  0.39550709357E+03  0.00000000000E+00 0. -1.
        -11    1    3    3    0    0  0.35295101400E+03 -0.40127976122E+03 -0.85604768374E+03  0.10091667364E+04  0.00000000000E+00 0.  1.
          4    1    6    6  502    0  0.19779600044E+02  0.34205956322E+02 -0.66998539373E+01  0.40077026694E+02  0.00000000000E+00 0. -1.
          3    1    5    5  503    0 -0.38362334906E+03 -0.27860336647E+01  0.14986018114E+03  0.41186491695E+03  0.00000000000E+00 0. -1.
         -4    1    5    5    0  503 -0.13341804942E+03 -0.20001113283E+02  0.10304027235E+03  0.16975782211E+03  0.00000000000E+00 0.  1.
         -3    1    6    6    0  502  0.72320936714E+01  0.49443435474E+03 -0.17581255808E+03  0.52481205198E+03  0.00000000000E+00 0.  1.
<mgrwt>
<rscale>  0 0.22815078E+04</rscale>
<asrwt>0</asrwt>
<pdfrwt beam="1">  1        2 0.28406110E+00 0.22815078E+04</pdfrwt>
<pdfrwt beam="2">  1       -2 0.10842900E+00 0.22815078E+04</pdfrwt>
<totfact> 0.50231869E+00</totfact>
</mgrwt>
</event>
<event>
12    1  0.2214165E-007  0.2108236E+04  0.7818608E-02  0.8557624E-01
          1   -1    0    0  501    0  0.00000000000E+00  0.00000000000E+00  0.20631752334E+04  0.20631752334E+04  0.00000000000E+00 0. -1.
         -1   -1    0    0    0  501 -0.00000000000E+00 -0.00000000000E+00 -0.53857035776E+03  0.53857035776E+03  0.00000000000E+00 0.  1.
         23    2    1    2    0    0 -0.26454131387E+03 -0.79604285891E+03  0.39558576050E+03  0.93201668781E+03  0.92199091557E+02 0.  0.
        254    2    1    2    0    0  0.26454131387E+03  0.79604285891E+03  0.11290191151E+04  0.16697289033E+04  0.89980226070E+03 0.  0.
        -24    2    4    4    0    0  0.38420994093E+03  0.49507569387E+02  0.68309801282E+03  0.78919638336E+03  0.78356609510E+02 0.  0.
         24    2    4    4    0    0 -0.11966862706E+03  0.74653528952E+03  0.44592110231E+03  0.88053251998E+03  0.69687663633E+02 0.  0.
         13    1    3    3    0    0 -0.15430230075E+03 -0.55637533280E+03  0.30575268837E+03  0.65333560856E+03  0.00000000000E+00 0. -1.
        -13    1    3    3    0    0 -0.11023901312E+03 -0.23966752610E+03  0.89833072129E+02  0.27868107925E+03  0.00000000000E+00 0.  1.
          4    1    6    6  502    0 -0.57026977797E+02  0.35537613364E+03  0.17200660075E+03  0.39891169858E+03  0.00000000000E+00 0. -1.
          3    1    5    5  503    0  0.30667687826E+03  0.70396312998E+02  0.55591269263E+03  0.63878421268E+03  0.00000000000E+00 0. -1.
         -4    1    5    5    0  503  0.77533062666E+02 -0.20888743612E+02  0.12718532019E+03  0.15041217068E+03  0.00000000000E+00 0.  1.
         -1    1    6    6    0  502 -0.62641649259E+02  0.39115915588E+03  0.27391450155E+03  0.48162082140E+03  0.00000000000E+00 0.  1.
<mgrwt>
<rscale>  0 0.21082363E+04</rscale>
<asrwt>0</asrwt>
<pdfrwt beam="1">  1        1 0.31741157E+00 0.21082363E+04</pdfrwt>
<pdfrwt beam="2">  1       -1 0.82856979E-01 0.21082363E+04</pdfrwt>
<totfact> 0.35892952E+00</totfact>
</mgrwt>
</event>
<event>
12    1  0.2214165E-007  0.3372748E+04  0.7818608E-02  0.8144628E-01
         -2   -1    0    0    0  501 -0.00000000000E+00  0.00000000000E+00  0.11942604376E+04  0.11942604376E+04  0.00000000000E+00 0.  1.
          2   -1    0    0  501    0  0.00000000000E+00 -0.00000000000E+00 -0.23812700654E+04  0.23812700654E+04  0.00000000000E+00 0. -1.
         23    2    1    2    0    0  0.11647144797E+04  0.10409338970E+04 -0.44290794472E+03  0.16260253583E+04  0.87680221513E+02 0.  0.
        254    2    1    2    0    0 -0.11647144797E+04 -0.10409338970E+04 -0.74410168311E+03  0.19495051447E+04  0.89820921688E+03 0.  0.
        -24    2    4    4    0    0 -0.10276832322E+04 -0.41398213498E+03 -0.67303081637E+03  0.12989165743E+04  0.81852021102E+02 0.  0.
         24    2    4    4    0    0 -0.13703124748E+03 -0.62695176203E+03 -0.71070866743E+02  0.65058857041E+03  0.79801911940E+02 0.  0.
         11    1    3    3    0    0  0.84417294060E+03  0.77105598510E+03 -0.36211044830E+03  0.11992828118E+04  0.00000000000E+00 0. -1.
        -11    1    3    3    0    0  0.32054153907E+03  0.26987791191E+03 -0.80797496423E+02  0.42674254655E+03  0.00000000000E+00 0.  1.
          2    1    6    6  502    0 -0.89558132758E+02 -0.40922375976E+03 -0.84478453686E+02  0.42734219758E+03  0.00000000000E+00 0. -1.
          1    1    5    5  503    0 -0.63773775574E+03 -0.23189793251E+03 -0.37362429046E+03  0.77464908611E+03  0.00000000000E+00 0. -1.
         -2    1    5    5    0  503 -0.38994547646E+03 -0.18208420247E+03 -0.29940652591E+03  0.52426748817E+03  0.00000000000E+00 0.  1.
         -1    1    6    6    0  502 -0.47473114718E+02 -0.21772800227E+03  0.13407586943E+02  0.22324637283E+03  0.00000000000E+00 0.  1.
<mgrwt>
<rscale>  0 0.33727476E+04</rscale>
<asrwt>0</asrwt>
<pdfrwt beam="1">  1        2 0.36634924E+00 0.33727476E+04</pdfrwt>
<pdfrwt beam="2">  1       -2 0.18373237E+00 0.33727476E+04</pdfrwt>
<totfact> 0.57825016E-01</totfact>
</mgrwt>
</event>
<event>
12    1  0.2214165E-007  0.2768228E+04  0.7818608E-02  0.8313201E-01
         -2   -1    0    0    0  501 -0.00000000000E+00  0.00000000000E+00  0.17762645584E+04  0.17762645584E+04  0.00000000000E+00 0.  1.
          2   -1    0    0  501    0  0.00000000000E+00 -0.00000000000E+00 -0.10785392012E+04  0.10785392012E+04  0.00000000000E+00 0. -1.
         23    2    1    2    0    0 -0.17335777876E+03 -0.53635915936E+03  0.14460817245E+04  0.15545528222E+04  0.88023040120E+02 0.  0.
        254    2    1    2    0    0  0.17335777876E+03  0.53635915936E+03 -0.74835636736E+03  0.13002509375E+04  0.90159923502E+03 0.  0.
        -24    2    4    4    0    0  0.10396117867E+03 -0.24271899781E+03 -0.22165508518E+03  0.35472986767E+03  0.83557547025E+02 0.  0.
         24    2    4    4    0    0  0.69396600083E+02  0.77907815717E+03 -0.52670128218E+03  0.94552106982E+03  0.69405977719E+02 0.  0.
         11    1    3    3    0    0 -0.94036334221E+02 -0.39763944100E+03  0.10972557072E+04  0.11708672188E+04  0.00000000000E+00 0.  1.
        -11    1    3    3    0    0 -0.79321444535E+02 -0.13871971837E+03  0.34882601736E+03  0.38368560335E+03  0.00000000000E+00 0. -1.
          2    1    6    6  502    0  0.82063741258E+02  0.67399669026E+03 -0.46602876049E+03  0.82352219261E+03  0.00000000000E+00 0. -1.
          1    1    5    5  503    0  0.29907169909E+02 -0.14240859593E+03 -0.80143823564E+02  0.16612549311E+03  0.00000000000E+00 0. -1.
         -2    1    5    5    0  503  0.74054008765E+02 -0.10031040188E+03 -0.14151126161E+03  0.18860437456E+03  0.00000000000E+00 0.  1.
         -1    1    6    6    0  502 -0.12667141176E+02  0.10508146691E+03 -0.60672521691E+02  0.12199887722E+03  0.00000000000E+00 0.  1.
<mgrwt>
<rscale>  0 0.27682276E+04</rscale>
<asrwt>0</asrwt>
<pdfrwt beam="1">  1        2 0.16592911E+00 0.27682276E+04</pdfrwt>
<pdfrwt beam="2">  1       -2 0.27327147E+00 0.27682276E+04</pdfrwt>
<totfact> 0.90714191E-01</totfact>
</mgrwt>
</event>
<event>
12    1  0.2214165E-007  0.4052931E+04  0.7818608E-02  0.7993953E-01
         -2   -1    0    0    0  501 -0.00000000000E+00  0.00000000000E+00  0.16969060564E+04  0.16969060564E+04  0.00000000000E+00 0.  1.
          2   -1    0    0  501    0  0.00000000000E+00 -0.00000000000E+00 -0.24200287470E+04  0.24200287470E+04  0.00000000000E+00 0. -1.
         23    2    1    2    0    0 -0.27927159331E+03 -0.13519627843E+04 -0.17075473852E+04  0.21976616843E+04  0.90569382330E+02 0.  0.
        254    2    1    2    0    0  0.27927159331E+03  0.13519627843E+04  0.98442469465E+03  0.19192731191E+04  0.89928934915E+03 0.  0.
        -24    2    4    4    0    0  0.56594451357E+03  0.10526493081E+04  0.56694944583E+03  0.13254774535E+04  0.84232104274E+02 0.  0.
         24    2    4    4    0    0 -0.28667292026E+03  0.29931347621E+03  0.41747524882E+03  0.59379566563E+03  0.80856594634E+02 0.  0.
         11    1    3    3    0    0 -0.66279570477E+02 -0.34379433913E+03 -0.37263302569E+03  0.51131487453E+03  0.00000000000E+00 0.  1.
        -11    1    3    3    0    0 -0.21299202283E+03 -0.10081684452E+04 -0.13349143595E+04  0.16863468098E+04  0.00000000000E+00 0. -1.
          2    1    6    6  502    0 -0.18365384393E+03  0.23510111397E+03  0.26614411790E+03  0.39979239571E+03  0.00000000000E+00 0. -1.
          1    1    5    5  503    0  0.28574798936E+03  0.44805397890E+03  0.23629607286E+03  0.58158414308E+03  0.00000000000E+00 0. -1.
         -2    1    5    5    0  503  0.28019652421E+03  0.60459532918E+03  0.33065337297E+03  0.74389331043E+03  0.00000000000E+00 0.  1.
         -1    1    6    6    0  502 -0.10301907633E+03  0.64212362238E+02  0.15133113092E+03  0.19400326992E+03  0.00000000000E+00 0.  1.
<mgrwt>
<rscale>  0 0.40529305E+04</rscale>
<asrwt>0</asrwt>
<pdfrwt beam="1">  1        2 0.37231211E+00 0.40529305E+04</pdfrwt>
<pdfrwt beam="2">  1       -2 0.26106247E+00 0.40529305E+04</pdfrwt>
<totfact> 0.16716518E-01</totfact>
</mgrwt>
</event>
<event>
12    1  0.2214165E-007  0.2008208E+04  0.7818608E-02  0.8602793E-01
          1   -1    0    0  501    0  0.00000000000E+00  0.00000000000E+00  0.66650328498E+03  0.66650328498E+03  0.00000000000E+00 0. -1.
         -1   -1    0    0    0  501 -0.00000000000E+00 -0.00000000000E+00 -0.15127085171E+04  0.15127085171E+04  0.00000000000E+00 0.  1.
         23    2    1    2    0    0 -0.48377927872E+03  0.62420098306E+03 -0.46792533024E+03  0.92250959147E+03  0.91654644764E+02 0.  0.
        254    2    1    2    0    0  0.48377927872E+03 -0.62420098306E+03 -0.37827990186E+03  0.12567022106E+04  0.90140751283E+03 0.  0.
        -24    2    4    4    0    0  0.25069517743E+03 -0.61716922697E+03  0.13695137006E+03  0.68460984700E+03  0.78670440042E+02 0.  0.
         24    2    4    4    0    0  0.23308410129E+03 -0.70317560826E+01 -0.51523127191E+03  0.57209236359E+03  0.86306228358E+02 0.  0.
         11    1    3    3    0    0 -0.11223206356E+03  0.15168210762E+03 -0.15859414827E+03  0.24648651430E+03  0.00000000000E+00 0.  1.
        -11    1    3    3    0    0 -0.37154721515E+03  0.47251887543E+03 -0.30933118197E+03  0.67602307717E+03  0.00000000000E+00 0. -1.
          4    1    6    6  502    0  0.21120079033E+03 -0.18090413870E-01 -0.50410687533E+03  0.54656153900E+03  0.00000000000E+00 0. -1.
          3    1    5    5  503    0  0.14317628399E+03 -0.44600635557E+03  0.87668050258E+02  0.47655724162E+03  0.00000000000E+00 0. -1.
         -4    1    5    5    0  503  0.10751889344E+03 -0.17116287140E+03  0.49283319798E+02  0.20805260538E+03  0.00000000000E+00 0.  1.
         -3    1    6    6    0  502  0.21883310960E+02 -0.70136656687E+01 -0.11124396582E+02  0.25530824585E+02  0.00000000000E+00 0.  1.
<mgrwt>
<rscale>  0 0.20082084E+04</rscale>
<asrwt>0</asrwt>
<pdfrwt beam="1">  1        1 0.10253897E+00 0.20082084E+04</pdfrwt>
<pdfrwt beam="2">  1       -1 0.23272439E+00 0.20082084E+04</pdfrwt>
<totfact> 0.24623366E+00</totfact>
</mgrwt>
</event>
<event>
12    1  0.2214165E-007  0.1238808E+04  0.7818608E-02  0.9079550E-01
         -1   -1    0    0    0  501 -0.00000000000E+00  0.00000000000E+00  0.54458131906E+03  0.54458131906E+03  0.00000000000E+00 0.  1.
          1   -1    0    0  501    0  0.00000000000E+00 -0.00000000000E+00 -0.70450679450E+03  0.70450679450E+03  0.00000000000E+00 0. -1.
         23    2    1    2    0    0 -0.59662639798E+02  0.22880183708E+03  0.11706086888E+03  0.27906555287E+03  0.90908880395E+02 0.  0.
        254    2    1    2    0    0  0.59662639798E+02 -0.22880183708E+03 -0.27698634432E+03  0.97002256070E+03  0.89906196788E+03 0.  0.
        -24    2    4    4    0    0  0.32979584726E+03  0.13752112241E+03 -0.34494797191E+03  0.50295077476E+03  0.79328548042E+02 0.  0.
         24    2    4    4    0    0 -0.27013320746E+03 -0.36632295949E+03  0.67961627590E+02  0.46707178593E+03  0.79829881414E+02 0.  0.
         11    1    3    3    0    0 -0.32482438342E+02  0.46212931948E+02  0.67323389733E+02  0.87881640204E+02  0.00000000000E+00 0.  1.
        -11    1    3    3    0    0 -0.27180201456E+02  0.18258890513E+03  0.49737479144E+02  0.19118391266E+03  0.00000000000E+00 0. -1.
          2    1    6    6  502    0 -0.19974609225E+03 -0.23304925887E+03  0.14947603626E+02  0.30730097508E+03  0.00000000000E+00 0. -1.
          1    1    5    5  503    0  0.23848316382E+03  0.70736868293E+02 -0.20063638946E+03  0.31958235986E+03  0.00000000000E+00 0. -1.
         -2    1    5    5    0  503  0.91312683446E+02  0.66784254117E+02 -0.14431158244E+03  0.18336841490E+03  0.00000000000E+00 0.  1.
         -1    1    6    6    0  502 -0.70387115212E+02 -0.13327370062E+03  0.53014023964E+02  0.15977081085E+03  0.00000000000E+00 0.  1.
<mgrwt>
<rscale>  0 0.12388079E+04</rscale>
<asrwt>0</asrwt>
<pdfrwt beam="1">  1        1 0.10838566E+00 0.12388079E+04</pdfrwt>
<pdfrwt beam="2">  1       -1 0.83781742E-01 0.12388079E+04</pdfrwt>
<totfact> 0.37632188E+01</totfact>
</mgrwt>
</event>
<event>
12    1  0.2214165E-007  0.1671867E+04  0.7818608E-02  0.8777574E-01
         -1   -1    0    0    0  501 -0.00000000000E+00  0.00000000000E+00  0.56967889061E+03  0.56967889061E+03  0.00000000000E+00 0.  1.
          1   -1    0    0  501    0  0.00000000000E+00 -0.00000000000E+00 -0.12266291019E+04  0.12266291019E+04  0.00000000000E+00 0. -1.
         23    2    1    2    0    0  0.51452032273E+03  0.22119446745E+03 -0.37534140062E+02  0.56866133439E+03  0.91152326529E+02 0.  0.
        254    2    1    2    0    0 -0.51452032273E+03 -0.22119446745E+03 -0.61941607126E+03  0.12276466581E+04  0.89987882128E+03 0.  0.
        -24    2    4    4    0    0 -0.35634932340E+03  0.20946911913E+03 -0.63492814865E+03  0.76167678539E+03  0.78457754866E+02 0.  0.
         24    2    4    4    0    0 -0.15817099933E+03 -0.43066358658E+03  0.15512077390E+02  0.46596987276E+03  0.79988173752E+02 0.  0.
         13    1    3    3    0    0  0.46618930475E+03  0.22380802882E+03 -0.47288023109E+02  0.51928668263E+03  0.00000000000E+00 0. -1.
        -13    1    3    3    0    0  0.48331017979E+02 -0.26135613761E+01  0.97538830463E+01  0.49374651760E+02  0.00000000000E+00 0.  1.
          4    1    6    6  502    0 -0.11720907124E+03 -0.39180160122E+03  0.18998008125E+02  0.40939880973E+03  0.00000000000E+00 0. -1.
          1    1    5    5  503    0 -0.28001102479E+03  0.19041252485E+03 -0.47381387669E+03  0.58237676239E+03  0.00000000000E+00 0. -1.
         -2    1    5    5    0  503 -0.76338298602E+02  0.19056594281E+02 -0.16111427196E+03  0.17930002300E+03  0.00000000000E+00 0.  1.
         -3    1    6    6    0  502 -0.40961928085E+02 -0.38861985359E+02 -0.34859307343E+01  0.56571063024E+02  0.00000000000E+00 0.  1.
<mgrwt>
<rscale>  0 0.16718669E+04</rscale>
<asrwt>0</asrwt>
<pdfrwt beam="1">  1        1 0.18871217E+00 0.16718669E+04</pdfrwt>
<pdfrwt beam="2">  1       -1 0.87642906E-01 0.16718669E+04</pdfrwt>
<totfact> 0.12482529E+01</totfact>
</mgrwt>
</event>
<event>
12    1  0.2214165E-007  0.1043283E+04  0.7818608E-02  0.9262307E-01
         -2   -1    0    0    0  501 -0.00000000000E+00  0.00000000000E+00  0.27150965048E+03  0.27150965048E+03  0.00000000000E+00 0. -1.
          2   -1    0    0  501    0  0.00000000000E+00 -0.00000000000E+00 -0.10022099476E+04  0.10022099476E+04  0.00000000000E+00 0.  1.
         23    2    1    2    0    0 -0.65209088737E+02 -0.75474800487E+02 -0.13064940544E+03  0.18769154063E+03  0.90610024392E+02 0.  0.
        254    2    1    2    0    0  0.65209088737E+02  0.75474800487E+02 -0.60005089168E+03  0.10860280574E+04  0.89969283547E+03 0.  0.
        -24    2    4    4    0    0  0.15150809936E+03  0.20604326450E+03 -0.78593415729E+03  0.83038571791E+03  0.80245933882E+02 0.  0.
         24    2    4    4    0    0 -0.86299010627E+02 -0.13056846401E+03  0.18588326561E+03  0.25564233953E+03  0.79402608887E+02 0.  0.
         13    1    3    3    0    0 -0.17899902574E+02  0.15417493876E+02 -0.27136616289E+01  0.23779604476E+02  0.00000000000E+00 0. -1.
        -13    1    3    3    0    0 -0.47309186163E+02 -0.90892294363E+02 -0.12793574381E+03  0.16391193615E+03  0.00000000000E+00 0.  1.
          2    1    6    6  502    0 -0.90175655703E+02 -0.11484873778E+03  0.18932110203E+03  0.23909069644E+03  0.00000000000E+00 0. -1.
          1    1    5    5  503    0  0.13323311283E+03  0.13401238644E+03 -0.62848777110E+03  0.65628291194E+03  0.00000000000E+00 0. -1.
         -2    1    5    5    0  503  0.18274986534E+02  0.72030878053E+02 -0.15744638618E+03  0.17410280598E+03  0.00000000000E+00 0.  1.
         -1    1    6    6    0  502  0.38766450765E+01 -0.15719726228E+02 -0.34378364184E+01  0.16551643090E+02  0.00000000000E+00 0.  1.
<mgrwt>
<rscale>  0 0.10432827E+04</rscale>
<asrwt>0</asrwt>
<pdfrwt beam="1">  1        2 0.15418615E+00 0.10432827E+04</pdfrwt>
<pdfrwt beam="2">  1       -2 0.41770715E-01 0.10432827E+04</pdfrwt>
<totfact> 0.13571994E+02</totfact>
</mgrwt>
</event>
<event>
12    1  0.2214165E-007  0.1662729E+04  0.7818608E-02  0.8782911E-01
         -2   -1    0    0    0  501 -0.00000000000E+00  0.00000000000E+00  0.11258415736E+04  0.11258415736E+04  0.00000000000E+00 0.  1.
          2   -1    0    0  501    0  0.00000000000E+00 -0.00000000000E+00 -0.61391148781E+03  0.61391148781E+03  0.00000000000E+00 0. -1.
         23    2    1    2    0    0  0.21388011354E+03 -0.43621246651E+03 -0.15941079061E+03  0.51605153662E+03  0.69795195941E+02 0.  0.
        254    2    1    2    0    0 -0.21388011354E+03  0.43621246651E+03  0.67134087637E+03  0.12237015248E+04  0.90040037237E+03 0.  0.
        -24    2    4    4    0    0  0.39100281600E+02  0.64950376173E+03  0.30553302346E+03  0.72307179596E+03  0.78092414274E+02 0.  0.
         24    2    4    4    0    0 -0.25298039514E+03 -0.21329129522E+03  0.36580785292E+03  0.50062972883E+03  0.85571509206E+02 0.  0.
         13    1    3    3    0    0  0.12092060926E+03 -0.17542908148E+03 -0.53960362858E+02  0.21979280501E+03  0.00000000000E+00 0. -1.
        -13    1    3    3    0    0  0.92959504280E+02 -0.26078338503E+03 -0.10545042775E+03  0.29625873161E+03  0.00000000000E+00 0.  1.
          2    1    6    6  502    0 -0.15784971036E+03 -0.16996805210E+03  0.20933473271E+03  0.31245271661E+03  0.00000000000E+00 0. -1.
          3    1    5    5  503    0  0.25662512036E+02  0.63436994175E+03  0.29925824273E+03  0.70188267066E+03  0.00000000000E+00 0. -1.
         -4    1    5    5    0  503  0.13437769564E+02  0.15133819973E+02  0.62747807218E+01  0.21189125299E+02  0.00000000000E+00 0.  1.
         -1    1    6    6    0  502 -0.95130684776E+02 -0.43323243117E+02  0.15647312021E+03  0.18817701222E+03  0.00000000000E+00 0.  1.
<mgrwt>
<rscale>  0 0.16627292E+04</rscale>
<asrwt>0</asrwt>
<pdfrwt beam="1">  1        2 0.94447921E-01 0.16627292E+04</pdfrwt>
<pdfrwt beam="2">  1       -2 0.17320640E+00 0.16627292E+04</pdfrwt>
<totfact> 0.93025689E+00</totfact>
</mgrwt>
</event>
<event>
12    1  0.2214165E-007  0.3254918E+04  0.7818608E-02  0.8174462E-01
         -1   -1    0    0    0  501 -0.00000000000E+00  0.00000000000E+00  0.10261102344E+04  0.10261102344E+04  0.00000000000E+00 0.  1.
          1   -1    0    0  501    0  0.00000000000E+00 -0.00000000000E+00 -0.25812263448E+04  0.25812263448E+04  0.00000000000E+00 0. -1.
         23    2    1    2    0    0 -0.33764407464E+03  0.13275808899E+04 -0.37306012139E+02  0.13731083296E+04  0.86949444110E+02 0.  0.
        254    2    1    2    0    0  0.33764407464E+03 -0.13275808899E+04 -0.15178100983E+04  0.22342282497E+04  0.90086282902E+03 0.  0.
        -24    2    4    4    0    0 -0.20431144057E+03 -0.20728299122E+02 -0.24131118705E+03  0.32710352740E+03  0.81196068298E+02 0.  0.
         24    2    4    4    0    0  0.54195551520E+03 -0.13068525908E+04 -0.12764989112E+04  0.19071247223E+04  0.78075356924E+02 0.  0.
         13    1    3    3    0    0 -0.12412839212E+03  0.41527537868E+03 -0.48079036571E+02  0.43608839887E+03  0.00000000000E+00 0. -1.
        -13    1    3    3    0    0 -0.21351568252E+03  0.91230551123E+03  0.10773024432E+02  0.93701993071E+03  0.00000000000E+00 0.  1.
          2    1    6    6  502    0  0.16289898028E+03 -0.43609697729E+03 -0.46447329875E+03  0.65761090063E+03  0.00000000000E+00 0. -1.
          1    1    5    5  503    0 -0.63014620818E+02  0.31156637634E+02 -0.78356767544E+02  0.10526804608E+03  0.00000000000E+00 0. -1.
         -2    1    5    5    0  503 -0.14129681975E+03 -0.51884936756E+02 -0.16295441951E+03  0.22183548132E+03  0.00000000000E+00 0.  1.
         -1    1    6    6    0  502  0.37905653492E+03 -0.87075561350E+03 -0.81202561249E+03  0.12495138216E+04  0.00000000000E+00 0.  1.
<mgrwt>
<rscale>  0 0.32549180E+04</rscale>
<asrwt>0</asrwt>
<pdfrwt beam="1">  1        1 0.39711174E+00 0.32549180E+04</pdfrwt>
<pdfrwt beam="2">  1       -1 0.15786311E+00 0.32549180E+04</pdfrwt>
<totfact> 0.30035582E-01</totfact>
</mgrwt>
</event>
<event>
12    1  0.2214165E-007  0.1183248E+04  0.7818608E-02  0.9127647E-01
         -1   -1    0    0    0  501 -0.00000000000E+00  0.00000000000E+00  0.67247755160E+03  0.67247755160E+03  0.00000000000E+00 0.  1.
          1   -1    0    0  501    0  0.00000000000E+00 -0.00000000000E+00 -0.52049160355E+03  0.52049160355E+03  0.00000000000E+00 0. -1.
         23    2    1    2    0    0 -0.93099156875E+02  0.19555092825E+03 -0.63290501536E+02  0.24319178859E+03  0.90713504539E+02 0.  0.
        254    2    1    2    0    0  0.93099156875E+02 -0.19555092825E+03  0.21527644958E+03  0.94977736656E+03  0.89934725092E+03 0.  0.
        -24    2    4    4    0    0  0.44765561402E+03 -0.30142052235E+00  0.27660058539E+03  0.53263722164E+03  0.82455360213E+02 0.  0.
         24    2    4    4    0    0 -0.35455645714E+03 -0.19524950772E+03 -0.61324135806E+02  0.41714014491E+03  0.80078706891E+02 0.  0.
         13    1    3    3    0    0 -0.73410632856E+02  0.20130491480E+03 -0.58795714716E+02  0.22219299225E+03  0.00000000000E+00 0. -1.
        -13    1    3    3    0    0 -0.19688524019E+02 -0.57539865485E+01 -0.44947868207E+01  0.20998796342E+02  0.00000000000E+00 0.  1.
          2    1    6    6  502    0 -0.34181765878E+03 -0.19024212475E+03 -0.41973137086E+02  0.39343757080E+03  0.00000000000E+00 0. -1.
          1    1    5    5  503    0  0.40374924595E+03  0.12931714491E+02  0.22063278248E+03  0.46028198699E+03  0.00000000000E+00 0. -1.
         -2    1    5    5    0  503  0.43906368068E+02 -0.13233135013E+02  0.55967802908E+02  0.72355234652E+02  0.00000000000E+00 0.  1.
         -1    1    6    6    0  502 -0.12738798366E+02 -0.50073829762E+01 -0.19350998721E+02  0.23702574112E+02  0.00000000000E+00 0.  1.
<mgrwt>
<rscale>  0 0.11832479E+04</rscale>
<asrwt>0</asrwt>
<pdfrwt beam="1">  1        1 0.80075631E-01 0.11832479E+04</pdfrwt>
<pdfrwt beam="2">  1       -1 0.10345809E+00 0.11832479E+04</pdfrwt>
<totfact> 0.36619291E+01</totfact>
</mgrwt>
</event>
<event>
12    1  0.2214165E-007  0.1980349E+04  0.7818608E-02  0.8615864E-01
          2   -1    0    0  501    0  0.00000000000E+00  0.00000000000E+00  0.22090899433E+04  0.22090899433E+04  0.00000000000E+00 0. -1.
         -2   -1    0    0    0  501 -0.00000000000E+00 -0.00000000000E+00 -0.44382328158E+03  0.44382328158E+03  0.00000000000E+00 0.  1.
         23    2    1    2    0    0 -0.42718972062E+03  0.65841274956E+03  0.64795386397E+03  0.10196638559E+04  0.62223491856E+02 0.  0.
        254    2    1    2    0    0  0.42718972062E+03 -0.65841274956E+03  0.11173127977E+04  0.16332493690E+04  0.89616806858E+03 0.  0.
        -24    2    4    4    0    0 -0.13360387971E+03 -0.55628287090E+03  0.35531670636E+03  0.67834642228E+03  0.81260554182E+02 0.  0.
         24    2    4    4    0    0  0.56079360033E+03 -0.10212987866E+03  0.76199609134E+03  0.95490294669E+03  0.79256672263E+02 0.  0.
         13    1    3    3    0    0 -0.29693905080E+03  0.41015855481E+03  0.43608679424E+03  0.66826232281E+03  0.00000000000E+00 0.  1.
        -13    1    3    3    0    0 -0.13025066982E+03  0.24825419475E+03  0.21186706973E+03  0.35140153306E+03  0.00000000000E+00 0. -1.
          2    1    6    6  502    0  0.37571450377E+03 -0.10579979029E+03  0.51045677286E+03  0.64258937194E+03  0.00000000000E+00 0. -1.
          1    1    5    5  503    0  0.78614089150E+01 -0.86142966700E+01  0.11655801640E+02  0.16488346464E+02  0.00000000000E+00 0. -1.
         -2    1    5    5    0  503 -0.14146528862E+03 -0.54766857423E+03  0.34366090472E+03  0.66185807581E+03  0.00000000000E+00 0.  1.
         -1    1    6    6    0  502  0.18507909656E+03  0.36699116288E+01  0.25153931848E+03  0.31231357475E+03  0.00000000000E+00 0.  1.
<mgrwt>
<rscale>  0 0.19803490E+04</rscale>
<asrwt>0</asrwt>
<pdfrwt beam="1">  1        2 0.33985998E+00 0.19803490E+04</pdfrwt>
<pdfrwt beam="2">  1       -2 0.68280506E-01 0.19803490E+04</pdfrwt>
<totfact> 0.93202132E+00</totfact>
</mgrwt>
</event>
<event>
12    1  0.2214165E-007  0.1723150E+04  0.7818608E-02  0.8748270E-01
         -2   -1    0    0    0  501 -0.00000000000E+00  0.00000000000E+00  0.47482174474E+03  0.47482174474E+03  0.00000000000E+00 0. -1.
          2   -1    0    0  501    0  0.00000000000E+00 -0.00000000000E+00 -0.15633481777E+04  0.15633481777E+04  0.00000000000E+00 0.  1.
         23    2    1    2    0    0 -0.31232301501E+03 -0.53523839900E+03 -0.34233204807E+03  0.71389890428E+03  0.91840105189E+02 0.  0.
        254    2    1    2    0    0  0.31232301501E+03  0.53523839900E+03 -0.74619438488E+03  0.13242710182E+04  0.90158852035E+03 0.  0.
        -24    2    4    4    0    0 -0.14825410826E+03 -0.83907937209E+02  0.66984967257E+02  0.19965520917E+03  0.79720726076E+02 0.  0.
         24    2    4    4    0    0  0.46057712327E+03  0.61914633621E+03 -0.81317935214E+03  0.11246158090E+04  0.89591221393E+02 0.  0.
         13    1    3    3    0    0 -0.30045892011E+03 -0.49201539175E+03 -0.29110174543E+03  0.64582887407E+03  0.00000000000E+00 0. -1.
        -13    1    3    3    0    0 -0.11864094903E+02 -0.43223007252E+02 -0.51230302639E+02  0.68070030206E+02  0.00000000000E+00 0.  1.
          4    1    6    6  502    0  0.26896305864E+03  0.28675167079E+03 -0.40641684451E+03  0.56545760152E+03  0.00000000000E+00 0. -1.
          3    1    5    5  503    0 -0.91583193472E+02 -0.19267581535E+02  0.50902888190E+01  0.93726368035E+02  0.00000000000E+00 0. -1.
         -4    1    5    5    0  503 -0.56670914790E+02 -0.64640355674E+02  0.61894678438E+02  0.10592884113E+03  0.00000000000E+00 0.  1.
         -3    1    6    6    0  502  0.19161406463E+03  0.33239466542E+03 -0.40676250762E+03  0.55915820747E+03  0.00000000000E+00 0.  1.
<mgrwt>
<rscale>  0 0.17231503E+04</rscale>
<asrwt>0</asrwt>
<pdfrwt beam="1">  1        2 0.24051510E+00 0.17231503E+04</pdfrwt>
<pdfrwt beam="2">  1       -2 0.73049500E-01 0.17231503E+04</pdfrwt>
<totfact> 0.18797383E+01</totfact>
</mgrwt>
</event>
<event>
12    1  0.2214165E-007  0.4200459E+04  0.7818608E-02  0.7965285E-01
          1   -1    0    0  501    0  0.00000000000E+00  0.00000000000E+00  0.18791428834E+04  0.18791428834E+04  0.00000000000E+00 0. -1.
         -1   -1    0    0    0  501 -0.00000000000E+00 -0.00000000000E+00 -0.23473280307E+04  0.23473280307E+04  0.00000000000E+00 0.  1.
         23    2    1    2    0    0  0.11785363356E+04 -0.92387193473E+03  0.11154598616E+04  0.18693964618E+04  0.88911094260E+02 0.  0.
        254    2    1    2    0    0 -0.11785363356E+04  0.92387193473E+03 -0.15836450088E+04  0.23570744522E+04  0.89743033898E+03 0.  0.
        -24    2    4    4    0    0 -0.17259599571E+02 -0.20863336540E+02 -0.50009374882E+03  0.50734005366E+03  0.81037027632E+02 0.  0.
         24    2    4    4    0    0 -0.11612767360E+04  0.94473527127E+03 -0.10835512600E+04  0.18497343986E+04  0.79659411411E+02 0.  0.
         13    1    3    3    0    0  0.34453986158E+03 -0.27522594738E+03  0.37953304771E+03  0.58180956733E+03  0.00000000000E+00 0. -1.
        -13    1    3    3    0    0  0.83399647400E+03 -0.64864598735E+03  0.73592681384E+03  0.12875868945E+04  0.00000000000E+00 0.  1.
          4    1    6    6  502    0 -0.98268197724E+03  0.77492447111E+03 -0.93257048614E+03  0.15607240358E+04  0.00000000000E+00 0. -1.
          1    1    5    5  503    0 -0.12719609325E+01 -0.19391726886E+02 -0.48472580037E+03  0.48511520127E+03  0.00000000000E+00 0. -1.
         -2    1    5    5    0  503 -0.15987638638E+02 -0.14716096547E+01 -0.15367948449E+02  0.22224852389E+02  0.00000000000E+00 0.  1.
         -3    1    6    6    0  502 -0.17859475877E+03  0.16981080015E+03 -0.15098077386E+03  0.28901036276E+03  0.00000000000E+00 0.  1.
<mgrwt>
<rscale>  0 0.42004594E+04</rscale>
<asrwt>0</asrwt>
<pdfrwt beam="1">  1        1 0.28909891E+00 0.42004594E+04</pdfrwt>
<pdfrwt beam="2">  1       -1 0.36112739E+00 0.42004594E+04</pdfrwt>
<totfact> 0.36299582E-02</totfact>
</mgrwt>
</event>
<event>
12    1  0.2214165E-007  0.1533352E+04  0.7818608E-02  0.8862572E-01
         -2   -1    0    0    0  501 -0.00000000000E+00  0.00000000000E+00  0.37536880995E+03  0.37536880995E+03  0.00000000000E+00 0.  1.
          2   -1    0    0  501    0  0.00000000000E+00 -0.00000000000E+00 -0.15659051561E+04  0.15659051561E+04  0.00000000000E+00 0. -1.
         23    2    1    2    0    0 -0.39867887679E+03 -0.12116676522E+03 -0.51337876808E+02  0.42960697767E+03  0.91106233968E+02 0.  0.
        254    2    1    2    0    0  0.39867887679E+03  0.12116676522E+03 -0.11391984694E+04  0.15116669884E+04  0.90207410972E+03 0.  0.
        -24    2    4    4    0    0  0.47452043613E+03 -0.57072161962E+02 -0.12000563689E+04  0.12940704505E+04  0.77821374913E+02 0.  0.
         24    2    4    4    0    0 -0.75841559331E+02  0.17823892718E+03  0.60857899504E+02  0.21759653792E+03  0.78252872767E+02 0.  0.
         13    1    3    3    0    0 -0.17685286011E+03 -0.68361025317E+02 -0.66875837831E+02  0.20105357892E+03  0.00000000000E+00 0. -1.
        -13    1    3    3    0    0 -0.22182601669E+03 -0.52805739906E+02  0.15537961023E+02  0.22855339875E+03  0.00000000000E+00 0.  1.
          2    1    6    6  502    0 -0.57843697376E+01 -0.73539308281E+01  0.79740990733E+01  0.12293310698E+02  0.00000000000E+00 0. -1.
          1    1    5    5  503    0  0.34884357343E+02  0.17649366771E+01 -0.46358142467E+02  0.58044041569E+02  0.00000000000E+00 0. -1.
         -2    1    5    5    0  503  0.43963607878E+03 -0.58837098639E+02 -0.11536982264E+04  0.12360264089E+04  0.00000000000E+00 0.  1.
         -1    1    6    6    0  502 -0.70057189593E+02  0.18559285801E+03  0.52883800430E+02  0.20530322722E+03  0.00000000000E+00 0.  1.
<mgrwt>
<rscale>  0 0.15333518E+04</rscale>
<asrwt>0</asrwt>
<pdfrwt beam="1">  1        2 0.24090848E+00 0.15333518E+04</pdfrwt>
<pdfrwt beam="2">  1       -2 0.57749048E-01 0.15333518E+04</pdfrwt>
<totfact> 0.31527675E+01</totfact>
</mgrwt>
</event>
<event>
12    1  0.2214165E-007  0.1470339E+04  0.7818608E-02  0.8904421E-01
         -2   -1    0    0    0  501 -0.00000000000E+00  0.00000000000E+00  0.36559323671E+03  0.36559323671E+03  0.00000000000E+00 0.  1.
          2   -1    0    0  501    0  0.00000000000E+00 -0.00000000000E+00 -0.14783476271E+04  0.14783476271E+04  0.00000000000E+00 0. -1.
         23    2    1    2    0    0  0.14274641478E+03  0.69788590376E+02 -0.88911311154E+03  0.90771699297E+03  0.90449035033E+02 0.  0.
        254    2    1    2    0    0 -0.14274641478E+03 -0.69788590376E+02 -0.22364127888E+03  0.93622387087E+03  0.89512721358E+03 0.  0.
        -24    2    4    4    0    0 -0.35092332555E+03  0.10141365998E+03 -0.44322764087E+03  0.57986175851E+03  0.79730837894E+02 0.  0.
         24    2    4    4    0    0  0.20817691077E+03 -0.17120225036E+03  0.21958636199E+03  0.35636211236E+03  0.78281211330E+02 0.  0.
         11    1    3    3    0    0  0.12632026986E+02  0.25966479529E+02 -0.35737972881E+03  0.35854441389E+03  0.00000000000E+00 0.  1.
        -11    1    3    3    0    0  0.13011438779E+03  0.43822110848E+02 -0.53173338273E+03  0.54917257908E+03  0.00000000000E+00 0. -1.
          2    1    6    6  502    0 -0.67550960063E+01 -0.25942171039E+01  0.83075412315E+01  0.11017101513E+02  0.00000000000E+00 0. -1.
          3    1    5    5  503    0 -0.11281708194E+03  0.33389401990E+02 -0.20430220604E+03  0.23575821839E+03  0.00000000000E+00 0. -1.
         -4    1    5    5    0  503 -0.23810624361E+03  0.68024257989E+02 -0.23892543482E+03  0.34410354012E+03  0.00000000000E+00 0.  1.
         -1    1    6    6    0  502  0.21493200678E+03 -0.16860803325E+03  0.21127882076E+03  0.34534501084E+03  0.00000000000E+00 0.  1.
<mgrwt>
<rscale>  0 0.14703386E+04</rscale>
<asrwt>0</asrwt>
<pdfrwt beam="1">  1        2 0.22743810E+00 0.14703386E+04</pdfrwt>
<pdfrwt beam="2">  1       -2 0.56245114E-01 0.14703386E+04</pdfrwt>
<totfact> 0.37508888E+01</totfact>
</mgrwt>
</event>
<event>
12    1  0.2214165E-007  0.2073989E+04  0.7818608E-02  0.8572789E-01
         -1   -1    0    0    0  501 -0.00000000000E+00  0.00000000000E+00  0.16957759695E+04  0.16957759695E+04  0.00000000000E+00 0.  1.
          1   -1    0    0  501    0  0.00000000000E+00 -0.00000000000E+00 -0.63413895338E+03  0.63413895338E+03  0.00000000000E+00 0. -1.
         23    2    1    2    0    0 -0.54020080756E+02 -0.39823229585E+03 -0.39456456639E+03  0.57098647161E+03  0.94006505771E+02 0.  0.
        254    2    1    2    0    0  0.54020080756E+02  0.39823229585E+03  0.14562015825E+04  0.17589284513E+04  0.90099895515E+03 0.  0.
        -24    2    4    4    0    0  0.18217956532E+03  0.13931515616E+03 -0.28458436056E+02  0.24420392772E+03  0.78914947738E+02 0.  0.
         24    2    4    4    0    0 -0.12815948456E+03  0.25891713969E+03  0.14846600186E+04  0.15147245236E+04  0.81927240706E+02 0.  0.
         13    1    3    3    0    0 -0.67486239633E+02 -0.25514726147E+03 -0.29678853132E+03  0.39716237221E+03  0.00000000000E+00 0. -1.
        -13    1    3    3    0    0  0.13466158877E+02 -0.14308503439E+03 -0.97776035077E+02  0.17382409941E+03  0.00000000000E+00 0.  1.
          2    1    6    6  502    0 -0.26501092140E+01 -0.60189620022E+01  0.21462228089E+02  0.22447231833E+02  0.00000000000E+00 0. -1.
          1    1    5    5  503    0  0.71078028772E+02  0.10277416589E+03 -0.59407124342E+01  0.12509958998E+03  0.00000000000E+00 0. -1.
         -2    1    5    5    0  503  0.11110153655E+03  0.36540990277E+02 -0.22517723622E+02  0.11910433775E+03  0.00000000000E+00 0.  1.
         -1    1    6    6    0  502 -0.12550937535E+03  0.26493610169E+03  0.14631977905E+04  0.14922772917E+04  0.00000000000E+00 0.  1.
<mgrwt>
<rscale>  0 0.20739890E+04</rscale>
<asrwt>0</asrwt>
<pdfrwt beam="1">  1        1 0.97559840E-01 0.20739890E+04</pdfrwt>
<pdfrwt beam="2">  1       -1 0.26088861E+00 0.20739890E+04</pdfrwt>
<totfact> 0.17241310E+00</totfact>
</mgrwt>
</event>
<event>
12    1  0.2214165E-007  0.1478451E+04  0.7818608E-02  0.8898911E-01
          2   -1    0    0  501    0  0.00000000000E+00  0.00000000000E+00  0.25011188711E+04  0.25011188711E+04  0.00000000000E+00 0. -1.
         -2   -1    0    0    0  501 -0.00000000000E+00 -0.00000000000E+00 -0.21848386542E+03  0.21848386542E+03  0.00000000000E+00 0.  1.
         23    2    1    2    0    0 -0.11366523776E+02  0.39493104130E+03  0.11552173229E+04  0.12239304373E+04  0.85900681236E+02 0.  0.
        254    2    1    2    0    0  0.11366523776E+02 -0.39493104130E+03  0.11274176828E+04  0.14956722992E+04  0.89992514683E+03 0.  0.
        -24    2    4    4    0    0 -0.97032817730E+02 -0.65985543391E+03  0.89188830019E+03  0.11166254660E+04  0.81013146450E+02 0.  0.
         24    2    4    4    0    0  0.10839934151E+03  0.26492439261E+03  0.23552938263E+03  0.37904683324E+03  0.79164769089E+02 0.  0.
         11    1    3    3    0    0  0.33380057550E+02  0.23431055804E+03  0.63684225292E+03  0.67939952970E+03  0.00000000000E+00 0. -1.
        -11    1    3    3    0    0 -0.44746581326E+02  0.16062048326E+03  0.51837506997E+03  0.54453090762E+03  0.00000000000E+00 0.  1.
          4    1    6    6  502    0  0.83255112833E+02  0.25491967201E+03  0.20078749900E+03  0.33500906368E+03  0.00000000000E+00 0. -1.
          3    1    5    5  503    0 -0.27644408818E+02 -0.44680924876E+03  0.60465207514E+03  0.75233426752E+03  0.00000000000E+00 0. -1.
         -4    1    5    5    0  503 -0.69388408912E+02 -0.21304618515E+03  0.28723622505E+03  0.36429119847E+03  0.00000000000E+00 0.  1.
         -3    1    6    6    0  502  0.25144228673E+02  0.10004720604E+02  0.34741883624E+02  0.44037769558E+02  0.00000000000E+00 0.  1.
<mgrwt>
<rscale>  0 0.14784507E+04</rscale>
<asrwt>0</asrwt>
<pdfrwt beam="1">  1        2 0.38478750E+00 0.14784507E+04</pdfrwt>
<pdfrwt beam="2">  1       -2 0.33612904E-01 0.14784507E+04</pdfrwt>
<totfact> 0.27920893E+01</totfact>
</mgrwt>
</event>
<event>
12    1  0.2214165E-007  0.1878376E+04  0.7818608E-02  0.8665696E-01
         -2   -1    0    0    0  501 -0.00000000000E+00  0.00000000000E+00  0.59321662213E+03  0.59321662213E+03  0.00000000000E+00 0.  1.
          2   -1    0    0  501    0  0.00000000000E+00 -0.00000000000E+00 -0.14869336514E+04  0.14869336514E+04  0.00000000000E+00 0. -1.
         23    2    1    2    0    0  0.59399105225E+03 -0.40185751352E+03 -0.28070625305E+03  0.77558020567E+03  0.91726896805E+02 0.  0.
        254    2    1    2    0    0 -0.59399105225E+03  0.40185751352E+03 -0.61301077621E+03  0.13045700679E+04  0.90100278515E+03 0.  0.
        -24    2    4    4    0    0 -0.42978088662E+03  0.68388524243E+03 -0.47895117940E+03  0.94242975407E+03  0.79805850622E+02 0.  0.
         24    2    4    4    0    0 -0.16421016563E+03 -0.28202772891E+03 -0.13405959681E+03  0.36214031378E+03  0.81664025130E+02 0.  0.
         11    1    3    3    0    0  0.34295393184E+03 -0.25189197387E+03 -0.12099242011E+03  0.44238685739E+03  0.00000000000E+00 0. -1.
        -11    1    3    3    0    0  0.25103712041E+03 -0.14996553965E+03 -0.15971383294E+03  0.33319334828E+03  0.00000000000E+00 0.  1.
          4    1    6    6  502    0  0.41331897888E+01  0.70656782806E+00 -0.93452025941E+01  0.10242817359E+02  0.00000000000E+00 0. -1.
          1    1    5    5  503    0 -0.22552236358E+03  0.33534704354E+03 -0.19552242607E+03  0.44893985698E+03  0.00000000000E+00 0. -1.
         -2    1    5    5    0  503 -0.20425852304E+03  0.34853819889E+03 -0.28342875334E+03  0.49348989710E+03  0.00000000000E+00 0.  1.
         -3    1    6    6    0  502 -0.16834335542E+03 -0.28273429673E+03 -0.12471439421E+03  0.35189749642E+03  0.00000000000E+00 0.  1.
<mgrwt>
<rscale>  0 0.18783756E+04</rscale>
<asrwt>0</asrwt>
<pdfrwt beam="1">  1        2 0.22875902E+00 0.18783756E+04</pdfrwt>
<pdfrwt beam="2">  1       -2 0.91264096E-01 0.18783756E+04</pdfrwt>
<totfact> 0.12396030E+01</totfact>
</mgrwt>
</event>
<event>
12    1  0.2214165E-007  0.1585033E+04  0.7818608E-02  0.8829796E-01
         -1   -1    0    0    0  501 -0.00000000000E+00  0.00000000000E+00  0.23128092164E+03  0.23128092164E+03  0.00000000000E+00 0.  1.
          1   -1    0    0  501    0  0.00000000000E+00 -0.00000000000E+00 -0.27156686317E+04  0.27156686317E+04  0.00000000000E+00 0. -1.
         23    2    1    2    0    0  0.82763033766E+02  0.10698006211E+03  0.11007272887E+03  0.19750803184E+03  0.92730596642E+02 0.  0.
        254    2    1    2    0    0 -0.82763033766E+02 -0.10698006211E+03 -0.25944604390E+04  0.27494415215E+04  0.89994958613E+03 0.  0.
        -24    2    4    4    0    0 -0.40642066196E+03  0.63742368907E+02 -0.20280677780E+04  0.20708895923E+04  0.79271350924E+02 0.  0.
         24    2    4    4    0    0  0.32365762819E+03 -0.17072243102E+03 -0.56639266093E+03  0.67855192925E+03  0.75707764471E+02 0.  0.
         11    1    3    3    0    0  0.12746409438E+02  0.50651041099E+02  0.92080026160E+02  0.10586184457E+03  0.00000000000E+00 0.  1.
        -11    1    3    3    0    0  0.70016624328E+02  0.56329021015E+02  0.17992702706E+02  0.91646187272E+02  0.00000000000E+00 0. -1.
          2    1    6    6  502    0  0.21888589629E+03 -0.15386473621E+03 -0.40543002057E+03  0.48575600277E+03  0.00000000000E+00 0. -1.
          1    1    5    5  503    0 -0.33347473730E+03  0.81865263290E+02 -0.16270846613E+04  0.16629226731E+04  0.00000000000E+00 0. -1.
         -2    1    5    5    0  503 -0.72945924661E+02 -0.18122894383E+02 -0.40098311672E+03  0.40796691915E+03  0.00000000000E+00 0.  1.
         -1    1    6    6    0  502  0.10477173190E+03 -0.16857694814E+02 -0.16096264036E+03  0.19279592649E+03  0.00000000000E+00 0.  1.
<mgrwt>
<rscale>  0 0.15850329E+04</rscale>
<asrwt>0</asrwt>
<pdfrwt beam="1">  1        1 0.41779517E+00 0.15850329E+04</pdfrwt>
<pdfrwt beam="2">  1       -1 0.35581680E-01 0.15850329E+04</pdfrwt>
<totfact> 0.69461117E+00</totfact>
</mgrwt>
</event>
<event>
12    1  0.2214165E-007  0.2453818E+04  0.7818608E-02  0.8419625E-01
         -2   -1    0    0    0  501 -0.00000000000E+00  0.00000000000E+00  0.93526379400E+03  0.93526379400E+03  0.00000000000E+00 0. -1.
          2   -1    0    0  501    0  0.00000000000E+00 -0.00000000000E+00 -0.16094981401E+04  0.16094981401E+04  0.00000000000E+00 0.  1.
         23    2    1    2    0    0 -0.82154398936E+03  0.55635870131E+03 -0.67917026944E+03  0.12057742126E+04  0.90275499972E+02 0.  0.
        254    2    1    2    0    0  0.82154398936E+03 -0.55635870131E+03  0.49359233268E+01  0.13389877215E+04  0.89910745968E+03 0.  0.
        -24    2    4    4    0    0  0.16920034108E+03 -0.12519739230E+03 -0.39694010242E+03  0.45604503284E+03  0.78182380434E+02 0.  0.
         24    2    4    4    0    0  0.65234364829E+03 -0.43116130901E+03  0.40187602575E+03  0.88294268867E+03  0.81431821559E+02 0.  0.
         11    1    3    3    0    0 -0.51031449074E+03  0.31452383210E+03 -0.45282553085E+03  0.75126365665E+03  0.00000000000E+00 0. -1.
        -11    1    3    3    0    0 -0.31122949863E+03  0.24183486921E+03 -0.22634473859E+03  0.45451055594E+03  0.00000000000E+00 0.  1.
          4    1    6    6  502    0  0.45554401586E+03 -0.32518356798E+03  0.25192925215E+03  0.61378583509E+03  0.00000000000E+00 0. -1.
          3    1    5    5  503    0  0.40608068050E+02  0.51580156158E+01 -0.84752555547E+02  0.94120220928E+02  0.00000000000E+00 0. -1.
         -4    1    5    5    0  503  0.12859227303E+03 -0.13035540792E+03 -0.31218754687E+03  0.36192481192E+03  0.00000000000E+00 0.  1.
         -3    1    6    6    0  502  0.19679963243E+03 -0.10597774103E+03  0.14994677360E+03  0.26915685358E+03  0.00000000000E+00 0.  1.
<mgrwt>
<rscale>  0 0.24538177E+04</rscale>
<asrwt>0</asrwt>
<pdfrwt beam="1">  1        2 0.24761510E+00 0.24538177E+04</pdfrwt>
<pdfrwt beam="2">  1       -2 0.14388674E+00 0.24538177E+04</pdfrwt>
<totfact> 0.32983041E+00</totfact>
</mgrwt>
</event>
<event>
12    1  0.2214165E-007  0.1576415E+04  0.7818608E-02  0.8835169E-01
          2   -1    0    0  501    0  0.00000000000E+00  0.00000000000E+00  0.55712971097E+03  0.55712971097E+03  0.00000000000E+00 0. -1.
         -2   -1    0    0    0  501 -0.00000000000E+00 -0.00000000000E+00 -0.11151285079E+04  0.11151285079E+04  0.00000000000E+00 0.  1.
         23    2    1    2    0    0 -0.21203837578E+03  0.24282809005E+03  0.25156699021E+03  0.41900871453E+03  0.91414430818E+02 0.  0.
        254    2    1    2    0    0  0.21203837578E+03 -0.24282809005E+03 -0.80956578714E+03  0.12532495043E+04  0.90072848422E+03 0.  0.
        -24    2    4    4    0    0 -0.25161820767E+03  0.14371998110E+03 -0.96410057173E+02  0.31552050532E+03  0.79316673876E+02 0.  0.
         24    2    4    4    0    0  0.46365658345E+03 -0.38654807115E+03 -0.71315572996E+03  0.93772899901E+03  0.79672716234E+02 0.  0.
         11    1    3    3    0    0 -0.76134300351E+02  0.12377738912E+03  0.16107899360E+03  0.21694173394E+03  0.00000000000E+00 0. -1.
        -11    1    3    3    0    0 -0.13590407543E+03  0.11905070094E+03  0.90487996616E+02  0.20206698059E+03  0.00000000000E+00 0.  1.
          2    1    6    6  502    0  0.91069582464E+02 -0.10244061544E+03 -0.20420798191E+03  0.24594440107E+03  0.00000000000E+00 0. -1.
          3    1    5    5  503    0 -0.53260484281E+02 -0.19012542432E+01 -0.27557082239E+02  0.59997389403E+02  0.00000000000E+00 0. -1.
         -4    1    5    5    0  503 -0.19835772339E+03  0.14562123534E+03 -0.68852974934E+02  0.25552311592E+03  0.00000000000E+00 0.  1.
         -1    1    6    6    0  502  0.37258700099E+03 -0.28410745572E+03 -0.50894774805E+03  0.69178459794E+03  0.00000000000E+00 0.  1.
<mgrwt>
<rscale>  0 0.15764152E+04</rscale>
<asrwt>0</asrwt>
<pdfrwt beam="1">  1        2 0.85712265E-01 0.15764152E+04</pdfrwt>
<pdfrwt beam="2">  1       -2 0.17155823E+00 0.15764152E+04</pdfrwt>
<totfact> 0.10810567E+01</totfact>
</mgrwt>
</event>
<event>
12    1  0.2214165E-007  0.1635753E+04  0.7818608E-02  0.8798880E-01
         -2   -1    0    0    0  501 -0.00000000000E+00  0.00000000000E+00  0.11305963840E+04  0.11305963840E+04  0.00000000000E+00 0.  1.
          2   -1    0    0  501    0  0.00000000000E+00 -0.00000000000E+00 -0.59165391662E+03  0.59165391662E+03  0.00000000000E+00 0. -1.
         23    2    1    2    0    0  0.40635042998E+03  0.34113809332E+03 -0.16574804370E+02  0.53819732346E+03  0.88801825364E+02 0.  0.
        254    2    1    2    0    0 -0.40635042998E+03 -0.34113809332E+03  0.55551727173E+03  0.11840529771E+04  0.90104724783E+03 0.  0.
        -24    2    4    4    0    0  0.30086495009E+02  0.61832369114E+02  0.57476596221E+03  0.58433313142E+03  0.79754987996E+02 0.  0.
         24    2    4    4    0    0 -0.43643692498E+03 -0.40297046243E+03 -0.19248690479E+02  0.59971984572E+03  0.80193504580E+02 0.  0.
         13    1    3    3    0    0  0.15288233335E+03  0.15006004008E+03  0.33577638458E+02  0.21683745360E+03  0.00000000000E+00 0.  1.
        -13    1    3    3    0    0  0.25346809662E+03  0.19107805324E+03 -0.50152442828E+02  0.32135986986E+03  0.00000000000E+00 0. -1.
          2    1    6    6  502    0 -0.43128473958E+02 -0.68445415534E+02 -0.20213189236E+02  0.83387128459E+02  0.00000000000E+00 0. -1.
          1    1    5    5  503    0 -0.18384538725E+00  0.27190201625E+02  0.45025226352E+02  0.52598591916E+02  0.00000000000E+00 0. -1.
         -2    1    5    5    0  503  0.30270340396E+02  0.34642167489E+02  0.52974073586E+03  0.53173453951E+03  0.00000000000E+00 0.  1.
         -1    1    6    6    0  502 -0.39330845103E+03 -0.33452504690E+03  0.96449875689E+00  0.51633271726E+03  0.00000000000E+00 0.  1.
<mgrwt>
<rscale>  0 0.16357528E+04</rscale>
<asrwt>0</asrwt>
<pdfrwt beam="1">  1        2 0.91023680E-01 0.16357528E+04</pdfrwt>
<pdfrwt beam="2">  1       -2 0.17393791E+00 0.16357528E+04</pdfrwt>
<totfact> 0.96337757E+00</totfact>
</mgrwt>
</event>
<event>
12    1  0.2214165E-007  0.3759466E+04  0.7818608E-02  0.8054910E-01
         -1   -1    0    0    0  501 -0.00000000000E+00  0.00000000000E+00  0.19011620620E+04  0.19011620620E+04  0.00000000000E+00 0.  1.
          1   -1    0    0  501    0  0.00000000000E+00 -0.00000000000E+00 -0.18585454798E+04  0.18585454798E+04  0.00000000000E+00 0. -1.
         23    2    1    2    0    0  0.88550607876E+03 -0.14456379207E+04  0.52133446634E+03  0.17760560772E+04  0.92712189741E+02 0.  0.
        254    2    1    2    0    0 -0.88550607876E+03  0.14456379207E+04 -0.47871788413E+03  0.19836514646E+04  0.91198262436E+03 0.  0.
        -24    2    4    4    0    0  0.11095731639E+03  0.59273500601E+03 -0.19920455059E+03  0.64017457097E+03  0.80589794133E+02 0.  0.
         24    2    4    4    0    0 -0.99646339515E+03  0.85290291473E+03 -0.27951333354E+03  0.13434768937E+04  0.80123531823E+02 0.  0.
         11    1    3    3    0    0  0.73355203727E+03 -0.11453788467E+04  0.39159779365E+03  0.14153939826E+04  0.00000000000E+00 0. -1.
        -11    1    3    3    0    0  0.15195404149E+03 -0.30025907405E+03  0.12973667268E+03  0.36066209464E+03  0.00000000000E+00 0.  1.
          4    1    6    6  502    0 -0.59335316347E+03  0.55252139195E+03 -0.15295255850E+03  0.82507111833E+03  0.00000000000E+00 0. -1.
          1    1    5    5  503    0  0.98782891444E+02  0.46988644531E+03 -0.18999533528E+03  0.51638121437E+03  0.00000000000E+00 0. -1.
         -2    1    5    5    0  503  0.12174424951E+02  0.12284856070E+03 -0.92092153099E+01  0.12379335659E+03  0.00000000000E+00 0.  1.
         -3    1    6    6    0  502 -0.40311023169E+03  0.30038152278E+03 -0.12656077504E+03  0.51840577533E+03  0.00000000000E+00 0.  1.
<mgrwt>
<rscale>  0 0.37594660E+04</rscale>
<asrwt>0</asrwt>
<pdfrwt beam="1">  1        1 0.28593007E+00 0.37594660E+04</pdfrwt>
<pdfrwt beam="2">  1       -1 0.29248647E+00 0.37594660E+04</pdfrwt>
<totfact> 0.10963953E-01</totfact>
</mgrwt>
</event>
<event>
12    1  0.2214165E-007  0.2419133E+04  0.7818608E-02  0.8432375E-01
          2   -1    0    0  501    0  0.00000000000E+00  0.00000000000E+00  0.26332653796E+04  0.26332653796E+04  0.00000000000E+00 0. -1.
         -2   -1    0    0    0  501 -0.00000000000E+00 -0.00000000000E+00 -0.55560350440E+03  0.55560350440E+03  0.00000000000E+00 0.  1.
         23    2    1    2    0    0 -0.69210489352E+03 -0.54215138605E+03  0.16281990776E+03  0.89885309685E+03  0.92137171196E+02 0.  0.
        254    2    1    2    0    0  0.69210489352E+03  0.54215138605E+03  0.19148419675E+04  0.22900157872E+04  0.89700347612E+03 0.  0.
        -24    2    4    4    0    0  0.49717442173E+03  0.77957578391E+03  0.15491654383E+04  0.18059425749E+04  0.81204803603E+02 0.  0.
         24    2    4    4    0    0  0.19493047179E+03 -0.23742439785E+03  0.36567652914E+03  0.48407321227E+03  0.78989349573E+02 0.  0.
         11    1    3    3    0    0 -0.38129456519E+03 -0.29826620376E+03  0.42959528506E+02  0.48599773131E+03  0.00000000000E+00 0. -1.
        -11    1    3    3    0    0 -0.31081032833E+03 -0.24388518229E+03  0.11986037925E+03  0.41285536554E+03  0.00000000000E+00 0.  1.
          4    1    6    6  502    0  0.19688841118E+03 -0.23841005175E+03  0.34500124553E+03  0.46328205086E+03  0.00000000000E+00 0. -1.
          3    1    5    5  503    0  0.46442002001E+03  0.69482019281E+03  0.13637797564E+04  0.15994862548E+04  0.00000000000E+00 0. -1.
         -4    1    5    5    0  503  0.32754401717E+02  0.84755591094E+02  0.18538568196E+03  0.20645632015E+03  0.00000000000E+00 0.  1.
         -3    1    6    6    0  502 -0.19579393934E+01  0.98565390017E+00  0.20675283612E+02  0.20791161408E+02  0.00000000000E+00 0.  1.
<mgrwt>
<rscale>  0 0.24191333E+04</rscale>
<asrwt>0</asrwt>
<pdfrwt beam="1">  1        2 0.40511774E+00 0.24191333E+04</pdfrwt>
<pdfrwt beam="2">  1       -2 0.85477464E-01 0.24191333E+04</pdfrwt>
<totfact> 0.31067872E+00</totfact>
</mgrwt>
</event>
<event>
12    1  0.2214165E-007  0.3293144E+04  0.7818608E-02  0.8164642E-01
          2   -1    0    0  501    0  0.00000000000E+00  0.00000000000E+00  0.96042826089E+03  0.96042826089E+03  0.00000000000E+00 0. -1.
         -2   -1    0    0    0  501 -0.00000000000E+00 -0.00000000000E+00 -0.28229073558E+04  0.28229073558E+04  0.00000000000E+00 0.  1.
         23    2    1    2    0    0 -0.18879642836E+02 -0.11270469610E+04  0.31322666045E+03  0.11731107906E+04  0.86525678474E+02 0.  0.
        254    2    1    2    0    0  0.18879642836E+02  0.11270469610E+04 -0.21757057553E+04  0.26102248261E+04  0.89943694368E+03 0.  0.
        -24    2    4    4    0    0 -0.17841159172E+03  0.31774802399E+02 -0.87233604866E+03  0.89448663853E+03  0.79346270224E+02 0.  0.
         24    2    4    4    0    0  0.19729123456E+03  0.10952721586E+04 -0.13033697067E+04  0.17157381875E+04  0.80249631125E+02 0.  0.
         13    1    3    3    0    0  0.18182455822E+02 -0.91832258772E+03  0.25777882678E+03  0.95398998965E+03  0.00000000000E+00 0. -1.
        -13    1    3    3    0    0 -0.37062098659E+02 -0.20872437325E+03  0.55447833671E+02  0.21912080094E+03  0.00000000000E+00 0.  1.
          4    1    6    6  502    0  0.20382314049E+03  0.10584373735E+04 -0.12683457789E+04  0.16644922832E+04  0.00000000000E+00 0. -1.
          3    1    5    5  503    0 -0.15995688686E+03  0.12786969625E+02 -0.60770086410E+03  0.62853007285E+03  0.00000000000E+00 0. -1.
         -2    1    5    5    0  503 -0.18454704859E+02  0.18987832773E+02 -0.26463518456E+03  0.26595656568E+03  0.00000000000E+00 0.  1.
         -3    1    6    6    0  502 -0.65319059278E+01  0.36834785112E+02 -0.35023927804E+02  0.51245904305E+02  0.00000000000E+00 0.  1.
<mgrwt>
<rscale>  0 0.32931444E+04</rscale>
<asrwt>0</asrwt>
<pdfrwt beam="1">  1        2 0.14775820E+00 0.32931444E+04</pdfrwt>
<pdfrwt beam="2">  1       -2 0.43429343E+00 0.32931444E+04</pdfrwt>
<totfact> 0.98366773E-02</totfact>
</mgrwt>
</event>
<event>
12    1  0.2214165E-007  0.1566330E+04  0.7818608E-02  0.8841504E-01
         -1   -1    0    0    0  501 -0.00000000000E+00  0.00000000000E+00  0.62358937446E+03  0.62358937446E+03  0.00000000000E+00 0.  1.
          1   -1    0    0  501    0  0.00000000000E+00 -0.00000000000E+00 -0.98357636977E+03  0.98357636977E+03  0.00000000000E+00 0. -1.
         23    2    1    2    0    0 -0.45746726207E+02 -0.28925093807E+03 -0.56224515949E+03  0.64077427972E+03  0.93344469829E+02 0.  0.
        254    2    1    2    0    0  0.45746726207E+02  0.28925093807E+03  0.20225816418E+03  0.96639146451E+03  0.89846826854E+03 0.  0.
        -24    2    4    4    0    0 -0.21796384300E+03 -0.19561401755E+03 -0.11354053269E+03  0.32445127370E+03  0.81265587601E+02 0.  0.
         24    2    4    4    0    0  0.26371056921E+03  0.48486495562E+03  0.31579869687E+03  0.64194019081E+03  0.87869802173E+02 0.  0.
         13    1    3    3    0    0 -0.39940332010E+02 -0.83212419875E+02 -0.10878691239E+03  0.14266789846E+03  0.00000000000E+00 0.  1.
        -13    1    3    3    0    0 -0.58063941972E+01 -0.20603851820E+03 -0.45345824710E+03  0.49810638126E+03  0.00000000000E+00 0. -1.
          2    1    6    6  502    0  0.30735358140E+02  0.15638285767E+02  0.13049922679E+02  0.36871651762E+02  0.00000000000E+00 0. -1.
          3    1    5    5  503    0 -0.34723132342E+02 -0.12569140022E+02  0.88694836355E+01  0.37978242989E+02  0.00000000000E+00 0. -1.
         -4    1    5    5    0  503 -0.18324071066E+03 -0.18304487752E+03 -0.12241001632E+03  0.28647303071E+03  0.00000000000E+00 0.  1.
         -1    1    6    6    0  502  0.23297521107E+03  0.46922666985E+03  0.30274877419E+03  0.60506853905E+03  0.00000000000E+00 0.  1.
<mgrwt>
<rscale>  0 0.15663305E+04</rscale>
<asrwt>0</asrwt>
<pdfrwt beam="1">  1        1 0.15131944E+00 0.15663305E+04</pdfrwt>
<pdfrwt beam="2">  1       -1 0.95936827E-01 0.15663305E+04</pdfrwt>
<totfact> 0.15711710E+01</totfact>
</mgrwt>
</event>
<event>
12    1  0.2214165E-007  0.2117344E+04  0.7818608E-02  0.8553641E-01
          2   -1    0    0  501    0  0.00000000000E+00  0.00000000000E+00  0.14340497006E+04  0.14340497006E+04  0.00000000000E+00 0. -1.
         -2   -1    0    0    0  501 -0.00000000000E+00 -0.00000000000E+00 -0.78155371080E+03  0.78155371080E+03  0.00000000000E+00 0.  1.
         23    2    1    2    0    0  0.68346891579E+03  0.52437631109E+03  0.16348413098E+03  0.88175442675E+03  0.93078104417E+02 0.  0.
        254    2    1    2    0    0 -0.68346891579E+03 -0.52437631109E+03  0.48901185878E+03  0.13338489846E+04  0.89326381391E+03 0.  0.
        -24    2    4    4    0    0 -0.67955982974E+03 -0.17768573110E+03  0.63258614537E+03  0.94870274076E+03  0.80609414960E+02 0.  0.
         24    2    4    4    0    0 -0.39090860523E+01 -0.34669057999E+03 -0.14357428659E+03  0.38514624386E+03  0.86685720738E+02 0.  0.
         11    1    3    3    0    0  0.18782382528E+03  0.17315976447E+03  0.85017674948E+02  0.26923985297E+03  0.00000000000E+00 0.  1.
        -11    1    3    3    0    0  0.49564509051E+03  0.35121654663E+03  0.78466456033E+02  0.61251457378E+03  0.00000000000E+00 0. -1.
          2    1    6    6  502    0  0.21047038801E+02 -0.28430163082E+03 -0.89206056465E+02  0.29871075582E+03  0.00000000000E+00 0. -1.
          3    1    5    5  503    0 -0.43172269399E+03 -0.72717602229E+02  0.38561863007E+03  0.58341585686E+03  0.00000000000E+00 0. -1.
         -4    1    5    5    0  503 -0.24783713575E+03 -0.10496812888E+03  0.24696751530E+03  0.36528688390E+03  0.00000000000E+00 0.  1.
         -1    1    6    6    0  502 -0.24956124853E+02 -0.62388949167E+02 -0.54368230124E+02  0.86435488040E+02  0.00000000000E+00 0.  1.
<mgrwt>
<rscale>  0 0.21173444E+04</rscale>
<asrwt>0</asrwt>
<pdfrwt beam="1">  1        2 0.22062303E+00 0.21173444E+04</pdfrwt>
<pdfrwt beam="2">  1       -2 0.12023903E+00 0.21173444E+04</pdfrwt>
<totfact> 0.67290237E+00</totfact>
</mgrwt>
</event>
<event>
12    1  0.2214165E-007  0.2747508E+04  0.7818608E-02  0.8319753E-01
          2   -1    0    0  501    0  0.00000000000E+00  0.00000000000E+00  0.33298735641E+04  0.33298735641E+04  0.00000000000E+00 0. -1.
         -2   -1    0    0    0  501 -0.00000000000E+00 -0.00000000000E+00 -0.56674834255E+03  0.56674834255E+03  0.00000000000E+00 0.  1.
         23    2    1    2    0    0  0.71447124270E+03 -0.63883959966E+03  0.23161258787E+04  0.25082312447E+04  0.90552195987E+02 0.  0.
        254    2    1    2    0    0 -0.71447124270E+03  0.63883959966E+03  0.44699934286E+03  0.13883906620E+04  0.89957491459E+03 0.  0.
        -24    2    4    4    0    0 -0.45897743852E+03  0.63544251533E+03  0.67413415951E+03  0.10369302570E+04  0.79498512705E+02 0.  0.
         24    2    4    4    0    0 -0.25549380418E+03  0.33970843239E+01 -0.22713481664E+03  0.35146040495E+03  0.81520348143E+02 0.  0.
         13    1    3    3    0    0  0.23113326274E+03 -0.18299754537E+03  0.81383367068E+03  0.86558415552E+03  0.00000000000E+00 0. -1.
        -13    1    3    3    0    0  0.48333797996E+03 -0.45584205429E+03  0.15022922080E+04  0.16426470892E+04  0.00000000000E+00 0.  1.
          2    1    6    6  502    0 -0.42181055659E+02  0.26359040057E+02 -0.21184398917E+02  0.54063103932E+02  0.00000000000E+00 0. -1.
          3    1    5    5  503    0 -0.20899461531E+03  0.34230043739E+03  0.31109526970E+03  0.50757128120E+03  0.00000000000E+00 0. -1.
         -4    1    5    5    0  503 -0.24998282321E+03  0.29314207795E+03  0.36303888981E+03  0.52935897581E+03  0.00000000000E+00 0.  1.
         -1    1    6    6    0  502 -0.21331274852E+03 -0.22961955733E+02 -0.20595041773E+03  0.29739730102E+03  0.00000000000E+00 0.  1.
<mgrwt>
<rscale>  0 0.27475082E+04</rscale>
<asrwt>0</asrwt>
<pdfrwt beam="1">  1        2 0.51228823E+00 0.27475082E+04</pdfrwt>
<pdfrwt beam="2">  1       -2 0.87192055E-01 0.27475082E+04</pdfrwt>
<totfact> 0.10565100E+00</totfact>
</mgrwt>
</event>
<event>
12    1  0.2214165E-007  0.1589666E+04  0.7818608E-02  0.8826922E-01
         -1   -1    0    0    0  501 -0.00000000000E+00  0.00000000000E+00  0.61664248917E+03  0.61664248917E+03  0.00000000000E+00 0.  1.
          1   -1    0    0  501    0  0.00000000000E+00 -0.00000000000E+00 -0.10245150643E+04  0.10245150643E+04  0.00000000000E+00 0. -1.
         23    2    1    2    0    0  0.50430685579E+03 -0.13397169801E+02  0.53200699897E+02  0.51534912639E+03  0.90826860836E+02 0.  0.
        254    2    1    2    0    0 -0.50430685579E+03  0.13397169801E+02 -0.46107327505E+03  0.11258084271E+04  0.89462347422E+03 0.  0.
        -24    2    4    4    0    0  0.56268251181E+02  0.77039953760E+02  0.21050311222E+03  0.24510962214E+03  0.81644938877E+02 0.  0.
         24    2    4    4    0    0 -0.56057510697E+03 -0.63642783959E+02 -0.67157638728E+03  0.88069880497E+03  0.79502746015E+02 0.  0.
         11    1    3    3    0    0  0.27695902262E+03  0.26673678284E+02 -0.90188202198E+00  0.27824197871E+03  0.00000000000E+00 0.  1.
        -11    1    3    3    0    0  0.22734783317E+03 -0.40070848085E+02  0.54102581919E+02  0.23710714768E+03  0.00000000000E+00 0. -1.
          2    1    6    6  502    0 -0.13690208198E+02  0.36131313216E+01 -0.32640571832E+01  0.14530333367E+02  0.00000000000E+00 0. -1.
          1    1    5    5  503    0 -0.17924745463E+02  0.26626992271E+02  0.31936836156E+02  0.45279738526E+02  0.00000000000E+00 0. -1.
         -2    1    5    5    0  503  0.74192996644E+02  0.50412961488E+02  0.17856627607E+03  0.19982988361E+03  0.00000000000E+00 0.  1.
         -1    1    6    6    0  502 -0.54688489877E+03 -0.67255915280E+02 -0.66831233009E+03  0.86616847160E+03  0.00000000000E+00 0.  1.
<mgrwt>
<rscale>  0 0.15896660E+04</rscale>
<asrwt>0</asrwt>
<pdfrwt beam="1">  1        1 0.15761770E+00 0.15896660E+04</pdfrwt>
<pdfrwt beam="2">  1       -1 0.94868076E-01 0.15896660E+04</pdfrwt>
<totfact> 0.14939716E+01</totfact>
</mgrwt>
</event>
<event>
12    1  0.3239879E-007  0.2692093E+04  0.7818608E-02  0.8337575E-01
         -2   -1    0    0    0  501 -0.00000000000E+00  0.00000000000E+00  0.10862069484E+04  0.10862069484E+04  0.00000000000E+00 0.  1.
          2   -1    0    0  501    0  0.00000000000E+00 -0.00000000000E+00 -0.16680447028E+04  0.16680447028E+04  0.00000000000E+00 0. -1.
         23    2    1    2    0    0  0.75337429015E+03 -0.91483222048E+03 -0.11380427921E+03  0.11940473674E+04  0.91142136013E+02 0.  0.
        254    2    1    2    0    0 -0.75337429015E+03  0.91483222048E+03 -0.46803347511E+03  0.15602042838E+04  0.90038395184E+03 0.  0.
        -24    2    4    4    0    0  0.13565973046E+03 -0.30202672167E+02  0.37798982483E+02  0.16521335492E+03  0.80937789036E+02 0.  0.
         24    2    4    4    0    0 -0.88903402061E+03  0.94503489264E+03 -0.50583245759E+03  0.13949909289E+04  0.81613592131E+02 0.  0.
         13    1    3    3    0    0  0.39521891349E+03 -0.55074498548E+03 -0.62014462977E+02  0.68070832390E+03  0.00000000000E+00 0. -1.
        -13    1    3    3    0    0  0.35815537666E+03 -0.36408723499E+03 -0.51789816238E+02  0.51333904350E+03  0.00000000000E+00 0.  1.
          4    1    6    6  502    0 -0.88079538171E+03  0.93941495524E+03 -0.49336395558E+03  0.13790246391E+04  0.00000000000E+00 0. -1.
          3    1    5    5  503    0  0.11106655106E+03 -0.56406003642E+02  0.33678504987E+02  0.12904130234E+03  0.00000000000E+00 0. -1.
         -4    1    5    5    0  503  0.24593179398E+02  0.26203331475E+02  0.41204774956E+01  0.36172052583E+02  0.00000000000E+00 0.  1.
         -3    1    6    6    0  502 -0.82386388950E+01  0.56199374073E+01 -0.12468502017E+02  0.15966289796E+02  0.00000000000E+00 0.  1.
<mgrwt>
<rscale>  0 0.26920934E+04</rscale>
<asrwt>0</asrwt>
<pdfrwt beam="1">  1        2 0.25662226E+00 0.26920934E+04</pdfrwt>
<pdfrwt beam="2">  1       -2 0.16710876E+00 0.26920934E+04</pdfrwt>
<totfact> 0.20053115E+00</totfact>
</mgrwt>
</event>
<event>
12    1  0.2214165E-007  0.1285237E+04  0.7818608E-02  0.9041355E-01
          1   -1    0    0  501    0  0.00000000000E+00  0.00000000000E+00  0.29859872601E+03  0.29859872601E+03  0.00000000000E+00 0. -1.
         -1   -1    0    0    0  501 -0.00000000000E+00 -0.00000000000E+00 -0.13829880892E+04  0.13829880892E+04  0.00000000000E+00 0.  1.
         23    2    1    2    0    0 -0.14718180956E+03 -0.28426152421E+02 -0.64529012669E+03  0.66835107955E+03  0.88449345585E+02 0.  0.
        254    2    1    2    0    0  0.14718180956E+03  0.28426152421E+02 -0.43909923649E+03  0.10132357357E+04  0.90075967123E+03 0.  0.
        -24    2    4    4    0    0  0.38548851379E+03 -0.23394649561E+03 -0.19270979175E+02  0.45802428235E+03  0.77990483514E+02 0.  0.
         24    2    4    4    0    0 -0.23830670423E+03  0.26237264803E+03 -0.41982825732E+03  0.55521145330E+03  0.79840469189E+02 0.  0.
         11    1    3    3    0    0 -0.53895057874E+02  0.11485980158E+02 -0.10464972379E+03  0.11827159293E+03  0.00000000000E+00 0. -1.
        -11    1    3    3    0    0 -0.93286751686E+02 -0.39912132579E+02 -0.54064040289E+03  0.55007948663E+03  0.00000000000E+00 0.  1.
          4    1    6    6  502    0 -0.15951047713E+03  0.22263686851E+03 -0.29748030649E+03  0.40435788639E+03  0.00000000000E+00 0. -1.
          3    1    5    5  503    0  0.33740226419E+03 -0.17489313725E+03 -0.29525736205E+02  0.38118193351E+03  0.00000000000E+00 0. -1.
         -4    1    5    5    0  503  0.48086249595E+02 -0.59053358358E+02  0.10254757031E+02  0.76842348840E+02  0.00000000000E+00 0.  1.
         -3    1    6    6    0  502 -0.78796227095E+02  0.39735779518E+02 -0.12234795083E+03  0.15085356691E+03  0.00000000000E+00 0.  1.
<mgrwt>
<rscale>  0 0.12852369E+04</rscale>
<asrwt>0</asrwt>
<pdfrwt beam="1">  1        1 0.45938266E-01 0.12852369E+04</pdfrwt>
<pdfrwt beam="2">  1       -1 0.21276740E+00 0.12852369E+04</pdfrwt>
<totfact> 0.10686044E+01</totfact>
</mgrwt>
</event>
<event>
12    1  0.2214165E-007  0.3663169E+04  0.7818608E-02  0.8076173E-01
         -2   -1    0    0    0  501 -0.00000000000E+00  0.00000000000E+00  0.12732583991E+04  0.12732583991E+04  0.00000000000E+00 0.  1.
          2   -1    0    0  501    0  0.00000000000E+00 -0.00000000000E+00 -0.26347371559E+04  0.26347371559E+04  0.00000000000E+00 0. -1.
         23    2    1    2    0    0 -0.59695873677E+03 -0.15721241665E+04 -0.25650104827E+03  0.17035897548E+04  0.92147362243E+02 0.  0.
        254    2    1    2    0    0  0.59695873677E+03  0.15721241665E+04 -0.11049777086E+04  0.22044058003E+04  0.90027499549E+03 0.  0.
        -24    2    4    4    0    0  0.53418761185E+02 -0.52111441866E+02  0.64369139923E+02  0.12866635749E+03  0.82719278008E+02 0.  0.
         24    2    4    4    0    0  0.54353997558E+03  0.16242356084E+04 -0.11693468485E+04  0.20757394428E+04  0.88006622953E+02 0.  0.
         11    1    3    3    0    0 -0.35748815769E+03 -0.82155860787E+03 -0.15406798229E+03  0.90911675390E+03  0.00000000000E+00 0. -1.
        -11    1    3    3    0    0 -0.23947057908E+03 -0.75056555867E+03 -0.10243306599E+03  0.79447300087E+03  0.00000000000E+00 0.  1.
          2    1    6    6  502    0  0.21826849757E+03  0.52745623908E+03 -0.40418752832E+03  0.69944176257E+03  0.00000000000E+00 0. -1.
          1    1    5    5  503    0 -0.16058306876E+02  0.91149706320E+01  0.70966187197E+01  0.19781655811E+02  0.00000000000E+00 0. -1.
         -2    1    5    5    0  503  0.69477068062E+02 -0.61226412498E+02  0.57272521203E+02  0.10888470167E+03  0.00000000000E+00 0.  1.
         -1    1    6    6    0  502  0.32527147801E+03  0.10967793693E+04 -0.76515932015E+03  0.13762976802E+04  0.00000000000E+00 0.  1.
<mgrwt>
<rscale>  0 0.36631687E+04</rscale>
<asrwt>0</asrwt>
<pdfrwt beam="1">  1        2 0.40534417E+00 0.36631687E+04</pdfrwt>
<pdfrwt beam="2">  1       -2 0.19588591E+00 0.36631687E+04</pdfrwt>
<totfact> 0.33323119E-01</totfact>
</mgrwt>
</event>
<event>
12    1  0.2214165E-007  0.1954685E+04  0.7818608E-02  0.8628105E-01
          2   -1    0    0  501    0  0.00000000000E+00  0.00000000000E+00  0.23615572044E+04  0.23615572044E+04  0.00000000000E+00 0. -1.
         -2   -1    0    0    0  501 -0.00000000000E+00 -0.00000000000E+00 -0.40447809063E+03  0.40447809063E+03  0.00000000000E+00 0.  1.
         23    2    1    2    0    0  0.42375991583E+03  0.42039799925E+02 -0.12933828722E+03  0.45442470944E+03  0.91834704576E+02 0.  0.
        254    2    1    2    0    0 -0.42375991583E+03 -0.42039799925E+02  0.20864174010E+04  0.23116105856E+04  0.89948102660E+03 0.  0.
        -24    2    4    4    0    0 -0.91513188894E+02 -0.44692342152E+03  0.10623974987E+04  0.11587157483E+04  0.76279299744E+02 0.  0.
         24    2    4    4    0    0 -0.33224672694E+03  0.40488362159E+03  0.10240199023E+04  0.11528948373E+04  0.78937387048E+02 0.  0.
         11    1    3    3    0    0  0.34126761285E+03 -0.20408685968E+01 -0.11287340529E+03  0.35945535793E+03  0.00000000000E+00 0.  1.
        -11    1    3    3    0    0  0.82492302982E+02  0.44080668522E+02 -0.16464881929E+02  0.94969351507E+02  0.00000000000E+00 0. -1.
          2    1    6    6  502    0 -0.27397870351E+03  0.37306404209E+03  0.87978750495E+03  0.99411627255E+03  0.00000000000E+00 0. -1.
          3    1    5    5  503    0 -0.10203095465E+03 -0.42596088277E+03  0.10236414461E+04  0.11134158251E+04  0.00000000000E+00 0. -1.
         -4    1    5    5    0  503  0.10517765751E+02 -0.20962538748E+02  0.38756052632E+02  0.45299923209E+02  0.00000000000E+00 0.  1.
         -1    1    6    6    0  502 -0.58268023427E+02  0.31819579506E+02  0.14423239734E+03  0.15877856479E+03  0.00000000000E+00 0.  1.
<mgrwt>
<rscale>  0 0.19546848E+04</rscale>
<asrwt>0</asrwt>
<pdfrwt beam="1">  1        2 0.36331648E+00 0.19546848E+04</pdfrwt>
<pdfrwt beam="2">  1       -2 0.62227400E-01 0.19546848E+04</pdfrwt>
<totfact> 0.93501908E+00</totfact>
</mgrwt>
</event>
<event>
12    1  0.2214165E-007  0.1731155E+04  0.7818608E-02  0.8743792E-01
         -3   -1    0    0    0  501 -0.00000000000E+00  0.00000000000E+00  0.11095953641E+04  0.11095953641E+04  0.00000000000E+00 0.  1.
          3   -1    0    0  501    0  0.00000000000E+00 -0.00000000000E+00 -0.67522326544E+03  0.67522326544E+03  0.00000000000E+00 0. -1.
         23    2    1    2    0    0  0.45641046150E+03  0.41576295481E+03  0.48693698566E+02  0.62646676590E+03  0.94446749714E+02 0.  0.
        254    2    1    2    0    0 -0.45641046150E+03 -0.41576295481E+03  0.38567840009E+03  0.11583518636E+04  0.90103377725E+03 0.  0.
        -24    2    4    4    0    0  0.23839242439E+02 -0.25386048107E+02 -0.25131038113E+03  0.26668196697E+03  0.82155967057E+02 0.  0.
         24    2    4    4    0    0 -0.48024970394E+03 -0.39037690670E+03  0.63698878122E+03  0.89166989667E+03  0.79288018078E+02 0.  0.
         13    1    3    3    0    0  0.33033536954E+03  0.30137450537E+03 -0.74374375238E+01  0.44721735692E+03  0.00000000000E+00 0. -1.
        -13    1    3    3    0    0  0.12607509196E+03  0.11438844944E+03  0.56131136090E+02  0.17924940897E+03  0.00000000000E+00 0.  1.
          2    1    6    6  502    0 -0.42530378265E+03 -0.36554552386E+03  0.59822650585E+03  0.81998889618E+03  0.00000000000E+00 0. -1.
          1    1    5    5  503    0  0.37277627492E+02  0.19624601232E+02 -0.12603691867E+03  0.13289112594E+03  0.00000000000E+00 0. -1.
         -2    1    5    5    0  503 -0.13438385054E+02 -0.45010649340E+02 -0.12527346246E+03  0.13379084103E+03  0.00000000000E+00 0.  1.
         -1    1    6    6    0  502 -0.54945921288E+02 -0.24831382843E+02  0.38762275366E+02  0.71681000493E+02  0.00000000000E+00 0.  1.
<mgrwt>
<rscale>  0 0.17311552E+04</rscale>
<asrwt>0</asrwt>
<pdfrwt beam="1">  1        3 0.10388050E+00 0.17311552E+04</pdfrwt>
<pdfrwt beam="2">  1       -3 0.17070698E+00 0.17311552E+04</pdfrwt>
<totfact> 0.45438785E-01</totfact>
</mgrwt>
</event>
<event>
12    1  0.2214165E-007  0.2724607E+04  0.7818608E-02  0.8327065E-01
          2   -1    0    0  501    0  0.00000000000E+00  0.00000000000E+00  0.78044610513E+03  0.78044610513E+03  0.00000000000E+00 0. -1.
         -2   -1    0    0    0  501 -0.00000000000E+00 -0.00000000000E+00 -0.23779610329E+04  0.23779610329E+04  0.00000000000E+00 0.  1.
         23    2    1    2    0    0  0.10673389843E+04 -0.52156931199E+03 -0.43384197230E+03  0.12679439581E+04  0.90641984697E+02 0.  0.
        254    2    1    2    0    0 -0.10673389843E+04  0.52156931199E+03 -0.11636729554E+04  0.18904631799E+04  0.89914917156E+03 0.  0.
        -24    2    4    4    0    0 -0.20734917071E+03  0.40475873930E+02  0.13227850407E+03  0.26036238175E+03  0.75226273530E+02 0.  0.
         24    2    4    4    0    0 -0.85998981357E+03  0.48109343806E+03 -0.12959514595E+04  0.16301007981E+04  0.81884376321E+02 0.  0.
         11    1    3    3    0    0  0.55243218620E+03 -0.26280049350E+03 -0.17563984077E+03  0.63647055972E+03  0.00000000000E+00 0. -1.
        -11    1    3    3    0    0  0.51490679808E+03 -0.25876881849E+03 -0.25820213153E+03  0.63147339838E+03  0.00000000000E+00 0.  1.
          2    1    6    6  502    0 -0.83313850410E+03  0.47885678723E+03 -0.12479790075E+04  0.15750794243E+04  0.00000000000E+00 0. -1.
          3    1    5    5  503    0 -0.18276842070E+03  0.45477901860E+02  0.84561767085E+02  0.20645393582E+03  0.00000000000E+00 0. -1.
         -4    1    5    5    0  503 -0.24580750008E+02 -0.50020279306E+01  0.47716736985E+02  0.53908445933E+02  0.00000000000E+00 0.  1.
         -1    1    6    6    0  502 -0.26851309473E+02  0.22366508308E+01 -0.47972451983E+02  0.55021373816E+02  0.00000000000E+00 0.  1.
<mgrwt>
<rscale>  0 0.27246067E+04</rscale>
<asrwt>0</asrwt>
<pdfrwt beam="1">  1        2 0.12006863E+00 0.27246067E+04</pdfrwt>
<pdfrwt beam="2">  1       -2 0.36584015E+00 0.27246067E+04</pdfrwt>
<totfact> 0.38468315E-01</totfact>
</mgrwt>
</event>
<event>
12    1  0.2214165E-007  0.1920369E+04  0.7818608E-02  0.8644784E-01
          2   -1    0    0  501    0  0.00000000000E+00  0.00000000000E+00  0.10339382654E+04  0.10339382654E+04  0.00000000000E+00 0. -1.
         -2   -1    0    0    0  501 -0.00000000000E+00 -0.00000000000E+00 -0.89169137101E+03  0.89169137101E+03  0.00000000000E+00 0.  1.
         23    2    1    2    0    0  0.60218518077E+03  0.38247508298E+03  0.24953570098E+03  0.76658808342E+03  0.12835514223E+03 0.  0.
        254    2    1    2    0    0 -0.60218518077E+03 -0.38247508298E+03 -0.10728880663E+03  0.11590415530E+04  0.90716715792E+03 0.  0.
        -24    2    4    4    0    0  0.24810774209E+02  0.14506106073E+03 -0.27216845531E+03  0.31942511499E+03  0.79362775673E+02 0.  0.
         24    2    4    4    0    0 -0.62699595498E+03 -0.52753614371E+03  0.16487964868E+03  0.83961643797E+03  0.79700400705E+02 0.  0.
         13    1    3    3    0    0  0.40740639085E+03  0.26819317281E+03  0.23187667774E+03  0.54006882795E+03  0.00000000000E+00 0. -1.
        -13    1    3    3    0    0  0.19477878993E+03  0.11428191016E+03  0.17659023240E+02  0.22651925547E+03  0.00000000000E+00 0.  1.
          2    1    6    6  502    0 -0.28469571240E+03 -0.22973635100E+03  0.11335848692E+03  0.38298901575E+03  0.00000000000E+00 0. -1.
          3    1    5    5  503    0  0.37050798810E+02  0.36643146242E+02 -0.13117119970E+03  0.14114306745E+03  0.00000000000E+00 0. -1.
         -4    1    5    5    0  503 -0.12240024600E+02  0.10841791449E+03 -0.14099725561E+03  0.17828204754E+03  0.00000000000E+00 0.  1.
         -1    1    6    6    0  502 -0.34230024258E+03 -0.29779979271E+03  0.51521161759E+02  0.45662742222E+03  0.00000000000E+00 0.  1.
<mgrwt>
<rscale>  0 0.19203685E+04</rscale>
<asrwt>0</asrwt>
<pdfrwt beam="1">  1        2 0.15906742E+00 0.19203685E+04</pdfrwt>
<pdfrwt beam="2">  1       -2 0.13718329E+00 0.19203685E+04</pdfrwt>
<totfact> 0.84825810E+00</totfact>
</mgrwt>
</event>
<event>
12    1  0.2214165E-007  0.1763104E+04  0.7818608E-02  0.8726170E-01
          1   -1    0    0  501    0  0.00000000000E+00  0.00000000000E+00  0.13341823204E+04  0.13341823204E+04  0.00000000000E+00 0. -1.
         -1   -1    0    0    0  501 -0.00000000000E+00 -0.00000000000E+00 -0.58247972934E+03  0.58247972934E+03  0.00000000000E+00 0.  1.
         23    2    1    2    0    0  0.32231696077E+02  0.55912622253E+03  0.63895617699E+03  0.85458907372E+03  0.91632275231E+02 0.  0.
        254    2    1    2    0    0 -0.32231696077E+02 -0.55912622253E+03  0.11274641408E+03  0.10620729760E+04  0.89533582390E+03 0.  0.
        -24    2    4    4    0    0  0.28846651586E+03 -0.34952184109E+03  0.37235689483E+03  0.59205781372E+03  0.80649547402E+02 0.  0.
         24    2    4    4    0    0 -0.32069821193E+03 -0.20960438144E+03 -0.25961048075E+03  0.47001516230E+03  0.82068941873E+02 0.  0.
         11    1    3    3    0    0  0.45344969938E+02  0.12488548638E+03  0.15936085531E+03  0.20748116351E+03  0.00000000000E+00 0. -1.
        -11    1    3    3    0    0 -0.13113273860E+02  0.43424073615E+03  0.47959532168E+03  0.64710791022E+03  0.00000000000E+00 0.  1.
          2    1    6    6  502    0 -0.44431610198E+02 -0.49242493358E+02 -0.15839595226E+02  0.68190057295E+02  0.00000000000E+00 0. -1.
          3    1    5    5  503    0  0.23136368142E+01 -0.11817575892E+02 -0.21652137460E+01  0.12235038449E+02  0.00000000000E+00 0. -1.
         -4    1    5    5    0  503  0.28615287904E+03 -0.33770426520E+03  0.37452210857E+03  0.57982277527E+03  0.00000000000E+00 0.  1.
         -1    1    6    6    0  502 -0.27626660174E+03 -0.16036188809E+03 -0.24377088552E+03  0.40182510500E+03  0.00000000000E+00 0.  1.
<mgrwt>
<rscale>  0 0.17631043E+04</rscale>
<asrwt>0</asrwt>
<pdfrwt beam="1">  1        1 0.20525882E+00 0.17631043E+04</pdfrwt>
<pdfrwt beam="2">  1       -1 0.89612266E-01 0.17631043E+04</pdfrwt>
<totfact> 0.98721042E+00</totfact>
</mgrwt>
</event>
<event>
12    1  0.2214165E-007  0.2204712E+04  0.7818608E-02  0.8516470E-01
         -1   -1    0    0    0  501 -0.00000000000E+00  0.00000000000E+00  0.97244606075E+03  0.97244606075E+03  0.00000000000E+00 0.  1.
          1   -1    0    0  501    0  0.00000000000E+00 -0.00000000000E+00 -0.12496202083E+04  0.12496202083E+04  0.00000000000E+00 0. -1.
         23    2    1    2    0    0  0.47848865950E+03  0.78120626740E+03 -0.12900807929E+03  0.92930279646E+03  0.87897516986E+02 0.  0.
        254    2    1    2    0    0 -0.47848865950E+03 -0.78120626740E+03 -0.14816606829E+03  0.12927634726E+04  0.90002754559E+03 0.  0.
        -24    2    4    4    0    0 -0.56805011007E+03 -0.87793405134E+03 -0.28454035196E+03  0.10866089384E+04  0.79414401123E+02 0.  0.
         24    2    4    4    0    0  0.89561450571E+02  0.96727783931E+02  0.13637428367E+03  0.20615453419E+03  0.80772700276E+02 0.  0.
         11    1    3    3    0    0  0.19516657254E+03  0.35252810870E+03 -0.16494970628E+02  0.40328419572E+03  0.00000000000E+00 0. -1.
        -11    1    3    3    0    0  0.28332208696E+03  0.42867815870E+03 -0.11251310866E+03  0.52601860074E+03  0.00000000000E+00 0.  1.
          2    1    6    6  502    0 -0.25456032265E+01  0.52011700906E+02  0.50167147245E+02  0.72307951082E+02  0.00000000000E+00 0. -1.
          3    1    5    5  503    0 -0.27925252506E+03 -0.48961202217E+03 -0.17789871702E+03  0.59105825307E+03  0.00000000000E+00 0. -1.
         -4    1    5    5    0  503 -0.28879758501E+03 -0.38832202916E+03 -0.10664163494E+03  0.49555068534E+03  0.00000000000E+00 0.  1.
         -1    1    6    6    0  502  0.92107053797E+02  0.44716083024E+02  0.86207136426E+02  0.13384658311E+03  0.00000000000E+00 0.  1.
<mgrwt>
<rscale>  0 0.22047115E+04</rscale>
<asrwt>0</asrwt>
<pdfrwt beam="1">  1        1 0.19224926E+00 0.22047115E+04</pdfrwt>
<pdfrwt beam="2">  1       -1 0.14960709E+00 0.22047115E+04</pdfrwt>
<totfact> 0.31490730E+00</totfact>
</mgrwt>
</event>
<event>
12    1  0.2214165E-007  0.1805582E+04  0.7818608E-02  0.8703336E-01
         -1   -1    0    0    0  501 -0.00000000000E+00  0.00000000000E+00  0.22422885986E+03  0.22422885986E+03  0.00000000000E+00 0.  1.
          1   -1    0    0  501    0  0.00000000000E+00 -0.00000000000E+00 -0.36348220752E+04  0.36348220752E+04  0.00000000000E+00 0. -1.
         23    2    1    2    0    0 -0.19395683496E+03 -0.15450520402E+03 -0.26267046879E+04  0.26400325258E+04  0.93290449963E+02 0.  0.
        254    2    1    2    0    0  0.19395683496E+03  0.15450520402E+03 -0.78388852743E+03  0.12190184092E+04  0.90001863687E+03 0.  0.
        -24    2    4    4    0    0  0.47094405931E+02 -0.33404684338E+03 -0.55469083352E+03  0.65418717939E+03  0.80459730602E+02 0.  0.
         24    2    4    4    0    0  0.14686242903E+03  0.48855204740E+03 -0.22919769391E+03  0.56483122984E+03  0.79063640397E+02 0.  0.
         11    1    3    3    0    0 -0.13532986691E+03 -0.15241819227E+03 -0.21761350772E+04  0.21856599352E+04  0.00000000000E+00 0. -1.
        -11    1    3    3    0    0 -0.58626968051E+02 -0.20870117517E+01 -0.45056961073E+03  0.45437259063E+03  0.00000000000E+00 0.  1.
          4    1    6    6  502    0  0.97454327022E+02  0.38524916509E+03 -0.14628106657E+03  0.42345296727E+03  0.00000000000E+00 0. -1.
          1    1    5    5  503    0  0.49118705463E+02 -0.31975612545E+03 -0.48483891571E+03  0.58285967537E+03  0.00000000000E+00 0. -1.
         -2    1    5    5    0  503 -0.20242995323E+01 -0.14290717923E+02 -0.69851917812E+02  0.71327504017E+02  0.00000000000E+00 0.  1.
         -3    1    6    6    0  502  0.49408102006E+02  0.10330288231E+03 -0.82916627332E+02  0.14137826256E+03  0.00000000000E+00 0.  1.
<mgrwt>
<rscale>  0 0.18055825E+04</rscale>
<asrwt>0</asrwt>
<pdfrwt beam="1">  1        1 0.55920335E+00 0.18055825E+04</pdfrwt>
<pdfrwt beam="2">  1       -1 0.34496750E-01 0.18055825E+04</pdfrwt>
<totfact> 0.14758972E+00</totfact>
</mgrwt>
</event>
<event>
12    1  0.2214165E-007  0.2600110E+04  0.7818608E-02  0.8368164E-01
          1   -1    0    0  501    0  0.00000000000E+00  0.00000000000E+00  0.25804765401E+04  0.25804765401E+04  0.00000000000E+00 0. -1.
         -1   -1    0    0    0  501 -0.00000000000E+00 -0.00000000000E+00 -0.65497304178E+03  0.65497304178E+03  0.00000000000E+00 0.  1.
         23    2    1    2    0    0 -0.11167205597E+04 -0.71815344540E+01  0.55235764562E+03  0.12490482641E+04  0.88916896585E+02 0.  0.
        254    2    1    2    0    0  0.11167205597E+04  0.71815344540E+01  0.13731458527E+04  0.19864013178E+04  0.90174513013E+03 0.  0.
        -24    2    4    4    0    0  0.98942836293E+03 -0.25251654645E+03  0.67544743566E+03  0.12268481649E+04  0.78702539831E+02 0.  0.
         24    2    4    4    0    0  0.12729219675E+03  0.25969808090E+03  0.69769841707E+03  0.75955315292E+03  0.80569934529E+02 0.  0.
         13    1    3    3    0    0 -0.58275065423E+03 -0.42771989226E+02  0.26464158974E+03  0.64145377003E+03  0.00000000000E+00 0. -1.
        -13    1    3    3    0    0 -0.53396990545E+03  0.35590454772E+02  0.28771605588E+03  0.60759449406E+03  0.00000000000E+00 0.  1.
          2    1    6    6  502    0  0.62869134274E+02  0.49308732037E+02  0.20116506106E+03  0.21645152088E+03  0.00000000000E+00 0. -1.
          3    1    5    5  503    0  0.71787824263E+03 -0.18518017617E+03  0.44747291416E+03  0.86595200664E+03  0.00000000000E+00 0. -1.
         -4    1    5    5    0  503  0.27155012030E+03 -0.67336370273E+02  0.22797452149E+03  0.36089615826E+03  0.00000000000E+00 0.  1.
         -1    1    6    6    0  502  0.64423062478E+02  0.21038934886E+03  0.49653335601E+03  0.54310163204E+03  0.00000000000E+00 0.  1.
<mgrwt>
<rscale>  0 0.26001097E+04</rscale>
<asrwt>0</asrwt>
<pdfrwt beam="1">  1        1 0.39699639E+00 0.26001097E+04</pdfrwt>
<pdfrwt beam="2">  1       -1 0.10076508E+00 0.26001097E+04</pdfrwt>
<totfact> 0.98178609E-01</totfact>
</mgrwt>
</event>
<event>
12    1  0.2214165E-007  0.1839280E+04  0.7818608E-02  0.8685685E-01
         -1   -1    0    0    0  501 -0.00000000000E+00  0.00000000000E+00  0.82974061068E+03  0.82974061068E+03  0.00000000000E+00 0.  1.
          1   -1    0    0  501    0  0.00000000000E+00 -0.00000000000E+00 -0.10192801452E+04  0.10192801452E+04  0.00000000000E+00 0. -1.
         23    2    1    2    0    0 -0.45254649295E+03  0.77119847233E+02 -0.60225534014E+03  0.76326288391E+03  0.95461699653E+02 0.  0.
        254    2    1    2    0    0  0.45254649295E+03 -0.77119847233E+02  0.41271580560E+03  0.10857578720E+04  0.89319092096E+03 0.  0.
        -24    2    4    4    0    0  0.45864450754E+02  0.14584754528E+03  0.56542001149E+03  0.59101795332E+03  0.78913734206E+02 0.  0.
         24    2    4    4    0    0  0.40668204220E+03 -0.22296739251E+03 -0.15270420589E+03  0.49473991867E+03  0.79650932562E+02 0.  0.
         13    1    3    3    0    0 -0.15145412933E+03  0.51632865115E+02 -0.27243611132E+03  0.31595211789E+03  0.00000000000E+00 0. -1.
        -13    1    3    3    0    0 -0.30109236363E+03  0.25486982118E+02 -0.32981922882E+03  0.44731076601E+03  0.00000000000E+00 0.  1.
          2    1    6    6  502    0  0.29120588112E+03 -0.18531230101E+03 -0.84189606433E+02  0.35528777622E+03  0.00000000000E+00 0. -1.
          1    1    5    5  503    0  0.52077324107E+02  0.79804824454E+02  0.22755234646E+03  0.24670007716E+03  0.00000000000E+00 0. -1.
         -2    1    5    5    0  503 -0.62128733525E+01  0.66042720826E+02  0.33786766503E+03  0.34431787616E+03  0.00000000000E+00 0.  1.
         -3    1    6    6    0  502  0.11547616108E+03 -0.37655091506E+02 -0.68514599457E+02  0.13945214245E+03  0.00000000000E+00 0.  1.
<mgrwt>
<rscale>  0 0.18392804E+04</rscale>
<asrwt>0</asrwt>
<pdfrwt beam="1">  1        1 0.15681233E+00 0.18392804E+04</pdfrwt>
<pdfrwt beam="2">  1       -1 0.12765240E+00 0.18392804E+04</pdfrwt>
<totfact> 0.72998661E+00</totfact>
</mgrwt>
</event>
<event>
12    1  0.2214165E-007  0.2512052E+04  0.7818608E-02  0.8398704E-01
         -1   -1    0    0    0  501 -0.00000000000E+00  0.00000000000E+00  0.15040887341E+04  0.15040887341E+04  0.00000000000E+00 0.  1.
          1   -1    0    0  501    0  0.00000000000E+00 -0.00000000000E+00 -0.10488754693E+04  0.10488754693E+04  0.00000000000E+00 0. -1.
         23    2    1    2    0    0 -0.10584115302E+04  0.26394466776E+03  0.15047191076E+03  0.11049098497E+04  0.91006731649E+02 0.  0.
        254    2    1    2    0    0  0.10584115302E+04 -0.26394466776E+03  0.30474135398E+03  0.14480543537E+04  0.90227067085E+03 0.  0.
        -24    2    4    4    0    0  0.75291931395E+03  0.11172767268E+03 -0.14941729956E+03  0.77961862171E+03  0.78160730230E+02 0.  0.
         24    2    4    4    0    0  0.30549221624E+03 -0.37567234044E+03  0.45415865354E+03  0.66843573196E+03  0.78045138401E+02 0.  0.
         13    1    3    3    0    0 -0.29494939486E+03  0.38667746474E+02  0.18589382410E+02  0.29805352755E+03  0.00000000000E+00 0. -1.
        -13    1    3    3    0    0 -0.76346213533E+03  0.22527692129E+03  0.13188252835E+03  0.80685632217E+03  0.00000000000E+00 0.  1.
          2    1    6    6  502    0  0.23419727260E+03 -0.23600184684E+03  0.28679944758E+03  0.43908900845E+03  0.00000000000E+00 0. -1.
          3    1    5    5  503    0  0.40462389052E+03  0.41409201293E+02 -0.11471733001E+03  0.42260534845E+03  0.00000000000E+00 0. -1.
         -4    1    5    5    0  503  0.34829542343E+03  0.70318471385E+02 -0.34699969549E+02  0.35701327326E+03  0.00000000000E+00 0.  1.
         -1    1    6    6    0  502  0.71294943649E+02 -0.13967049359E+03  0.16735920595E+03  0.22934672352E+03  0.00000000000E+00 0.  1.
<mgrwt>
<rscale>  0 0.25120524E+04</rscale>
<asrwt>0</asrwt>
<pdfrwt beam="1">  1        1 0.16136546E+00 0.25120524E+04</pdfrwt>
<pdfrwt beam="2">  1       -1 0.23139827E+00 0.25120524E+04</pdfrwt>
<totfact> 0.11370453E+00</totfact>
</mgrwt>
</event>
<event>
12    1  0.2214165E-007  0.1837274E+04  0.7818608E-02  0.8686725E-01
          1   -1    0    0  501    0  0.00000000000E+00  0.00000000000E+00  0.66372877078E+03  0.66372877078E+03  0.00000000000E+00 0. -1.
         -1   -1    0    0    0  501 -0.00000000000E+00 -0.00000000000E+00 -0.12714435221E+04  0.12714435221E+04  0.00000000000E+00 0.  1.
         23    2    1    2    0    0 -0.62016688197E+03 -0.23472910487E+03 -0.13795953567E+02  0.66953958268E+03  0.91587173108E+02 0.  0.
        254    2    1    2    0    0  0.62016688197E+03  0.23472910487E+03 -0.59391879776E+03  0.12656327102E+04  0.89965654816E+03 0.  0.
        -24    2    4    4    0    0 -0.12358905999E+03  0.33229107615E+03 -0.18545373946E+03  0.40790137071E+03  0.79365129091E+02 0.  0.
         24    2    4    4    0    0  0.74375594196E+03 -0.97561971282E+02 -0.40846505830E+03  0.85773133949E+03  0.78537299735E+02 0.  0.
         13    1    3    3    0    0 -0.38886283506E+03 -0.16813650626E+03  0.30682133368E+02  0.42476532643E+03  0.00000000000E+00 0. -1.
        -13    1    3    3    0    0 -0.23130404692E+03 -0.66592598604E+02 -0.44478086935E+02  0.24477425626E+03  0.00000000000E+00 0.  1.
          4    1    6    6  502    0  0.48513908617E+03 -0.56142619965E+02 -0.30698428839E+03  0.57684597599E+03  0.00000000000E+00 0. -1.
          1    1    5    5  503    0 -0.11088890896E+03  0.22843304699E+03 -0.10037113689E+03  0.27304280289E+03  0.00000000000E+00 0. -1.
         -2    1    5    5    0  503 -0.12700151029E+02  0.10385802916E+03 -0.85082602570E+02  0.13485856783E+03  0.00000000000E+00 0.  1.
         -3    1    6    6    0  502  0.25861685579E+03 -0.41419351317E+02 -0.10148076991E+03  0.28088536350E+03  0.00000000000E+00 0.  1.
<mgrwt>
<rscale>  0 0.18372737E+04</rscale>
<asrwt>0</asrwt>
<pdfrwt beam="1">  1        1 0.10211212E+00 0.18372737E+04</pdfrwt>
<pdfrwt beam="2">  1       -1 0.19560670E+00 0.18372737E+04</pdfrwt>
<totfact> 0.44822982E+00</totfact>
</mgrwt>
</event>
<event>
12    1  0.2214165E-007  0.2422507E+04  0.7818608E-02  0.8431125E-01
          1   -1    0    0  501    0  0.00000000000E+00  0.00000000000E+00  0.98338425204E+03  0.98338425204E+03  0.00000000000E+00 0. -1.
         -1   -1    0    0    0  501 -0.00000000000E+00 -0.00000000000E+00 -0.14919244925E+04  0.14919244925E+04  0.00000000000E+00 0.  1.
         23    2    1    2    0    0 -0.15563111629E+03  0.73581930858E+03 -0.95519962264E+03  0.12191741934E+04  0.91259495459E+02 0.  0.
        254    2    1    2    0    0  0.15563111629E+03 -0.73581930858E+03  0.44665938220E+03  0.12561345511E+04  0.90150890600E+03 0.  0.
        -24    2    4    4    0    0  0.20537391972E+03 -0.36202378557E+03 -0.22619051054E+03  0.48046894585E+03  0.80303129761E+02 0.  0.
         24    2    4    4    0    0 -0.49742803431E+02 -0.37379552300E+03  0.67284989274E+03  0.77566560527E+03  0.82053114131E+02 0.  0.
         11    1    3    3    0    0 -0.18702498472E+02  0.15383992146E+02 -0.27799152899E+02  0.36867920546E+02  0.00000000000E+00 0. -1.
        -11    1    3    3    0    0 -0.13692861781E+03  0.72043531643E+03 -0.92740046974E+03  0.11823062728E+04  0.00000000000E+00 0.  1.
          4    1    6    6  502    0 -0.62677563440E+02 -0.29262429418E+03  0.47486972891E+03  0.56130091211E+03  0.00000000000E+00 0. -1.
          1    1    5    5  503    0  0.17770139483E+03 -0.25502129145E+03 -0.14304387365E+03  0.34216252660E+03  0.00000000000E+00 0. -1.
         -2    1    5    5    0  503  0.27672524892E+02 -0.10700249412E+03 -0.83146636886E+02  0.13830641926E+03  0.00000000000E+00 0.  1.
         -3    1    6    6    0  502  0.12934760009E+02 -0.81171228820E+02  0.19798016383E+03  0.21436469316E+03  0.00000000000E+00 0.  1.
<mgrwt>
<rscale>  0 0.24225070E+04</rscale>
<asrwt>0</asrwt>
<pdfrwt beam="1">  1        1 0.15128989E+00 0.24225070E+04</pdfrwt>
<pdfrwt beam="2">  1       -1 0.22952684E+00 0.24225070E+04</pdfrwt>
<totfact> 0.13258668E+00</totfact>
</mgrwt>
</event>
<event>
12    1  0.2214165E-007  0.2241639E+04  0.7818608E-02  0.8501294E-01
         -2   -1    0    0    0  501 -0.00000000000E+00  0.00000000000E+00  0.19823687343E+04  0.19823687343E+04  0.00000000000E+00 0.  1.
          2   -1    0    0  501    0  0.00000000000E+00 -0.00000000000E+00 -0.63370465152E+03  0.63370465152E+03  0.00000000000E+00 0. -1.
         23    2    1    2    0    0 -0.10653476853E+03 -0.70958736390E+03 -0.13532210639E+03  0.73591729191E+03  0.91642261780E+02 0.  0.
        254    2    1    2    0    0  0.10653476853E+03  0.70958736390E+03  0.14839861891E+04  0.18801560939E+04  0.90438268663E+03 0.  0.
        -24    2    4    4    0    0  0.41000226579E+03  0.12544538260E+03  0.88675181711E+03  0.98804634400E+03  0.77899876539E+02 0.  0.
         24    2    4    4    0    0 -0.30346749727E+03  0.58414198131E+03  0.59723437204E+03  0.89210974989E+03  0.76527998042E+02 0.  0.
         13    1    3    3    0    0 -0.33866462727E+02 -0.20591925130E+03 -0.82114760122E+02  0.22425991435E+03  0.00000000000E+00 0. -1.
        -13    1    3    3    0    0 -0.72668305798E+02 -0.50366811260E+03 -0.53207346271E+02  0.51165737756E+03  0.00000000000E+00 0.  1.
          2    1    6    6  502    0 -0.23598188403E+03  0.50427796038E+03  0.48093469656E+03  0.73571862370E+03  0.00000000000E+00 0. -1.
          3    1    5    5  503    0  0.19431470321E+03  0.31306614620E+02  0.46786334191E+03  0.50757700373E+03  0.00000000000E+00 0. -1.
         -4    1    5    5    0  503  0.21568756258E+03  0.94138767976E+02  0.41888847520E+03  0.48046934027E+03  0.00000000000E+00 0.  1.
         -1    1    6    6    0  502 -0.67485613237E+02  0.79864020929E+02  0.11629967548E+03  0.15639112619E+03  0.00000000000E+00 0.  1.
<mgrwt>
<rscale>  0 0.22416389E+04</rscale>
<asrwt>0</asrwt>
<pdfrwt beam="1">  1        2 0.97493025E-01 0.22416389E+04</pdfrwt>
<pdfrwt beam="2">  1       -2 0.30497980E+00 0.22416389E+04</pdfrwt>
<totfact> 0.12527775E+00</totfact>
</mgrwt>
</event>
<event>
12    1  0.2214165E-007  0.4863035E+04  0.7818608E-02  0.7849990E-01
         -2   -1    0    0    0  501 -0.00000000000E+00  0.00000000000E+00  0.16094378225E+04  0.16094378225E+04  0.00000000000E+00 0. -1.
          2   -1    0    0  501    0  0.00000000000E+00 -0.00000000000E+00 -0.36735042311E+04  0.36735042311E+04  0.00000000000E+00 0.  1.
         23    2    1    2    0    0  0.21958887545E+04  0.73183974139E+03 -0.57512804246E+03  0.23866903600E+04  0.89452669089E+02 0.  0.
        254    2    1    2    0    0 -0.21958887545E+04 -0.73183974139E+03 -0.14889383662E+04  0.28962516936E+04  0.90211949598E+03 0.  0.
        -24    2    4    4    0    0 -0.16283223939E+04 -0.23957041203E+03 -0.66089594839E+03  0.17753804639E+04  0.79778042627E+02 0.  0.
         24    2    4    4    0    0 -0.56756636060E+03 -0.49226932936E+03 -0.82804241779E+03  0.11208712297E+04  0.78977222049E+02 0.  0.
         13    1    3    3    0    0  0.11444811150E+04  0.38629601770E+03 -0.34591005044E+03  0.12564694182E+04  0.00000000000E+00 0.  1.
        -13    1    3    3    0    0  0.10514076395E+04  0.34554372368E+03 -0.22921799201E+03  0.11302209418E+04  0.00000000000E+00 0. -1.
          2    1    6    6  502    0 -0.43162802683E+03 -0.40339033012E+03 -0.68365856167E+03  0.90355715974E+03  0.00000000000E+00 0. -1.
          3    1    5    5  503    0 -0.14045834132E+04 -0.22010398031E+03 -0.59611560396E+03  0.15416400813E+04  0.00000000000E+00 0. -1.
         -4    1    5    5    0  503 -0.22373898069E+03 -0.19466431716E+02 -0.64780344426E+02  0.23374038262E+03  0.00000000000E+00 0.  1.
         -1    1    6    6    0  502 -0.13593833377E+03 -0.88878999242E+02 -0.14438385612E+03  0.21731406996E+03  0.00000000000E+00 0.  1.
<mgrwt>
<rscale>  0 0.48630347E+04</rscale>
<asrwt>0</asrwt>
<pdfrwt beam="1">  1        2 0.56515448E+00 0.48630347E+04</pdfrwt>
<pdfrwt beam="2">  1       -2 0.24760582E+00 0.48630347E+04</pdfrwt>
<totfact> 0.29791314E-02</totfact>
</mgrwt>
</event>
<event>
12    1  0.2214165E-007  0.2596373E+04  0.7818608E-02  0.8369434E-01
          2   -1    0    0  501    0  0.00000000000E+00  0.00000000000E+00  0.16617771165E+04  0.16617771165E+04  0.00000000000E+00 0. -1.
         -2   -1    0    0    0  501 -0.00000000000E+00 -0.00000000000E+00 -0.10141478145E+04  0.10141478145E+04  0.00000000000E+00 0.  1.
         23    2    1    2    0    0  0.36799359095E+03  0.89420401925E+03 -0.33706372540E+03  0.10279797241E+04  0.90056910342E+02 0.  0.
        254    2    1    2    0    0 -0.36799359095E+03 -0.89420401925E+03  0.98469302747E+03  0.16479452069E+04  0.90060142996E+03 0.  0.
        -24    2    4    4    0    0 -0.18728856271E+02  0.14584872283E+03  0.32349420552E+03  0.36450876283E+03  0.81212789406E+02 0.  0.
         24    2    4    4    0    0 -0.34926473467E+03 -0.10400527421E+04  0.66119882195E+03  0.12834364441E+04  0.79559177304E+02 0.  0.
         13    1    3    3    0    0  0.24259713036E+03  0.67892869223E+03 -0.27116229719E+03  0.77027691658E+03  0.00000000000E+00 0.  1.
        -13    1    3    3    0    0  0.12539646058E+03  0.21527532703E+03 -0.65901428205E+02  0.25770280750E+03  0.00000000000E+00 0. -1.
          4    1    6    6  502    0 -0.87150096853E+02 -0.16917069493E+03  0.10436461844E+03  0.21703879143E+03  0.00000000000E+00 0. -1.
          1    1    5    5  503    0 -0.45416256039E+02  0.65022131660E+02  0.19353039085E+03  0.20915192111E+03  0.00000000000E+00 0. -1.
         -2    1    5    5    0  503  0.26687399768E+02  0.80826591168E+02  0.12996381467E+03  0.15535684172E+03  0.00000000000E+00 0.  1.
         -3    1    6    6    0  502 -0.26211463782E+03 -0.87088204716E+03  0.55683420351E+03  0.10663976527E+04  0.00000000000E+00 0.  1.
<mgrwt>
<rscale>  0 0.25963726E+04</rscale>
<asrwt>0</asrwt>
<pdfrwt beam="1">  1        2 0.25565802E+00 0.25963726E+04</pdfrwt>
<pdfrwt beam="2">  1       -2 0.15602274E+00 0.25963726E+04</pdfrwt>
<totfact> 0.24583203E+00</totfact>
</mgrwt>
</event>
<event>
12    1  0.2214165E-007  0.1155099E+04  0.7818608E-02  0.9153093E-01
          2   -1    0    0  501    0  0.00000000000E+00  0.00000000000E+00  0.21061977915E+04  0.21061977915E+04  0.00000000000E+00 0. -1.
         -2   -1    0    0    0  501 -0.00000000000E+00 -0.00000000000E+00 -0.15837222643E+03  0.15837222643E+03  0.00000000000E+00 0.  1.
         23    2    1    2    0    0 -0.19600554314E+03 -0.65166200284E+02  0.46515547569E+03  0.51829635609E+03  0.97962694760E+02 0.  0.
        254    2    1    2    0    0  0.19600554314E+03  0.65166200284E+02  0.14826700894E+04  0.17462736619E+04  0.89916422388E+03 0.  0.
        -24    2    4    4    0    0  0.51270753485E+03  0.88368238289E+02  0.56568329709E+03  0.77273182369E+03  0.80242862038E+02 0.  0.
         24    2    4    4    0    0 -0.31670199171E+03 -0.23202038005E+02  0.91698679232E+03  0.97354183817E+03  0.77977222798E+02 0.  0.
         11    1    3    3    0    0 -0.10545051976E+03 -0.80083980859E+02  0.32302155397E+03  0.34910769174E+03  0.00000000000E+00 0.  1.
        -11    1    3    3    0    0 -0.90555023383E+02  0.14917780575E+02  0.14213392173E+03  0.16918866434E+03  0.00000000000E+00 0. -1.
          4    1    6    6  502    0 -0.11722185632E+03 -0.40324940759E+02  0.41438467061E+03  0.43252944372E+03  0.00000000000E+00 0. -1.
          1    1    5    5  503    0  0.63009559388E+02 -0.62473098873E+01  0.41870387300E+02  0.75910228479E+02  0.00000000000E+00 0. -1.
         -2    1    5    5    0  503  0.44969797546E+03  0.94615548177E+02  0.52381290979E+03  0.69682159521E+03  0.00000000000E+00 0.  1.
         -3    1    6    6    0  502 -0.19948013538E+03  0.17122902753E+02  0.50260212171E+03  0.54101239446E+03  0.00000000000E+00 0.  1.
<mgrwt>
<rscale>  0 0.11550987E+04</rscale>
<asrwt>0</asrwt>
<pdfrwt beam="1">  1        2 0.32403041E+00 0.11550987E+04</pdfrwt>
<pdfrwt beam="2">  1       -2 0.24364959E-01 0.11550987E+04</pdfrwt>
<totfact> 0.86928254E+01</totfact>
</mgrwt>
</event>
<event>
12    1  0.2214165E-007  0.1651219E+04  0.7818608E-02  0.8789685E-01
          1   -1    0    0  501    0  0.00000000000E+00  0.00000000000E+00  0.37460357344E+03  0.37460357344E+03  0.00000000000E+00 0. -1.
         -1   -1    0    0    0  501 -0.00000000000E+00 -0.00000000000E+00 -0.18196069780E+04  0.18196069780E+04  0.00000000000E+00 0.  1.
         23    2    1    2    0    0  0.44240796496E+03  0.32271782727E+03 -0.75178806219E+03  0.93469842806E+03  0.92759136866E+02 0.  0.
        254    2    1    2    0    0 -0.44240796496E+03 -0.32271782727E+03 -0.69321534237E+03  0.12595121234E+04  0.89774811309E+03 0.  0.
        -24    2    4    4    0    0 -0.25801537307E+03  0.27133802737E+03 -0.98722174644E+02  0.39524672593E+03  0.79231614594E+02 0.  0.
         24    2    4    4    0    0 -0.18439259188E+03 -0.59405585465E+03 -0.59449316773E+03  0.86426539746E+03  0.81422136938E+02 0.  0.
         11    1    3    3    0    0  0.10785394904E+03  0.12757071884E+03 -0.20082341931E+03  0.26122176091E+03  0.00000000000E+00 0. -1.
        -11    1    3    3    0    0  0.33455401592E+03  0.19514710843E+03 -0.55096464287E+03  0.67347666715E+03  0.00000000000E+00 0.  1.
          2    1    6    6  502    0 -0.14075565686E+03 -0.53803114846E+03 -0.53342752833E+03  0.77060664391E+03  0.00000000000E+00 0. -1.
          1    1    5    5  503    0 -0.13295636329E+03  0.18088309971E+03 -0.30705138190E+02  0.22658088139E+03  0.00000000000E+00 0. -1.
         -2    1    5    5    0  503 -0.12505900978E+03  0.90454927659E+02 -0.68017036454E+02  0.16866584454E+03  0.00000000000E+00 0.  1.
         -1    1    6    6    0  502 -0.43636935024E+02 -0.56024706186E+02 -0.61065639398E+02  0.93658753550E+02  0.00000000000E+00 0.  1.
<mgrwt>
<rscale>  0 0.16512193E+04</rscale>
<asrwt>0</asrwt>
<pdfrwt beam="1">  1        1 0.57631318E-01 0.16512193E+04</pdfrwt>
<pdfrwt beam="2">  1       -1 0.27993954E+00 0.16512193E+04</pdfrwt>
<totfact> 0.27895250E+00</totfact>
</mgrwt>
</event>
<event>
12    1  0.2214165E-007  0.1565526E+04  0.7818608E-02  0.8842011E-01
          1   -1    0    0  501    0  0.00000000000E+00  0.00000000000E+00  0.10314770560E+04  0.10314770560E+04  0.00000000000E+00 0. -1.
         -1   -1    0    0    0  501 -0.00000000000E+00 -0.00000000000E+00 -0.59402006231E+03  0.59402006231E+03  0.00000000000E+00 0.  1.
         23    2    1    2    0    0  0.36492222736E+03  0.36813614593E+03  0.15831462436E+03  0.54973159063E+03  0.91917612537E+02 0.  0.
        254    2    1    2    0    0 -0.36492222736E+03 -0.36813614593E+03  0.27914236929E+03  0.10757655276E+04  0.90036578909E+03 0.  0.
        -24    2    4    4    0    0 -0.23895017133E+03  0.27353949641E+03  0.16724447067E+03  0.40741722766E+03  0.78083570290E+02 0.  0.
         24    2    4    4    0    0 -0.12597205603E+03 -0.64167564234E+03  0.11189789861E+03  0.66834829998E+03  0.80942705011E+02 0.  0.
         11    1    3    3    0    0  0.36734158896E+03  0.36401792918E+03  0.16378389177E+03  0.54247033001E+03  0.00000000000E+00 0.  1.
        -11    1    3    3    0    0 -0.24193615958E+01  0.41182167530E+01 -0.54692674162E+01  0.72612606223E+01  0.00000000000E+00 0. -1.
          4    1    6    6  502    0 -0.48952951575E+02 -0.34034201414E+03  0.21774371327E+02  0.34453330942E+03  0.00000000000E+00 0. -1.
          3    1    5    5  503    0 -0.23053243670E+03  0.22591090844E+03  0.13919533855E+03  0.35150573992E+03  0.00000000000E+00 0. -1.
         -2    1    5    5    0  503 -0.84177346293E+01  0.47628587974E+02  0.28049132127E+02  0.55911487744E+02  0.00000000000E+00 0.  1.
         -3    1    6    6    0  502 -0.77019104458E+02 -0.30133362820E+03  0.90123527286E+02  0.32381499055E+03  0.00000000000E+00 0.  1.
<mgrwt>
<rscale>  0 0.15655262E+04</rscale>
<asrwt>0</asrwt>
<pdfrwt beam="1">  1        1 0.15868878E+00 0.15655262E+04</pdfrwt>
<pdfrwt beam="2">  1       -1 0.91387702E-01 0.15655262E+04</pdfrwt>
<totfact> 0.16072342E+01</totfact>
</mgrwt>
</event>
<event>
12    1  0.2214165E-007  0.1465113E+04  0.7818608E-02  0.8907990E-01
         -2   -1    0    0    0  501 -0.00000000000E+00  0.00000000000E+00  0.40305080109E+03  0.40305080109E+03  0.00000000000E+00 0.  1.
          2   -1    0    0  501    0  0.00000000000E+00 -0.00000000000E+00 -0.13314419584E+04  0.13314419584E+04  0.00000000000E+00 0. -1.
         23    2    1    2    0    0 -0.25653403964E+03  0.19844865782E+03 -0.66041729652E+03  0.74135484030E+03  0.90908802744E+02 0.  0.
        254    2    1    2    0    0  0.25653403964E+03 -0.19844865782E+03 -0.26797386079E+03  0.99313791918E+03  0.89962289497E+03 0.  0.
        -24    2    4    4    0    0 -0.29326526495E+03 -0.15032075610E+03 -0.27292864324E+03  0.43541001106E+03  0.80566668621E+02 0.  0.
         24    2    4    4    0    0  0.54979930459E+03 -0.48127901724E+02  0.49547824445E+01  0.55772790812E+03  0.80251475823E+02 0.  0.
         11    1    3    3    0    0 -0.18563984750E+03  0.11619490893E+03 -0.35403429364E+03  0.41629759898E+03  0.00000000000E+00 0.  1.
        -11    1    3    3    0    0 -0.70894192136E+02  0.82253748890E+02 -0.30638300288E+03  0.32505724132E+03  0.00000000000E+00 0. -1.
          4    1    6    6  502    0  0.40739629297E+03 -0.59257871397E+01  0.23128391856E+02  0.40809530381E+03  0.00000000000E+00 0. -1.
          3    1    5    5  503    0 -0.18194693733E+03 -0.76037701811E+02 -0.20815439290E+03  0.28673100876E+03  0.00000000000E+00 0. -1.
         -4    1    5    5    0  503 -0.11131832762E+03 -0.74283054288E+02 -0.64774250335E+02  0.14867900230E+03  0.00000000000E+00 0.  1.
         -3    1    6    6    0  502  0.14240301162E+03 -0.42202114585E+02 -0.18173609411E+02  0.14963260431E+03  0.00000000000E+00 0.  1.
<mgrwt>
<rscale>  0 0.14651126E+04</rscale>
<asrwt>0</asrwt>
<pdfrwt beam="1">  1        2 0.20483722E+00 0.14651126E+04</pdfrwt>
<pdfrwt beam="2">  1       -2 0.62007815E-01 0.14651126E+04</pdfrwt>
<totfact> 0.37076368E+01</totfact>
</mgrwt>
</event>
<event>
12    1  0.2214165E-007  0.3160812E+04  0.7818608E-02  0.8199244E-01
          1   -1    0    0  501    0  0.00000000000E+00  0.00000000000E+00  0.23978443683E+04  0.23978443683E+04  0.00000000000E+00 0. -1.
         -1   -1    0    0    0  501 -0.00000000000E+00 -0.00000000000E+00 -0.10416371263E+04  0.10416371263E+04  0.00000000000E+00 0.  1.
         23    2    1    2    0    0  0.26028447148E+03  0.11159544937E+04 -0.34229495514E+03  0.11992106653E+04  0.88532171192E+02 0.  0.
        254    2    1    2    0    0 -0.26028447148E+03 -0.11159544937E+04  0.16985021972E+04  0.22402708293E+04  0.90598081459E+03 0.  0.
        -24    2    4    4    0    0  0.79854727268E+02 -0.71512438602E+03  0.37795135927E+03  0.81668178715E+03  0.79638222822E+02 0.  0.
         24    2    4    4    0    0 -0.34013919875E+03 -0.40083010770E+03  0.13205508379E+04  0.14235890421E+04  0.79948705445E+02 0.  0.
         13    1    3    3    0    0  0.17062576095E+02  0.19478553421E+03 -0.77794600856E+02  0.21043891219E+03  0.00000000000E+00 0.  1.
        -13    1    3    3    0    0  0.24322189539E+03  0.92116895951E+03 -0.26450035428E+03  0.98877175312E+03  0.00000000000E+00 0. -1.
          4    1    6    6  502    0 -0.28820582085E+03 -0.36658125341E+03  0.12098830274E+04  0.12966346249E+04  0.00000000000E+00 0. -1.
          3    1    5    5  503    0  0.59258932738E+02 -0.56170890663E+03  0.33217865425E+03  0.65526420262E+03  0.00000000000E+00 0. -1.
         -4    1    5    5    0  503  0.20595794531E+02 -0.15341547939E+03  0.45772705015E+02  0.16141758452E+03  0.00000000000E+00 0.  1.
         -3    1    6    6    0  502 -0.51933377903E+02 -0.34248854285E+02  0.11066781056E+03  0.12695441723E+03  0.00000000000E+00 0.  1.
<mgrwt>
<rscale>  0 0.31608124E+04</rscale>
<asrwt>0</asrwt>
<pdfrwt beam="1">  1        1 0.36889913E+00 0.31608124E+04</pdfrwt>
<pdfrwt beam="2">  1       -1 0.16025187E+00 0.31608124E+04</pdfrwt>
<totfact> 0.38926767E-01</totfact>
</mgrwt>
</event>
<event>
12    1  0.2214165E-007  0.1877509E+04  0.7818608E-02  0.8666133E-01
          2   -1    0    0  501    0  0.00000000000E+00  0.00000000000E+00  0.15055232695E+04  0.15055232695E+04  0.00000000000E+00 0. -1.
         -2   -1    0    0    0  501 -0.00000000000E+00 -0.00000000000E+00 -0.58535104158E+03  0.58535104158E+03  0.00000000000E+00 0.  1.
         23    2    1    2    0    0  0.58131106135E+03 -0.40185037329E+03  0.50774797374E+03  0.87492903848E+03  0.91030461798E+02 0.  0.
        254    2    1    2    0    0 -0.58131106135E+03  0.40185037329E+03  0.41242425417E+03  0.12159452726E+04  0.89945698506E+03 0.  0.
        -24    2    4    4    0    0  0.21198400907E+03  0.99682289815E+02 -0.39095814210E+02  0.25121514425E+03  0.81894975492E+02 0.  0.
         24    2    4    4    0    0 -0.79329507042E+03  0.30216808347E+03  0.45152006838E+03  0.96473012835E+03  0.78811350559E+02 0.  0.
         13    1    3    3    0    0  0.12738579279E+03 -0.61683086876E+02  0.13893982270E+03  0.19833360215E+03  0.00000000000E+00 0. -1.
        -13    1    3    3    0    0  0.45392526856E+03 -0.34016728641E+03  0.36880815105E+03  0.67659543633E+03  0.00000000000E+00 0.  1.
          4    1    6    6  502    0 -0.46301991188E+03  0.21629164213E+03  0.25947265566E+03  0.57314533261E+03  0.00000000000E+00 0. -1.
          3    1    5    5  503    0  0.21103075859E+03  0.78304032020E+02 -0.43782239498E+02  0.22930849743E+03  0.00000000000E+00 0. -1.
         -4    1    5    5    0  503  0.95325047909E+00  0.21378257796E+02  0.46864252877E+01  0.21906646819E+02  0.00000000000E+00 0.  1.
         -3    1    6    6    0  502 -0.33027515853E+03  0.85876441340E+02  0.19204741272E+03  0.39158479574E+03  0.00000000000E+00 0.  1.
<mgrwt>
<rscale>  0 0.18775086E+04</rscale>
<asrwt>0</asrwt>
<pdfrwt beam="1">  1        2 0.23161896E+00 0.18775086E+04</pdfrwt>
<pdfrwt beam="2">  1       -2 0.90054007E-01 0.18775086E+04</pdfrwt>
<totfact> 0.12479742E+01</totfact>
</mgrwt>
</event>
<event>
12    1  0.2214165E-007  0.1090028E+04  0.7818608E-02  0.9214966E-01
          4   -1    0    0  501    0  0.00000000000E+00  0.00000000000E+00  0.65435096639E+03  0.65435096639E+03  0.00000000000E+00 0. -1.
         -4   -1    0    0    0  501 -0.00000000000E+00 -0.00000000000E+00 -0.45394660023E+03  0.45394660023E+03  0.00000000000E+00 0.  1.
         23    2    1    2    0    0  0.10395486588E+03  0.60448656632E+02 -0.69589482977E+02  0.16350496264E+03  0.86200478174E+02 0.  0.
        254    2    1    2    0    0 -0.10395486588E+03 -0.60448656632E+02  0.26999384914E+03  0.94479260398E+03  0.89737156838E+03 0.  0.
        -24    2    4    4    0    0 -0.37781321216E+03 -0.24160815125E+03 -0.75332913296E+02  0.46162716400E+03  0.79418314555E+02 0.  0.
         24    2    4    4    0    0  0.27385834628E+03  0.18115949462E+03  0.34532676244E+03  0.48316543997E+03  0.79881870361E+02 0.  0.
         13    1    3    3    0    0  0.10575508163E+03  0.20807606432E+02 -0.44841858475E+02  0.11673853712E+03  0.00000000000E+00 0.  1.
        -13    1    3    3    0    0 -0.18002157498E+01  0.39641050201E+02 -0.24747624502E+02  0.46766425524E+02  0.00000000000E+00 0. -1.
          2    1    6    6  502    0  0.19958288759E+03  0.90531317421E+02  0.24690930279E+03  0.33014156396E+03  0.00000000000E+00 0. -1.
          1    1    5    5  503    0  0.32628701661E+01 -0.72889359495E+01 -0.26122585315E+01  0.84023094226E+01  0.00000000000E+00 0. -1.
         -2    1    5    5    0  503 -0.38107608233E+03 -0.23431921530E+03 -0.72720654764E+02  0.45322485458E+03  0.00000000000E+00 0.  1.
         -1    1    6    6    0  502  0.74275458690E+02  0.90628177196E+02  0.98417459650E+02  0.15302387601E+03  0.00000000000E+00 0.  1.
<mgrwt>
<rscale>  0 0.10900283E+04</rscale>
<asrwt>0</asrwt>
<pdfrwt beam="1">  1        4 0.10066938E+00 0.10900283E+04</pdfrwt>
<pdfrwt beam="2">  1       -4 0.69837939E-01 0.10900283E+04</pdfrwt>
<totfact> 0.30245076E+00</totfact>
</mgrwt>
</event>
<event>
12    1  0.2214165E-007  0.1579080E+04  0.7818608E-02  0.8833504E-01
         -1   -1    0    0    0  501 -0.00000000000E+00  0.00000000000E+00  0.38843235858E+03  0.38843235858E+03  0.00000000000E+00 0.  1.
          1   -1    0    0  501    0  0.00000000000E+00 -0.00000000000E+00 -0.16048449507E+04  0.16048449507E+04  0.00000000000E+00 0. -1.
         23    2    1    2    0    0 -0.28082837218E+03 -0.29030172953E+03 -0.84281174315E+03  0.93918335740E+03  0.92704237482E+02 0.  0.
        254    2    1    2    0    0  0.28082837218E+03  0.29030172953E+03 -0.37360084894E+03  0.10540939519E+04  0.89910889007E+03 0.  0.
        -24    2    4    4    0    0  0.52691505832E+03  0.32839566528E+03 -0.46262306107E+03  0.77838159169E+03  0.79841179752E+02 0.  0.
         24    2    4    4    0    0 -0.24608668614E+03 -0.38093935757E+02  0.89022212123E+02  0.27571236016E+03  0.77990680582E+02 0.  0.
         13    1    3    3    0    0 -0.16551445311E+03 -0.13661092274E+03 -0.53355043387E+03  0.57509446518E+03  0.00000000000E+00 0. -1.
        -13    1    3    3    0    0 -0.11531391907E+03 -0.15369080679E+03 -0.30926130928E+03  0.36408889222E+03  0.00000000000E+00 0.  1.
          4    1    6    6  502    0 -0.17154987587E+02  0.10535158252E+02 -0.89025059440E+01  0.22012218666E+02  0.00000000000E+00 0. -1.
          1    1    5    5  503    0  0.17089469100E+03  0.73113093591E+02 -0.10981484379E+03  0.21589307489E+03  0.00000000000E+00 0. -1.
         -4    1    5    5    0  503  0.35602036732E+03  0.25528257169E+03 -0.35280821727E+03  0.56248851680E+03  0.00000000000E+00 0.  1.
         -3    1    6    6    0  502 -0.22893169855E+03 -0.48629094008E+02  0.97924718067E+02  0.25370014150E+03  0.00000000000E+00 0.  1.
<mgrwt>
<rscale>  0 0.15790804E+04</rscale>
<asrwt>0</asrwt>
<pdfrwt beam="1">  1        1 0.24689922E+00 0.15790804E+04</pdfrwt>
<pdfrwt beam="2">  1       -1 0.59758824E-01 0.15790804E+04</pdfrwt>
<totfact> 0.15110663E+01</totfact>
</mgrwt>
</event>
<event>
12    1  0.2214165E-007  0.2261281E+04  0.7818608E-02  0.8493346E-01
          2   -1    0    0  501    0  0.00000000000E+00  0.00000000000E+00  0.22256177856E+04  0.22256177856E+04  0.00000000000E+00 0. -1.
         -2   -1    0    0    0  501 -0.00000000000E+00 -0.00000000000E+00 -0.57437889729E+03  0.57437889729E+03  0.00000000000E+00 0.  1.
         23    2    1    2    0    0  0.66693434505E+03 -0.61608732467E+03  0.10418535046E+04  0.13849566109E+04  0.91000422263E+02 0.  0.
        254    2    1    2    0    0 -0.66693434505E+03  0.61608732467E+03  0.60938538364E+03  0.14150400719E+04  0.89812184425E+03 0.  0.
        -24    2    4    4    0    0  0.39392571524E+02  0.50728025697E+03  0.77510788077E+02  0.52067315196E+03  0.78788165934E+02 0.  0.
         24    2    4    4    0    0 -0.70632691657E+03  0.10880706769E+03  0.53187459556E+03  0.89436691996E+03  0.79151191172E+02 0.  0.
         13    1    3    3    0    0  0.59193951790E+03 -0.57530455402E+03  0.96720362381E+03  0.12715543923E+04  0.00000000000E+00 0. -1.
        -13    1    3    3    0    0  0.74994827146E+02 -0.40782770654E+02  0.74649880828E+02  0.11340221862E+03  0.00000000000E+00 0.  1.
          2    1    6    6  502    0 -0.12606046562E+02 -0.65040812212E+01  0.20184362741E+02  0.24670305668E+02  0.00000000000E+00 0. -1.
          3    1    5    5  503    0 -0.18448540728E+02  0.24909583880E+03  0.26071393456E+02  0.25113502966E+03  0.00000000000E+00 0. -1.
         -4    1    5    5    0  503  0.57841112252E+02  0.25818441817E+03  0.51439394621E+02  0.26953812230E+03  0.00000000000E+00 0.  1.
         -1    1    6    6    0  502 -0.69372087001E+03  0.11531114892E+03  0.51169023282E+03  0.86969661429E+03  0.00000000000E+00 0.  1.
<mgrwt>
<rscale>  0 0.22612810E+04</rscale>
<asrwt>0</asrwt>
<pdfrwt beam="1">  1        2 0.34240273E+00 0.22612810E+04</pdfrwt>
<pdfrwt beam="2">  1       -2 0.88365985E-01 0.22612810E+04</pdfrwt>
<totfact> 0.50073490E+00</totfact>
</mgrwt>
</event>
<event>
12    1  0.2214165E-007  0.1255842E+04  0.7818608E-02  0.9065335E-01
         -1   -1    0    0    0  501 -0.00000000000E+00  0.00000000000E+00  0.11748407500E+03  0.11748407500E+03  0.00000000000E+00 0.  1.
          1   -1    0    0  501    0  0.00000000000E+00 -0.00000000000E+00 -0.33560714051E+04  0.33560714051E+04  0.00000000000E+00 0. -1.
         23    2    1    2    0    0 -0.27530772977E+02  0.27344602881E+03 -0.52354539031E+03  0.59861662922E+03  0.93334982332E+02 0.  0.
        254    2    1    2    0    0  0.27530772977E+02 -0.27344602881E+03 -0.27150419398E+04  0.28749388509E+04  0.90459382453E+03 0.  0.
        -24    2    4    4    0    0 -0.25918028356E+03 -0.38288796223E+03 -0.74908376357E+03  0.88338224195E+03  0.73892418744E+02 0.  0.
         24    2    4    4    0    0  0.28671105654E+03  0.10944193342E+03 -0.19659581762E+04  0.19915566090E+04  0.84412138954E+02 0.  0.
         11    1    3    3    0    0  0.14932781659E+01  0.74262905929E+02 -0.68508394385E+02  0.10104755899E+03  0.00000000000E+00 0.  1.
        -11    1    3    3    0    0 -0.29024051143E+02  0.19918312288E+03 -0.45503699593E+03  0.49756907023E+03  0.00000000000E+00 0. -1.
          4    1    6    6  502    0  0.19507593712E+03  0.71522921479E+02 -0.15540709456E+04  0.15678988020E+04  0.00000000000E+00 0. -1.
          3    1    5    5  503    0 -0.90821114869E+02 -0.95717520042E+02 -0.16701258708E+03  0.21284624214E+03  0.00000000000E+00 0. -1.
         -4    1    5    5    0  503 -0.16835916869E+03 -0.28717044219E+03 -0.58207117649E+03  0.67053599981E+03  0.00000000000E+00 0.  1.
         -3    1    6    6    0  502  0.91635119419E+02  0.37919011939E+02 -0.41188723067E+03  0.42365780693E+03  0.00000000000E+00 0.  1.
<mgrwt>
<rscale>  0 0.12558423E+04</rscale>
<asrwt>0</asrwt>
<pdfrwt beam="1">  1        1 0.51631865E+00 0.12558423E+04</pdfrwt>
<pdfrwt beam="2">  1       -1 0.18074474E-01 0.12558423E+04</pdfrwt>
<totfact> 0.78549751E+00</totfact>
</mgrwt>
</event>
<event>
12    1  0.2214165E-007  0.1213193E+04  0.7818608E-02  0.9101387E-01
          2   -1    0    0  501    0  0.00000000000E+00  0.00000000000E+00  0.24023601210E+03  0.24023601210E+03  0.00000000000E+00 0.  1.
         -2   -1    0    0    0  501 -0.00000000000E+00 -0.00000000000E+00 -0.15316563820E+04  0.15316563820E+04  0.00000000000E+00 0. -1.
         23    2    1    2    0    0  0.72221280556E+02  0.14273705177E+03 -0.60924981146E+03  0.63630268045E+03  0.90033266478E+02 0.  0.
        254    2    1    2    0    0 -0.72221280556E+02 -0.14273705177E+03 -0.68217055845E+03  0.11355897136E+04  0.89365404247E+03 0.  0.
        -24    2    4    4    0    0  0.17518890573E+03  0.29589390343E+03 -0.10937311519E+03  0.36953799348E+03  0.79696270448E+02 0.  0.
         24    2    4    4    0    0 -0.24741018628E+03 -0.43863095520E+03 -0.57279744326E+03  0.76605172017E+03  0.71619912273E+02 0.  0.
         11    1    3    3    0    0  0.53649805551E+02  0.11769772127E+03 -0.57749200696E+03  0.59180070406E+03  0.00000000000E+00 0. -1.
        -11    1    3    3    0    0  0.18571475005E+02  0.25039330500E+02 -0.31757804500E+02  0.44501976388E+02  0.00000000000E+00 0.  1.
          2    1    6    6  502    0 -0.11784671548E+03 -0.14627989192E+03 -0.23595559465E+03  0.30159691274E+03  0.00000000000E+00 0. -1.
          3    1    5    5  503    0  0.71459321511E+02  0.67843815116E+02 -0.66365083951E+01  0.98758600254E+02  0.00000000000E+00 0. -1.
         -4    1    5    5    0  503  0.10372958421E+03  0.22805008831E+03 -0.10273660679E+03  0.27077939322E+03  0.00000000000E+00 0.  1.
         -1    1    6    6    0  502 -0.12956347080E+03 -0.29235106327E+03 -0.33684184862E+03  0.46445480743E+03  0.00000000000E+00 0.  1.
<mgrwt>
<rscale>  0 0.12131925E+04</rscale>
<asrwt>0</asrwt>
<pdfrwt beam="1">  1        2 0.36959388E-01 0.12131925E+04</pdfrwt>
<pdfrwt beam="2">  1       -2 0.23563943E+00 0.12131925E+04</pdfrwt>
<totfact> 0.10955642E+01</totfact>
</mgrwt>
</event>
<event>
12    1  0.2214165E-007  0.1212395E+04  0.7818608E-02  0.9102075E-01
          2   -1    0    0  501    0  0.00000000000E+00  0.00000000000E+00  0.18230740321E+04  0.18230740321E+04  0.00000000000E+00 0. -1.
         -2   -1    0    0    0  501 -0.00000000000E+00 -0.00000000000E+00 -0.20156925785E+03  0.20156925785E+03  0.00000000000E+00 0.  1.
         23    2    1    2    0    0 -0.11444725773E+03 -0.10902680662E+03  0.71902349514E+03  0.74175639074E+03  0.90679310076E+02 0.  0.
        254    2    1    2    0    0  0.11444725773E+03  0.10902680662E+03  0.90248127910E+03  0.12828868992E+04  0.89796509824E+03 0.  0.
        -24    2    4    4    0    0 -0.39156744373E+02  0.42385616563E+03  0.80039976426E+03  0.91003308359E+03  0.79580970286E+02 0.  0.
         24    2    4    4    0    0  0.15360400211E+03 -0.31482935901E+03  0.10208151484E+03  0.37285381561E+03  0.76730811193E+02 0.  0.
         11    1    3    3    0    0 -0.41961734576E+02 -0.10075904006E+03  0.41729674007E+03  0.43133483582E+03  0.00000000000E+00 0. -1.
        -11    1    3    3    0    0 -0.72485523156E+02 -0.82677665579E+01  0.30172675507E+03  0.31042155492E+03  0.00000000000E+00 0.  1.
          4    1    6    6  502    0  0.30689517669E+02 -0.14277725124E+03  0.27271586173E+02  0.14856288022E+03  0.00000000000E+00 0. -1.
          3    1    5    5  503    0 -0.49615605920E+02  0.13674924498E+03  0.28430639568E+03  0.31936216272E+03  0.00000000000E+00 0. -1.
         -4    1    5    5    0  503  0.10458861547E+02  0.28710692065E+03  0.51609336858E+03  0.59067092087E+03  0.00000000000E+00 0.  1.
         -3    1    6    6    0  502  0.12291448444E+03 -0.17205210777E+03  0.74809928664E+02  0.22429093539E+03  0.00000000000E+00 0.  1.
<mgrwt>
<rscale>  0 0.12123954E+04</rscale>
<asrwt>0</asrwt>
<pdfrwt beam="1">  1        2 0.28047292E+00 0.12123954E+04</pdfrwt>
<pdfrwt beam="2">  1       -2 0.31010656E-01 0.12123954E+04</pdfrwt>
<totfact> 0.79631950E+01</totfact>
</mgrwt>
</event>
<event>
12    1  0.2214165E-007  0.2737596E+04  0.7818608E-02  0.8322909E-01
          2   -1    0    0  501    0  0.00000000000E+00  0.00000000000E+00  0.38030069443E+04  0.38030069443E+04  0.00000000000E+00 0. -1.
         -2   -1    0    0    0  501 -0.00000000000E+00 -0.00000000000E+00 -0.49266470320E+03  0.49266470320E+03  0.00000000000E+00 0.  1.
         23    2    1    2    0    0  0.11302281049E+04  0.18200901481E+03  0.81986783814E+03  0.14109418197E+04  0.89614150241E+02 0.  0.
        254    2    1    2    0    0 -0.11302281049E+04 -0.18200901481E+03  0.24904744030E+04  0.28847298279E+04  0.89925556836E+03 0.  0.
        -24    2    4    4    0    0 -0.45921208167E+03 -0.38439543444E+03  0.53661903028E+03  0.80746450096E+03  0.73507487301E+02 0.  0.
         24    2    4    4    0    0 -0.67101602322E+03  0.20238641963E+03  0.19538553727E+04  0.20772653269E+04  0.79105338447E+02 0.  0.
         11    1    3    3    0    0  0.40748414141E+03  0.23243885488E+02  0.30306080166E+03  0.50835957079E+03  0.00000000000E+00 0. -1.
        -11    1    3    3    0    0  0.72274396348E+03  0.15876512932E+03  0.51680703649E+03  0.90258224888E+03  0.00000000000E+00 0.  1.
          4    1    6    6  502    0 -0.49622731472E+03  0.11728615591E+03  0.13633728664E+04  0.14556040544E+04  0.00000000000E+00 0. -1.
          3    1    5    5  503    0 -0.60013353023E+02 -0.81204503824E+02  0.72390267832E+02  0.12424220241E+03  0.00000000000E+00 0. -1.
         -4    1    5    5    0  503 -0.39919872865E+03 -0.30319093062E+03  0.46422876245E+03  0.68322229855E+03  0.00000000000E+00 0.  1.
         -3    1    6    6    0  502 -0.17478870850E+03  0.85100263720E+02  0.59048250629E+03  0.62166127251E+03  0.00000000000E+00 0.  1.
<mgrwt>
<rscale>  0 0.27375955E+04</rscale>
<asrwt>0</asrwt>
<pdfrwt beam="1">  1        2 0.58507797E+00 0.27375955E+04</pdfrwt>
<pdfrwt beam="2">  1       -2 0.75794572E-01 0.27375955E+04</pdfrwt>
<totfact> 0.66692748E-01</totfact>
</mgrwt>
</event>
<event>
12    1  0.2214165E-007  0.2888885E+04  0.7818608E-02  0.8276192E-01
          1   -1    0    0  501    0  0.00000000000E+00  0.00000000000E+00  0.10260995009E+04  0.10260995009E+04  0.00000000000E+00 0. -1.
         -1   -1    0    0    0  501 -0.00000000000E+00 -0.00000000000E+00 -0.20333442007E+04  0.20333442007E+04  0.00000000000E+00 0.  1.
         23    2    1    2    0    0 -0.66039706010E+03  0.80024562285E+03 -0.12868961671E+04  0.16558713739E+04  0.96389460035E+02 0.  0.
        254    2    1    2    0    0  0.66039706010E+03 -0.80024562285E+03  0.27965146734E+03  0.14035723277E+04  0.90293576845E+03 0.  0.
        -24    2    4    4    0    0  0.25352630600E+03 -0.90853522195E+03  0.18138962549E+03  0.96386774789E+03  0.80168583750E+02 0.  0.
         24    2    4    4    0    0  0.40687075409E+03  0.10828959911E+03  0.98261841851E+02  0.43970457978E+03  0.80089200911E+02 0.  0.
         13    1    3    3    0    0 -0.52926165535E+03  0.69386166432E+03 -0.10592237957E+04  0.13724128236E+04  0.00000000000E+00 0. -1.
        -13    1    3    3    0    0 -0.13113540475E+03  0.10638395853E+03 -0.22767237143E+03  0.28345855027E+03  0.00000000000E+00 0.  1.
          4    1    6    6  502    0  0.33160829483E+03  0.10521375339E+03  0.10673477397E+03  0.36390425538E+03  0.00000000000E+00 0. -1.
          3    1    5    5  503    0  0.22828709892E+03 -0.78538715518E+03  0.18314857720E+03  0.83814759105E+03  0.00000000000E+00 0. -1.
         -4    1    5    5    0  503  0.25239207087E+02 -0.12314806678E+03 -0.17589517102E+01  0.12572015684E+03  0.00000000000E+00 0.  1.
         -3    1    6    6    0  502  0.75262459261E+02  0.30758457139E+01 -0.84729321227E+01  0.75800324403E+02  0.00000000000E+00 0.  1.
<mgrwt>
<rscale>  0 0.28888845E+04</rscale>
<asrwt>0</asrwt>
<pdfrwt beam="1">  1        1 0.15786146E+00 0.28888845E+04</pdfrwt>
<pdfrwt beam="2">  1       -1 0.31282218E+00 0.28888845E+04</pdfrwt>
<totfact> 0.33813320E-01</totfact>
</mgrwt>
</event>
<event>
12    1  0.2214165E-007  0.1904489E+04  0.7818608E-02  0.8652625E-01
         -1   -1    0    0    0  501 -0.00000000000E+00  0.00000000000E+00  0.52207848768E+03  0.52207848768E+03  0.00000000000E+00 0.  1.
          1   -1    0    0  501    0  0.00000000000E+00 -0.00000000000E+00 -0.17368444838E+04  0.17368444838E+04  0.00000000000E+00 0. -1.
         23    2    1    2    0    0 -0.53011646231E+03 -0.14696892838E+02 -0.10752144457E+04  0.12026399057E+04  0.94958812763E+02 0.  0.
        254    2    1    2    0    0  0.53011646231E+03  0.14696892838E+02 -0.13955155037E+03  0.10562830658E+04  0.90278448016E+03 0.  0.
        -24    2    4    4    0    0  0.23194606554E+03  0.23900755957E+01 -0.51485267792E+03  0.57020156808E+03  0.79068694767E+02 0.  0.
         24    2    4    4    0    0  0.29817039677E+03  0.12306817242E+02  0.37530112755E+03  0.48608149772E+03  0.79795005021E+02 0.  0.
         13    1    3    3    0    0 -0.29438087537E+02  0.21686286293E+02 -0.65233361300E+02  0.74781598254E+02  0.00000000000E+00 0.  1.
        -13    1    3    3    0    0 -0.50067837477E+03 -0.36383179131E+02 -0.10099810844E+04  0.11278583074E+04  0.00000000000E+00 0. -1.
          2    1    6    6  502    0  0.99548618625E+02  0.13654161957E+02  0.72333228529E+02  0.12380815627E+03  0.00000000000E+00 0. -1.
          1    1    5    5  503    0  0.52862314108E+02 -0.33222890490E+02 -0.12682694926E+03  0.14136215818E+03  0.00000000000E+00 0. -1.
         -2    1    5    5    0  503  0.17908375143E+03  0.35612966086E+02 -0.38802572866E+03  0.42883940990E+03  0.00000000000E+00 0.  1.
         -1    1    6    6    0  502  0.19862177815E+03 -0.13473447144E+01  0.30296789902E+03  0.36227334146E+03  0.00000000000E+00 0.  1.
<mgrwt>
<rscale>  0 0.19044885E+04</rscale>
<asrwt>0</asrwt>
<pdfrwt beam="1">  1        1 0.26720685E+00 0.19044885E+04</pdfrwt>
<pdfrwt beam="2">  1       -1 0.80319766E-01 0.19044885E+04</pdfrwt>
<totfact> 0.65059241E+00</totfact>
</mgrwt>
</event>
<event>
12    1  0.2214165E-007  0.3526854E+04  0.7818608E-02  0.8107455E-01
         -2   -1    0    0    0  501 -0.00000000000E+00  0.00000000000E+00  0.12354444925E+04  0.12354444925E+04  0.00000000000E+00 0. -1.
          2   -1    0    0  501    0  0.00000000000E+00 -0.00000000000E+00 -0.25170492827E+04  0.25170492827E+04  0.00000000000E+00 0.  1.
         23    2    1    2    0    0 -0.61396877842E+03  0.15236926826E+03  0.10192110353E+04  0.12029164176E+04  0.89681204640E+02 0.  0.
        254    2    1    2    0    0  0.61396877842E+03 -0.15236926826E+03 -0.23008158256E+04  0.25495773576E+04  0.89800734088E+03 0.  0.
        -24    2    4    4    0    0  0.29509129004E+03  0.19098896362E+02 -0.21110234458E+04  0.21332770855E+04  0.83710796853E+02 0.  0.
         24    2    4    4    0    0  0.31887748838E+03 -0.17146816462E+03 -0.18979237981E+03  0.41630027211E+03  0.78743793697E+02 0.  0.
         11    1    3    3    0    0 -0.25779111981E+03  0.19910622144E+02  0.43231030242E+03  0.50373097175E+03  0.00000000000E+00 0. -1.
        -11    1    3    3    0    0 -0.35617765861E+03  0.13245864612E+03  0.58690073289E+03  0.69918544585E+03  0.00000000000E+00 0.  1.
          2    1    6    6  502    0  0.22112259265E+03 -0.83927746368E+02 -0.97247919369E+02  0.25572685704E+03  0.00000000000E+00 0. -1.
          3    1    5    5  503    0  0.17243262510E+03  0.11980439421E+02 -0.15072976154E+04  0.15171758772E+04  0.00000000000E+00 0. -1.
         -4    1    5    5    0  503  0.12265866493E+03  0.71184569407E+01 -0.60372583039E+03  0.61610120824E+03  0.00000000000E+00 0.  1.
         -1    1    6    6    0  502  0.97754895737E+02 -0.87540418254E+02 -0.92544460438E+02  0.16057341507E+03  0.00000000000E+00 0.  1.
<mgrwt>
<rscale>  0 0.35268539E+04</rscale>
<asrwt>0</asrwt>
<pdfrwt beam="1">  1        2 0.38723835E+00 0.35268539E+04</pdfrwt>
<pdfrwt beam="2">  1       -2 0.19006838E+00 0.35268539E+04</pdfrwt>
<totfact> 0.43192446E-01</totfact>
</mgrwt>
</event>
<event>
12    1  0.2214165E-007  0.1992610E+04  0.7818608E-02  0.8610084E-01
          1   -1    0    0  501    0  0.00000000000E+00  0.00000000000E+00  0.15069723651E+04  0.15069723651E+04  0.00000000000E+00 0. -1.
         -1   -1    0    0    0  501 -0.00000000000E+00 -0.00000000000E+00 -0.65868735426E+03  0.65868735426E+03  0.00000000000E+00 0.  1.
         23    2    1    2    0    0 -0.51164796728E+03 -0.47092636196E+03  0.74609565507E+03  0.10235059060E+04  0.85734078870E+02 0.  0.
        254    2    1    2    0    0  0.51164796728E+03  0.47092636196E+03  0.10218935579E+03  0.11421538134E+04  0.90028739200E+03 0.  0.
        -24    2    4    4    0    0 -0.63742381145E+02 -0.56179299698E+02  0.30894867046E+03  0.33082702018E+03  0.82328800747E+02 0.  0.
         24    2    4    4    0    0  0.57539034842E+03  0.52710566165E+03 -0.20675931466E+03  0.81132679321E+03  0.81162303907E+02 0.  0.
         13    1    3    3    0    0 -0.27361758096E+03 -0.24422821607E+03  0.45514808001E+03  0.58452867925E+03  0.00000000000E+00 0. -1.
        -13    1    3    3    0    0 -0.23803038632E+03 -0.22669814589E+03  0.29094757506E+03  0.43897722673E+03  0.00000000000E+00 0.  1.
          4    1    6    6  502    0  0.23560264042E+03  0.24624497850E+03 -0.55682867218E+02  0.34531981599E+03  0.00000000000E+00 0. -1.
          3    1    5    5  503    0 -0.46081854957E+02 -0.55039105596E+02  0.11164161298E+03  0.13272788045E+03  0.00000000000E+00 0. -1.
         -4    1    5    5    0  503 -0.17660526188E+02 -0.11401941018E+01  0.19730705748E+03  0.19809913973E+03  0.00000000000E+00 0.  1.
         -3    1    6    6    0  502  0.33978770800E+03  0.28086068315E+03 -0.15107644745E+03  0.46600697722E+03  0.00000000000E+00 0.  1.
<mgrwt>
<rscale>  0 0.19926100E+04</rscale>
<asrwt>0</asrwt>
<pdfrwt beam="1">  1        1 0.23184190E+00 0.19926100E+04</pdfrwt>
<pdfrwt beam="2">  1       -1 0.10133652E+00 0.19926100E+04</pdfrwt>
<totfact> 0.55511300E+00</totfact>
</mgrwt>
</event>
<event>
12    1  0.2214165E-007  0.2305545E+04  0.7818608E-02  0.8475738E-01
          1   -1    0    0  501    0  0.00000000000E+00  0.00000000000E+00  0.14597615133E+04  0.14597615133E+04  0.00000000000E+00 0. -1.
         -1   -1    0    0    0  501 -0.00000000000E+00 -0.00000000000E+00 -0.91034315452E+03  0.91034315452E+03  0.00000000000E+00 0.  1.
         23    2    1    2    0    0 -0.20979602495E+03 -0.93809741216E+03  0.66555868921E+02  0.96801396001E+03  0.92629456968E+02 0.  0.
        254    2    1    2    0    0  0.20979602495E+03  0.93809741216E+03  0.48286248989E+03  0.14020907079E+04  0.89925582685E+03 0.  0.
        -24    2    4    4    0    0  0.46914671842E+03  0.65839105460E+03  0.58404273449E+03  0.10005821259E+04  0.80506215678E+02 0.  0.
         24    2    4    4    0    0 -0.25935069347E+03  0.27970635756E+03 -0.10118024459E+03  0.40150858196E+03  0.73981557356E+02 0.  0.
         13    1    3    3    0    0 -0.28833071533E+02 -0.11844464154E+03  0.39655563143E+02  0.12819143034E+03  0.00000000000E+00 0. -1.
        -13    1    3    3    0    0 -0.18096295342E+03 -0.81965277062E+03  0.26900305778E+02  0.83982252967E+03  0.00000000000E+00 0.  1.
          2    1    6    6  502    0 -0.56204953545E+02  0.21890771177E+02 -0.15705004258E+02  0.62328563472E+02  0.00000000000E+00 0. -1.
          3    1    5    5  503    0  0.46435995844E+01  0.12098712044E+02  0.24371556454E+02  0.27602800840E+02  0.00000000000E+00 0. -1.
         -4    1    5    5    0  503  0.46450311884E+03  0.64629234256E+03  0.55967117803E+03  0.97297932505E+03  0.00000000000E+00 0.  1.
         -1    1    6    6    0  502 -0.20314573993E+03  0.25781558638E+03 -0.85475240337E+02  0.33918001849E+03  0.00000000000E+00 0.  1.
<mgrwt>
<rscale>  0 0.23055445E+04</rscale>
<asrwt>0</asrwt>
<pdfrwt beam="1">  1        1 0.22457869E+00 0.23055445E+04</pdfrwt>
<pdfrwt beam="2">  1       -1 0.14005279E+00 0.23055445E+04</pdfrwt>
<totfact> 0.26396881E+00</totfact>
</mgrwt>
</event>
<event>
12    1  0.2214165E-007  0.2532629E+04  0.7818608E-02  0.8391453E-01
          2   -1    0    0  501    0  0.00000000000E+00  0.00000000000E+00  0.32878183124E+04  0.32878183124E+04  0.00000000000E+00 0. -1.
         -2   -1    0    0    0  501 -0.00000000000E+00 -0.00000000000E+00 -0.48772524163E+03  0.48772524163E+03  0.00000000000E+00 0.  1.
         23    2    1    2    0    0  0.30283409088E+03 -0.92439911897E+03  0.44609563786E+03  0.10739653923E+04  0.90433002580E+02 0.  0.
        254    2    1    2    0    0 -0.30283409088E+03  0.92439911897E+03  0.23539974329E+04  0.27015781617E+04  0.90055451371E+03 0.  0.
        -24    2    4    4    0    0  0.29725243721E+03  0.33676075644E+03  0.10934066530E+04  0.11848838773E+04  0.81516105042E+02 0.  0.
         24    2    4    4    0    0 -0.60008652809E+03  0.58763836253E+03  0.12605907799E+04  0.15166942844E+04  0.76483669803E+02 0.  0.
         11    1    3    3    0    0  0.70520558929E+02 -0.23150521047E+03  0.15459721075E+03  0.28717261234E+03  0.00000000000E+00 0. -1.
        -11    1    3    3    0    0  0.23231353195E+03 -0.69289390850E+03  0.29149842711E+03  0.78679277994E+03  0.00000000000E+00 0.  1.
          2    1    6    6  502    0 -0.10646202826E+03  0.78217825073E+02  0.16263396001E+03  0.20952803290E+03  0.00000000000E+00 0. -1.
          3    1    5    5  503    0  0.58875641818E+02  0.29356054315E+02  0.12469466044E+03  0.14098538033E+03  0.00000000000E+00 0. -1.
         -4    1    5    5    0  503  0.23837679539E+03  0.30740470213E+03  0.96871199258E+03  0.10438984970E+04  0.00000000000E+00 0.  1.
         -1    1    6    6    0  502 -0.49362449983E+03  0.50942053745E+03  0.10979568199E+04  0.13071662515E+04  0.00000000000E+00 0.  1.
<mgrwt>
<rscale>  0 0.25326287E+04</rscale>
<asrwt>0</asrwt>
<pdfrwt beam="1">  1        2 0.50581819E+00 0.25326287E+04</pdfrwt>
<pdfrwt beam="2">  1       -2 0.75034655E-01 0.25326287E+04</pdfrwt>
<totfact> 0.16111747E+00</totfact>
</mgrwt>
</event>
<event>
12    1  0.2214165E-007  0.1177253E+04  0.7818608E-02  0.9133003E-01
          2   -1    0    0  501    0  0.00000000000E+00  0.00000000000E+00  0.11035886192E+04  0.11035886192E+04  0.00000000000E+00 0. -1.
         -2   -1    0    0    0  501 -0.00000000000E+00 -0.00000000000E+00 -0.31395864829E+03  0.31395864829E+03  0.00000000000E+00 0.  1.
         23    2    1    2    0    0  0.14184363342E+02 -0.78597111077E+02 -0.85662974514E+02  0.14903602870E+03  0.92167730880E+02 0.  0.
        254    2    1    2    0    0 -0.14184363342E+02  0.78597111077E+02  0.87529294542E+03  0.12685112388E+04  0.91466076803E+03 0.  0.
        -24    2    4    4    0    0  0.72540912334E+02 -0.33973670429E+03  0.83656565695E+02  0.36548824095E+03  0.76811594706E+02 0.  0.
         24    2    4    4    0    0 -0.86725275676E+02  0.41833381537E+03  0.79163637972E+03  0.90302299783E+03  0.78980519064E+02 0.  0.
         11    1    3    3    0    0 -0.61437961493E+01 -0.64138372354E+02 -0.50249363813E+01  0.64627602655E+02  0.00000000000E+00 0. -1.
        -11    1    3    3    0    0  0.20328159492E+02 -0.14458738723E+02 -0.80638038132E+02  0.84408426046E+02  0.00000000000E+00 0.  1.
          4    1    6    6  502    0  0.14635988046E+02  0.51351517097E+02  0.10973410848E+03  0.12203591692E+03  0.00000000000E+00 0. -1.
          3    1    5    5  503    0 -0.11888671665E+02 -0.83087534145E+02  0.35111381060E+02  0.90981799961E+02  0.00000000000E+00 0. -1.
         -4    1    5    5    0  503  0.84429583999E+02 -0.25664917015E+03  0.48545184635E+02  0.27450644099E+03  0.00000000000E+00 0.  1.
         -3    1    6    6    0  502 -0.10136126372E+03  0.36698229827E+03  0.68190227124E+03  0.78098708091E+03  0.00000000000E+00 0.  1.
<mgrwt>
<rscale>  0 0.11772531E+04</rscale>
<asrwt>0</asrwt>
<pdfrwt beam="1">  1        2 0.16978286E+00 0.11772531E+04</pdfrwt>
<pdfrwt beam="2">  1       -2 0.48301331E-01 0.11772531E+04</pdfrwt>
<totfact> 0.86938748E+01</totfact>
</mgrwt>
</event>
<event>
12    1  0.2214165E-007  0.2251721E+04  0.7818608E-02  0.8497204E-01
          2   -1    0    0  501    0  0.00000000000E+00  0.00000000000E+00  0.78446455694E+03  0.78446455694E+03  0.00000000000E+00 0. -1.
         -2   -1    0    0    0  501 -0.00000000000E+00 -0.00000000000E+00 -0.16158301872E+04  0.16158301872E+04  0.00000000000E+00 0.  1.
         23    2    1    2    0    0  0.68419913815E+03 -0.60588282508E+03 -0.57056628833E+03  0.10811934591E+04  0.90614282762E+02 0.  0.
        254    2    1    2    0    0 -0.68419913815E+03  0.60588282508E+03 -0.26079934192E+03  0.13191012850E+04  0.91476196087E+03 0.  0.
        -24    2    4    4    0    0 -0.63989396109E+03  0.62336539102E+03  0.13896325666E+03  0.90763930559E+03  0.80309589544E+02 0.  0.
         24    2    4    4    0    0 -0.44305177055E+02 -0.17482565943E+02 -0.39976259858E+03  0.41146197944E+03  0.84983742429E+02 0.  0.
         13    1    3    3    0    0  0.33738619447E+03 -0.35793221723E+03 -0.29509537079E+03  0.57360804929E+03  0.00000000000E+00 0. -1.
        -13    1    3    3    0    0  0.34681294367E+03 -0.24795060786E+03 -0.27547091754E+03  0.50758540980E+03  0.00000000000E+00 0.  1.
          2    1    6    6  502    0  0.20466029159E+02  0.14583373363E+02 -0.10648765451E+03  0.10941276750E+03  0.00000000000E+00 0. -1.
          1    1    5    5  503    0 -0.36802782747E+03  0.31854065375E+03  0.47274184362E+02  0.48902707327E+03  0.00000000000E+00 0. -1.
         -2    1    5    5    0  503 -0.27186613362E+03  0.30482473727E+03  0.91689072299E+02  0.41861223231E+03  0.00000000000E+00 0.  1.
         -1    1    6    6    0  502 -0.64771206214E+02 -0.32065939306E+02 -0.29327494407E+03  0.30204921194E+03  0.00000000000E+00 0.  1.
<mgrwt>
<rscale>  0 0.22517207E+04</rscale>
<asrwt>0</asrwt>
<pdfrwt beam="1">  1        2 0.12068686E+00 0.22517207E+04</pdfrwt>
<pdfrwt beam="2">  1       -2 0.24858925E+00 0.22517207E+04</pdfrwt>
<totfact> 0.21092763E+00</totfact>
</mgrwt>
</event>
<event>
12    1  0.2214165E-007  0.2781936E+04  0.7818608E-02  0.8308898E-01
         -2   -1    0    0    0  501 -0.00000000000E+00  0.00000000000E+00  0.58346179572E+03  0.58346179572E+03  0.00000000000E+00 0.  1.
          2   -1    0    0  501    0  0.00000000000E+00 -0.00000000000E+00 -0.33160565020E+04  0.33160565020E+04  0.00000000000E+00 0. -1.
         23    2    1    2    0    0  0.12012908740E+03  0.11898195134E+04 -0.74859310932E+03  0.14151965845E+04  0.11085241263E+03 0.  0.
        254    2    1    2    0    0 -0.12012908740E+03 -0.11898195134E+04 -0.19840015969E+04  0.24843217132E+04  0.89749126234E+03 0.  0.
        -24    2    4    4    0    0  0.27568863525E+03 -0.85369396996E+03 -0.15908871248E+04  0.18281317347E+04  0.79662900471E+02 0.  0.
         24    2    4    4    0    0 -0.39581772266E+03 -0.33612554341E+03 -0.39311447212E+03  0.65618997846E+03  0.79964049023E+02 0.  0.
         13    1    3    3    0    0  0.13428893830E+03  0.99001396675E+03 -0.59556659291E+03  0.11631254188E+04  0.00000000000E+00 0.  1.
        -13    1    3    3    0    0 -0.14159850893E+02  0.19980554662E+03 -0.15302651641E+03  0.25207116567E+03  0.00000000000E+00 0. -1.
          2    1    6    6  502    0 -0.36891275475E+03 -0.28251627628E+03 -0.35895374673E+03  0.58716254927E+03  0.00000000000E+00 0. -1.
          1    1    5    5  503    0  0.16649196609E+03 -0.60727180088E+03 -0.11600754022E+04  0.13199521028E+04  0.00000000000E+00 0. -1.
         -2    1    5    5    0  503  0.10919666916E+03 -0.24642216909E+03 -0.43081172264E+03  0.50817963195E+03  0.00000000000E+00 0.  1.
         -1    1    6    6    0  502 -0.26904967908E+02 -0.53609267134E+02 -0.34160725397E+02  0.69027429189E+02  0.00000000000E+00 0.  1.
<mgrwt>
<rscale>  0 0.27819362E+04</rscale>
<asrwt>0</asrwt>
<pdfrwt beam="1">  1        2 0.51016254E+00 0.27819362E+04</pdfrwt>
<pdfrwt beam="2">  1       -2 0.89763353E-01 0.27819362E+04</pdfrwt>
<totfact> 0.10065689E+00</totfact>
</mgrwt>
</event>
<event>
12    1  0.2214165E-007  0.1641503E+04  0.7818608E-02  0.8795449E-01
         -2   -1    0    0    0  501 -0.00000000000E+00  0.00000000000E+00  0.64315049443E+03  0.64315049443E+03  0.00000000000E+00 0.  1.
          2   -1    0    0  501    0  0.00000000000E+00 -0.00000000000E+00 -0.10473961614E+04  0.10473961614E+04  0.00000000000E+00 0. -1.
         23    2    1    2    0    0  0.26935912757E+03  0.34149075014E+03  0.23839493746E+03  0.50407696528E+03  0.89950923736E+02 0.  0.
        254    2    1    2    0    0 -0.26935912757E+03 -0.34149075014E+03 -0.64264060445E+03  0.11864696906E+04  0.89752610444E+03 0.  0.
        -24    2    4    4    0    0 -0.58914934148E+03 -0.15125108683E+03 -0.44181376328E+03  0.75602872192E+03  0.80038672647E+02 0.  0.
         24    2    4    4    0    0  0.31979021391E+03 -0.19023966331E+03 -0.20082684118E+03  0.43044096867E+03  0.80567344244E+02 0.  0.
         11    1    3    3    0    0  0.18593957363E+03  0.24841862899E+03  0.12242339453E+03  0.33357582017E+03  0.00000000000E+00 0. -1.
        -11    1    3    3    0    0  0.83419553931E+02  0.93072121148E+02  0.11597154293E+03  0.17050114511E+03  0.00000000000E+00 0.  1.
          2    1    6    6  502    0  0.17642888816E+03 -0.91266695226E+02 -0.63262972473E+02  0.20846814126E+03  0.00000000000E+00 0. -1.
          1    1    5    5  503    0 -0.37514945795E+03 -0.12979820941E+03 -0.31110865744E+03  0.50435432753E+03  0.00000000000E+00 0. -1.
         -2    1    5    5    0  503 -0.21399988353E+03 -0.21452877416E+02 -0.13070510584E+03  0.25167439439E+03  0.00000000000E+00 0.  1.
         -3    1    6    6    0  502  0.14336132575E+03 -0.98972968086E+02 -0.13756386870E+03  0.22197282740E+03  0.00000000000E+00 0.  1.
<mgrwt>
<rscale>  0 0.16415034E+04</rscale>
<asrwt>0</asrwt>
<pdfrwt beam="1">  1        2 0.16113787E+00 0.16415034E+04</pdfrwt>
<pdfrwt beam="2">  1       -2 0.98946230E-01 0.16415034E+04</pdfrwt>
<totfact> 0.19027010E+01</totfact>
</mgrwt>
</event>
<event>
12    1  0.2214165E-007  0.2743106E+04  0.7818608E-02  0.8321153E-01
          1   -1    0    0  501    0  0.00000000000E+00  0.00000000000E+00  0.28406178845E+04  0.28406178845E+04  0.00000000000E+00 0. -1.
         -1   -1    0    0    0  501 -0.00000000000E+00 -0.00000000000E+00 -0.66223513573E+03  0.66223513573E+03  0.00000000000E+00 0.  1.
         23    2    1    2    0    0 -0.80330840595E+03 -0.91852745487E+03  0.10641823496E+04  0.16216348914E+04  0.90656315845E+02 0.  0.
        254    2    1    2    0    0  0.80330840595E+03  0.91852745487E+03  0.11142003992E+04  0.18812181287E+04  0.89918965629E+03 0.  0.
        -24    2    4    4    0    0 -0.13647166616E+03 -0.47679394206E+02  0.13624789167E+03  0.21408150925E+03  0.79809550313E+02 0.  0.
         24    2    4    4    0    0  0.93978007211E+03  0.96620684908E+03  0.97795250749E+03  0.16671366195E+04  0.78810798721E+02 0.  0.
         11    1    3    3    0    0 -0.60881198999E+03 -0.64695954213E+03  0.80492463041E+03  0.11987962083E+04  0.00000000000E+00 0. -1.
        -11    1    3    3    0    0 -0.19449641596E+03 -0.27156791274E+03  0.25925771915E+03  0.42283868318E+03  0.00000000000E+00 0.  1.
          4    1    6    6  502    0  0.14251347566E+03  0.12374930364E+03  0.11014885013E+03  0.21853317845E+03  0.00000000000E+00 0. -1.
          3    1    5    5  503    0 -0.47606788584E+02  0.15505825791E+02  0.17928439379E+02  0.53181443111E+02  0.00000000000E+00 0. -1.
         -4    1    5    5    0  503 -0.88864877576E+02 -0.63185219996E+02  0.11831945229E+03  0.16090006614E+03  0.00000000000E+00 0.  1.
         -3    1    6    6    0  502  0.79726659645E+03  0.84245754543E+03  0.86780365735E+03  0.14486034410E+04  0.00000000000E+00 0.  1.
<mgrwt>
<rscale>  0 0.27431055E+04</rscale>
<asrwt>0</asrwt>
<pdfrwt beam="1">  1        1 0.43701813E+00 0.27431055E+04</pdfrwt>
<pdfrwt beam="2">  1       -1 0.10188233E+00 0.27431055E+04</pdfrwt>
<totfact> 0.61882030E-01</totfact>
</mgrwt>
</event>
<event>
12    1  0.2214165E-007  0.2414345E+04  0.7818608E-02  0.8434153E-01
         -2   -1    0    0    0  501 -0.00000000000E+00  0.00000000000E+00  0.54642637421E+03  0.54642637421E+03  0.00000000000E+00 0. -1.
          2   -1    0    0  501    0  0.00000000000E+00 -0.00000000000E+00 -0.26669013368E+04  0.26669013368E+04  0.00000000000E+00 0.  1.
         23    2    1    2    0    0 -0.57566921202E+03  0.74493419623E+03 -0.33390634527E+03  0.10032855464E+04  0.93629278733E+02 0.  0.
        254    2    1    2    0    0  0.57566921202E+03 -0.74493419623E+03 -0.17865686174E+04  0.22100421647E+04  0.89785129428E+03 0.  0.
        -24    2    4    4    0    0  0.12338595460E+03 -0.82225218752E+03 -0.11458562883E+04  0.14180109898E+04  0.80285616720E+02 0.  0.
         24    2    4    4    0    0  0.45228325742E+03  0.77317991292E+02 -0.64071232909E+03  0.79203117482E+03  0.79138337851E+02 0.  0.
         11    1    3    3    0    0 -0.37002520974E+03  0.40949103668E+03 -0.21422199408E+03  0.59202417832E+03  0.00000000000E+00 0.  1.
        -11    1    3    3    0    0 -0.20564400227E+03  0.33544315955E+03 -0.11968435119E+03  0.41126136808E+03  0.00000000000E+00 0. -1.
          2    1    6    6  502    0  0.39700856688E+03  0.62095593360E+02 -0.59829221457E+03  0.72071161979E+03  0.00000000000E+00 0. -1.
          1    1    5    5  503    0  0.13165948213E+03 -0.68275950080E+03 -0.96683032381E+03  0.11909053826E+04  0.00000000000E+00 0. -1.
         -2    1    5    5    0  503 -0.82735275296E+01 -0.13949268671E+03 -0.17902596446E+03  0.22710560728E+03  0.00000000000E+00 0.  1.
         -1    1    6    6    0  502  0.55274690543E+02  0.15222397931E+02 -0.42420114521E+02  0.71319555028E+02  0.00000000000E+00 0.  1.
<mgrwt>
<rscale>  0 0.24143448E+04</rscale>
<asrwt>0</asrwt>
<pdfrwt beam="1">  1        2 0.41029250E+00 0.24143448E+04</pdfrwt>
<pdfrwt beam="2">  1       -2 0.84065598E-01 0.24143448E+04</pdfrwt>
<totfact> 0.30836620E+00</totfact>
</mgrwt>
</event>
<event>
12    1  0.2214165E-007  0.1770851E+04  0.7818608E-02  0.8721956E-01
          2   -1    0    0  501    0  0.00000000000E+00  0.00000000000E+00  0.44201032581E+03  0.44201032581E+03  0.00000000000E+00 0. -1.
         -2   -1    0    0    0  501 -0.00000000000E+00 -0.00000000000E+00 -0.17736644460E+04  0.17736644460E+04  0.00000000000E+00 0.  1.
         23    2    1    2    0    0  0.33998481953E+03 -0.12158847918E+03  0.18474253177E+03  0.41572227548E+03  0.91223744201E+02 0.  0.
        254    2    1    2    0    0 -0.33998481953E+03  0.12158847918E+03 -0.15163966520E+04  0.17999524963E+04  0.89999819290E+03 0.  0.
        -24    2    4    4    0    0 -0.51963296634E+03 -0.12402654747E+03 -0.49928073070E+03  0.73543246005E+03  0.78604395959E+02 0.  0.
         24    2    4    4    0    0  0.17964814680E+03  0.24561502665E+03 -0.10171159213E+04  0.10645200363E+04  0.77960967235E+02 0.  0.
         11    1    3    3    0    0  0.24579625787E+03 -0.11618504076E+03  0.16887885560E+03  0.32005442029E+03  0.00000000000E+00 0. -1.
        -11    1    3    3    0    0  0.94188561666E+02 -0.54034384217E+01  0.15863676163E+02  0.95667855191E+02  0.00000000000E+00 0.  1.
          2    1    6    6  502    0  0.73599908744E+02  0.16438966415E+03 -0.55604782733E+03  0.58449131262E+03  0.00000000000E+00 0. -1.
          1    1    5    5  503    0 -0.22508875553E+03 -0.93011390909E+02 -0.23667053848E+03  0.33960125219E+03  0.00000000000E+00 0. -1.
         -2    1    5    5    0  503 -0.29454421081E+03 -0.31015156558E+02 -0.26261019221E+03  0.39583120786E+03  0.00000000000E+00 0.  1.
         -1    1    6    6    0  502  0.10604823806E+03  0.81225362498E+02 -0.46106809394E+03  0.48002872368E+03  0.00000000000E+00 0.  1.
<mgrwt>
<rscale>  0 0.17708506E+04</rscale>
<asrwt>0</asrwt>
<pdfrwt beam="1">  1        2 0.68001589E-01 0.17708506E+04</pdfrwt>
<pdfrwt beam="2">  1       -2 0.27287145E+00 0.17708506E+04</pdfrwt>
<totfact> 0.31291718E+00</totfact>
</mgrwt>
</event>
<event>
12    1  0.2214165E-007  0.2127617E+04  0.7818608E-02  0.8549174E-01
          2   -1    0    0  501    0  0.00000000000E+00  0.00000000000E+00  0.13572647571E+04  0.13572647571E+04  0.00000000000E+00 0. -1.
         -2   -1    0    0    0  501 -0.00000000000E+00 -0.00000000000E+00 -0.83380095318E+03  0.83380095318E+03  0.00000000000E+00 0.  1.
         23    2    1    2    0    0 -0.33620436368E+03  0.71134815076E+03 -0.17019079502E+03  0.81017538138E+03  0.91485934092E+02 0.  0.
        254    2    1    2    0    0  0.33620436368E+03 -0.71134815076E+03  0.69365459893E+03  0.13808903289E+04  0.89813798054E+03 0.  0.
        -24    2    4    4    0    0  0.90742555943E+02 -0.72682918134E+03  0.81168464589E+03  0.10967802565E+04  0.87063749225E+02 0.  0.
         24    2    4    4    0    0  0.24546180774E+03  0.15481030583E+02 -0.11803004696E+03  0.28411007237E+03  0.79349101268E+02 0.  0.
         11    1    3    3    0    0 -0.32578269591E+02  0.11562716453E+03 -0.53204232209E+02  0.13138369439E+03  0.00000000000E+00 0. -1.
        -11    1    3    3    0    0 -0.30362609409E+03  0.59572098623E+03 -0.11698656281E+03  0.67879168699E+03  0.00000000000E+00 0.  1.
          4    1    6    6  502    0  0.92561349414E+02 -0.20384312096E+02 -0.76123950510E+02  0.12156471292E+03  0.00000000000E+00 0. -1.
          1    1    5    5  503    0  0.18477604586E+02 -0.24734490206E+03  0.21784887748E+03  0.33011975988E+03  0.00000000000E+00 0. -1.
         -2    1    5    5    0  503  0.72264951356E+02 -0.47948427928E+03  0.59383576841E+03  0.76666049665E+03  0.00000000000E+00 0.  1.
         -3    1    6    6    0  502  0.15290045832E+03  0.35865342679E+02 -0.41906096450E+02  0.16254535946E+03  0.00000000000E+00 0.  1.
<mgrwt>
<rscale>  0 0.21276171E+04</rscale>
<asrwt>0</asrwt>
<pdfrwt beam="1">  1        2 0.20880996E+00 0.21276171E+04</pdfrwt>
<pdfrwt beam="2">  1       -2 0.12827707E+00 0.21276171E+04</pdfrwt>
<totfact> 0.63261452E+00</totfact>
</mgrwt>
</event>
<event>
12    1  0.2214165E-007  0.1683042E+04  0.7818608E-02  0.8771096E-01
         -1   -1    0    0    0  501 -0.00000000000E+00  0.00000000000E+00  0.44420966562E+03  0.44420966562E+03  0.00000000000E+00 0.  1.
          1   -1    0    0  501    0  0.00000000000E+00 -0.00000000000E+00 -0.15941965304E+04  0.15941965304E+04  0.00000000000E+00 0. -1.
         23    2    1    2    0    0  0.42548230073E+03 -0.20438029610E+03 -0.85439216184E+03  0.97963985657E+03  0.83077004520E+02 0.  0.
        254    2    1    2    0    0 -0.42548230073E+03  0.20438029610E+03 -0.29559470292E+03  0.10587663394E+04  0.90044624463E+03 0.  0.
        -24    2    4    4    0    0 -0.61572527971E+03 -0.11675212723E+03 -0.14482873079E+03  0.64804581316E+03  0.78989463874E+02 0.  0.
         24    2    4    4    0    0  0.19024297898E+03  0.32113242334E+03 -0.15076597213E+03  0.41072052628E+03  0.81501828106E+02 0.  0.
         11    1    3    3    0    0  0.27986698452E+03 -0.95356293326E+02 -0.48811775123E+03  0.57068142669E+03  0.00000000000E+00 0.  1.
        -11    1    3    3    0    0  0.14561531621E+03 -0.10902400278E+03 -0.36627441062E+03  0.40895842988E+03  0.00000000000E+00 0. -1.
          4    1    6    6  502    0  0.17618216537E+03  0.29579149699E+03 -0.11144540190E+03  0.36187407022E+03  0.00000000000E+00 0. -1.
          3    1    5    5  503    0 -0.15869960765E+03 -0.18873042768E+02 -0.70928577982E+02  0.17485027991E+03  0.00000000000E+00 0. -1.
         -4    1    5    5    0  503 -0.45702567207E+03 -0.97879084466E+02 -0.73900152811E+02  0.47319553325E+03  0.00000000000E+00 0.  1.
         -3    1    6    6    0  502  0.14060813606E+02  0.25340926346E+02 -0.39320570220E+02  0.48846456062E+02  0.00000000000E+00 0.  1.
<mgrwt>
<rscale>  0 0.16830419E+04</rscale>
<asrwt>0</asrwt>
<pdfrwt beam="1">  1        1 0.24526100E+00 0.16830419E+04</pdfrwt>
<pdfrwt beam="2">  1       -1 0.68339950E-01 0.16830419E+04</pdfrwt>
<totfact> 0.11631002E+01</totfact>
</mgrwt>
</event>
<event>
12    1  0.2214165E-007  0.1298976E+04  0.7818608E-02  0.9030378E-01
          2   -1    0    0  501    0  0.00000000000E+00  0.00000000000E+00  0.26328328651E+03  0.26328328651E+03  0.00000000000E+00 0. -1.
         -2   -1    0    0    0  501 -0.00000000000E+00 -0.00000000000E+00 -0.16022071233E+04  0.16022071233E+04  0.00000000000E+00 0.  1.
         23    2    1    2    0    0 -0.26098227950E+03 -0.12720011793E+03 -0.56770744544E+03  0.64385249458E+03  0.89233799362E+02 0.  0.
        254    2    1    2    0    0  0.26098227950E+03  0.12720011793E+03 -0.77121639132E+03  0.12216379152E+04  0.90184968449E+03 0.  0.
        -24    2    4    4    0    0 -0.10057577063E+03  0.30023573902E+02 -0.82463400793E+03  0.83498182518E+03  0.78463371813E+02 0.  0.
         24    2    4    4    0    0  0.36155805013E+03  0.97176544029E+02  0.53417616615E+02  0.38665609003E+03  0.80510781057E+02 0.  0.
         11    1    3    3    0    0 -0.47919501501E+01 -0.18690759179E+02 -0.12953291336E+02  0.23239944521E+02  0.00000000000E+00 0.  1.
        -11    1    3    3    0    0 -0.25619032935E+03 -0.10850935875E+03 -0.55475415410E+03  0.62061255005E+03  0.00000000000E+00 0. -1.
          4    1    6    6  502    0  0.22706067387E+03  0.43744777993E+02 -0.31865963340E+01  0.23125810173E+03  0.00000000000E+00 0. -1.
          3    1    5    5  503    0 -0.11291893961E+03  0.20242366611E+02 -0.74803894733E+03  0.75678445217E+03  0.00000000000E+00 0. -1.
         -4    1    5    5    0  503  0.12343168982E+02  0.97812072909E+01 -0.76595060602E+02  0.78197373008E+02  0.00000000000E+00 0.  1.
         -3    1    6    6    0  502  0.13449737626E+03  0.53431766036E+02  0.56604212950E+02  0.15539798829E+03  0.00000000000E+00 0.  1.
<mgrwt>
<rscale>  0 0.12989755E+04</rscale>
<asrwt>0</asrwt>
<pdfrwt beam="1">  1        2 0.40505120E-01 0.12989755E+04</pdfrwt>
<pdfrwt beam="2">  1       -2 0.24649341E+00 0.12989755E+04</pdfrwt>
<totfact> 0.84223184E+00</totfact>
</mgrwt>
</event>
<event>
12    1  0.2214165E-007  0.1431550E+04  0.7818608E-02  0.8931292E-01
          1   -1    0    0  501    0  0.00000000000E+00  0.00000000000E+00  0.17856926909E+04  0.17856926909E+04  0.00000000000E+00 0. -1.
         -1   -1    0    0    0  501 -0.00000000000E+00 -0.00000000000E+00 -0.28691053350E+03  0.28691053350E+03  0.00000000000E+00 0.  1.
         23    2    1    2    0    0 -0.20520865982E+03  0.35692769810E+03  0.29010195243E+03  0.51149319175E+03  0.89208557103E+02 0.  0.
        254    2    1    2    0    0  0.20520865982E+03 -0.35692769810E+03  0.12086802050E+04  0.15611100327E+04  0.89813624825E+03 0.  0.
        -24    2    4    4    0    0  0.51014163353E+03 -0.40073001260E+03  0.93674010215E+03  0.11423036530E+04  0.80910984087E+02 0.  0.
         24    2    4    4    0    0 -0.30493297371E+03  0.43802314492E+02  0.27194010286E+03  0.41880637972E+03  0.80898720264E+02 0.  0.
         13    1    3    3    0    0 -0.41262920560E+02  0.19434270061E+02  0.39046726000E+02  0.60041371381E+02  0.00000000000E+00 0. -1.
        -13    1    3    3    0    0 -0.16394573926E+03  0.33749342804E+03  0.25105522643E+03  0.45145182037E+03  0.00000000000E+00 0.  1.
          4    1    6    6  502    0 -0.23705069683E+02 -0.18961323729E+02  0.26672369125E+02  0.40408877749E+02  0.00000000000E+00 0. -1.
          1    1    5    5  503    0  0.99683895941E+02 -0.44067834733E+02  0.18070899914E+03  0.21103221445E+03  0.00000000000E+00 0. -1.
         -2    1    5    5    0  503  0.41045773759E+03 -0.35666217786E+03  0.75603110301E+03  0.93127143851E+03  0.00000000000E+00 0.  1.
         -3    1    6    6    0  502 -0.28122790403E+03  0.62763638221E+02  0.24526773373E+03  0.37839750197E+03  0.00000000000E+00 0.  1.
<mgrwt>
<rscale>  0 0.14315503E+04</rscale>
<asrwt>0</asrwt>
<pdfrwt beam="1">  1        1 0.27472194E+00 0.14315503E+04</pdfrwt>
<pdfrwt beam="2">  1       -1 0.44140083E-01 0.14315503E+04</pdfrwt>
<totfact> 0.20579800E+01</totfact>
</mgrwt>
</event>
<event>
12    1  0.2214165E-007  0.1285351E+04  0.7818608E-02  0.9041263E-01
         -1   -1    0    0    0  501 -0.00000000000E+00  0.00000000000E+00  0.35862470480E+03  0.35862470480E+03  0.00000000000E+00 0.  1.
          1   -1    0    0  501    0  0.00000000000E+00 -0.00000000000E+00 -0.11517099037E+04  0.11517099037E+04  0.00000000000E+00 0. -1.
         23    2    1    2    0    0 -0.23728345586E+03  0.13890044856E+03 -0.38987969377E+03  0.48586197703E+03  0.91972344088E+02 0.  0.
        254    2    1    2    0    0  0.23728345586E+03 -0.13890044856E+03 -0.40320550511E+03  0.10244726315E+04  0.90076229950E+03 0.  0.
        -24    2    4    4    0    0  0.53999501974E+03 -0.52802294516E+02 -0.43078690288E+03  0.69726341438E+03  0.78842943198E+02 0.  0.
         24    2    4    4    0    0 -0.30271156388E+03 -0.86098154046E+02  0.27581397762E+02  0.32720921707E+03  0.85193633553E+02 0.  0.
         11    1    3    3    0    0 -0.51435560627E+02  0.39943816039E+02 -0.36889503525E+02  0.74846247782E+02  0.00000000000E+00 0.  1.
        -11    1    3    3    0    0 -0.18584789523E+03  0.98956632523E+02 -0.35299019024E+03  0.41101572925E+03  0.00000000000E+00 0. -1.
          2    1    6    6  502    0 -0.10256438225E+03 -0.40961383396E+01 -0.22747892954E+02  0.10513656590E+03  0.00000000000E+00 0. -1.
          3    1    5    5  503    0  0.39809114862E+02 -0.52361998233E-01 -0.89039346249E+01  0.40792749597E+02  0.00000000000E+00 0. -1.
         -4    1    5    5    0  503  0.50018590488E+03 -0.52749932518E+02 -0.42188296825E+03  0.65647066478E+03  0.00000000000E+00 0.  1.
         -1    1    6    6    0  502 -0.20014718163E+03 -0.82002015707E+02  0.50329290717E+02  0.22207265117E+03  0.00000000000E+00 0.  1.
<mgrwt>
<rscale>  0 0.12853507E+04</rscale>
<asrwt>0</asrwt>
<pdfrwt beam="1">  1        1 0.17718614E+00 0.12853507E+04</pdfrwt>
<pdfrwt beam="2">  1       -1 0.55173031E-01 0.12853507E+04</pdfrwt>
<totfact> 0.37878421E+01</totfact>
</mgrwt>
</event>
<event>
12    1  0.2214165E-007  0.1575755E+04  0.7818608E-02  0.8835583E-01
         -1   -1    0    0    0  501 -0.00000000000E+00  0.00000000000E+00  0.90385645787E+03  0.90385645787E+03  0.00000000000E+00 0.  1.
          1   -1    0    0  501    0  0.00000000000E+00 -0.00000000000E+00 -0.68678018240E+03  0.68678018240E+03  0.00000000000E+00 0. -1.
         23    2    1    2    0    0 -0.21686827099E+03 -0.47722586669E+03  0.60938268545E+02  0.53565860706E+03  0.91871083322E+02 0.  0.
        254    2    1    2    0    0  0.21686827099E+03  0.47722586669E+03  0.15613800692E+03  0.10549780332E+04  0.90212149877E+03 0.  0.
        -24    2    4    4    0    0  0.29706432111E+03  0.15533416964E+03  0.47575043835E+03  0.58743935468E+03  0.79816042843E+02 0.  0.
         24    2    4    4    0    0 -0.80196050119E+02  0.32189169704E+03 -0.31961243143E+03  0.46753867853E+03  0.79966483740E+02 0.  0.
         11    1    3    3    0    0 -0.10241399294E+03 -0.26840267349E+03 -0.91585272838E+01  0.28742390247E+03  0.00000000000E+00 0. -1.
        -11    1    3    3    0    0 -0.11445427806E+03 -0.20882319319E+03  0.70096795829E+02  0.24823470460E+03  0.00000000000E+00 0.  1.
          2    1    6    6  502    0  0.75445922034E+01  0.10231037557E+03 -0.73227189211E+02  0.12604187820E+03  0.00000000000E+00 0. -1.
          3    1    5    5  503    0  0.20357125620E+02  0.33710565290E+02  0.82803401087E+02  0.91690882901E+02  0.00000000000E+00 0. -1.
         -4    1    5    5    0  503  0.27670719549E+03  0.12162360435E+03  0.39294703726E+03  0.49574847178E+03  0.00000000000E+00 0.  1.
         -1    1    6    6    0  502 -0.87740642323E+02  0.21958132147E+03 -0.24638524222E+03  0.34149680033E+03  0.00000000000E+00 0.  1.
<mgrwt>
<rscale>  0 0.15757547E+04</rscale>
<asrwt>0</asrwt>
<pdfrwt beam="1">  1        1 0.10565849E+00 0.15757547E+04</pdfrwt>
<pdfrwt beam="2">  1       -1 0.13905484E+00 0.15757547E+04</pdfrwt>
<totfact> 0.11505587E+01</totfact>
</mgrwt>
</event>
<event>
12    1  0.2214165E-007  0.2363310E+04  0.7818608E-02  0.8453369E-01
          2   -1    0    0  501    0  0.00000000000E+00  0.00000000000E+00  0.29799843127E+04  0.29799843127E+04  0.00000000000E+00 0. -1.
         -2   -1    0    0    0  501 -0.00000000000E+00 -0.00000000000E+00 -0.46856238160E+03  0.46856238160E+03  0.00000000000E+00 0.  1.
         23    2    1    2    0    0  0.12836930638E+03 -0.91961343803E+03  0.50442319105E+03  0.10606995343E+04  0.92049944345E+02 0.  0.
        254    2    1    2    0    0 -0.12836930638E+03  0.91961343803E+03  0.20069987400E+04  0.23878471599E+04  0.90088987258E+03 0.  0.
        -24    2    4    4    0    0  0.10035120488E+03  0.10179429660E+04  0.14997448814E+04  0.18170962466E+04  0.79534983655E+02 0.  0.
         24    2    4    4    0    0 -0.22872051126E+03 -0.98329527962E+02  0.50725385861E+03  0.57075091337E+03  0.80426113269E+02 0.  0.
         11    1    3    3    0    0  0.69995032154E+02 -0.75065803458E+03  0.42001150447E+03  0.86301590558E+03  0.00000000000E+00 0. -1.
        -11    1    3    3    0    0  0.58374274226E+02 -0.16895540345E+03  0.84411686580E+02  0.19768362876E+03  0.00000000000E+00 0.  1.
          4    1    6    6  502    0  0.42419933044E+01 -0.25336052531E+01  0.65368924751E+00  0.49840718701E+01  0.00000000000E+00 0. -1.
          3    1    5    5  503    0  0.57975276886E+02  0.25721203924E+03  0.40773680101E+03  0.48555994971E+03  0.00000000000E+00 0. -1.
         -4    1    5    5    0  503  0.42375927994E+02  0.76073092676E+03  0.10920080804E+04  0.13315362969E+04  0.00000000000E+00 0.  1.
         -3    1    6    6    0  502 -0.23296250457E+03 -0.95795922709E+02  0.50660016936E+03  0.56576684150E+03  0.00000000000E+00 0.  1.
<mgrwt>
<rscale>  0 0.23633100E+04</rscale>
<asrwt>0</asrwt>
<pdfrwt beam="1">  1        2 0.45845911E+00 0.23633100E+04</pdfrwt>
<pdfrwt beam="2">  1       -2 0.72086522E-01 0.23633100E+04</pdfrwt>
<totfact> 0.28187762E+00</totfact>
</mgrwt>
</event>
<event>
12    1  0.2214165E-007  0.2192516E+04  0.7818608E-02  0.8521550E-01
          2   -1    0    0  501    0  0.00000000000E+00  0.00000000000E+00  0.17737074542E+04  0.17737074542E+04  0.00000000000E+00 0. -1.
         -2   -1    0    0    0  501 -0.00000000000E+00 -0.00000000000E+00 -0.67755348063E+03  0.67755348063E+03  0.00000000000E+00 0.  1.
         23    2    1    2    0    0 -0.11131829523E+03 -0.66198595991E+03  0.11418316791E+04  0.13276371376E+04  0.90684131184E+02 0.  0.
        254    2    1    2    0    0  0.11131829523E+03  0.66198595991E+03 -0.45677705529E+02  0.11236237973E+04  0.89990377878E+03 0.  0.
        -24    2    4    4    0    0  0.47159034715E+03  0.25782930490E+03 -0.15761530247E+03  0.56505608934E+03  0.74648473084E+02 0.  0.
         24    2    4    4    0    0 -0.36027205192E+03  0.40415665501E+03  0.11193759694E+03  0.55856770794E+03  0.79556932840E+02 0.  0.
         13    1    3    3    0    0 -0.97760329405E+02 -0.42609582792E+03  0.80745264514E+03  0.91820178105E+03  0.00000000000E+00 0. -1.
        -13    1    3    3    0    0 -0.13557965827E+02 -0.23589013199E+03  0.33437903400E+03  0.40943535654E+03  0.00000000000E+00 0.  1.
          2    1    6    6  502    0 -0.35755474020E+03  0.37684437720E+03  0.10213702476E+03  0.52942331710E+03  0.00000000000E+00 0. -1.
          1    1    5    5  503    0  0.37991442412E+03  0.21575968687E+03 -0.15678101226E+03  0.46418476702E+03  0.00000000000E+00 0. -1.
         -2    1    5    5    0  503  0.91675923035E+02  0.42069618025E+02 -0.83429020728E+00  0.10087132231E+03  0.00000000000E+00 0.  1.
         -1    1    6    6    0  502 -0.27173117206E+01  0.27312277819E+02  0.98005721781E+01  0.29144390844E+02  0.00000000000E+00 0.  1.
<mgrwt>
<rscale>  0 0.21925161E+04</rscale>
<asrwt>0</asrwt>
<pdfrwt beam="1">  1        2 0.27287807E+00 0.21925161E+04</pdfrwt>
<pdfrwt beam="2">  1       -2 0.10423900E+00 0.21925161E+04</pdfrwt>
<totfact> 0.61054582E+00</totfact>
</mgrwt>
</event>
<event>
12    1  0.2214165E-007  0.2814321E+04  0.7818608E-02  0.8298836E-01
          2   -1    0    0  501    0  0.00000000000E+00  0.00000000000E+00  0.11581489674E+04  0.11581489674E+04  0.00000000000E+00 0. -1.
         -2   -1    0    0    0  501 -0.00000000000E+00 -0.00000000000E+00 -0.17097120943E+04  0.17097120943E+04  0.00000000000E+00 0.  1.
         23    2    1    2    0    0 -0.30941172256E+03  0.12149563346E+04 -0.38801224230E+03  0.13154855557E+04  0.89967983233E+02 0.  0.
        254    2    1    2    0    0  0.30941172256E+03 -0.12149563346E+04 -0.16355088461E+03  0.15523755060E+04  0.90070323128E+03 0.  0.
        -24    2    4    4    0    0 -0.26090197821E+03 -0.48628406058E+03 -0.26596753221E+03  0.61775011627E+03  0.79589246447E+02 0.  0.
         24    2    4    4    0    0  0.57031370077E+03 -0.72867227403E+03  0.10241664760E+03  0.93462538978E+03  0.82549677631E+02 0.  0.
         11    1    3    3    0    0 -0.30394061137E+03  0.11275650875E+04 -0.34363567853E+03  0.12173201721E+04  0.00000000000E+00 0. -1.
        -11    1    3    3    0    0 -0.54711111898E+01  0.87391247108E+02 -0.44376563770E+02  0.98165383618E+02  0.00000000000E+00 0.  1.
          4    1    6    6  502    0  0.24124368925E+03 -0.29923792901E+03  0.83155863485E+02  0.39326422847E+03  0.00000000000E+00 0. -1.
          1    1    5    5  503    0 -0.12637565987E+02 -0.51064894369E+02 -0.48467685894E+02  0.71529351227E+02  0.00000000000E+00 0. -1.
         -2    1    5    5    0  503 -0.24826441222E+03 -0.43521916621E+03 -0.21749984632E+03  0.54622076504E+03  0.00000000000E+00 0.  1.
         -3    1    6    6    0  502  0.32907001152E+03 -0.42943434502E+03  0.19260784118E+02  0.54136116130E+03  0.00000000000E+00 0.  1.
<mgrwt>
<rscale>  0 0.28143214E+04</rscale>
<asrwt>0</asrwt>
<pdfrwt beam="1">  1        2 0.17817676E+00 0.28143214E+04</pdfrwt>
<pdfrwt beam="2">  1       -2 0.26303263E+00 0.28143214E+04</pdfrwt>
<totfact> 0.93262598E-01</totfact>
</mgrwt>
</event>
<event>
12    1  0.2214165E-007  0.2069679E+04  0.7818608E-02  0.8574719E-01
         -2   -1    0    0    0  501 -0.00000000000E+00  0.00000000000E+00  0.11151370642E+04  0.11151370642E+04  0.00000000000E+00 0.  1.
          2   -1    0    0  501    0  0.00000000000E+00 -0.00000000000E+00 -0.96032413833E+03  0.96032413833E+03  0.00000000000E+00 0. -1.
         23    2    1    2    0    0  0.50297861100E+03 -0.60633252356E+03  0.34868817929E+03  0.86610402052E+03  0.89028735448E+02 0.  0.
        254    2    1    2    0    0 -0.50297861100E+03  0.60633252356E+03 -0.19387525342E+03  0.12093571820E+04  0.89684478452E+03 0.  0.
        -24    2    4    4    0    0 -0.43265789181E+02  0.20687883354E+03  0.33144892981E+03  0.40106244625E+03  0.79510454900E+02 0.  0.
         24    2    4    4    0    0 -0.45971282182E+03  0.39945369002E+03 -0.52532418323E+03  0.80829473575E+03  0.80472065600E+02 0.  0.
         13    1    3    3    0    0  0.53444310069E+02 -0.90586803279E+02  0.19908690826E+02  0.10704493999E+03  0.00000000000E+00 0. -1.
        -13    1    3    3    0    0  0.44953430093E+03 -0.51574572028E+03  0.32877948846E+03  0.75905908053E+03  0.00000000000E+00 0.  1.
          4    1    6    6  502    0 -0.31148544407E+03  0.30184566899E+03 -0.33491597703E+03  0.54799881517E+03  0.00000000000E+00 0. -1.
          3    1    5    5  503    0 -0.66033015599E+02  0.16437804705E+03  0.27060558644E+03  0.32343142227E+03  0.00000000000E+00 0. -1.
         -2    1    5    5    0  503  0.22767226418E+02  0.42500786494E+02  0.60843343374E+02  0.77631023980E+02  0.00000000000E+00 0.  1.
         -3    1    6    6    0  502 -0.14822737775E+03  0.97608021025E+02 -0.19040820620E+03  0.26029592058E+03  0.00000000000E+00 0.  1.
<mgrwt>
<rscale>  0 0.20696792E+04</rscale>
<asrwt>0</asrwt>
<pdfrwt beam="1">  1        2 0.14774218E+00 0.20696792E+04</pdfrwt>
<pdfrwt beam="2">  1       -2 0.17155955E+00 0.20696792E+04</pdfrwt>
<totfact> 0.51290812E+00</totfact>
</mgrwt>
</event>
<event>
12    1  0.2346261E-007  0.1846037E+04  0.7818608E-02  0.8682193E-01
          1   -1    0    0  501    0  0.00000000000E+00  0.00000000000E+00  0.15216793230E+04  0.15216793230E+04  0.00000000000E+00 0. -1.
         -1   -1    0    0    0  501 -0.00000000000E+00 -0.00000000000E+00 -0.55988373490E+03  0.55988373490E+03  0.00000000000E+00 0.  1.
         23    2    1    2    0    0  0.17745759528E+03  0.67235561790E+03  0.45138507388E+03  0.83398518473E+03  0.90716748062E+02 0.  0.
        254    2    1    2    0    0 -0.17745759528E+03 -0.67235561790E+03  0.51041051422E+03  0.12475778732E+04  0.90132035458E+03 0.  0.
        -24    2    4    4    0    0  0.28079786037E+03 -0.36014760262E+03 -0.35862371703E+02  0.46492508264E+03  0.79470049100E+02 0.  0.
         24    2    4    4    0    0 -0.45825545565E+03 -0.31220801528E+03  0.54627288592E+03  0.78265279053E+03  0.81605252282E+02 0.  0.
         11    1    3    3    0    0  0.17384339440E+03  0.51987211467E+03  0.36688905859E+03  0.65961816432E+03  0.00000000000E+00 0.  1.
        -11    1    3    3    0    0  0.36142008747E+01  0.15248350323E+03  0.84496015284E+02  0.17436702040E+03  0.00000000000E+00 0. -1.
          4    1    6    6  502    0 -0.15694905989E+03 -0.10582644407E+03  0.13423690101E+03  0.23205988291E+03  0.00000000000E+00 0. -1.
          3    1    5    5  503    0  0.11905124157E+03 -0.99144438580E+02  0.58962302560E+01  0.15504058614E+03  0.00000000000E+00 0. -1.
         -4    1    5    5    0  503  0.16174661880E+03 -0.26100316404E+03 -0.41758601959E+02  0.30988449650E+03  0.00000000000E+00 0.  1.
         -3    1    6    6    0  502 -0.30130639576E+03 -0.20638157121E+03  0.41203598491E+03  0.55059290762E+03  0.00000000000E+00 0.  1.
<mgrwt>
<rscale>  0 0.18460374E+04</rscale>
<asrwt>0</asrwt>
<pdfrwt beam="1">  1        1 0.23410451E+00 0.18460374E+04</pdfrwt>
<pdfrwt beam="2">  1       -1 0.86135960E-01 0.18460374E+04</pdfrwt>
<totfact> 0.78996747E+00</totfact>
</mgrwt>
</event>
<event>
12    1  0.2214165E-007  0.2453950E+04  0.7818608E-02  0.8419577E-01
          2   -1    0    0  501    0  0.00000000000E+00  0.00000000000E+00  0.17007740197E+04  0.17007740197E+04  0.00000000000E+00 0. -1.
         -2   -1    0    0    0  501 -0.00000000000E+00 -0.00000000000E+00 -0.88516613920E+03  0.88516613920E+03  0.00000000000E+00 0.  1.
         23    2    1    2    0    0 -0.56342704361E+03  0.69622469324E+03  0.95111390871E+03  0.13097175194E+04  0.92538945396E+02 0.  0.
        254    2    1    2    0    0  0.56342704361E+03 -0.69622469324E+03 -0.13550602825E+03  0.12762226394E+04  0.89900138194E+03 0.  0.
        -24    2    4    4    0    0  0.64432498039E+03 -0.72895368024E+03  0.13075412507E+03  0.98489319032E+03  0.79936267294E+02 0.  0.
         24    2    4    4    0    0 -0.80897936782E+02  0.32728987002E+02 -0.26626015333E+03  0.29132944910E+03  0.79766633974E+02 0.  0.
         13    1    3    3    0    0 -0.17417887914E+03  0.28103475551E+03  0.37384731756E+03  0.49907978579E+03  0.00000000000E+00 0. -1.
        -13    1    3    3    0    0 -0.38924816447E+03  0.41518993772E+03  0.57726659116E+03  0.81063773364E+03  0.00000000000E+00 0.  1.
          2    1    6    6  502    0 -0.84036233094E+02  0.62302499937E+01 -0.23792841401E+03  0.25241005265E+03  0.00000000000E+00 0. -1.
          3    1    5    5  503    0  0.20396862917E+03 -0.18666934704E+03  0.15861750985E+02  0.27694808531E+03  0.00000000000E+00 0. -1.
         -4    1    5    5    0  503  0.44035635122E+03 -0.54228433320E+03  0.11489237409E+03  0.70794510502E+03  0.00000000000E+00 0.  1.
         -1    1    6    6    0  502  0.31382963123E+01  0.26498737008E+02 -0.28331739320E+02  0.38919396445E+02  0.00000000000E+00 0.  1.
<mgrwt>
<rscale>  0 0.24539499E+04</rscale>
<asrwt>0</asrwt>
<pdfrwt beam="1">  1        2 0.26165754E+00 0.24539499E+04</pdfrwt>
<pdfrwt beam="2">  1       -2 0.13617941E+00 0.24539499E+04</pdfrwt>
<totfact> 0.33845708E+00</totfact>
</mgrwt>
</event>
<event>
12    1  0.2214165E-007  0.3704377E+04  0.7818608E-02  0.8066993E-01
         -2   -1    0    0    0  501 -0.00000000000E+00  0.00000000000E+00  0.12655197996E+04  0.12655197996E+04  0.00000000000E+00 0.  1.
          2   -1    0    0  501    0  0.00000000000E+00 -0.00000000000E+00 -0.27108244172E+04  0.27108244172E+04  0.00000000000E+00 0. -1.
         23    2    1    2    0    0  0.96598344712E+03  0.14159902168E+04 -0.10109863138E+04  0.19919277162E+04  0.86777794663E+02 0.  0.
        254    2    1    2    0    0 -0.96598344712E+03 -0.14159902168E+04 -0.43431830378E+03  0.19844165006E+04  0.90062430841E+03 0.  0.
        -24    2    4    4    0    0 -0.60729343040E+03 -0.47908555871E+03  0.18960192391E+03  0.80032566578E+03  0.79018976071E+02 0.  0.
         24    2    4    4    0    0 -0.35869001671E+03 -0.93690465807E+03 -0.62392022769E+03  0.11840908349E+04  0.79660456181E+02 0.  0.
         13    1    3    3    0    0  0.36779724619E+03  0.55695167227E+03 -0.44160691032E+03  0.80030409395E+03  0.00000000000E+00 0. -1.
        -13    1    3    3    0    0  0.59818620093E+03  0.85903854450E+03 -0.56937940345E+03  0.11916236222E+04  0.00000000000E+00 0.  1.
          2    1    6    6  502    0 -0.13893529610E+03 -0.26664966229E+03 -0.20068381372E+03  0.36149557672E+03  0.00000000000E+00 0. -1.
          3    1    5    5  503    0 -0.59284664380E+02 -0.59685826561E+02 -0.19708556900E+01  0.84148402213E+02  0.00000000000E+00 0. -1.
         -4    1    5    5    0  503 -0.54800876602E+03 -0.41939973214E+03  0.19157277960E+03  0.71617726356E+03  0.00000000000E+00 0.  1.
         -1    1    6    6    0  502 -0.21975472061E+03 -0.67025499578E+03 -0.42323641397E+03  0.82259525814E+03  0.00000000000E+00 0.  1.
<mgrwt>
<rscale>  0 0.37043769E+04</rscale>
<asrwt>0</asrwt>
<pdfrwt beam="1">  1        2 0.41704990E+00 0.37043769E+04</pdfrwt>
<pdfrwt beam="2">  1       -2 0.19469536E+00 0.37043769E+04</pdfrwt>
<totfact> 0.30477840E-01</totfact>
</mgrwt>
</event>
<event>
12    1  0.2214165E-007  0.3079212E+04  0.7818608E-02  0.8221466E-01
          2   -1    0    0  501    0  0.00000000000E+00  0.00000000000E+00  0.28027458655E+04  0.28027458655E+04  0.00000000000E+00 0. -1.
         -2   -1    0    0    0  501 -0.00000000000E+00 -0.00000000000E+00 -0.84573704387E+03  0.84573704387E+03  0.00000000000E+00 0.  1.
         23    2    1    2    0    0  0.88190522903E+03  0.10093608791E+04  0.39032437583E+03  0.13988064103E+04  0.87977484967E+02 0.  0.
        254    2    1    2    0    0 -0.88190522903E+03 -0.10093608791E+04  0.15666844458E+04  0.22496764991E+04  0.89998776695E+03 0.  0.
        -24    2    4    4    0    0 -0.80487399804E+03 -0.10186501089E+04  0.91906422029E+03  0.15926234993E+04  0.79374886697E+02 0.  0.
         24    2    4    4    0    0 -0.77031230992E+02  0.92892297725E+01  0.64762022550E+03  0.65705299975E+03  0.79288004563E+02 0.  0.
         11    1    3    3    0    0  0.64131372685E+03  0.79119134730E+03  0.29510318124E+03  0.10603550971E+04  0.00000000000E+00 0.  1.
        -11    1    3    3    0    0  0.24059150218E+03  0.21816953178E+03  0.95221194592E+02  0.33845131322E+03  0.00000000000E+00 0. -1.
          2    1    6    6  502    0 -0.26017327164E+01  0.15365596751E+02  0.34511183979E+03  0.34546353287E+03  0.00000000000E+00 0. -1.
          3    1    5    5  503    0 -0.21794166152E+03 -0.25089549504E+03  0.27381894337E+03  0.43060879114E+03  0.00000000000E+00 0. -1.
         -4    1    5    5    0  503 -0.58693233652E+03 -0.76775461382E+03  0.64524527693E+03  0.11620147082E+04  0.00000000000E+00 0.  1.
         -1    1    6    6    0  502 -0.74429498275E+02 -0.60763669786E+01  0.30250838570E+03  0.31158946688E+03  0.00000000000E+00 0.  1.
<mgrwt>
<rscale>  0 0.30792116E+04</rscale>
<asrwt>0</asrwt>
<pdfrwt beam="1">  1        2 0.43119167E+00 0.30792116E+04</pdfrwt>
<pdfrwt beam="2">  1       -2 0.13011339E+00 0.30792116E+04</pdfrwt>
<totfact> 0.84856793E-01</totfact>
</mgrwt>
</event>
<event>
12    1  0.2214165E-007  0.2050252E+04  0.7818608E-02  0.8583480E-01
          2   -1    0    0  501    0  0.00000000000E+00  0.00000000000E+00  0.57301611170E+03  0.57301611170E+03  0.00000000000E+00 0. -1.
         -2   -1    0    0    0  501 -0.00000000000E+00 -0.00000000000E+00 -0.18339512304E+04  0.18339512304E+04  0.00000000000E+00 0.  1.
         23    2    1    2    0    0 -0.64371064077E+03  0.38854316628E+03 -0.89820147185E+03  0.11750866928E+04  0.93454108746E+02 0.  0.
        254    2    1    2    0    0  0.64371064077E+03 -0.38854316628E+03 -0.36273364690E+03  0.12318806494E+04  0.90588357672E+03 0.  0.
        -24    2    4    4    0    0  0.44646465805E+03 -0.17809806229E+03 -0.65306807813E+03  0.81488150255E+03  0.80525386308E+02 0.  0.
         24    2    4    4    0    0  0.19724598271E+03 -0.21044510399E+03  0.29033443123E+03  0.41699914681E+03  0.80006793408E+02 0.  0.
         13    1    3    3    0    0 -0.23253776579E+03  0.16854084026E+03 -0.28386029333E+03  0.40380254269E+03  0.00000000000E+00 0. -1.
        -13    1    3    3    0    0 -0.41117287498E+03  0.22000232602E+03 -0.61434117852E+03  0.77128415010E+03  0.00000000000E+00 0.  1.
          4    1    6    6  502    0  0.12401791612E+03 -0.18123733322E+03  0.19915968686E+03  0.29646584178E+03  0.00000000000E+00 0. -1.
          1    1    5    5  503    0  0.39047162695E+03 -0.12544311547E+03 -0.56146522392E+03  0.69530372093E+03  0.00000000000E+00 0. -1.
         -2    1    5    5    0  503  0.55993031106E+02 -0.52654946817E+02 -0.91602854209E+02  0.11957778161E+03  0.00000000000E+00 0.  1.
         -3    1    6    6    0  502  0.73228066594E+02 -0.29207770769E+02  0.91174744364E+02  0.12053330503E+03  0.00000000000E+00 0.  1.
<mgrwt>
<rscale>  0 0.20502523E+04</rscale>
<asrwt>0</asrwt>
<pdfrwt beam="1">  1        2 0.88156325E-01 0.20502523E+04</pdfrwt>
<pdfrwt beam="2">  1       -2 0.28214634E+00 0.20502523E+04</pdfrwt>
<totfact> 0.19830089E+00</totfact>
</mgrwt>
</event>
<event>
12    1  0.2214165E-007  0.2675660E+04  0.7818608E-02  0.8342946E-01
         -2   -1    0    0    0  501 -0.00000000000E+00  0.00000000000E+00  0.29482376200E+04  0.29482376200E+04  0.00000000000E+00 0.  1.
          2   -1    0    0  501    0  0.00000000000E+00 -0.00000000000E+00 -0.60707086252E+03  0.60707086252E+03  0.00000000000E+00 0. -1.
         23    2    1    2    0    0  0.50449970439E+03 -0.10323110959E+04  0.14115833686E+04  0.18223246965E+04  0.90075205080E+02 0.  0.
        254    2    1    2    0    0 -0.50449970439E+03  0.10323110959E+04  0.92958338885E+03  0.17329837860E+04  0.90494274696E+03 0.  0.
        -24    2    4    4    0    0 -0.51008384957E+03  0.10106895529E+03  0.37663920251E+03  0.64703175518E+03  0.79953336549E+02 0.  0.
         24    2    4    4    0    0  0.55841451840E+01  0.93124214059E+03  0.55294418634E+03  0.10859520308E+04  0.79381565403E+02 0.  0.
         11    1    3    3    0    0  0.18963679389E+03 -0.36428936074E+03  0.43937110345E+03  0.60142814907E+03  0.00000000000E+00 0. -1.
        -11    1    3    3    0    0  0.31486291050E+03 -0.66802173514E+03  0.97221226516E+03  0.12208965474E+04  0.00000000000E+00 0.  1.
          2    1    6    6  502    0  0.42291762659E+02  0.54895033658E+03  0.32806657672E+03  0.64090774998E+03  0.00000000000E+00 0. -1.
          3    1    5    5  503    0 -0.56998812545E+02  0.89032369766E+01  0.76416199133E+02  0.95747416414E+02  0.00000000000E+00 0. -1.
         -4    1    5    5    0  503 -0.45308503703E+03  0.92165718313E+02  0.30022300338E+03  0.55128433876E+03  0.00000000000E+00 0.  1.
         -1    1    6    6    0  502 -0.36707617475E+02  0.38229180401E+03  0.22487760962E+03  0.44504428083E+03  0.00000000000E+00 0.  1.
<mgrwt>
<rscale>  0 0.26756600E+04</rscale>
<asrwt>0</asrwt>
<pdfrwt beam="1">  1        2 0.93395519E-01 0.26756600E+04</pdfrwt>
<pdfrwt beam="2">  1       -2 0.45357501E+00 0.26756600E+04</pdfrwt>
<totfact> 0.14108660E-01</totfact>
</mgrwt>
</event>
<event>
12    1  0.2214165E-007  0.1518961E+04  0.7818608E-02  0.8871941E-01
         -1   -1    0    0    0  501 -0.00000000000E+00  0.00000000000E+00  0.30555872156E+03  0.30555872156E+03  0.00000000000E+00 0.  1.
          1   -1    0    0  501    0  0.00000000000E+00 -0.00000000000E+00 -0.18877245139E+04  0.18877245139E+04  0.00000000000E+00 0. -1.
         23    2    1    2    0    0 -0.42364012997E+03 -0.19686757776E+03 -0.32176405725E+03  0.57470186504E+03  0.92316424596E+02 0.  0.
        254    2    1    2    0    0  0.42364012997E+03  0.19686757776E+03 -0.12604017351E+04  0.16185813704E+04  0.90164589278E+03 0.  0.
        -24    2    4    4    0    0  0.66833984584E+03  0.30168335752E+03 -0.92472422101E+03  0.11828846796E+04  0.80064240684E+02 0.  0.
         24    2    4    4    0    0 -0.24469971587E+03 -0.10481577976E+03 -0.33567751409E+03  0.43569669080E+03  0.79296369880E+02 0.  0.
         13    1    3    3    0    0 -0.21227603608E+03 -0.14788854381E+03 -0.16178451250E+03  0.30513335670E+03  0.00000000000E+00 0.  1.
        -13    1    3    3    0    0 -0.21136409389E+03 -0.48979033949E+02 -0.15997954475E+03  0.26956850834E+03  0.00000000000E+00 0. -1.
          4    1    6    6  502    0 -0.22107044852E+03 -0.98962318626E+02 -0.25617076821E+03  0.35254665819E+03  0.00000000000E+00 0. -1.
          1    1    5    5  503    0  0.54434365918E+03  0.21565557938E+03 -0.70696859053E+03  0.91794440801E+03  0.00000000000E+00 0. -1.
         -4    1    5    5    0  503  0.12399618666E+03  0.86027778137E+02 -0.21775563048E+03  0.26494027162E+03  0.00000000000E+00 0.  1.
         -3    1    6    6    0  502 -0.23629267352E+02 -0.58534611325E+01 -0.79506745877E+02  0.83150032608E+02  0.00000000000E+00 0.  1.
<mgrwt>
<rscale>  0 0.15189611E+04</rscale>
<asrwt>0</asrwt>
<pdfrwt beam="1">  1        1 0.29041916E+00 0.15189611E+04</pdfrwt>
<pdfrwt beam="2">  1       -1 0.47009033E-01 0.15189611E+04</pdfrwt>
<totfact> 0.15482315E+01</totfact>
</mgrwt>
</event>
<event>
12    1  0.2214165E-007  0.1593469E+04  0.7818608E-02  0.8824570E-01
         -1   -1    0    0    0  501 -0.00000000000E+00  0.00000000000E+00  0.57769360647E+03  0.57769360647E+03  0.00000000000E+00 0. -1.
          1   -1    0    0  501    0  0.00000000000E+00 -0.00000000000E+00 -0.10988282641E+04  0.10988282641E+04  0.00000000000E+00 0.  1.
         23    2    1    2    0    0  0.19805025272E+03 -0.41947795324E+03 -0.46583454131E+03  0.66373187943E+03  0.91392187996E+02 0.  0.
        254    2    1    2    0    0 -0.19805025272E+03  0.41947795324E+03 -0.55300116341E+02  0.10127899912E+04  0.89860993066E+03 0.  0.
        -24    2    4    4    0    0  0.85852881169E+02  0.29752882845E+02  0.35485203404E+03  0.37488438607E+03  0.79764563649E+02 0.  0.
         24    2    4    4    0    0 -0.28390313389E+03  0.38972507040E+03 -0.41015215038E+03  0.63790560510E+03  0.78817222867E+02 0.  0.
         11    1    3    3    0    0  0.53351402590E+02 -0.10482730586E+03 -0.66429054937E+02  0.13508499380E+03  0.00000000000E+00 0. -1.
        -11    1    3    3    0    0  0.14469885013E+03 -0.31465064739E+03 -0.39940548638E+03  0.52864688562E+03  0.00000000000E+00 0.  1.
          2    1    6    6  502    0 -0.22329098285E+03  0.28494512550E+03 -0.34662570130E+03  0.50120052312E+03  0.00000000000E+00 0. -1.
          1    1    5    5  503    0  0.60491290007E+02  0.13210210819E+02  0.32986576011E+03  0.33562646726E+03  0.00000000000E+00 0. -1.
         -2    1    5    5    0  503  0.25361591162E+02  0.16542672026E+02  0.24986273935E+02  0.39257918809E+02  0.00000000000E+00 0.  1.
         -1    1    6    6    0  502 -0.60612151041E+02  0.10477994490E+03 -0.63526449079E+02  0.13670508198E+03  0.00000000000E+00 0.  1.
<mgrwt>
<rscale>  0 0.15934693E+04</rscale>
<asrwt>0</asrwt>
<pdfrwt beam="1">  1        1 0.16905050E+00 0.15934693E+04</pdfrwt>
<pdfrwt beam="2">  1       -1 0.88875941E-01 0.15934693E+04</pdfrwt>
<totfact> 0.15150009E+01</totfact>
</mgrwt>
</event>
<event>
12    1  0.2214165E-007  0.3899735E+04  0.7818608E-02  0.8025084E-01
          2   -1    0    0  501    0  0.00000000000E+00  0.00000000000E+00  0.31291832438E+04  0.31291832438E+04  0.00000000000E+00 0.  1.
         -2   -1    0    0    0  501 -0.00000000000E+00 -0.00000000000E+00 -0.12150081323E+04  0.12150081323E+04  0.00000000000E+00 0. -1.
         23    2    1    2    0    0 -0.79378202537E+03 -0.10328357079E+04  0.23618273285E+04  0.26987321236E+04  0.89929096030E+02 0.  0.
        254    2    1    2    0    0  0.79378202537E+03  0.10328357079E+04 -0.44765221692E+03  0.16454592525E+04  0.90016895125E+03 0.  0.
        -24    2    4    4    0    0  0.49630810928E+03  0.29778218776E+03 -0.59623310538E+03  0.83473962674E+03  0.79374793288E+02 0.  0.
         24    2    4    4    0    0  0.29747391610E+03  0.73505352018E+03  0.14858088847E+03  0.81071962572E+03  0.79972638016E+02 0.  0.
         13    1    3    3    0    0 -0.79219377375E+02 -0.70608699521E+02  0.16373132148E+03  0.19511341274E+03  0.00000000000E+00 0. -1.
        -13    1    3    3    0    0 -0.71456264800E+03 -0.96222700842E+03  0.21980960070E+04  0.25036187109E+04  0.00000000000E+00 0.  1.
          4    1    6    6  502    0  0.18892160185E+03  0.38185226976E+03  0.10393667718E+03  0.43852635089E+03  0.00000000000E+00 0. -1.
          1    1    5    5  503    0  0.21961772892E+03  0.14979798984E+03 -0.32586619228E+03  0.42054745260E+03  0.00000000000E+00 0. -1.
         -2    1    5    5    0  503  0.27669038036E+03  0.14798419792E+03 -0.27036691310E+03  0.41419217414E+03  0.00000000000E+00 0.  1.
         -3    1    6    6    0  502  0.10855231425E+03  0.35320125042E+03  0.44644211284E+02  0.37219327483E+03  0.00000000000E+00 0.  1.
<mgrwt>
<rscale>  0 0.38997349E+04</rscale>
<asrwt>0</asrwt>
<pdfrwt beam="1">  1        2 0.48141280E+00 0.38997349E+04</pdfrwt>
<pdfrwt beam="2">  1       -2 0.18692433E+00 0.38997349E+04</pdfrwt>
<totfact> 0.18620632E-01</totfact>
</mgrwt>
</event>
<event>
12    1  0.2214165E-007  0.2240784E+04  0.7818608E-02  0.8501642E-01
         -2   -1    0    0    0  501 -0.00000000000E+00  0.00000000000E+00  0.48394719870E+03  0.48394719870E+03  0.00000000000E+00 0.  1.
          2   -1    0    0  501    0  0.00000000000E+00 -0.00000000000E+00 -0.25938331747E+04  0.25938331747E+04  0.00000000000E+00 0. -1.
         23    2    1    2    0    0 -0.38121772648E+03 -0.17853505981E+03 -0.20338118902E+04  0.20791963394E+04  0.97287669309E+02 0.  0.
        254    2    1    2    0    0  0.38121772648E+03  0.17853505981E+03 -0.76074085806E+02  0.99858403399E+03  0.90231983456E+03 0.  0.
        -24    2    4    4    0    0  0.57834569784E+02 -0.12336425502E+03  0.34730197335E+03  0.38103560860E+03  0.77497725435E+02 0.  0.
         24    2    4    4    0    0  0.32338315670E+03  0.30189931484E+03 -0.42337605915E+03  0.61754842539E+03  0.79993174127E+02 0.  0.
         13    1    3    3    0    0 -0.21360899782E+03 -0.10197545726E+03 -0.13693673161E+04  0.13896742942E+04  0.00000000000E+00 0. -1.
        -13    1    3    3    0    0 -0.16760872866E+03 -0.76559602549E+02 -0.66444457414E+03  0.68952204516E+03  0.00000000000E+00 0.  1.
          2    1    6    6  502    0  0.28155027759E+03  0.26955361369E+03 -0.33216057399E+03  0.51211361668E+03  0.00000000000E+00 0. -1.
          3    1    5    5  503    0 -0.14150452435E+02 -0.54952641278E+02  0.10947598240E+03  0.12330863234E+03  0.00000000000E+00 0. -1.
         -4    1    5    5    0  503  0.71985022219E+02 -0.68411613746E+02  0.23782599095E+03  0.25772697626E+03  0.00000000000E+00 0.  1.
         -1    1    6    6    0  502  0.41832879102E+02  0.32345701143E+02 -0.91215485157E+02  0.10543480872E+03  0.00000000000E+00 0.  1.
<mgrwt>
<rscale>  0 0.22407841E+04</rscale>
<asrwt>0</asrwt>
<pdfrwt beam="1">  1        2 0.39905126E+00 0.22407841E+04</pdfrwt>
<pdfrwt beam="2">  1       -2 0.74453414E-01 0.22407841E+04</pdfrwt>
<totfact> 0.45377319E+00</totfact>
</mgrwt>
</event>
<event>
12    1  0.2214165E-007  0.1885341E+04  0.7818608E-02  0.8662188E-01
          1   -1    0    0  501    0  0.00000000000E+00  0.00000000000E+00  0.82206383817E+03  0.82206383817E+03  0.00000000000E+00 0. -1.
         -1   -1    0    0    0  501 -0.00000000000E+00 -0.00000000000E+00 -0.10809714972E+04  0.10809714972E+04  0.00000000000E+00 0.  1.
         23    2    1    2    0    0 -0.68119377184E+03  0.24861487057E+03 -0.14473236900E+03  0.74148812972E+03  0.54980716794E+02 0.  0.
        254    2    1    2    0    0  0.68119377184E+03 -0.24861487057E+03 -0.11417529008E+03  0.11615472057E+04  0.90017865201E+03 0.  0.
        -24    2    4    4    0    0  0.51491725694E+03  0.26669060815E+03  0.56478800454E+02  0.58827985089E+03  0.81361330466E+02 0.  0.
         24    2    4    4    0    0  0.16627651490E+03 -0.51530547871E+03 -0.17065409053E+03  0.57326735480E+03  0.79530029994E+02 0.  0.
         13    1    3    3    0    0 -0.40668005960E+03  0.17037960497E+03 -0.70285891529E+02  0.44649522642E+03  0.00000000000E+00 0. -1.
        -13    1    3    3    0    0 -0.27451371224E+03  0.78235265594E+02 -0.74446477471E+02  0.29499290330E+03  0.00000000000E+00 0.  1.
          4    1    6    6  502    0  0.14905722031E+03 -0.34177680197E+03 -0.11907058496E+03  0.39141696628E+03  0.00000000000E+00 0. -1.
          1    1    5    5  503    0  0.85778594672E+02  0.68009215985E+02  0.34866274711E+02  0.11488636940E+03  0.00000000000E+00 0. -1.
         -2    1    5    5    0  503  0.42913866227E+03  0.19868139216E+03  0.21612525743E+02  0.47339348149E+03  0.00000000000E+00 0.  1.
         -3    1    6    6    0  502  0.17219294587E+02 -0.17352867674E+03 -0.51583505574E+02  0.18185038852E+03  0.00000000000E+00 0.  1.
<mgrwt>
<rscale>  0 0.18853409E+04</rscale>
<asrwt>0</asrwt>
<pdfrwt beam="1">  1        1 0.12647136E+00 0.18853409E+04</pdfrwt>
<pdfrwt beam="2">  1       -1 0.16630331E+00 0.18853409E+04</pdfrwt>
<totfact> 0.51938713E+00</totfact>
</mgrwt>
</event>
<event>
12    1  0.2214165E-007  0.2184717E+04  0.7818608E-02  0.8524816E-01
         -2   -1    0    0    0  501 -0.00000000000E+00  0.00000000000E+00  0.14393963756E+04  0.14393963756E+04  0.00000000000E+00 0.  1.
          2   -1    0    0  501    0  0.00000000000E+00 -0.00000000000E+00 -0.82899124762E+03  0.82899124762E+03  0.00000000000E+00 0. -1.
         23    2    1    2    0    0 -0.65047530107E+03 -0.10108160868E+03 -0.38820865995E+03  0.77023142000E+03  0.95994102829E+02 0.  0.
        254    2    1    2    0    0  0.65047530107E+03  0.10108160868E+03  0.99861378797E+03  0.14981562033E+04  0.90216789066E+03 0.  0.
        -24    2    4    4    0    0 -0.52653534879E+02 -0.25866450890E+03  0.87686023270E+02  0.28959681760E+03  0.80608654537E+02 0.  0.
         24    2    4    4    0    0  0.70312883595E+03  0.35974611758E+03  0.91092776470E+03  0.12085593857E+04  0.83779276166E+02 0.  0.
         13    1    3    3    0    0 -0.37912022335E+02  0.14174699831E+02 -0.36700550666E+02  0.54636745620E+02  0.00000000000E+00 0.  1.
        -13    1    3    3    0    0 -0.61256327873E+03 -0.11525630851E+03 -0.35150810929E+03  0.71559467438E+03  0.00000000000E+00 0. -1.
          2    1    6    6  502    0  0.64098984386E+03  0.31149251825E+03  0.84879581974E+03  0.11083094841E+04  0.00000000000E+00 0. -1.
          3    1    5    5  503    0 -0.15870269547E+02 -0.19696858222E+03  0.35399283749E+02  0.20075257689E+03  0.00000000000E+00 0. -1.
         -4    1    5    5    0  503 -0.36783265332E+02 -0.61695926676E+02  0.52286739521E+02  0.88844240706E+02  0.00000000000E+00 0.  1.
         -1    1    6    6    0  502  0.62138992085E+02  0.48253599331E+02  0.62131944962E+02  0.10024990160E+03  0.00000000000E+00 0.  1.
<mgrwt>
<rscale>  0 0.21847169E+04</rscale>
<asrwt>0</asrwt>
<pdfrwt beam="1">  1        2 0.12753712E+00 0.21847169E+04</pdfrwt>
<pdfrwt beam="2">  1       -2 0.22144560E+00 0.21847169E+04</pdfrwt>
<totfact> 0.29072551E+00</totfact>
</mgrwt>
</event>
<event>
12    1  0.2214165E-007  0.2380098E+04  0.7818608E-02  0.8446992E-01
          2   -1    0    0  501    0  0.00000000000E+00  0.00000000000E+00  0.14984207389E+04  0.14984207389E+04  0.00000000000E+00 0. -1.
         -2   -1    0    0    0  501 -0.00000000000E+00 -0.00000000000E+00 -0.94513934321E+03  0.94513934321E+03  0.00000000000E+00 0.  1.
         23    2    1    2    0    0  0.97005495232E+03 -0.19519945356E+03 -0.10062655692E+02  0.99369215555E+03  0.90627842181E+02 0.  0.
        254    2    1    2    0    0 -0.97005495232E+03  0.19519945356E+03  0.56334405135E+03  0.14498679265E+04  0.89758066322E+03 0.  0.
        -24    2    4    4    0    0 -0.44885131987E+02 -0.26894801731E+03  0.20762366210E+03  0.35274819500E+03  0.83522409725E+02 0.  0.
         24    2    4    4    0    0 -0.92516982033E+03  0.46414747087E+03  0.35572038925E+03  0.10971197315E+04  0.75912046473E+02 0.  0.
         13    1    3    3    0    0  0.55851173173E+03 -0.15671938901E+03  0.44283490022E+01  0.58009993247E+03  0.00000000000E+00 0. -1.
        -13    1    3    3    0    0  0.41154322058E+03 -0.38480064546E+02 -0.14491004694E+02  0.41359222308E+03  0.00000000000E+00 0.  1.
          4    1    6    6  502    0 -0.56385683766E+03  0.32293680280E+03  0.21410163505E+03  0.68415073055E+03  0.00000000000E+00 0. -1.
          3    1    5    5  503    0 -0.35065255969E+02 -0.82139389312E+02  0.11015609790E+03  0.14181261353E+03  0.00000000000E+00 0. -1.
         -4    1    5    5    0  503 -0.98198760186E+01 -0.18680862800E+03  0.97467564200E+02  0.21093558147E+03  0.00000000000E+00 0.  1.
         -3    1    6    6    0  502 -0.36131298267E+03  0.14121066807E+03  0.14161875420E+03  0.41296900097E+03  0.00000000000E+00 0.  1.
<mgrwt>
<rscale>  0 0.23800978E+04</rscale>
<asrwt>0</asrwt>
<pdfrwt beam="1">  1        2 0.23052627E+00 0.23800978E+04</pdfrwt>
<pdfrwt beam="2">  1       -2 0.14540605E+00 0.23800978E+04</pdfrwt>
<totfact> 0.37272869E+00</totfact>
</mgrwt>
</event>
<event>
12    1  0.2214165E-007  0.1822571E+04  0.7818608E-02  0.8694388E-01
         -1   -1    0    0    0  501 -0.00000000000E+00  0.00000000000E+00  0.43341893600E+03  0.43341893600E+03  0.00000000000E+00 0.  1.
          1   -1    0    0  501    0  0.00000000000E+00 -0.00000000000E+00 -0.19160240493E+04  0.19160240493E+04  0.00000000000E+00 0. -1.
         23    2    1    2    0    0 -0.28835287342E+03  0.51046660972E+03 -0.10189345527E+04  0.11790205252E+04  0.90212177058E+02 0.  0.
        254    2    1    2    0    0  0.28835287342E+03 -0.51046660972E+03 -0.46367056060E+03  0.11704224601E+04  0.90065243413E+03 0.  0.
        -24    2    4    4    0    0  0.25648490803E+03 -0.75203431473E+03 -0.25174139831E+03  0.83755122967E+03  0.82329898146E+02 0.  0.
         24    2    4    4    0    0  0.31867965389E+02  0.24156770501E+03 -0.21192916230E+03  0.33287123043E+03  0.80738856154E+02 0.  0.
         11    1    3    3    0    0 -0.86454881205E+02  0.13615933333E+03 -0.20669090674E+03  0.26217349497E+03  0.00000000000E+00 0.  1.
        -11    1    3    3    0    0 -0.20189799221E+03  0.37430727639E+03 -0.81224364598E+03  0.91684703024E+03  0.00000000000E+00 0. -1.
          2    1    6    6  502    0  0.21303856507E+02  0.90540257576E+02 -0.33486949632E+02  0.98857313030E+02  0.00000000000E+00 0. -1.
          3    1    5    5  503    0  0.24190565186E+03 -0.69177451557E+03 -0.25370044308E+03  0.77552191434E+03  0.00000000000E+00 0. -1.
         -4    1    5    5    0  503  0.14579256168E+02 -0.60259799157E+02  0.19590447697E+01  0.62029315338E+02  0.00000000000E+00 0.  1.
         -1    1    6    6    0  502  0.10564108882E+02  0.15102744743E+03 -0.17844221266E+03  0.23401391740E+03  0.00000000000E+00 0.  1.
<mgrwt>
<rscale>  0 0.18225708E+04</rscale>
<asrwt>0</asrwt>
<pdfrwt beam="1">  1        1 0.29477293E+00 0.18225708E+04</pdfrwt>
<pdfrwt beam="2">  1       -1 0.66679836E-01 0.18225708E+04</pdfrwt>
<totfact> 0.72924929E+00</totfact>
</mgrwt>
</event>
<event>
12    1  0.2214165E-007  0.1125254E+04  0.7818608E-02  0.9180921E-01
         -1   -1    0    0    0  501 -0.00000000000E+00  0.00000000000E+00  0.27145285515E+03  0.27145285515E+03  0.00000000000E+00 0.  1.
          1   -1    0    0  501    0  0.00000000000E+00 -0.00000000000E+00 -0.11661303447E+04  0.11661303447E+04  0.00000000000E+00 0. -1.
         23    2    1    2    0    0  0.11604857599E+03 -0.76163593946E+02 -0.32695587860E+03  0.36564428952E+03  0.86760791137E+02 0.  0.
        254    2    1    2    0    0 -0.11604857599E+03  0.76163593946E+02 -0.56772161097E+03  0.10719389103E+04  0.89859725956E+03 0.  0.
        -24    2    4    4    0    0 -0.45463273056E+03 -0.14105730323E+03 -0.20737835851E+03  0.52519205749E+03  0.78948281731E+02 0.  0.
         24    2    4    4    0    0  0.33858415457E+03  0.21722089717E+03 -0.36034325246E+03  0.54674685284E+03  0.85209821056E+02 0.  0.
         11    1    3    3    0    0  0.76886337378E+00  0.15022095951E+02 -0.17644267441E+02  0.23185657014E+02  0.00000000000E+00 0.  1.
        -11    1    3    3    0    0  0.11527971262E+03 -0.91185689897E+02 -0.30931161116E+03  0.34245863251E+03  0.00000000000E+00 0. -1.
          2    1    6    6  502    0  0.99683079550E+02  0.91410611382E+02 -0.78219980635E+02  0.15624014078E+03  0.00000000000E+00 0. -1.
          1    1    5    5  503    0 -0.25070588014E+03 -0.68492046136E+02 -0.71219035806E+02  0.26947495205E+03  0.00000000000E+00 0. -1.
         -2    1    5    5    0  503 -0.20392685042E+03 -0.72565257091E+02 -0.13615932270E+03  0.25571710544E+03  0.00000000000E+00 0.  1.
         -1    1    6    6    0  502  0.23890107502E+03  0.12581028579E+03 -0.28212327182E+03  0.39050671205E+03  0.00000000000E+00 0.  1.
<mgrwt>
<rscale>  0 0.11252545E+04</rscale>
<asrwt>0</asrwt>
<pdfrwt beam="1">  1        1 0.17940467E+00 0.11252545E+04</pdfrwt>
<pdfrwt beam="2">  1       -1 0.41761977E-01 0.11252545E+04</pdfrwt>
<totfact> 0.63304518E+01</totfact>
</mgrwt>
</event>
<event>
12    1  0.2214165E-007  0.2075607E+04  0.7818608E-02  0.8572065E-01
          2   -1    0    0  501    0  0.00000000000E+00  0.00000000000E+00  0.19211243693E+04  0.19211243693E+04  0.00000000000E+00 0. -1.
         -2   -1    0    0    0  501 -0.00000000000E+00 -0.00000000000E+00 -0.56062805657E+03  0.56062805657E+03  0.00000000000E+00 0.  1.
         23    2    1    2    0    0  0.47583151057E+03  0.68862211744E+03  0.63027964163E+03  0.10517728540E+04  0.91420253640E+02 0.  0.
        254    2    1    2    0    0 -0.47583151057E+03 -0.68862211744E+03  0.73021667113E+03  0.14299795718E+04  0.90056045995E+03 0.  0.
        -24    2    4    4    0    0 -0.34383072856E+03 -0.80268033223E+03  0.24959220863E+03  0.91240845690E+03  0.87622120290E+02 0.  0.
         24    2    4    4    0    0 -0.13200078201E+03  0.11405821479E+03  0.48062446250E+03  0.51757111494E+03  0.80290113093E+02 0.  0.
         11    1    3    3    0    0  0.21064607313E+03  0.31500862534E+03  0.34205038619E+03  0.51049061584E+03  0.00000000000E+00 0. -1.
        -11    1    3    3    0    0  0.26518543743E+03  0.37361349210E+03  0.28822925543E+03  0.54128223820E+03  0.00000000000E+00 0.  1.
          4    1    6    6  502    0 -0.63345559946E+02  0.65600838906E+02  0.35431054488E+03  0.36585802197E+03  0.00000000000E+00 0. -1.
          1    1    5    5  503    0 -0.34889331516E+03 -0.79603828002E+03  0.24862594230E+03  0.90400129856E+03  0.00000000000E+00 0. -1.
         -2    1    5    5    0  503  0.50625866031E+01 -0.66420522155E+01  0.96626633241E+00  0.84071583411E+01  0.00000000000E+00 0.  1.
         -3    1    6    6    0  502 -0.68655222064E+02  0.48457375889E+02  0.12631391762E+03  0.15171309297E+03  0.00000000000E+00 0.  1.
<mgrwt>
<rscale>  0 0.20756071E+04</rscale>
<asrwt>0</asrwt>
<pdfrwt beam="1">  1        2 0.29555759E+00 0.20756071E+04</pdfrwt>
<pdfrwt beam="2">  1       -2 0.86250471E-01 0.20756071E+04</pdfrwt>
<totfact> 0.79529533E+00</totfact>
</mgrwt>
</event>
<event>
12    1  0.2214165E-007  0.1863376E+04  0.7818608E-02  0.8673304E-01
          2   -1    0    0  501    0  0.00000000000E+00  0.00000000000E+00  0.23118756255E+04  0.23118756255E+04  0.00000000000E+00 0.  1.
         -2   -1    0    0    0  501 -0.00000000000E+00 -0.00000000000E+00 -0.37547099754E+03  0.37547099754E+03  0.00000000000E+00 0. -1.
         23    2    1    2    0    0 -0.55483237461E+03 -0.15769444818E+03  0.13309107690E+04  0.14533886534E+04  0.91151521183E+02 0.  0.
        254    2    1    2    0    0  0.55483237461E+03  0.15769444818E+03  0.60549385893E+03  0.12339579696E+04  0.90737145354E+03 0.  0.
        -24    2    4    4    0    0  0.72166611173E+03  0.15033652799E+03  0.70369401952E+03  0.10222141933E+04  0.79583512012E+02 0.  0.
         24    2    4    4    0    0 -0.16683373711E+03  0.73579201907E+01 -0.98200160593E+02  0.21174377634E+03  0.85466487292E+02 0.  0.
         11    1    3    3    0    0 -0.30538792359E+03 -0.10994175637E+03  0.64714611178E+03  0.72398001606E+03  0.00000000000E+00 0. -1.
        -11    1    3    3    0    0 -0.24944445103E+03 -0.47752691813E+02  0.68376465722E+03  0.72940863731E+03  0.00000000000E+00 0.  1.
          4    1    6    6  502    0 -0.13330745045E+03 -0.21081664471E+02 -0.44000777834E+02  0.14195556125E+03  0.00000000000E+00 0. -1.
          3    1    5    5  503    0  0.63675829841E+03  0.13281106696E+03  0.58220111167E+03  0.87295936018E+03  0.00000000000E+00 0. -1.
         -4    1    5    5    0  503  0.84907813315E+02  0.17525461030E+02  0.12149290785E+03  0.14925483311E+03  0.00000000000E+00 0.  1.
         -3    1    6    6    0  502 -0.33526286666E+02  0.28439584662E+02 -0.54199382759E+02  0.69788215085E+02  0.00000000000E+00 0.  1.
<mgrwt>
<rscale>  0 0.18633757E+04</rscale>
<asrwt>0</asrwt>
<pdfrwt beam="1">  1        2 0.35567317E+00 0.18633757E+04</pdfrwt>
<pdfrwt beam="2">  1       -2 0.57764770E-01 0.18633757E+04</pdfrwt>
<totfact> 0.11769157E+01</totfact>
</mgrwt>
</event>
<event>
12    1  0.2214165E-007  0.1820312E+04  0.7818608E-02  0.8695572E-01
         -1   -1    0    0    0  501 -0.00000000000E+00  0.00000000000E+00  0.74495693793E+03  0.74495693793E+03  0.00000000000E+00 0.  1.
          1   -1    0    0  501    0  0.00000000000E+00 -0.00000000000E+00 -0.11119886607E+04  0.11119886607E+04  0.00000000000E+00 0. -1.
         23    2    1    2    0    0 -0.38289801419E+03 -0.55718268300E+03 -0.24250083534E+03  0.72399632274E+03  0.91107566649E+02 0.  0.
        254    2    1    2    0    0  0.38289801419E+03  0.55718268300E+03 -0.12453088744E+03  0.11329492759E+04  0.90055687678E+03 0.  0.
        -24    2    4    4    0    0 -0.28554905037E+03  0.10749063789E+03 -0.22027545794E+02  0.31670443563E+03  0.81999935205E+02 0.  0.
         24    2    4    4    0    0  0.66844706456E+03  0.44969204511E+03 -0.10250334164E+03  0.81624484026E+03  0.81879732869E+02 0.  0.
         11    1    3    3    0    0 -0.27660697304E+03 -0.32901240469E+03 -0.16783666292E+03  0.46144309009E+03  0.00000000000E+00 0. -1.
        -11    1    3    3    0    0 -0.10629104115E+03 -0.22817027831E+03 -0.74664172424E+02  0.26255323265E+03  0.00000000000E+00 0.  1.
          2    1    6    6  502    0  0.63003841412E+03  0.39827951332E+03 -0.99710733020E+02  0.75200877939E+03  0.00000000000E+00 0. -1.
          1    1    5    5  503    0 -0.21328084035E+03  0.50121686898E+02  0.92235039076E+01  0.21928514173E+03  0.00000000000E+00 0. -1.
         -2    1    5    5    0  503 -0.72268210019E+02  0.57368950990E+02 -0.31251049701E+02  0.97419293902E+02  0.00000000000E+00 0.  1.
         -1    1    6    6    0  502  0.38408650435E+02  0.51412531792E+02 -0.27926086236E+01  0.64236060873E+02  0.00000000000E+00 0.  1.
<mgrwt>
<rscale>  0 0.18203117E+04</rscale>
<asrwt>0</asrwt>
<pdfrwt beam="1">  1        1 0.17107518E+00 0.18203117E+04</pdfrwt>
<pdfrwt beam="2">  1       -1 0.11460876E+00 0.18203117E+04</pdfrwt>
<totfact> 0.80963215E+00</totfact>
</mgrwt>
</event>
<event>
12    1  0.2214165E-007  0.1562313E+04  0.7818608E-02  0.8844041E-01
         -1   -1    0    0    0  501 -0.00000000000E+00  0.00000000000E+00  0.33414438050E+03  0.33414438050E+03  0.00000000000E+00 0.  1.
          1   -1    0    0  501    0  0.00000000000E+00 -0.00000000000E+00 -0.18261731499E+04  0.18261731499E+04  0.00000000000E+00 0. -1.
         23    2    1    2    0    0 -0.38082650434E+03  0.32706989489E+03 -0.67258283694E+03  0.84416145954E+03  0.90759873676E+02 0.  0.
        254    2    1    2    0    0  0.38082650434E+03 -0.32706989489E+03 -0.81944593243E+03  0.13161560708E+04  0.89931731001E+03 0.  0.
        -24    2    4    4    0    0  0.45026591153E+03 -0.40216174310E+03 -0.14065258601E+03  0.62499593542E+03  0.79770361902E+02 0.  0.
         24    2    4    4    0    0 -0.69439407187E+02  0.75091848209E+02 -0.67879334642E+03  0.69116013542E+03  0.80506575608E+02 0.  0.
         11    1    3    3    0    0 -0.94837596640E+02  0.11914699134E+03 -0.25478185733E+03  0.29682312933E+03  0.00000000000E+00 0.  1.
        -11    1    3    3    0    0 -0.28598890770E+03  0.20792290355E+03 -0.41780097961E+03  0.54733833021E+03  0.00000000000E+00 0. -1.
          4    1    6    6  502    0 -0.18312789381E+02  0.52229697408E+02 -0.51686962981E+03  0.51982450285E+03  0.00000000000E+00 0. -1.
          3    1    5    5  503    0  0.57850520649E+02 -0.74466548420E+02  0.16562365357E+01  0.94311678452E+02  0.00000000000E+00 0. -1.
         -4    1    5    5    0  503  0.39241539088E+03 -0.32769519468E+03 -0.14230882255E+03  0.53068425697E+03  0.00000000000E+00 0.  1.
         -3    1    6    6    0  502 -0.51126617805E+02  0.22862150801E+02 -0.16192371661E+03  0.17133563257E+03  0.00000000000E+00 0.  1.
<mgrwt>
<rscale>  0 0.15623130E+04</rscale>
<asrwt>0</asrwt>
<pdfrwt beam="1">  1        1 0.28094971E+00 0.15623130E+04</pdfrwt>
<pdfrwt beam="2">  1       -1 0.51406829E-01 0.15623130E+04</pdfrwt>
<totfact> 0.14329297E+01</totfact>
</mgrwt>
</event>
<event>
12    1  0.2214165E-007  0.5231431E+04  0.7818608E-02  0.7793766E-01
         -2   -1    0    0    0  501 -0.00000000000E+00  0.00000000000E+00  0.15824414583E+04  0.15824414583E+04  0.00000000000E+00 0.  1.
          2   -1    0    0  501    0  0.00000000000E+00 -0.00000000000E+00 -0.43236778809E+04  0.43236778809E+04  0.00000000000E+00 0. -1.
         23    2    1    2    0    0  0.18696775653E+04 -0.15512730635E+04 -0.50628684087E+03  0.24831833364E+04  0.87924975312E+02 0.  0.
        254    2    1    2    0    0 -0.18696775653E+04  0.15512730635E+04 -0.22349495817E+04  0.34229360029E+04  0.90517894976E+03 0.  0.
        -24    2    4    4    0    0 -0.49193488727E+03  0.90437804727E+03 -0.11871203772E+04  0.15733842990E+04  0.79898540076E+02 0.  0.
         24    2    4    4    0    0 -0.13777426780E+04  0.64689501620E+03 -0.10478292046E+04  0.18495517039E+04  0.79040587536E+02 0.  0.
         13    1    3    3    0    0  0.10041182602E+04 -0.84707676741E+03 -0.23034330160E+03  0.13337355686E+04  0.00000000000E+00 0.  1.
        -13    1    3    3    0    0  0.86555930511E+03 -0.70419629606E+03 -0.27594353927E+03  0.11494477678E+04  0.00000000000E+00 0. -1.
          4    1    6    6  502    0 -0.91723386839E+03  0.39494888574E+03 -0.70988979349E+03  0.12252534883E+04  0.00000000000E+00 0. -1.
          1    1    5    5  503    0 -0.35588091865E+03  0.71846876311E+03 -0.94133627530E+03  0.12365122624E+04  0.00000000000E+00 0. -1.
         -2    1    5    5    0  503 -0.13605396862E+03  0.18590928416E+03 -0.24578410188E+03  0.33687203661E+03  0.00000000000E+00 0.  1.
         -3    1    6    6    0  502 -0.46050880964E+03  0.25194613046E+03 -0.33793941107E+03  0.62429821557E+03  0.00000000000E+00 0.  1.
<mgrwt>
<rscale>  0 0.52314308E+04</rscale>
<asrwt>0</asrwt>
<pdfrwt beam="1">  1        2 0.66518121E+00 0.52314308E+04</pdfrwt>
<pdfrwt beam="2">  1       -2 0.24345253E+00 0.52314308E+04</pdfrwt>
<totfact> 0.90283174E-03</totfact>
</mgrwt>
</event>
<event>
12    1  0.2214165E-007  0.1904694E+04  0.7818608E-02  0.8652523E-01
         -1   -1    0    0    0  501 -0.00000000000E+00  0.00000000000E+00  0.44243984094E+03  0.44243984094E+03  0.00000000000E+00 0.  1.
          1   -1    0    0  501    0  0.00000000000E+00 -0.00000000000E+00 -0.20499169472E+04  0.20499169472E+04  0.00000000000E+00 0. -1.
         23    2    1    2    0    0  0.67604347328E+03  0.29690844037E+03 -0.61133910966E+03  0.96285486395E+03  0.90358078245E+02 0.  0.
        254    2    1    2    0    0 -0.67604347328E+03 -0.29690844037E+03 -0.99613799664E+03  0.15295019242E+04  0.89548636400E+03 0.  0.
        -24    2    4    4    0    0  0.43680646205E+02  0.21270755321E+03 -0.39441172936E+03  0.45887891774E+03  0.88638292188E+02 0.  0.
         24    2    4    4    0    0 -0.71972411949E+03 -0.50961599358E+03 -0.60172626728E+03  0.10706230065E+04  0.80298519207E+02 0.  0.
         13    1    3    3    0    0  0.43553672767E+03  0.23566643646E+03 -0.42355850997E+03  0.65163849011E+03  0.00000000000E+00 0.  1.
        -13    1    3    3    0    0  0.24050674561E+03  0.61242003912E+02 -0.18778059969E+03  0.31121637384E+03  0.00000000000E+00 0. -1.
          4    1    6    6  502    0 -0.15738068427E+03 -0.14351008464E+03 -0.11865586544E+03  0.24380943086E+03  0.00000000000E+00 0. -1.
          1    1    5    5  503    0 -0.10826334337E+02  0.15342640870E+03 -0.26779701235E+03  0.30882375593E+03  0.00000000000E+00 0. -1.
         -2    1    5    5    0  503  0.54506980542E+02  0.59281144507E+02 -0.12661471701E+03  0.15005516181E+03  0.00000000000E+00 0.  1.
         -3    1    6    6    0  502 -0.56234343522E+03 -0.36610590894E+03 -0.48307040183E+03  0.82681357562E+03  0.00000000000E+00 0.  1.
<mgrwt>
<rscale>  0 0.19046941E+04</rscale>
<asrwt>0</asrwt>
<pdfrwt beam="1">  1        1 0.31537183E+00 0.19046941E+04</pdfrwt>
<pdfrwt beam="2">  1       -1 0.68067670E-01 0.19046941E+04</pdfrwt>
<totfact> 0.56328911E+00</totfact>
</mgrwt>
</event>
<event>
12    1  0.2214165E-007  0.1672744E+04  0.7818608E-02  0.8777064E-01
          2   -1    0    0  501    0  0.00000000000E+00  0.00000000000E+00  0.85038694520E+03  0.85038694520E+03  0.00000000000E+00 0. -1.
         -2   -1    0    0    0  501 -0.00000000000E+00 -0.00000000000E+00 -0.82258754624E+03  0.82258754624E+03  0.00000000000E+00 0.  1.
         23    2    1    2    0    0 -0.38483517841E+03 -0.88127851425E+02 -0.42727839030E+03  0.58877588582E+03  0.90695028393E+02 0.  0.
        254    2    1    2    0    0  0.38483517841E+03  0.88127851425E+02  0.45507778927E+03  0.10841986056E+04  0.90140234601E+03 0.  0.
        -24    2    4    4    0    0 -0.21331758952E+03 -0.20625519067E+03  0.91441424585E+02  0.32063653949E+03  0.80004116472E+02 0.  0.
         24    2    4    4    0    0  0.59815276793E+03  0.29438304209E+03  0.36363636468E+03  0.76356206612E+03  0.79671286269E+02 0.  0.
         13    1    3    3    0    0 -0.37248829071E+03 -0.95394778370E+02 -0.42677147942E+03  0.57444023719E+03  0.00000000000E+00 0.  1.
        -13    1    3    3    0    0 -0.12346887705E+02  0.72669269447E+01 -0.50691087600E+00  0.14335648637E+02  0.00000000000E+00 0. -1.
          4    1    6    6  502    0  0.29522913626E+03  0.17494606059E+03  0.22025385492E+03  0.40777215160E+03  0.00000000000E+00 0. -1.
          1    1    5    5  503    0 -0.10060612434E+03 -0.12931555700E+03  0.15786486893E+02  0.16460048209E+03  0.00000000000E+00 0. -1.
         -2    1    5    5    0  503 -0.11271146518E+03 -0.76939633668E+02  0.75654937692E+02  0.15603605740E+03  0.00000000000E+00 0.  1.
         -3    1    6    6    0  502  0.30292363167E+03  0.11943698151E+03  0.14338250976E+03  0.35578991453E+03  0.00000000000E+00 0.  1.
<mgrwt>
<rscale>  0 0.16727435E+04</rscale>
<asrwt>0</asrwt>
<pdfrwt beam="1">  1        2 0.13082876E+00 0.16727435E+04</pdfrwt>
<pdfrwt beam="2">  1       -2 0.12655193E+00 0.16727435E+04</pdfrwt>
<totfact> 0.14057930E+01</totfact>
</mgrwt>
</event>
<event>
12    1  0.2214165E-007  0.3145858E+04  0.7818608E-02  0.8203264E-01
         -1   -1    0    0    0  501 -0.00000000000E+00  0.00000000000E+00  0.12383511331E+04  0.12383511331E+04  0.00000000000E+00 0.  1.
          1   -1    0    0  501    0  0.00000000000E+00 -0.00000000000E+00 -0.19979034199E+04  0.19979034199E+04  0.00000000000E+00 0. -1.
         23    2    1    2    0    0 -0.10944164501E+04  0.84801982126E+03 -0.78622458969E+03  0.15937403871E+04  0.70528948352E+02 0.  0.
        254    2    1    2    0    0  0.10944164501E+04 -0.84801982126E+03  0.26672302965E+02  0.16425141659E+04  0.88332122690E+03 0.  0.
        -24    2    4    4    0    0  0.11265020689E+04 -0.45082204691E+03 -0.91147230394E+02  0.12195117547E+04  0.81570050001E+02 0.  0.
         24    2    4    4    0    0 -0.32085618786E+02 -0.39719777435E+03  0.11781953336E+03  0.42300241118E+03  0.79082479355E+02 0.  0.
         11    1    3    3    0    0 -0.47274388810E+03  0.39793757532E+03 -0.37898348740E+03  0.72489280677E+03  0.00000000000E+00 0.  1.
        -11    1    3    3    0    0 -0.62167256203E+03  0.45008224594E+03 -0.40724110229E+03  0.86884758035E+03  0.00000000000E+00 0. -1.
          2    1    6    6  502    0 -0.41515280621E+02 -0.38378081601E+03  0.99952298505E+02  0.39875016644E+03  0.00000000000E+00 0. -1.
          1    1    5    5  503    0  0.66512468339E+03 -0.23833814714E+03 -0.83927211433E+02  0.71150523094E+03  0.00000000000E+00 0. -1.
         -2    1    5    5    0  503  0.46137738553E+03 -0.21248389977E+03 -0.72200189613E+01  0.50800652379E+03  0.00000000000E+00 0.  1.
         -1    1    6    6    0  502  0.94296618343E+01 -0.13416958341E+02  0.17867234854E+02  0.24252244736E+02  0.00000000000E+00 0.  1.
<mgrwt>
<rscale>  0 0.31458582E+04</rscale>
<asrwt>0</asrwt>
<pdfrwt beam="1">  1        1 0.30736975E+00 0.31458582E+04</pdfrwt>
<pdfrwt beam="2">  1       -1 0.19051556E+00 0.31458582E+04</pdfrwt>
<totfact> 0.44036769E-01</totfact>
</mgrwt>
</event>
<event>
12    1  0.2214165E-007  0.3458529E+04  0.7818608E-02  0.8123689E-01
          1   -1    0    0  501    0  0.00000000000E+00  0.00000000000E+00  0.28005466049E+04  0.28005466049E+04  0.00000000000E+00 0. -1.
         -1   -1    0    0    0  501 -0.00000000000E+00 -0.00000000000E+00 -0.10677754659E+04  0.10677754659E+04  0.00000000000E+00 0.  1.
         23    2    1    2    0    0 -0.11798663256E+04 -0.10961967539E+04  0.76326327754E+03  0.17845509153E+04  0.91210026799E+02 0.  0.
        254    2    1    2    0    0  0.11798663256E+04  0.10961967539E+04  0.96950786147E+03  0.20837711555E+04  0.89912449958E+03 0.  0.
        -24    2    4    4    0    0  0.42072808423E+02  0.55017665723E+03  0.44855351492E+03  0.71558072706E+03  0.79944016799E+02 0.  0.
         24    2    4    4    0    0  0.11377935171E+04  0.54602009663E+03  0.52095434655E+03  0.13681904285E+04  0.88541424030E+02 0.  0.
         11    1    3    3    0    0 -0.28816669168E+03 -0.32283292278E+03  0.20636088018E+03  0.47942251834E+03  0.00000000000E+00 0. -1.
        -11    1    3    3    0    0 -0.89169963389E+03 -0.77336383108E+03  0.55690239737E+03  0.13051283969E+04  0.00000000000E+00 0.  1.
          4    1    6    6  502    0  0.58548684917E+02  0.11256588479E+02  0.13151842900E+02  0.61054322216E+02  0.00000000000E+00 0. -1.
          1    1    5    5  503    0  0.51866278448E+02  0.27595947160E+03  0.25972924867E+03  0.38249578223E+03  0.00000000000E+00 0. -1.
         -2    1    5    5    0  503 -0.97934700249E+01  0.27421718562E+03  0.18882426625E+03  0.33308494483E+03  0.00000000000E+00 0.  1.
         -3    1    6    6    0  502  0.10792448322E+04  0.53476350815E+03  0.50780250365E+03  0.13071361062E+04  0.00000000000E+00 0.  1.
<mgrwt>
<rscale>  0 0.34585286E+04</rscale>
<asrwt>0</asrwt>
<pdfrwt beam="1">  1        1 0.43085332E+00 0.34585286E+04</pdfrwt>
<pdfrwt beam="2">  1       -1 0.16427315E+00 0.34585286E+04</pdfrwt>
<totfact> 0.18488187E-01</totfact>
</mgrwt>
</event>
<event>
12    1  0.2214165E-007  0.1639539E+04  0.7818608E-02  0.8796619E-01
         -1   -1    0    0    0  501 -0.00000000000E+00  0.00000000000E+00  0.73199125003E+03  0.73199125003E+03  0.00000000000E+00 0.  1.
          1   -1    0    0  501    0  0.00000000000E+00 -0.00000000000E+00 -0.91807390094E+03  0.91807390094E+03  0.00000000000E+00 0. -1.
         23    2    1    2    0    0  0.49914151520E+03  0.17356697032E+03  0.11306239531E+03  0.54837276108E+03  0.93068976979E+02 0.  0.
        254    2    1    2    0    0 -0.49914151520E+03 -0.17356697032E+03 -0.29914504622E+03  0.11016923899E+04  0.91922283363E+03 0.  0.
        -24    2    4    4    0    0 -0.59240243605E+03 -0.38711092520E+03  0.23770157279E+01  0.71212068160E+03  0.79465088630E+02 0.  0.
         24    2    4    4    0    0  0.93260920845E+02  0.21354395489E+03 -0.30152206195E+03  0.38957170829E+03  0.80944067291E+02 0.  0.
         11    1    3    3    0    0  0.39607953164E+01 -0.71280335881E+01 -0.28890316428E+01  0.86512002754E+01  0.00000000000E+00 0. -1.
        -11    1    3    3    0    0  0.49518071988E+03  0.18069500391E+03  0.11595142695E+03  0.53972156080E+03  0.00000000000E+00 0.  1.
          2    1    6    6  502    0  0.11166856747E+02  0.54079300417E+02 -0.26538273087E+02  0.61266217131E+02  0.00000000000E+00 0. -1.
          3    1    5    5  503    0 -0.25012551474E+03 -0.12352974983E+03 -0.18776957470E+02  0.27959782966E+03  0.00000000000E+00 0. -1.
         -4    1    5    5    0  503 -0.34227692131E+03 -0.26358117537E+03  0.21153973198E+02  0.43252285194E+03  0.00000000000E+00 0.  1.
         -1    1    6    6    0  502  0.82094064098E+02  0.15946465447E+03 -0.27498378886E+03  0.32830549115E+03  0.00000000000E+00 0.  1.
<mgrwt>
<rscale>  0 0.16395390E+04</rscale>
<asrwt>0</asrwt>
<pdfrwt beam="1">  1        1 0.14124214E+00 0.16395390E+04</pdfrwt>
<pdfrwt beam="2">  1       -1 0.11261404E+00 0.16395390E+04</pdfrwt>
<totfact> 0.12143665E+01</totfact>
</mgrwt>
</event>
<event>
12    1  0.2214165E-007  0.1857115E+04  0.7818608E-02  0.8676502E-01
         -2   -1    0    0    0  501 -0.00000000000E+00  0.00000000000E+00  0.81044045167E+03  0.81044045167E+03  0.00000000000E+00 0.  1.
          2   -1    0    0  501    0  0.00000000000E+00 -0.00000000000E+00 -0.10638894132E+04  0.10638894132E+04  0.00000000000E+00 0. -1.
         23    2    1    2    0    0  0.59657888131E+03 -0.32554734364E+03  0.10045621796E+03  0.69437903794E+03  0.10091264550E+03 0.  0.
        254    2    1    2    0    0 -0.59657888131E+03  0.32554734364E+03 -0.35390517945E+03  0.11799508269E+04  0.89730019684E+03 0.  0.
        -24    2    4    4    0    0 -0.79154743441E+03  0.37806810814E+03 -0.17307464057E+03  0.89787659659E+03  0.82126221027E+02 0.  0.
         24    2    4    4    0    0  0.19496855310E+03 -0.52520764503E+02 -0.18083053887E+03  0.28207423030E+03  0.78070610404E+02 0.  0.
         13    1    3    3    0    0  0.31814446281E+03 -0.12136240514E+03  0.71136777808E+02  0.34785797929E+03  0.00000000000E+00 0. -1.
        -13    1    3    3    0    0  0.27843441851E+03 -0.20418493850E+03  0.29319440154E+02  0.34652105865E+03  0.00000000000E+00 0.  1.
          4    1    6    6  502    0  0.90003298007E+02 -0.59597427699E+02 -0.66881137741E+02  0.12698635213E+03  0.00000000000E+00 0. -1.
          3    1    5    5  503    0 -0.10990744998E+03  0.79914523595E+02 -0.10270977278E+02  0.13627718670E+03  0.00000000000E+00 0. -1.
         -4    1    5    5    0  503 -0.68163998443E+03  0.29815358455E+03 -0.16280366329E+03  0.76159940989E+03  0.00000000000E+00 0.  1.
         -3    1    6    6    0  502  0.10496525509E+03  0.70766631955E+01 -0.11394940113E+03  0.15508787817E+03  0.00000000000E+00 0.  1.
<mgrwt>
<rscale>  0 0.18571150E+04</rscale>
<asrwt>0</asrwt>
<pdfrwt beam="1">  1        2 0.16367529E+00 0.18571150E+04</pdfrwt>
<pdfrwt beam="2">  1       -2 0.12468315E+00 0.18571150E+04</pdfrwt>
<totfact> 0.10405103E+01</totfact>
</mgrwt>
</event>
<event>
12    1  0.2214165E-007  0.3411635E+04  0.7818608E-02  0.8135057E-01
          1   -1    0    0  501    0  0.00000000000E+00  0.00000000000E+00  0.11369183149E+04  0.11369183149E+04  0.00000000000E+00 0. -1.
         -1   -1    0    0    0  501 -0.00000000000E+00 -0.00000000000E+00 -0.25593868303E+04  0.25593868303E+04  0.00000000000E+00 0.  1.
         23    2    1    2    0    0 -0.15144096698E+04  0.27211818665E+03 -0.24626928051E+03  0.15609273212E+04  0.91436250658E+02 0.  0.
        254    2    1    2    0    0  0.15144096698E+04 -0.27211818665E+03 -0.11761992349E+04  0.21353778240E+04  0.89939360443E+03 0.  0.
        -24    2    4    4    0    0  0.11181187960E+04 -0.99781874440E+02 -0.12583290618E+04  0.16881812390E+04  0.80111194756E+02 0.  0.
         24    2    4    4    0    0  0.39629087380E+03 -0.17233631221E+03  0.82129826948E+02  0.44719658500E+03  0.80580493902E+02 0.  0.
         13    1    3    3    0    0 -0.22920670815E+03  0.12963219048E+02 -0.53933159865E+02  0.23582312406E+03  0.00000000000E+00 0.  1.
        -13    1    3    3    0    0 -0.12852029617E+04  0.25915496760E+03 -0.19233612065E+03  0.13251041971E+04  0.00000000000E+00 0. -1.
          2    1    6    6  502    0  0.20829207786E+03 -0.12477120604E+03  0.70926465437E+02  0.25295060200E+03  0.00000000000E+00 0. -1.
          1    1    5    5  503    0  0.35224346233E+03  0.55489642422E+01 -0.38688374186E+03  0.52324494979E+03  0.00000000000E+00 0. -1.
         -2    1    5    5    0  503  0.76587533369E+03 -0.10533083868E+03 -0.87144531995E+03  0.11649362892E+04  0.00000000000E+00 0.  1.
         -1    1    6    6    0  502  0.18799879594E+03 -0.47565106170E+02  0.11203361510E+02  0.19424598300E+03  0.00000000000E+00 0.  1.
<mgrwt>
<rscale>  0 0.34116352E+04</rscale>
<asrwt>0</asrwt>
<pdfrwt beam="1">  1        1 0.17491051E+00 0.34116352E+04</pdfrwt>
<pdfrwt beam="2">  1       -1 0.39375182E+00 0.34116352E+04</pdfrwt>
<totfact> 0.77099670E-02</totfact>
</mgrwt>
</event>
<event>
12    1  0.2214165E-007  0.5005907E+04  0.7818608E-02  0.7827597E-01
          1   -1    0    0  501    0  0.00000000000E+00  0.00000000000E+00  0.36834966704E+04  0.36834966704E+04  0.00000000000E+00 0. -1.
         -1   -1    0    0    0  501 -0.00000000000E+00 -0.00000000000E+00 -0.17007689352E+04  0.17007689352E+04  0.00000000000E+00 0.  1.
         23    2    1    2    0    0  0.17971906949E+04 -0.21692025775E+03 -0.76974593623E+03  0.19692181299E+04  0.91446404424E+02 0.  0.
        254    2    1    2    0    0 -0.17971906949E+04  0.21692025775E+03  0.27524736714E+04  0.34150474758E+04  0.89971615399E+03 0.  0.
        -24    2    4    4    0    0 -0.18376308975E+04  0.23640115409E+03  0.27594856306E+04  0.33247647739E+04  0.80790069293E+02 0.  0.
         24    2    4    4    0    0  0.40440202628E+02 -0.19480896341E+02 -0.70119591474E+01  0.90282701850E+02  0.78018480961E+02 0.  0.
         11    1    3    3    0    0  0.11643477884E+04 -0.18422077003E+03 -0.49575633580E+03  0.12788343947E+04  0.00000000000E+00 0. -1.
        -11    1    3    3    0    0  0.63284290646E+03 -0.32699487723E+02 -0.27398960043E+03  0.69038373525E+03  0.00000000000E+00 0.  1.
          4    1    6    6  502    0  0.37208384118E+02 -0.31321642647E+01  0.31158686706E+02  0.48632685088E+02  0.00000000000E+00 0. -1.
          1    1    5    5  503    0 -0.72957870718E+03  0.65444022579E+02  0.10411098141E+04  0.12729798330E+04  0.00000000000E+00 0. -1.
         -2    1    5    5    0  503 -0.11080521903E+04  0.17095713151E+03  0.17183758164E+04  0.20517849409E+04  0.00000000000E+00 0.  1.
         -3    1    6    6    0  502  0.32318185103E+01 -0.16348732076E+02 -0.38170645853E+02  0.41650016762E+02  0.00000000000E+00 0.  1.
<mgrwt>
<rscale>  0 0.50059072E+04</rscale>
<asrwt>0</asrwt>
<pdfrwt beam="1">  1        1 0.56669179E+00 0.50059072E+04</pdfrwt>
<pdfrwt beam="2">  1       -1 0.26165676E+00 0.50059072E+04</pdfrwt>
<totfact> 0.75040839E-03</totfact>
</mgrwt>
</event>
<event>
12    1  0.2214165E-007  0.2311441E+04  0.7818608E-02  0.8473424E-01
          2   -1    0    0  501    0  0.00000000000E+00  0.00000000000E+00  0.11431850485E+04  0.11431850485E+04  0.00000000000E+00 0. -1.
         -2   -1    0    0    0  501 -0.00000000000E+00 -0.00000000000E+00 -0.11683933738E+04  0.11683933738E+04  0.00000000000E+00 0.  1.
         23    2    1    2    0    0  0.78329552155E+03 -0.49575262873E+03 -0.32331826625E+03  0.98602102808E+03  0.91543560941E+02 0.  0.
        254    2    1    2    0    0 -0.78329552155E+03  0.49575262873E+03  0.29810994092E+03  0.13255573942E+04  0.89939442157E+03 0.  0.
        -24    2    4    4    0    0 -0.94870274626E+03  0.35525050504E+03  0.37264271106E+03  0.10822197783E+04  0.78084802380E+02 0.  0.
         24    2    4    4    0    0  0.16540722470E+03  0.14050212369E+03 -0.74532770144E+02  0.24333761593E+03  0.80979409431E+02 0.  0.
         11    1    3    3    0    0  0.23053019028E+03 -0.19329930184E+03 -0.12050823962E+03  0.32408490329E+03  0.00000000000E+00 0.  1.
        -11    1    3    3    0    0  0.55276533127E+03 -0.30245332689E+03 -0.20281002663E+03  0.66193612479E+03  0.00000000000E+00 0. -1.
          4    1    6    6  502    0  0.57691897355E+02  0.84583405400E+02 -0.65699016527E+02  0.12165142113E+03  0.00000000000E+00 0. -1.
          1    1    5    5  503    0 -0.62560722798E+03  0.25545071919E+03  0.21506168797E+03  0.70914808275E+03  0.00000000000E+00 0. -1.
         -2    1    5    5    0  503 -0.32309551828E+03  0.99799785846E+02  0.15758102309E+03  0.37307169555E+03  0.00000000000E+00 0.  1.
         -3    1    6    6    0  502  0.10771532735E+03  0.55918718295E+02 -0.88337536176E+01  0.12168619480E+03  0.00000000000E+00 0.  1.
<mgrwt>
<rscale>  0 0.23114410E+04</rscale>
<asrwt>0</asrwt>
<pdfrwt beam="1">  1        2 0.17587462E+00 0.23114410E+04</pdfrwt>
<pdfrwt beam="2">  1       -2 0.17975283E+00 0.23114410E+04</pdfrwt>
<totfact> 0.33795835E+00</totfact>
</mgrwt>
</event>
<event>
12    1  0.2214165E-007  0.3055124E+04  0.7818608E-02  0.8228163E-01
         -2   -1    0    0    0  501 -0.00000000000E+00  0.00000000000E+00  0.18145644821E+04  0.18145644821E+04  0.00000000000E+00 0.  1.
          2   -1    0    0  501    0  0.00000000000E+00 -0.00000000000E+00 -0.12859539067E+04  0.12859539067E+04  0.00000000000E+00 0. -1.
         23    2    1    2    0    0  0.45037897342E+03 -0.13199083381E+04  0.22171945658E+03  0.14149280135E+04  0.88670881089E+02 0.  0.
        254    2    1    2    0    0 -0.45037897342E+03  0.13199083381E+04  0.30689111881E+03  0.16855903754E+04  0.89556323836E+03 0.  0.
        -24    2    4    4    0    0 -0.39547604306E+03  0.12625701701E+04 -0.34559789594E+02  0.13259743920E+04  0.80802067054E+02 0.  0.
         24    2    4    4    0    0 -0.54902930364E+02  0.57338168013E+02  0.34145090841E+03  0.35961598336E+03  0.80205581881E+02 0.  0.
         13    1    3    3    0    0  0.36734295153E+03 -0.10675733810E+04  0.14403764677E+03  0.11381566727E+04  0.00000000000E+00 0.  1.
        -13    1    3    3    0    0  0.83036021891E+02 -0.25233495715E+03  0.77681809804E+02  0.27677134083E+03  0.00000000000E+00 0. -1.
          4    1    6    6  502    0 -0.55802276129E+02  0.40174857085E+02  0.33379078014E+03  0.34079935163E+03  0.00000000000E+00 0. -1.
          3    1    5    5  503    0 -0.36062101182E+03  0.10535817830E+04 -0.24441764416E+02  0.11138579297E+04  0.00000000000E+00 0. -1.
         -4    1    5    5    0  503 -0.34855031235E+02  0.20898838711E+03 -0.10118025178E+02  0.21211646231E+03  0.00000000000E+00 0.  1.
         -3    1    6    6    0  502  0.89934576442E+00  0.17163310929E+02  0.76601282668E+01  0.18816631736E+02  0.00000000000E+00 0.  1.
<mgrwt>
<rscale>  0 0.30551244E+04</rscale>
<asrwt>0</asrwt>
<pdfrwt beam="1">  1        2 0.19783906E+00 0.30551244E+04</pdfrwt>
<pdfrwt beam="2">  1       -2 0.27916377E+00 0.30551244E+04</pdfrwt>
<totfact> 0.61169886E-01</totfact>
</mgrwt>
</event>
<event>
12    1  0.2214165E-007  0.2772119E+04  0.7818608E-02  0.8311977E-01
         -2   -1    0    0    0  501 -0.00000000000E+00  0.00000000000E+00  0.12626273436E+04  0.12626273436E+04  0.00000000000E+00 0.  1.
          2   -1    0    0  501    0  0.00000000000E+00 -0.00000000000E+00 -0.15215584987E+04  0.15215584987E+04  0.00000000000E+00 0. -1.
         23    2    1    2    0    0 -0.25492733317E+03 -0.12115950432E+04 -0.11790909542E+03  0.12472078064E+04  0.93135727431E+02 0.  0.
        254    2    1    2    0    0  0.25492733317E+03  0.12115950432E+04 -0.14102205970E+03  0.15369780359E+04  0.89970204383E+03 0.  0.
        -24    2    4    4    0    0  0.12808964985E+03  0.13293574737E+04 -0.97857441590E+02  0.13415728656E+04  0.81507199173E+02 0.  0.
         24    2    4    4    0    0  0.12683768332E+03 -0.11776243051E+03 -0.43164618107E+02  0.19540517033E+03  0.79775988775E+02 0.  0.
         13    1    3    3    0    0 -0.57146163595E+02 -0.42309143752E+03 -0.91195431468E+01  0.42703069513E+03  0.00000000000E+00 0.  1.
        -13    1    3    3    0    0 -0.19778116958E+03 -0.78850360565E+03 -0.10878955228E+03  0.82017711127E+03  0.00000000000E+00 0. -1.
          2    1    6    6  502    0  0.11104954793E+03 -0.11358336162E+03 -0.10876384597E+02  0.15922147429E+03  0.00000000000E+00 0. -1.
          3    1    5    5  503    0  0.55713063480E+02  0.50274071008E+03 -0.76079721174E+02  0.51150786014E+03  0.00000000000E+00 0. -1.
         -4    1    5    5    0  503  0.72376586373E+02  0.82661676361E+03 -0.21777720416E+02  0.83006500543E+03  0.00000000000E+00 0.  1.
         -1    1    6    6    0  502  0.15788135393E+02 -0.41790688865E+01 -0.32288233510E+02  0.36183696040E+02  0.00000000000E+00 0.  1.
<mgrwt>
<rscale>  0 0.27721193E+04</rscale>
<asrwt>0</asrwt>
<pdfrwt beam="1">  1        2 0.23408592E+00 0.27721193E+04</pdfrwt>
<pdfrwt beam="2">  1       -2 0.19425036E+00 0.27721193E+04</pdfrwt>
<totfact> 0.15629951E+00</totfact>
</mgrwt>
</event>
<event>
12    1  0.2214165E-007  0.3351826E+04  0.7818608E-02  0.8149832E-01
          3   -1    0    0  501    0  0.00000000000E+00  0.00000000000E+00  0.13354517715E+04  0.13354517715E+04  0.00000000000E+00 0. -1.
         -3   -1    0    0    0  501 -0.00000000000E+00 -0.00000000000E+00 -0.21031715945E+04  0.21031715945E+04  0.00000000000E+00 0.  1.
         23    2    1    2    0    0  0.67898718249E+03 -0.13799751768E+04 -0.58351888875E+03  0.16473852500E+04  0.89603493524E+02 0.  0.
        254    2    1    2    0    0 -0.67898718249E+03  0.13799751768E+04 -0.18420093417E+03  0.17912381160E+04  0.89958263739E+03 0.  0.
        -24    2    4    4    0    0  0.47663644254E+02 -0.42714244636E+01 -0.20379494392E+03  0.22558943010E+03  0.84072253171E+02 0.  0.
         24    2    4    4    0    0 -0.72665082675E+03  0.13842466012E+04  0.19594009753E+02  0.15656486859E+04  0.81925608543E+02 0.  0.
         11    1    3    3    0    0  0.34060472162E+02 -0.74516119266E+02 -0.53467500967E+02  0.97834255014E+02  0.00000000000E+00 0.  1.
        -11    1    3    3    0    0  0.64492671033E+03 -0.13054590575E+04 -0.53005138778E+03  0.15495509950E+04  0.00000000000E+00 0. -1.
          2    1    6    6  502    0 -0.45346012489E+03  0.94137365130E+03 -0.70656888391E+00  0.10448975718E+04  0.00000000000E+00 0. -1.
          1    1    5    5  503    0  0.14086206038E+02 -0.65291742027E+01 -0.18760142688E+03  0.18824278654E+03  0.00000000000E+00 0. -1.
         -2    1    5    5    0  503  0.33577438217E+02  0.22577497391E+01 -0.16193517044E+02  0.37346643562E+02  0.00000000000E+00 0.  1.
         -1    1    6    6    0  502 -0.27319070185E+03  0.44287294993E+03  0.20300578637E+02  0.52075111411E+03  0.00000000000E+00 0.  1.
<mgrwt>
<rscale>  0 0.33518259E+04</rscale>
<asrwt>0</asrwt>
<pdfrwt beam="1">  1        3 0.20545412E+00 0.33518259E+04</pdfrwt>
<pdfrwt beam="2">  1       -3 0.32356486E+00 0.33518259E+04</pdfrwt>
<totfact> 0.82188478E-03</totfact>
</mgrwt>
</event>
<event>
12    1  0.2214165E-007  0.3018615E+04  0.7818608E-02  0.8238435E-01
         -2   -1    0    0    0  501 -0.00000000000E+00  0.00000000000E+00  0.25970599164E+04  0.25970599164E+04  0.00000000000E+00 0.  1.
          2   -1    0    0  501    0  0.00000000000E+00 -0.00000000000E+00 -0.87714917376E+03  0.87714917376E+03  0.00000000000E+00 0. -1.
         23    2    1    2    0    0 -0.30181581417E+03  0.11511375194E+04 -0.47096523727E+01  0.11934521150E+04  0.89974416562E+02 0.  0.
        254    2    1    2    0    0  0.30181581417E+03 -0.11511375194E+04  0.17246203950E+04  0.22807569752E+04  0.90073664228E+03 0.  0.
        -24    2    4    4    0    0 -0.66020980774E+02 -0.16458436204E+03  0.95363007812E+03  0.97327604669E+03  0.80057198575E+02 0.  0.
         24    2    4    4    0    0  0.36783679494E+03 -0.98655315736E+03  0.77099031687E+03  0.13074809285E+04  0.80556003033E+02 0.  0.
         11    1    3    3    0    0 -0.88882780399E+02  0.38116282630E+03 -0.42461593523E+02  0.39368545278E+03  0.00000000000E+00 0.  1.
        -11    1    3    3    0    0 -0.21293303377E+03  0.76997469309E+03  0.37751941150E+02  0.79976666218E+03  0.00000000000E+00 0. -1.
          2    1    6    6  502    0  0.24518213756E+03 -0.69681730096E+03  0.49751636258E+03  0.89061280169E+03  0.00000000000E+00 0. -1.
          1    1    5    5  503    0 -0.17702421510E+01 -0.11019393788E+03  0.51999389174E+03  0.53154443385E+03  0.00000000000E+00 0. -1.
         -2    1    5    5    0  503 -0.64250738623E+02 -0.54390424156E+02  0.43363618638E+03  0.44173161285E+03  0.00000000000E+00 0.  1.
         -1    1    6    6    0  502  0.12265465738E+03 -0.28973585640E+03  0.27347395429E+03  0.41686812679E+03  0.00000000000E+00 0.  1.
<mgrwt>
<rscale>  0 0.30186149E+04</rscale>
<asrwt>0</asrwt>
<pdfrwt beam="1">  1        2 0.13494603E+00 0.30186149E+04</pdfrwt>
<pdfrwt beam="2">  1       -2 0.39954768E+00 0.30186149E+04</pdfrwt>
<totfact> 0.19399228E-01</totfact>
</mgrwt>
</event>
<event>
12    1  0.2214165E-007  0.1330235E+04  0.7818608E-02  0.9005926E-01
         -2   -1    0    0    0  501 -0.00000000000E+00  0.00000000000E+00  0.28555426128E+03  0.28555426128E+03  0.00000000000E+00 0.  1.
          2   -1    0    0  501    0  0.00000000000E+00 -0.00000000000E+00 -0.15492031055E+04  0.15492031055E+04  0.00000000000E+00 0. -1.
         23    2    1    2    0    0 -0.14703947869E+03  0.41804961054E+02  0.89035723591E+02  0.20242917698E+03  0.98396893016E+02 0.  0.
        254    2    1    2    0    0  0.14703947869E+03 -0.41804961054E+02 -0.13526845678E+04  0.16323281898E+04  0.90076163115E+03 0.  0.
        -24    2    4    4    0    0  0.20724539861E+02 -0.16034424778E+03 -0.14183510111E+04  0.14297366625E+04  0.79294067683E+02 0.  0.
         24    2    4    4    0    0  0.12631493883E+03  0.11853928672E+03  0.65666443307E+02  0.20259152725E+03  0.82001334562E+02 0.  0.
         13    1    3    3    0    0 -0.14213191735E+03  0.34238051453E+02  0.38619236198E+02  0.15121233912E+03  0.00000000000E+00 0. -1.
        -13    1    3    3    0    0 -0.49075613357E+01  0.75669096010E+01  0.50416487393E+02  0.51216837859E+02  0.00000000000E+00 0.  1.
          2    1    6    6  502    0  0.31763012385E+02  0.51605072549E+02  0.61989736281E+02  0.86687368588E+02  0.00000000000E+00 0. -1.
          1    1    5    5  503    0  0.34883685876E+02 -0.13926052008E+03 -0.13324003299E+04  0.13401123098E+04  0.00000000000E+00 0. -1.
         -2    1    5    5    0  503 -0.14159146015E+02 -0.21083727696E+02 -0.85950681212E+02  0.89624352663E+02  0.00000000000E+00 0.  1.
         -1    1    6    6    0  502  0.94551926442E+02  0.66934214173E+02  0.36767070267E+01  0.11590415866E+03  0.00000000000E+00 0.  1.
<mgrwt>
<rscale>  0 0.13302354E+04</rscale>
<asrwt>0</asrwt>
<pdfrwt beam="1">  1        2 0.23833893E+00 0.13302354E+04</pdfrwt>
<pdfrwt beam="2">  1       -2 0.43931426E-01 0.13302354E+04</pdfrwt>
<totfact> 0.57215595E+01</totfact>
</mgrwt>
</event>
<event>
12    1  0.2214165E-007  0.1632426E+04  0.7818608E-02  0.8800871E-01
          3   -1    0    0  501    0  0.00000000000E+00  0.00000000000E+00  0.10704548928E+04  0.10704548928E+04  0.00000000000E+00 0. -1.
         -3   -1    0    0    0  501 -0.00000000000E+00 -0.00000000000E+00 -0.62235577848E+03  0.62235577848E+03  0.00000000000E+00 0.  1.
         23    2    1    2    0    0  0.12236319747E+03 -0.48210715084E+03 -0.11061064587E+03  0.51791853165E+03  0.92762241585E+02 0.  0.
        254    2    1    2    0    0 -0.12236319747E+03  0.48210715084E+03  0.55870976018E+03  0.11748921396E+04  0.90598834796E+03 0.  0.
        -24    2    4    4    0    0  0.85058641609E+02  0.46548404651E+03 -0.90581134311E+02  0.48843840957E+03  0.80354016632E+02 0.  0.
         24    2    4    4    0    0 -0.20742183907E+03  0.16623104328E+02  0.64929089449E+03  0.68645373005E+03  0.79623557454E+02 0.  0.
         11    1    3    3    0    0  0.63023316189E+02 -0.36168854620E+03 -0.49650425702E+02  0.37048037412E+03  0.00000000000E+00 0. -1.
        -11    1    3    3    0    0  0.59339881277E+02 -0.12041860463E+03 -0.60960220167E+02  0.14743815753E+03  0.00000000000E+00 0.  1.
          2    1    6    6  502    0 -0.17538376097E+03  0.26069955000E+02  0.60809410945E+03  0.63341736013E+03  0.00000000000E+00 0. -1.
          1    1    5    5  503    0  0.78228821492E+02  0.46523649815E+03 -0.84469743700E+02  0.47927015902E+03  0.00000000000E+00 0. -1.
         -2    1    5    5    0  503  0.68298201168E+01  0.24754835374E+00 -0.61113906115E+01  0.91682505541E+01  0.00000000000E+00 0.  1.
         -1    1    6    6    0  502 -0.32038078101E+02 -0.94468506718E+01  0.41196785040E+02  0.53036369914E+02  0.00000000000E+00 0.  1.
<mgrwt>
<rscale>  0 0.16324262E+04</rscale>
<asrwt>0</asrwt>
<pdfrwt beam="1">  1        3 0.16468537E+00 0.16324262E+04</pdfrwt>
<pdfrwt beam="2">  1       -3 0.95747043E-01 0.16324262E+04</pdfrwt>
<totfact> 0.61249101E-01</totfact>
</mgrwt>
</event>
<event>
12    1  0.2214165E-007  0.1980411E+04  0.7818608E-02  0.8615834E-01
         -1   -1    0    0    0  501 -0.00000000000E+00  0.00000000000E+00  0.15686347289E+04  0.15686347289E+04  0.00000000000E+00 0.  1.
          1   -1    0    0  501    0  0.00000000000E+00 -0.00000000000E+00 -0.62507038893E+03  0.62507038893E+03  0.00000000000E+00 0. -1.
         23    2    1    2    0    0 -0.28294584160E+03  0.62445109929E+03  0.79514262029E+03  0.10536386864E+04  0.88911024283E+02 0.  0.
        254    2    1    2    0    0  0.28294584160E+03 -0.62445109929E+03  0.14842171969E+03  0.11400664314E+04  0.89873518706E+03 0.  0.
        -24    2    4    4    0    0  0.57666582447E+03 -0.57670429506E+03  0.14530313014E+03  0.83222247850E+03  0.79686492212E+02 0.  0.
         24    2    4    4    0    0 -0.29371998287E+03 -0.47746804229E+02  0.31185895453E+01  0.30784395290E+03  0.78784440634E+02 0.  0.
         13    1    3    3    0    0 -0.19101220852E+03  0.36866059216E+03  0.53684538359E+03  0.67867463626E+03  0.00000000000E+00 0.  1.
        -13    1    3    3    0    0 -0.91933633082E+02  0.25579050713E+03  0.25829723669E+03  0.37496405016E+03  0.00000000000E+00 0. -1.
          4    1    6    6  502    0  0.45081959112E+01  0.24243053336E+01  0.17884229577E+01  0.54221345797E+01  0.00000000000E+00 0. -1.
          1    1    5    5  503    0  0.74914798518E+02 -0.42543061346E+02  0.70788679100E+01  0.86442174178E+02  0.00000000000E+00 0. -1.
         -2    1    5    5    0  503  0.50175102595E+03 -0.53416123372E+03  0.13822426223E+03  0.74578030432E+03  0.00000000000E+00 0.  1.
         -1    1    6    6    0  502 -0.29822817878E+03 -0.50171109563E+02  0.13301665875E+01  0.30242181832E+03  0.00000000000E+00 0.  1.
<mgrwt>
<rscale>  0 0.19804112E+04</rscale>
<asrwt>0</asrwt>
<pdfrwt beam="1">  1        1 0.96164676E-01 0.19804112E+04</pdfrwt>
<pdfrwt beam="2">  1       -1 0.24132842E+00 0.19804112E+04</pdfrwt>
<totfact> 0.23821804E+00</totfact>
</mgrwt>
</event>
<event>
12    1  0.2214165E-007  0.2362107E+04  0.7818608E-02  0.8453828E-01
         -2   -1    0    0    0  501 -0.00000000000E+00  0.00000000000E+00  0.44376428038E+03  0.44376428038E+03  0.00000000000E+00 0.  1.
          2   -1    0    0  501    0  0.00000000000E+00 -0.00000000000E+00 -0.31433069181E+04  0.31433069181E+04  0.00000000000E+00 0. -1.
         23    2    1    2    0    0 -0.38711999385E+03  0.81870327612E+03 -0.49504348201E+03  0.10357325992E+04  0.86816034872E+02 0.  0.
        254    2    1    2    0    0  0.38711999385E+03 -0.81870327612E+03 -0.22044991557E+04  0.25513385993E+04  0.91070037713E+03 0.  0.
        -24    2    4    4    0    0  0.15907444306E+03 -0.18314642506E+03 -0.11721777289E+02  0.25556961539E+03  0.79568440977E+02 0.  0.
         24    2    4    4    0    0  0.22804555079E+03 -0.63555685106E+03 -0.21927773784E+04  0.22957689839E+04  0.79657467397E+02 0.  0.
         13    1    3    3    0    0 -0.55324055172E+02  0.20190856178E+03 -0.11805096376E+03  0.24034110852E+03  0.00000000000E+00 0. -1.
        -13    1    3    3    0    0 -0.33179593868E+03  0.61679471434E+03 -0.37699251825E+03  0.79539149064E+03  0.00000000000E+00 0.  1.
          4    1    6    6  502    0  0.21328833640E+03 -0.55925180566E+03 -0.18553634266E+04  0.19495199259E+04  0.00000000000E+00 0. -1.
          3    1    5    5  503    0  0.22310160825E+02 -0.27355397687E+02  0.27299421631E+02  0.44624202850E+02  0.00000000000E+00 0. -1.
         -4    1    5    5    0  503  0.13676428224E+03 -0.15579102737E+03 -0.39021198920E+02  0.21094541254E+03  0.00000000000E+00 0.  1.
         -3    1    6    6    0  502  0.14757214386E+02 -0.76305045399E+02 -0.33741395181E+03  0.34624905806E+03  0.00000000000E+00 0.  1.
<mgrwt>
<rscale>  0 0.23621070E+04</rscale>
<asrwt>0</asrwt>
<pdfrwt beam="1">  1        2 0.48358568E+00 0.23621070E+04</pdfrwt>
<pdfrwt beam="2">  1       -2 0.68271428E-01 0.23621070E+04</pdfrwt>
<totfact> 0.25017337E+00</totfact>
</mgrwt>
</event>
<event>
12    1  0.2214165E-007  0.1974731E+04  0.7818608E-02  0.8618526E-01
          1   -1    0    0  501    0  0.00000000000E+00  0.00000000000E+00  0.29597479572E+04  0.29597479572E+04  0.00000000000E+00 0. -1.
         -1   -1    0    0    0  501 -0.00000000000E+00 -0.00000000000E+00 -0.32938312985E+03  0.32938312985E+03  0.00000000000E+00 0.  1.
         23    2    1    2    0    0 -0.42416421086E+03  0.37109903983E+03  0.14711319265E+03  0.58929011217E+03  0.89391105351E+02 0.  0.
        254    2    1    2    0    0  0.42416421086E+03 -0.37109903983E+03  0.24832516347E+04  0.26998409749E+04  0.89720278272E+03 0.  0.
        -24    2    4    4    0    0 -0.25277003418E+03 -0.25506706895E+02  0.94270575708E+03  0.98018347048E+03  0.86730669761E+02 0.  0.
         24    2    4    4    0    0  0.67693424504E+03 -0.34559233293E+03  0.15405458776E+04  0.17196575044E+04  0.79159956792E+02 0.  0.
         11    1    3    3    0    0 -0.13923335646E+03  0.16341636963E+03  0.24918832942E+02  0.21612909486E+03  0.00000000000E+00 0.  1.
        -11    1    3    3    0    0 -0.28493085440E+03  0.20768267020E+03  0.12219435970E+03  0.37316101730E+03  0.00000000000E+00 0. -1.
          4    1    6    6  502    0  0.27177316487E+03 -0.18156717538E+03  0.67918439400E+03  0.75373651456E+03  0.00000000000E+00 0. -1.
          3    1    5    5  503    0 -0.33052987827E+02  0.77788444108E+01  0.26031102936E+03  0.26251636602E+03  0.00000000000E+00 0. -1.
         -4    1    5    5    0  503 -0.21971704636E+03 -0.33285551306E+02  0.68239472773E+03  0.71766710445E+03  0.00000000000E+00 0.  1.
         -3    1    6    6    0  502  0.40516108017E+03 -0.16402515755E+03  0.86136148363E+03  0.96592098987E+03  0.00000000000E+00 0.  1.
<mgrwt>
<rscale>  0 0.19747314E+04</rscale>
<asrwt>0</asrwt>
<pdfrwt beam="1">  1        1 0.45534582E+00 0.19747314E+04</pdfrwt>
<pdfrwt beam="2">  1       -1 0.50674330E-01 0.19747314E+04</pdfrwt>
<totfact> 0.23304314E+00</totfact>
</mgrwt>
</event>
<event>
12    1  0.2214165E-007  0.1098070E+04  0.7818608E-02  0.9207075E-01
          2   -1    0    0  501    0  0.00000000000E+00  0.00000000000E+00  0.10202254900E+04  0.10202254900E+04  0.00000000000E+00 0. -1.
         -2   -1    0    0    0  501 -0.00000000000E+00 -0.00000000000E+00 -0.29546380091E+03  0.29546380091E+03  0.00000000000E+00 0.  1.
         23    2    1    2    0    0 -0.51528208918E+01 -0.12172499875E+03  0.25829446057E+03  0.29876041327E+03  0.87739553747E+02 0.  0.
        254    2    1    2    0    0  0.51528208918E+01  0.12172499875E+03  0.46646722856E+03  0.10169288777E+04  0.89538211956E+03 0.  0.
        -24    2    4    4    0    0 -0.12432742780E+03  0.39766794236E+03 -0.33698818954E+02  0.42576808986E+03  0.80905835773E+02 0.  0.
         24    2    4    4    0    0  0.12948024869E+03 -0.27594294360E+03  0.50016604751E+03  0.59116078781E+03  0.79970988715E+02 0.  0.
         13    1    3    3    0    0 -0.21207843036E+02 -0.83261557356E+02  0.86263720988E+02  0.12175257327E+03  0.00000000000E+00 0.  1.
        -13    1    3    3    0    0  0.16055022144E+02 -0.38463441399E+02  0.17203073958E+03  0.17700784000E+03  0.00000000000E+00 0. -1.
          4    1    6    6  502    0  0.42305923830E+01 -0.52564421451E+02  0.47010903608E+02  0.70646594910E+02  0.00000000000E+00 0. -1.
          3    1    5    5  503    0 -0.45533255117E+02  0.27426142872E+03 -0.21690948815E+02  0.27886036984E+03  0.00000000000E+00 0. -1.
         -4    1    5    5    0  503 -0.78794172685E+02  0.12340651363E+03 -0.12007870139E+02  0.14690772002E+03  0.00000000000E+00 0.  1.
         -3    1    6    6    0  502  0.12524965631E+03 -0.22337852215E+03  0.45315514390E+03  0.52051419290E+03  0.00000000000E+00 0.  1.
<mgrwt>
<rscale>  0 0.10980705E+04</rscale>
<asrwt>0</asrwt>
<pdfrwt beam="1">  1        2 0.15695777E+00 0.10980705E+04</pdfrwt>
<pdfrwt beam="2">  1       -2 0.45455970E-01 0.10980705E+04</pdfrwt>
<totfact> 0.11136587E+02</totfact>
</mgrwt>
</event>
<event>
12    1  0.2598768E-007  0.2902103E+04  0.7818608E-02  0.8272252E-01
         -2   -1    0    0    0  501 -0.00000000000E+00  0.00000000000E+00  0.18287445862E+04  0.18287445862E+04  0.00000000000E+00 0. -1.
          2   -1    0    0  501    0  0.00000000000E+00 -0.00000000000E+00 -0.11513636244E+04  0.11513636244E+04  0.00000000000E+00 0.  1.
         23    2    1    2    0    0  0.11823349005E+04  0.51749312427E+03  0.53429352202E+03  0.13997638750E+04  0.90301647127E+02 0.  0.
        254    2    1    2    0    0 -0.11823349005E+04 -0.51749312427E+03  0.14308743972E+03  0.15803443356E+04  0.90072151794E+03 0.  0.
        -24    2    4    4    0    0 -0.76139344293E+03  0.23309989917E+02  0.37466498731E+03  0.85259339062E+03  0.79235764915E+02 0.  0.
         24    2    4    4    0    0 -0.42094145758E+03 -0.54080311419E+03 -0.23157754759E+03  0.72775094493E+03  0.79583655865E+02 0.  0.
         11    1    3    3    0    0  0.55691854641E+03  0.20453291141E+03  0.21595989396E+03  0.63137204166E+03  0.00000000000E+00 0. -1.
        -11    1    3    3    0    0  0.62541635410E+03  0.31296021285E+03  0.31833362806E+03  0.76839183335E+03  0.00000000000E+00 0.  1.
          4    1    6    6  502    0 -0.65112494228E+02 -0.12957020003E+03 -0.32172241065E+02  0.14853661749E+03  0.00000000000E+00 0. -1.
          3    1    5    5  503    0 -0.44658038262E+03  0.75273148566E+01  0.17640516721E+03  0.48021816045E+03  0.00000000000E+00 0. -1.
         -4    1    5    5    0  503 -0.31481306031E+03  0.15782675061E+02  0.19825982010E+03  0.37237523017E+03  0.00000000000E+00 0.  1.
         -3    1    6    6    0  502 -0.35582896335E+03 -0.41123291416E+03 -0.19940530653E+03  0.57921432744E+03  0.00000000000E+00 0.  1.
<mgrwt>
<rscale>  0 0.29021027E+04</rscale>
<asrwt>0</asrwt>
<pdfrwt beam="1">  1        2 0.17713287E+00 0.29021027E+04</pdfrwt>
<pdfrwt beam="2">  1       -2 0.28134532E+00 0.29021027E+04</pdfrwt>
<totfact> 0.72256531E-01</totfact>
</mgrwt>
</event>
<event>
12    1  0.2214165E-007  0.1655307E+04  0.7818608E-02  0.8787273E-01
         -2   -1    0    0    0  501 -0.00000000000E+00  0.00000000000E+00  0.68310140236E+03  0.68310140236E+03  0.00000000000E+00 0. -1.
          2   -1    0    0  501    0  0.00000000000E+00 -0.00000000000E+00 -0.10027939271E+04  0.10027939271E+04  0.00000000000E+00 0.  1.
         23    2    1    2    0    0  0.39039000144E+03  0.17700866651E+03 -0.50377689411E+03  0.66828761771E+03  0.95293020170E+02 0.  0.
        254    2    1    2    0    0 -0.39039000144E+03 -0.17700866651E+03  0.18408436933E+03  0.10176077118E+04  0.90437933348E+03 0.  0.
        -24    2    4    4    0    0 -0.38931499308E+03 -0.34966519117E+03 -0.21860072760E+03  0.57293022563E+03  0.81430065620E+02 0.  0.
         24    2    4    4    0    0 -0.10750083651E+01  0.17265652466E+03  0.40268509693E+03  0.44467748616E+03  0.75969390300E+02 0.  0.
         11    1    3    3    0    0  0.13710659846E+03  0.23072992281E+02 -0.20269384702E+03  0.24579539852E+03  0.00000000000E+00 0.  1.
        -11    1    3    3    0    0  0.25328340298E+03  0.15393567423E+03 -0.30108304709E+03  0.42249221918E+03  0.00000000000E+00 0. -1.
          2    1    6    6  502    0  0.26698995307E+02  0.19762070742E+02  0.73428437422E+02  0.80592252808E+02  0.00000000000E+00 0. -1.
          3    1    5    5  503    0 -0.44213346213E+02 -0.13022303351E+02 -0.77645807608E+01  0.46740657701E+02  0.00000000000E+00 0. -1.
         -4    1    5    5    0  503 -0.34510164686E+03 -0.33664288782E+03 -0.21083614683E+03  0.52618956793E+03  0.00000000000E+00 0.  1.
         -1    1    6    6    0  502 -0.27774003672E+02  0.15289445392E+03  0.32925665950E+03  0.36408523335E+03  0.00000000000E+00 0.  1.
<mgrwt>
<rscale>  0 0.16553065E+04</rscale>
<asrwt>0</asrwt>
<pdfrwt beam="1">  1        2 0.15427599E+00 0.16553065E+04</pdfrwt>
<pdfrwt beam="2">  1       -2 0.10509252E+00 0.16553065E+04</pdfrwt>
<totfact> 0.17572540E+01</totfact>
</mgrwt>
</event>
<event>
12    1  0.2214165E-007  0.1325338E+04  0.7818608E-02  0.9009710E-01
          2   -1    0    0  501    0  0.00000000000E+00  0.00000000000E+00  0.29687690329E+04  0.29687690329E+04  0.00000000000E+00 0. -1.
         -2   -1    0    0    0  501 -0.00000000000E+00 -0.00000000000E+00 -0.14791664999E+03  0.14791664999E+03  0.00000000000E+00 0.  1.
         23    2    1    2    0    0 -0.76843093010E+02 -0.12302078638E+03  0.21687427998E+02  0.17269479843E+03  0.91182092798E+02 0.  0.
        254    2    1    2    0    0  0.76843093010E+02  0.12302078638E+03  0.27991649549E+04  0.29439908844E+04  0.90039930481E+03 0.  0.
        -24    2    4    4    0    0 -0.28911499228E+03 -0.19918259749E+03  0.69685594634E+03  0.78442658082E+03  0.80347152063E+02 0.  0.
         24    2    4    4    0    0  0.36595808529E+03  0.32220338387E+03  0.21023090086E+04  0.21595643036E+04  0.79211572491E+02 0.  0.
         11    1    3    3    0    0 -0.44769263705E+02 -0.68595804291E+02  0.57497556831E+02  0.10007817135E+03  0.00000000000E+00 0. -1.
        -11    1    3    3    0    0 -0.32073829305E+02 -0.54424982089E+02 -0.35810128833E+02  0.72616627082E+02  0.00000000000E+00 0.  1.
          4    1    6    6  502    0  0.16097837958E+03  0.11333840529E+03  0.99120255110E+03  0.10105652528E+04  0.00000000000E+00 0. -1.
          1    1    5    5  503    0 -0.15204715223E+03 -0.83529816474E+02  0.26410212593E+03  0.31598338511E+03  0.00000000000E+00 0. -1.
         -2    1    5    5    0  503 -0.13706784005E+03 -0.11565278102E+03  0.43275382041E+03  0.46844319571E+03  0.00000000000E+00 0.  1.
         -3    1    6    6    0  502  0.20497970571E+03  0.20886497858E+03  0.11111064575E+04  0.11489990508E+04  0.00000000000E+00 0.  1.
<mgrwt>
<rscale>  0 0.13253383E+04</rscale>
<asrwt>0</asrwt>
<pdfrwt beam="1">  1        2 0.45673365E+00 0.13253383E+04</pdfrwt>
<pdfrwt beam="2">  1       -2 0.22756410E-01 0.13253383E+04</pdfrwt>
<totfact> 0.30603763E+01</totfact>
</mgrwt>
</event>
<event>
12    1  0.2214165E-007  0.2640978E+04  0.7818608E-02  0.8354414E-01
         -2   -1    0    0    0  501 -0.00000000000E+00  0.00000000000E+00  0.48102273170E+03  0.48102273170E+03  0.00000000000E+00 0.  1.
          2   -1    0    0  501    0  0.00000000000E+00 -0.00000000000E+00 -0.36249660775E+04  0.36249660775E+04  0.00000000000E+00 0. -1.
         23    2    1    2    0    0 -0.96735951005E+02  0.10246595989E+04 -0.22410859800E+04  0.24677429846E+04  0.89464689427E+02 0.  0.
        254    2    1    2    0    0  0.96735951005E+02 -0.10246595989E+04 -0.90285736580E+03  0.16382458245E+04  0.89967373017E+03 0.  0.
        -24    2    4    4    0    0  0.48516217435E+03 -0.62619349136E+03 -0.61858877027E+03  0.10082978608E+04  0.80696253737E+02 0.  0.
         24    2    4    4    0    0 -0.38842622335E+03 -0.39846610757E+03 -0.28426859553E+03  0.62994796373E+03  0.79847559354E+02 0.  0.
         13    1    3    3    0    0 -0.93236128087E+02  0.61998575083E+03 -0.14251209026E+04  0.15569344539E+04  0.00000000000E+00 0. -1.
        -13    1    3    3    0    0 -0.34998229174E+01  0.40467384811E+03 -0.81596507739E+03  0.91080853072E+03  0.00000000000E+00 0.  1.
          4    1    6    6  502    0 -0.37620572356E+03 -0.40053121121E+03 -0.28071380077E+03  0.61705448344E+03  0.00000000000E+00 0. -1.
          3    1    5    5  503    0  0.44106879400E+03 -0.52767448158E+03 -0.54748907976E+03  0.87904853791E+03  0.00000000000E+00 0. -1.
         -4    1    5    5    0  503  0.44093380354E+02 -0.98519009781E+02 -0.71099690516E+02  0.12924932290E+03  0.00000000000E+00 0.  1.
         -3    1    6    6    0  502 -0.12220499792E+02  0.20651036370E+01 -0.35547947523E+01  0.12893480288E+02  0.00000000000E+00 0.  1.
<mgrwt>
<rscale>  0 0.26409779E+04</rscale>
<asrwt>0</asrwt>
<pdfrwt beam="1">  1        2 0.55768712E+00 0.26409779E+04</pdfrwt>
<pdfrwt beam="2">  1       -2 0.74003493E-01 0.26409779E+04</pdfrwt>
<totfact> 0.96119132E-01</totfact>
</mgrwt>
</event>
<event>
12    1  0.2214165E-007  0.2031211E+04  0.7818608E-02  0.8592166E-01
         -2   -1    0    0    0  501 -0.00000000000E+00  0.00000000000E+00  0.69432028340E+03  0.69432028340E+03  0.00000000000E+00 0.  1.
          2   -1    0    0  501    0  0.00000000000E+00 -0.00000000000E+00 -0.14855601364E+04  0.14855601364E+04  0.00000000000E+00 0. -1.
         23    2    1    2    0    0  0.71135613366E+03  0.32086553271E+03 -0.83980108783E+02  0.79031720227E+03  0.92554754343E+02 0.  0.
        254    2    1    2    0    0 -0.71135613366E+03 -0.32086553271E+03 -0.70725974418E+03  0.13895632175E+04  0.90646971858E+03 0.  0.
        -24    2    4    4    0    0  0.17692521199E+03 -0.77471438184E+02  0.24853490625E+02  0.21039694845E+03  0.79654413249E+02 0.  0.
         24    2    4    4    0    0 -0.88828134565E+03 -0.24339409453E+03 -0.73211323481E+03  0.11791662690E+04  0.78478450418E+02 0.  0.
         13    1    3    3    0    0  0.67120267075E+02  0.29552879175E+02 -0.35880009602E+02  0.81644828427E+02  0.00000000000E+00 0. -1.
        -13    1    3    3    0    0  0.64423586658E+03  0.29131265354E+03 -0.48100099181E+02  0.70867237384E+03  0.00000000000E+00 0.  1.
          4    1    6    6  502    0 -0.63354375685E+03 -0.14648338809E+03 -0.54657541591E+03  0.84945850994E+03  0.00000000000E+00 0. -1.
          1    1    5    5  503    0  0.61510756799E+02 -0.64955287470E+02  0.29545812053E+02  0.94211026861E+02  0.00000000000E+00 0. -1.
         -2    1    5    5    0  503  0.11541445519E+03 -0.12516150714E+02 -0.46923214277E+01  0.11618592159E+03  0.00000000000E+00 0.  1.
         -3    1    6    6    0  502 -0.25473758880E+03 -0.96910706438E+02 -0.18553781889E+03  0.32970775910E+03  0.00000000000E+00 0.  1.
<mgrwt>
<rscale>  0 0.20312110E+04</rscale>
<asrwt>0</asrwt>
<pdfrwt beam="1">  1        2 0.22854771E+00 0.20312110E+04</pdfrwt>
<pdfrwt beam="2">  1       -2 0.10681851E+00 0.20312110E+04</pdfrwt>
<totfact> 0.84558486E+00</totfact>
</mgrwt>
</event>
<event>
12    1  0.2214165E-007  0.2719279E+04  0.7818608E-02  0.8328776E-01
          3   -1    0    0  501    0  0.00000000000E+00  0.00000000000E+00  0.11322778718E+04  0.11322778718E+04  0.00000000000E+00 0. -1.
         -3   -1    0    0    0  501 -0.00000000000E+00 -0.00000000000E+00 -0.16326559148E+04  0.16326559148E+04  0.00000000000E+00 0.  1.
         23    2    1    2    0    0 -0.36012633896E+03  0.70234264499E+03 -0.11538783872E+04  0.14010548392E+04  0.92429210133E+02 0.  0.
        254    2    1    2    0    0  0.36012633896E+03 -0.70234264499E+03  0.65350034429E+03  0.13638789474E+04  0.90007050408E+03 0.  0.
        -24    2    4    4    0    0 -0.87096877512E+02  0.13853761274E+01 -0.15731957833E+03  0.19817648978E+03  0.83286769880E+02 0.  0.
         24    2    4    4    0    0  0.44722321647E+03 -0.70372802111E+03  0.81081992262E+03  0.11657024577E+04  0.78686338217E+02 0.  0.
         13    1    3    3    0    0 -0.63188555745E+02  0.65346186459E+02 -0.15537631661E+03  0.18001310348E+03  0.00000000000E+00 0.  1.
        -13    1    3    3    0    0 -0.29693778322E+03  0.63699645853E+03 -0.99850207060E+03  0.12210417357E+04  0.00000000000E+00 0. -1.
          2    1    6    6  502    0  0.33461126491E+03 -0.53575143978E+03  0.65888568595E+03  0.91275662198E+03  0.00000000000E+00 0. -1.
          3    1    5    5  503    0 -0.64298482813E+02 -0.38217817723E+02 -0.95819314460E+02  0.12155754813E+03  0.00000000000E+00 0. -1.
         -4    1    5    5    0  503 -0.22798394699E+02  0.39603193850E+02 -0.61500263871E+02  0.76618941654E+02  0.00000000000E+00 0.  1.
         -1    1    6    6    0  502  0.11261195156E+03 -0.16797658134E+03  0.15193423667E+03  0.25294583568E+03  0.00000000000E+00 0.  1.
<mgrwt>
<rscale>  0 0.27192794E+04</rscale>
<asrwt>0</asrwt>
<pdfrwt beam="1">  1        3 0.17419660E+00 0.27192794E+04</pdfrwt>
<pdfrwt beam="2">  1       -3 0.25117783E+00 0.27192794E+04</pdfrwt>
<totfact> 0.35625049E-02</totfact>
</mgrwt>
</event>
<event>
12    1  0.2214165E-007  0.2113117E+04  0.7818608E-02  0.8555487E-01
         -2   -1    0    0    0  501 -0.00000000000E+00  0.00000000000E+00  0.82167603596E+03  0.82167603596E+03  0.00000000000E+00 0.  1.
          2   -1    0    0  501    0  0.00000000000E+00 -0.00000000000E+00 -0.13585834843E+04  0.13585834843E+04  0.00000000000E+00 0. -1.
         23    2    1    2    0    0  0.82238212652E+02  0.69625282998E+03 -0.73998447011E+03  0.10232626856E+04  0.89209757812E+02 0.  0.
        254    2    1    2    0    0 -0.82238212652E+02 -0.69625282998E+03  0.20307702181E+03  0.11569968346E+04  0.89770277466E+03 0.  0.
        -24    2    4    4    0    0 -0.17296065802E+03  0.17530943524E+03  0.44448627401E+02  0.26276355846E+03  0.80126274554E+02 0.  0.
         24    2    4    4    0    0  0.90722445368E+02 -0.87156226522E+03  0.15862839441E+03  0.89423327614E+03  0.81479079543E+02 0.  0.
         11    1    3    3    0    0  0.73959631932E+02  0.58542662052E+03 -0.57178840609E+03  0.82166680382E+03  0.00000000000E+00 0.  1.
        -11    1    3    3    0    0  0.82785807191E+01  0.11082620946E+03 -0.16819606402E+03  0.20159588179E+03  0.00000000000E+00 0. -1.
          4    1    6    6  502    0  0.56529762908E+02 -0.53875203493E+03  0.57672713766E+02  0.54477106306E+03  0.00000000000E+00 0. -1.
          1    1    5    5  503    0 -0.10827999341E+03  0.11619834311E+03  0.66848230784E+02  0.17232323660E+03  0.00000000000E+00 0. -1.
         -2    1    5    5    0  503 -0.64680664613E+02  0.59111092121E+02 -0.22399603383E+02  0.90440321861E+02  0.00000000000E+00 0.  1.
         -3    1    6    6    0  502  0.34192682460E+02 -0.33281023029E+03  0.10095568064E+03  0.34946221308E+03  0.00000000000E+00 0.  1.
<mgrwt>
<rscale>  0 0.21131166E+04</rscale>
<asrwt>0</asrwt>
<pdfrwt beam="1">  1        2 0.20901284E+00 0.21131166E+04</pdfrwt>
<pdfrwt beam="2">  1       -2 0.12641170E+00 0.21131166E+04</pdfrwt>
<totfact> 0.65605626E+00</totfact>
</mgrwt>
</event>
<event>
12    1  0.2214165E-007  0.2058274E+04  0.7818608E-02  0.8579850E-01
          1   -1    0    0  501    0  0.00000000000E+00  0.00000000000E+00  0.44194471225E+04  0.44194471225E+04  0.00000000000E+00 0. -1.
         -1   -1    0    0    0  501 -0.00000000000E+00 -0.00000000000E+00 -0.23965066908E+03  0.23965066908E+03  0.00000000000E+00 0.  1.
         23    2    1    2    0    0 -0.74674104539E+03 -0.34592193798E+03  0.14681347246E+04  0.16856747920E+04  0.93785706386E+02 0.  0.
        254    2    1    2    0    0  0.74674104539E+03  0.34592193798E+03  0.27116617288E+04  0.29734229995E+04  0.90047255755E+03 0.  0.
        -24    2    4    4    0    0  0.83356399193E+03  0.53743940779E+03  0.21884469595E+04  0.24040490579E+04  0.80509206348E+02 0.  0.
         24    2    4    4    0    0 -0.86822946544E+02 -0.19151746982E+03  0.52321476925E+03  0.56937394168E+03  0.78840506143E+02 0.  0.
         13    1    3    3    0    0 -0.41671518836E+03 -0.19262829587E+03  0.91268451213E+03  0.10216409483E+04  0.00000000000E+00 0. -1.
        -13    1    3    3    0    0 -0.33002585702E+03 -0.15329364211E+03  0.55545021248E+03  0.66403384368E+03  0.00000000000E+00 0.  1.
          2    1    6    6  502    0 -0.45071601195E+02 -0.64318920492E+02  0.29018863242E+03  0.30062903245E+03  0.00000000000E+00 0. -1.
          1    1    5    5  503    0  0.52579993223E+03  0.30328259031E+03  0.12750504175E+04  0.14121612746E+04  0.00000000000E+00 0. -1.
         -2    1    5    5    0  503  0.30776405970E+03  0.23415681748E+03  0.91339654201E+03  0.99188778326E+03  0.00000000000E+00 0.  1.
         -1    1    6    6    0  502 -0.41751345349E+02 -0.12719854932E+03  0.23302613683E+03  0.26874490922E+03  0.00000000000E+00 0.  1.
<mgrwt>
<rscale>  0 0.20582745E+04</rscale>
<asrwt>0</asrwt>
<pdfrwt beam="1">  1        1 0.67991488E+00 0.20582745E+04</pdfrwt>
<pdfrwt beam="2">  1       -1 0.36869337E-01 0.20582745E+04</pdfrwt>
<totfact> 0.25643308E-01</totfact>
</mgrwt>
</event>
<event>
12    1  0.2214165E-007  0.1287675E+04  0.7818608E-02  0.9039396E-01
          1   -1    0    0  501    0  0.00000000000E+00  0.00000000000E+00  0.92996266341E+03  0.92996266341E+03  0.00000000000E+00 0. -1.
         -1   -1    0    0    0  501 -0.00000000000E+00 -0.00000000000E+00 -0.44574586762E+03  0.44574586762E+03  0.00000000000E+00 0.  1.
         23    2    1    2    0    0 -0.30929823785E+03  0.87098107911E+02  0.77706080302E+02  0.34035466889E+03  0.80941864188E+02 0.  0.
        254    2    1    2    0    0  0.30929823785E+03 -0.87098107911E+02  0.40651071549E+03  0.10353538621E+04  0.89635661303E+03 0.  0.
        -24    2    4    4    0    0 -0.10478064891E+03 -0.77878180221E+02 -0.22747888530E+03  0.27404153941E+03  0.79423716387E+02 0.  0.
         24    2    4    4    0    0  0.41407888676E+03 -0.92199276900E+01  0.63398960079E+03  0.76131232273E+03  0.78149262992E+02 0.  0.
         11    1    3    3    0    0 -0.25174309752E+03  0.43766619118E+02  0.81527017664E+02  0.26821028822E+03  0.00000000000E+00 0. -1.
        -11    1    3    3    0    0 -0.57555140329E+02  0.43331488792E+02 -0.38209373620E+01  0.72144380666E+02  0.00000000000E+00 0.  1.
          2    1    6    6  502    0 -0.22539584817E+01 -0.65480749106E+00 -0.47766436148E+00  0.23952588440E+01  0.00000000000E+00 0. -1.
          3    1    5    5  503    0 -0.43255563939E+02 -0.40960610114E+02 -0.36105084056E+02  0.69659116326E+02  0.00000000000E+00 0. -1.
         -4    1    5    5    0  503 -0.61525084972E+02 -0.36917570106E+02 -0.19137380125E+03  0.20438242309E+03  0.00000000000E+00 0.  1.
         -1    1    6    6    0  502  0.41633284524E+03 -0.85651201989E+01  0.63446726515E+03  0.75891706389E+03  0.00000000000E+00 0.  1.
<mgrwt>
<rscale>  0 0.12876754E+04</rscale>
<asrwt>0</asrwt>
<pdfrwt beam="1">  1        1 0.14307118E+00 0.12876754E+04</pdfrwt>
<pdfrwt beam="2">  1       -1 0.68576288E-01 0.12876754E+04</pdfrwt>
<totfact> 0.36413271E+01</totfact>
</mgrwt>
</event>
<event>
12    1  0.2911687E-007  0.1602997E+04  0.7818608E-02  0.8818709E-01
          2   -1    0    0  501    0  0.00000000000E+00  0.00000000000E+00  0.13456796993E+04  0.13456796993E+04  0.00000000000E+00 0. -1.
         -2   -1    0    0    0  501 -0.00000000000E+00 -0.00000000000E+00 -0.47737920874E+03  0.47737920874E+03  0.00000000000E+00 0.  1.
         23    2    1    2    0    0 -0.38237277556E+03  0.18661506594E+03  0.69212984713E+03  0.81738742630E+03  0.89690339829E+02 0.  0.
        254    2    1    2    0    0  0.38237277556E+03 -0.18661506594E+03  0.17617064341E+03  0.10056714817E+04  0.89403854013E+03 0.  0.
        -24    2    4    4    0    0  0.28175139668E+03 -0.27479368642E+03 -0.30201250023E+03  0.50258101543E+03  0.80502839317E+02 0.  0.
         24    2    4    4    0    0  0.10062137887E+03  0.88178620484E+02  0.47818314364E+03  0.50309046630E+03  0.80875011106E+02 0.  0.
         11    1    3    3    0    0 -0.22185848899E+03  0.98137558176E+02  0.31056167299E+03  0.39408212620E+03  0.00000000000E+00 0.  1.
        -11    1    3    3    0    0 -0.16051428657E+03  0.88477507763E+02  0.38156817414E+03  0.42330530010E+03  0.00000000000E+00 0. -1.
          4    1    6    6  502    0  0.47517693786E+02  0.31847863214E+02  0.85647517738E+02  0.10299376150E+03  0.00000000000E+00 0. -1.
          1    1    5    5  503    0  0.95694162315E+01 -0.23737565200E+02 -0.13997009465E+01  0.25632106651E+02  0.00000000000E+00 0. -1.
         -2    1    5    5    0  503  0.27218198045E+03 -0.25105612122E+03 -0.30061279929E+03  0.47694890878E+03  0.00000000000E+00 0.  1.
         -3    1    6    6    0  502  0.53103685087E+02  0.56330757270E+02  0.39253562590E+03  0.40009670480E+03  0.00000000000E+00 0.  1.
<mgrwt>
<rscale>  0 0.16029966E+04</rscale>
<asrwt>0</asrwt>
<pdfrwt beam="1">  1        2 0.20702765E+00 0.16029966E+04</pdfrwt>
<pdfrwt beam="2">  1       -2 0.73442955E-01 0.16029966E+04</pdfrwt>
<totfact> 0.24939477E+01</totfact>
</mgrwt>
</event>
<event>
12    1  0.2214165E-007  0.4022976E+04  0.7818608E-02  0.7999928E-01
          2   -1    0    0  501    0  0.00000000000E+00  0.00000000000E+00  0.14495670946E+04  0.14495670946E+04  0.00000000000E+00 0. -1.
         -2   -1    0    0    0  501 -0.00000000000E+00 -0.00000000000E+00 -0.27912356164E+04  0.27912356164E+04  0.00000000000E+00 0.  1.
         23    2    1    2    0    0  0.86032887723E+03  0.15209893180E+04 -0.14481408930E+04  0.22712958685E+04  0.89992189478E+02 0.  0.
        254    2    1    2    0    0 -0.86032887723E+03 -0.15209893180E+04  0.10647237128E+03  0.19695068425E+04  0.90224528499E+03 0.  0.
        -24    2    4    4    0    0 -0.61663331829E+02  0.80743235256E+02 -0.10339694098E+03  0.16560466928E+03  0.80075854980E+02 0.  0.
         24    2    4    4    0    0 -0.79866554540E+03 -0.16017325532E+04  0.20986931226E+03  0.18039021732E+04  0.81265593756E+02 0.  0.
         11    1    3    3    0    0  0.73312167930E+03  0.13006421544E+04 -0.12770943046E+04  0.19647155706E+04  0.00000000000E+00 0.  1.
        -11    1    3    3    0    0  0.12720719792E+03  0.22034716354E+03 -0.17104658835E+03  0.30658029792E+03  0.00000000000E+00 0. -1.
          4    1    6    6  502    0 -0.18222566017E+02 -0.58915038985E+02  0.18376642929E+02  0.64348618759E+02  0.00000000000E+00 0. -1.
          1    1    5    5  503    0 -0.52278408916E+02  0.51063320778E+01 -0.50209064182E+02  0.72663999285E+02  0.00000000000E+00 0. -1.
         -2    1    5    5    0  503 -0.93849229139E+01  0.75636903178E+02 -0.53187876797E+02  0.92940669993E+02  0.00000000000E+00 0.  1.
         -3    1    6    6    0  502 -0.78044297938E+03 -0.15428175142E+04  0.19149266933E+03  0.17395535544E+04  0.00000000000E+00 0.  1.
<mgrwt>
<rscale>  0 0.40229757E+04</rscale>
<asrwt>0</asrwt>
<pdfrwt beam="1">  1        2 0.22301032E+00 0.40229757E+04</pdfrwt>
<pdfrwt beam="2">  1       -2 0.42942086E+00 0.40229757E+04</pdfrwt>
<totfact> 0.50697811E-02</totfact>
</mgrwt>
</event>
<event>
12    1  0.2214165E-007  0.1600756E+04  0.7818608E-02  0.8820084E-01
         -2   -1    0    0    0  501 -0.00000000000E+00  0.00000000000E+00  0.21627645534E+03  0.21627645534E+03  0.00000000000E+00 0.  1.
          2   -1    0    0  501    0  0.00000000000E+00 -0.00000000000E+00 -0.29619711748E+04  0.29619711748E+04  0.00000000000E+00 0. -1.
         23    2    1    2    0    0 -0.54120473097E+03 -0.83889214241E+01 -0.12172453031E+04  0.13352449896E+04  0.90664874469E+02 0.  0.
        254    2    1    2    0    0  0.54120473097E+03  0.83889214241E+01 -0.15284494163E+04  0.18430026405E+04  0.87608685635E+03 0.  0.
        -24    2    4    4    0    0 -0.20344386516E+03 -0.34009827173E+02 -0.13226131878E+03  0.25808207442E+03  0.81038423475E+02 0.  0.
         24    2    4    4    0    0  0.74464859612E+03  0.42398748597E+02 -0.13961880975E+04  0.15849205661E+04  0.79578964079E+02 0.  0.
         11    1    3    3    0    0 -0.33420472164E+02 -0.81910688819E+01 -0.14228298221E+03  0.14638465970E+03  0.00000000000E+00 0. -1.
        -11    1    3    3    0    0 -0.50778425880E+03 -0.19785254215E+00 -0.10749623209E+04  0.11888603299E+04  0.00000000000E+00 0.  1.
          4    1    6    6  502    0  0.57707790264E+03 -0.30346383808E+00 -0.10642004107E+04  0.12105955195E+04  0.00000000000E+00 0. -1.
          3    1    5    5  503    0 -0.21013964044E+03 -0.33061439634E+02 -0.12041447501E+03  0.24444093983E+03  0.00000000000E+00 0. -1.
         -4    1    5    5    0  503  0.66957752832E+01 -0.94838753848E+00 -0.11846843773E+02  0.13641134591E+02  0.00000000000E+00 0.  1.
         -3    1    6    6    0  502  0.16757069348E+03  0.42702212435E+02 -0.33198768683E+03  0.37432504654E+03  0.00000000000E+00 0.  1.
<mgrwt>
<rscale>  0 0.16007556E+04</rscale>
<asrwt>0</asrwt>
<pdfrwt beam="1">  1        2 0.45568784E+00 0.16007556E+04</pdfrwt>
<pdfrwt beam="2">  1       -2 0.33273303E-01 0.16007556E+04</pdfrwt>
<totfact> 0.14962201E+01</totfact>
</mgrwt>
</event>
<event>
12    1  0.2214165E-007  0.2625926E+04  0.7818608E-02  0.8359448E-01
         -1   -1    0    0    0  501 -0.00000000000E+00  0.00000000000E+00  0.13512535375E+04  0.13512535375E+04  0.00000000000E+00 0.  1.
          1   -1    0    0  501    0  0.00000000000E+00 -0.00000000000E+00 -0.12757570572E+04  0.12757570572E+04  0.00000000000E+00 0. -1.
         23    2    1    2    0    0  0.95504022877E+03 -0.21806709289E+03 -0.58046460729E+03  0.11421554206E+04  0.89021058647E+02 0.  0.
        254    2    1    2    0    0 -0.95504022877E+03  0.21806709289E+03  0.65596108755E+03  0.14848551741E+04  0.90269310629E+03 0.  0.
        -24    2    4    4    0    0 -0.73259065879E+03  0.24750971686E+03 -0.10121128997E+02  0.77753482636E+03  0.80671157540E+02 0.  0.
         24    2    4    4    0    0 -0.22244956998E+03 -0.29442623970E+02  0.66608221654E+03  0.70732034775E+03  0.79283515678E+02 0.  0.
         13    1    3    3    0    0  0.72882188692E+03 -0.14338481942E+03 -0.47457786253E+03  0.88145600963E+03  0.00000000000E+00 0. -1.
        -13    1    3    3    0    0  0.22621834185E+03 -0.74682273473E+02 -0.10588674475E+03  0.26069941096E+03  0.00000000000E+00 0.  1.
          4    1    6    6  502    0 -0.19017134618E+03 -0.31842908034E+02  0.46100593961E+03  0.49970550133E+03  0.00000000000E+00 0. -1.
          1    1    5    5  503    0 -0.55345631745E+03  0.17113495298E+03 -0.39217757524E+02  0.58063680555E+03  0.00000000000E+00 0. -1.
         -2    1    5    5    0  503 -0.17913434134E+03  0.76374763883E+02  0.29096628527E+02  0.19689802081E+03  0.00000000000E+00 0.  1.
         -3    1    6    6    0  502 -0.32278223794E+02  0.24002840641E+01  0.20507627693E+03  0.20761484642E+03  0.00000000000E+00 0.  1.
<mgrwt>
<rscale>  0 0.26259255E+04</rscale>
<asrwt>0</asrwt>
<pdfrwt beam="1">  1        1 0.19627032E+00 0.26259255E+04</pdfrwt>
<pdfrwt beam="2">  1       -1 0.20788516E+00 0.26259255E+04</pdfrwt>
<totfact> 0.10995147E+00</totfact>
</mgrwt>
</event>
<event>
12    1  0.2214165E-007  0.3255211E+04  0.7818608E-02  0.8174386E-01
          1   -1    0    0  501    0  0.00000000000E+00  0.00000000000E+00  0.21278780221E+04  0.21278780221E+04  0.00000000000E+00 0.  1.
         -1   -1    0    0    0  501 -0.00000000000E+00 -0.00000000000E+00 -0.12449492735E+04  0.12449492735E+04  0.00000000000E+00 0. -1.
         23    2    1    2    0    0 -0.87491283737E+03  0.98393169036E+03  0.11559066702E+04  0.17544606340E+04  0.91748797021E+02 0.  0.
        254    2    1    2    0    0  0.87491283737E+03 -0.98393169036E+03 -0.27297792162E+03  0.16183666616E+04  0.90055519616E+03 0.  0.
        -24    2    4    4    0    0  0.40583163008E+03 -0.94917084289E+03  0.57937862283E+02  0.10371242648E+04  0.81518978578E+02 0.  0.
         24    2    4    4    0    0  0.46908120730E+03 -0.34760847475E+02 -0.33091578391E+03  0.58124239675E+03  0.84213847926E+02 0.  0.
         11    1    3    3    0    0 -0.44781730054E+03  0.55609978920E+03  0.58654777416E+03  0.92402684029E+03  0.00000000000E+00 0. -1.
        -11    1    3    3    0    0 -0.42709553683E+03  0.42783190116E+03  0.56935889603E+03  0.83043379370E+03  0.00000000000E+00 0.  1.
          2    1    6    6  502    0  0.10954042137E+02 -0.12123710801E+02 -0.12692001942E+01  0.16388601888E+02  0.00000000000E+00 0. -1.
          1    1    5    5  503    0  0.15379424454E+03 -0.28687313138E+03  0.43070205201E+02  0.32833505104E+03  0.00000000000E+00 0. -1.
         -2    1    5    5    0  503  0.25203738554E+03 -0.66229771151E+03  0.14867657082E+02  0.70878921380E+03  0.00000000000E+00 0.  1.
         -1    1    6    6    0  502  0.45812716516E+03 -0.22637136675E+02 -0.32964658371E+03  0.56485379486E+03  0.00000000000E+00 0.  1.
<mgrwt>
<rscale>  0 0.32552113E+04</rscale>
<asrwt>0</asrwt>
<pdfrwt beam="1">  1        1 0.32736585E+00 0.32552113E+04</pdfrwt>
<pdfrwt beam="2">  1       -1 0.19153066E+00 0.32552113E+04</pdfrwt>
<totfact> 0.35020087E-01</totfact>
</mgrwt>
</event>
<event>
12    1  0.2214165E-007  0.1351832E+04  0.7818608E-02  0.8989443E-01
          2   -1    0    0  501    0  0.00000000000E+00  0.00000000000E+00  0.42601794182E+03  0.42601794182E+03  0.00000000000E+00 0. -1.
         -2   -1    0    0    0  501 -0.00000000000E+00 -0.00000000000E+00 -0.10724011712E+04  0.10724011712E+04  0.00000000000E+00 0.  1.
         23    2    1    2    0    0 -0.25850735474E+03 -0.17202507979E+03  0.43317915135E+02  0.32640152632E+03  0.90790054971E+02 0.  0.
        254    2    1    2    0    0  0.25850735474E+03  0.17202507979E+03 -0.68970114456E+03  0.11720175867E+04  0.89527586491E+03 0.  0.
        -24    2    4    4    0    0 -0.11323349997E+03  0.29814230201E+03  0.48462025388E+02  0.33211319033E+03  0.78993325815E+02 0.  0.
         24    2    4    4    0    0  0.37174085471E+03 -0.12611722222E+03 -0.73816316995E+03  0.83990439641E+03  0.80359895701E+02 0.  0.
         13    1    3    3    0    0 -0.65061007966E+02 -0.35798696513E+01  0.22970906599E+02  0.69089889088E+02  0.00000000000E+00 0. -1.
        -13    1    3    3    0    0 -0.19344634677E+03 -0.16844521014E+03  0.20347008537E+02  0.25731163723E+03  0.00000000000E+00 0.  1.
          2    1    6    6  502    0  0.22492848294E+03 -0.98267711829E+02 -0.52539862365E+03  0.57990781971E+03  0.00000000000E+00 0. -1.
          1    1    5    5  503    0 -0.33918289148E+01  0.11451697902E+03  0.18668221496E+02  0.11607818693E+03  0.00000000000E+00 0. -1.
         -2    1    5    5    0  503 -0.10984167106E+03  0.18362532299E+03  0.29793803892E+02  0.21603500340E+03  0.00000000000E+00 0.  1.
         -1    1    6    6    0  502  0.14681237177E+03 -0.27849510389E+02 -0.21276454630E+03  0.25999657670E+03  0.00000000000E+00 0.  1.
<mgrwt>
<rscale>  0 0.13518316E+04</rscale>
<asrwt>0</asrwt>
<pdfrwt beam="1">  1        2 0.65541223E-01 0.13518316E+04</pdfrwt>
<pdfrwt beam="2">  1       -2 0.16498479E+00 0.13518316E+04</pdfrwt>
<totfact> 0.16725371E+01</totfact>
</mgrwt>
</event>
<event>
12    1  0.2214165E-007  0.1202847E+04  0.7818608E-02  0.9110368E-01
         -2   -1    0    0    0  501 -0.00000000000E+00  0.00000000000E+00  0.41435950504E+03  0.41435950504E+03  0.00000000000E+00 0.  1.
          2   -1    0    0  501    0  0.00000000000E+00 -0.00000000000E+00 -0.87293790766E+03  0.87293790766E+03  0.00000000000E+00 0. -1.
         23    2    1    2    0    0  0.65032535104E+02 -0.20799330753E+03 -0.23341217513E+03  0.33200516282E+03  0.90861092007E+02 0.  0.
        254    2    1    2    0    0 -0.65032535104E+02  0.20799330753E+03 -0.22516622749E+03  0.95529224988E+03  0.90243725881E+03 0.  0.
        -24    2    4    4    0    0  0.84695357748E+02 -0.40306992502E+02 -0.52034441787E+03  0.53483340074E+03  0.80563615039E+02 0.  0.
         24    2    4    4    0    0 -0.14972789285E+03  0.24830030003E+03  0.29517819038E+03  0.42045884914E+03  0.74726159097E+02 0.  0.
         11    1    3    3    0    0  0.69824788708E+02 -0.11491740426E+03 -0.17968517769E+03  0.22442877267E+03  0.00000000000E+00 0. -1.
        -11    1    3    3    0    0 -0.47922536038E+01 -0.93075903270E+02 -0.53726997443E+02  0.10757639015E+03  0.00000000000E+00 0.  1.
          4    1    6    6  502    0 -0.70870623331E+02  0.88473315111E+02  0.16312590067E+03  0.19864599721E+03  0.00000000000E+00 0. -1.
          3    1    5    5  503    0 -0.79413176068E+01  0.42323649790E+01 -0.72822686993E+01  0.11576220284E+02  0.00000000000E+00 0. -1.
         -4    1    5    5    0  503  0.92636675355E+02 -0.44539357481E+02 -0.51306214917E+03  0.52325718045E+03  0.00000000000E+00 0.  1.
         -1    1    6    6    0  502 -0.78857269521E+02  0.15982698492E+03  0.13205228971E+03  0.22181285193E+03  0.00000000000E+00 0.  1.
<mgrwt>
<rscale>  0 0.12028468E+04</rscale>
<asrwt>0</asrwt>
<pdfrwt beam="1">  1        2 0.13429814E+00 0.12028468E+04</pdfrwt>
<pdfrwt beam="2">  1       -2 0.63747617E-01 0.12028468E+04</pdfrwt>
<totfact> 0.68733243E+01</totfact>
</mgrwt>
</event>
<event>
12    1  0.2214165E-007  0.1651263E+04  0.7818608E-02  0.8789660E-01
         -2   -1    0    0    0  501 -0.00000000000E+00  0.00000000000E+00  0.24175067179E+03  0.24175067179E+03  0.00000000000E+00 0.  1.
          2   -1    0    0  501    0  0.00000000000E+00 -0.00000000000E+00 -0.28197128435E+04  0.28197128435E+04  0.00000000000E+00 0. -1.
         23    2    1    2    0    0  0.47438773038E+03  0.18894284394E+03 -0.41570846061E+03  0.66467341891E+03  0.90742011008E+02 0.  0.
        254    2    1    2    0    0 -0.47438773038E+03 -0.18894284394E+03 -0.21622537111E+04  0.23967900963E+04  0.89917658883E+03 0.  0.
        -24    2    4    4    0    0 -0.35817618831E+03  0.30694810070E+03 -0.71042101935E+03  0.85614764628E+03  0.76048991408E+02 0.  0.
         24    2    4    4    0    0 -0.11621154208E+03 -0.49589094465E+03 -0.14518326917E+04  0.15406424501E+04  0.79674605275E+02 0.  0.
         13    1    3    3    0    0  0.28220342160E+03  0.11395816013E+03 -0.18947607058E+03  0.35850580852E+03  0.00000000000E+00 0. -1.
        -13    1    3    3    0    0  0.19218430879E+03  0.74984683811E+02 -0.22623239003E+03  0.30616761038E+03  0.00000000000E+00 0.  1.
          4    1    6    6  502    0  0.10988129939E+02 -0.20293137251E+02 -0.58198821182E+02  0.62607133827E+02  0.00000000000E+00 0. -1.
          1    1    5    5  503    0 -0.29068670964E+02  0.34077619100E+02 -0.11268660930E+03  0.12126229286E+03  0.00000000000E+00 0. -1.
         -2    1    5    5    0  503 -0.32910751734E+03  0.27287048160E+03 -0.59773441005E+03  0.73488535342E+03  0.00000000000E+00 0.  1.
         -3    1    6    6    0  502 -0.12719967202E+03 -0.47559780739E+03 -0.13936338705E+04  0.14780353162E+04  0.00000000000E+00 0.  1.
<mgrwt>
<rscale>  0 0.16512631E+04</rscale>
<asrwt>0</asrwt>
<pdfrwt beam="1">  1        2 0.43380197E+00 0.16512631E+04</pdfrwt>
<pdfrwt beam="2">  1       -2 0.37192412E-01 0.16512631E+04</pdfrwt>
<totfact> 0.14700923E+01</totfact>
</mgrwt>
</event>
<event>
12    1  0.2214165E-007  0.1696970E+04  0.7818608E-02  0.8763094E-01
          2   -1    0    0  501    0  0.00000000000E+00  0.00000000000E+00  0.16912701462E+04  0.16912701462E+04  0.00000000000E+00 0. -1.
         -2   -1    0    0    0  501 -0.00000000000E+00 -0.00000000000E+00 -0.42567235869E+03  0.42567235869E+03  0.00000000000E+00 0.  1.
         23    2    1    2    0    0  0.46034048889E+02 -0.35916734925E+03 -0.14898412176E+03  0.40214566341E+03  0.91676319966E+02 0.  0.
        254    2    1    2    0    0 -0.46034048889E+02  0.35916734925E+03  0.14145819093E+04  0.17147968415E+04  0.89909171451E+03 0.  0.
        -24    2    4    4    0    0  0.39383049861E+03  0.50195909165E+02  0.78312010494E+03  0.88174096634E+03  0.81042840647E+02 0.  0.
         24    2    4    4    0    0 -0.43986454750E+03  0.30897144008E+03  0.63146180437E+03  0.83305587518E+03  0.79334165773E+02 0.  0.
         13    1    3    3    0    0 -0.16490822056E+01 -0.91493152109E-01  0.74141103929E+01  0.75958459723E+01  0.00000000000E+00 0. -1.
        -13    1    3    3    0    0  0.47683131094E+02 -0.35907585609E+03 -0.15639823216E+03  0.39454981744E+03  0.00000000000E+00 0.  1.
          4    1    6    6  502    0 -0.44051062356E+03  0.30793425338E+03  0.63343781823E+03  0.83073255831E+03  0.00000000000E+00 0. -1.
          3    1    5    5  503    0  0.19029766797E+03  0.10533339373E+02  0.45861511296E+03  0.49664069054E+03  0.00000000000E+00 0. -1.
         -4    1    5    5    0  503  0.20353283065E+03  0.39662569792E+02  0.32450499199E+03  0.38510027580E+03  0.00000000000E+00 0.  1.
         -3    1    6    6    0  502  0.64607605682E+00  0.10371866968E+01 -0.19760138573E+01  0.23233168702E+01  0.00000000000E+00 0.  1.
<mgrwt>
<rscale>  0 0.16969702E+04</rscale>
<asrwt>0</asrwt>
<pdfrwt beam="1">  1        2 0.26019540E+00 0.16969702E+04</pdfrwt>
<pdfrwt beam="2">  1       -2 0.65488056E-01 0.16969702E+04</pdfrwt>
<totfact> 0.20275184E+01</totfact>
</mgrwt>
</event>
<event>
12    1  0.2214165E-007  0.1917234E+04  0.7818608E-02  0.8646325E-01
          2   -1    0    0  501    0  0.00000000000E+00  0.00000000000E+00  0.51645313241E+03  0.51645313241E+03  0.00000000000E+00 0. -1.
         -2   -1    0    0    0  501 -0.00000000000E+00 -0.00000000000E+00 -0.17793418411E+04  0.17793418411E+04  0.00000000000E+00 0.  1.
         23    2    1    2    0    0  0.21417817711E+03  0.65386727094E+03 -0.15626569758E+03  0.71176631012E+03  0.93688912991E+02 0.  0.
        254    2    1    2    0    0 -0.21417817711E+03 -0.65386727094E+03 -0.11066230111E+04  0.15840286633E+04  0.90062068493E+03 0.  0.
        -24    2    4    4    0    0  0.24774591720E+03 -0.26595352232E+03 -0.63920028149E+02  0.37708926123E+03  0.77467576509E+02 0.  0.
         24    2    4    4    0    0 -0.46192409431E+03 -0.38791374862E+03 -0.10427029829E+04  0.12069394021E+04  0.74981761291E+02 0.  0.
         13    1    3    3    0    0  0.96655742619E+02  0.37584581288E+03 -0.47701652953E+02  0.39099597866E+03  0.00000000000E+00 0. -1.
        -13    1    3    3    0    0  0.11752243449E+03  0.27802145807E+03 -0.10856404463E+03  0.32077033145E+03  0.00000000000E+00 0.  1.
          2    1    6    6  502    0 -0.43460643629E+03 -0.37924474748E+03 -0.10126913300E+04  0.11654411451E+04  0.00000000000E+00 0. -1.
          3    1    5    5  503    0  0.24595993070E+03 -0.27111501772E+03 -0.64075821438E+02  0.37162528336E+03  0.00000000000E+00 0. -1.
         -4    1    5    5    0  503  0.17859865045E+01  0.51614953997E+01  0.15579328936E+00  0.54639778646E+01  0.00000000000E+00 0.  1.
         -1    1    6    6    0  502 -0.27317658018E+02 -0.86690011473E+01 -0.30011652917E+02  0.41498256967E+02  0.00000000000E+00 0.  1.
<mgrwt>
<rscale>  0 0.19172341E+04</rscale>
<asrwt>0</asrwt>
<pdfrwt beam="1">  1        2 0.79454328E-01 0.19172341E+04</pdfrwt>
<pdfrwt beam="2">  1       -2 0.27374490E+00 0.19172341E+04</pdfrwt>
<totfact> 0.25510475E+00</totfact>
</mgrwt>
</event>
<event>
12    1  0.2214165E-007  0.3011704E+04  0.7818608E-02  0.8240397E-01
          1   -1    0    0  501    0  0.00000000000E+00  0.00000000000E+00  0.19070850050E+04  0.19070850050E+04  0.00000000000E+00 0. -1.
         -1   -1    0    0    0  501 -0.00000000000E+00 -0.00000000000E+00 -0.11890348050E+04  0.11890348050E+04  0.00000000000E+00 0.  1.
         23    2    1    2    0    0  0.28552190889E+03  0.57517385849E+03  0.15699923673E+04  0.16990891050E+04  0.98387121186E+02 0.  0.
        254    2    1    2    0    0 -0.28552190889E+03 -0.57517385849E+03 -0.85194216724E+03  0.13970307050E+04  0.90196541311E+03 0.  0.
        -24    2    4    4    0    0  0.31551290415E+03 -0.16431836688E+03 -0.20056405413E+03  0.41644561206E+03  0.81560343396E+02 0.  0.
         24    2    4    4    0    0 -0.60103481304E+03 -0.41085549160E+03 -0.65137811311E+03  0.98058509294E+03  0.84903455675E+02 0.  0.
         11    1    3    3    0    0  0.17705254329E+02  0.16872743438E+02  0.11912025746E+03  0.12160510367E+03  0.00000000000E+00 0. -1.
        -11    1    3    3    0    0  0.26781665456E+03  0.55830111505E+03  0.14508721098E+04  0.15774840014E+04  0.00000000000E+00 0.  1.
          4    1    6    6  502    0 -0.25462708039E+03 -0.16345447235E+03 -0.21659353410E+03  0.37210895395E+03  0.00000000000E+00 0. -1.
          1    1    5    5  503    0 -0.51486943642E+01 -0.31558598213E+01 -0.41779665699E+01  0.73432901023E+01  0.00000000000E+00 0. -1.
         -2    1    5    5    0  503  0.32066159852E+03 -0.16116250706E+03 -0.19638608756E+03  0.40910232196E+03  0.00000000000E+00 0.  1.
         -3    1    6    6    0  502 -0.34640773265E+03 -0.24740101925E+03 -0.43478457901E+03  0.60847613898E+03  0.00000000000E+00 0.  1.
<mgrwt>
<rscale>  0 0.30117041E+04</rscale>
<asrwt>0</asrwt>
<pdfrwt beam="1">  1        1 0.29339769E+00 0.30117041E+04</pdfrwt>
<pdfrwt beam="2">  1       -1 0.18292843E+00 0.30117041E+04</pdfrwt>
<totfact> 0.58093691E-01</totfact>
</mgrwt>
</event>
<event>
12    1  0.2214165E-007  0.1773914E+04  0.7818608E-02  0.8720296E-01
          2   -1    0    0  501    0  0.00000000000E+00  0.00000000000E+00  0.64950105424E+03  0.64950105424E+03  0.00000000000E+00 0. -1.
         -2   -1    0    0    0  501 -0.00000000000E+00 -0.00000000000E+00 -0.12112267301E+04  0.12112267301E+04  0.00000000000E+00 0.  1.
         23    2    1    2    0    0  0.99699656660E+02 -0.44602317480E+03  0.28340635553E+03  0.54527532980E+03  0.90162791307E+02 0.  0.
        254    2    1    2    0    0 -0.99699656660E+02  0.44602317480E+03 -0.84513203137E+03  0.13154524545E+04  0.89849335871E+03 0.  0.
        -24    2    4    4    0    0 -0.39342977801E+03  0.54433677939E+03 -0.47685298272E+03  0.82744301274E+03  0.78636204035E+02 0.  0.
         24    2    4    4    0    0  0.29373012135E+03 -0.98313604595E+02 -0.36827904865E+03  0.48800944177E+03  0.81122182780E+02 0.  0.
         13    1    3    3    0    0  0.85556871088E+01 -0.18621622323E+03  0.79481867476E+02  0.20265006497E+03  0.00000000000E+00 0.  1.
        -13    1    3    3    0    0  0.91143969551E+02 -0.25980695157E+03  0.20392448806E+03  0.34262526483E+03  0.00000000000E+00 0. -1.
          4    1    6    6  502    0  0.25454102785E+03 -0.69122233379E+02 -0.26570655006E+03  0.37439149129E+03  0.00000000000E+00 0. -1.
          1    1    5    5  503    0 -0.29077987743E+03  0.34396384529E+03 -0.30029377143E+03  0.54133207289E+03  0.00000000000E+00 0. -1.
         -4    1    5    5    0  503 -0.10264990058E+03  0.20037293411E+03 -0.17655921128E+03  0.28611093985E+03  0.00000000000E+00 0.  1.
         -3    1    6    6    0  502  0.39189093506E+02 -0.29191371216E+02 -0.10257249859E+03  0.11361795048E+03  0.00000000000E+00 0.  1.
<mgrwt>
<rscale>  0 0.17739144E+04</rscale>
<asrwt>0</asrwt>
<pdfrwt beam="1">  1        2 0.99923240E-01 0.17739144E+04</pdfrwt>
<pdfrwt beam="2">  1       -2 0.18634257E+00 0.17739144E+04</pdfrwt>
<totfact> 0.69796700E+00</totfact>
</mgrwt>
</event>
<event>
12    1  0.2214165E-007  0.2705943E+04  0.7818608E-02  0.8333079E-01
         -1   -1    0    0    0  501 -0.00000000000E+00  0.00000000000E+00  0.19062734002E+04  0.19062734002E+04  0.00000000000E+00 0.  1.
          1   -1    0    0  501    0  0.00000000000E+00 -0.00000000000E+00 -0.96026743879E+03  0.96026743879E+03  0.00000000000E+00 0. -1.
         23    2    1    2    0    0  0.98101046814E+03  0.64346324973E+03  0.69507785456E+03  0.13667472779E+04  0.91860794053E+02 0.  0.
        254    2    1    2    0    0 -0.98101046814E+03 -0.64346324973E+03  0.25092810690E+03  0.14997935611E+04  0.89999406595E+03 0.  0.
        -24    2    4    4    0    0 -0.66648944375E+03 -0.69558915237E+03 -0.15374300812E+03  0.97881062917E+03  0.79880458816E+02 0.  0.
         24    2    4    4    0    0 -0.31452102439E+03  0.52125902641E+02  0.40467111501E+03  0.52098293193E+03  0.77613913245E+02 0.  0.
         11    1    3    3    0    0  0.17148540266E+03  0.92998401312E+02  0.15156399338E+03  0.24703762884E+03  0.00000000000E+00 0. -1.
        -11    1    3    3    0    0  0.80952506547E+03  0.55046484842E+03  0.54351386118E+03  0.11197096491E+04  0.00000000000E+00 0.  1.
          4    1    6    6  502    0 -0.21591348707E+03  0.67542442083E+02  0.30686180530E+03  0.38124110866E+03  0.00000000000E+00 0. -1.
          1    1    5    5  503    0 -0.62733282875E+03 -0.67121061648E+03 -0.13328050764E+03  0.92835007590E+03  0.00000000000E+00 0. -1.
         -2    1    5    5    0  503 -0.39156614999E+02 -0.24378535891E+02 -0.20462500481E+02  0.50460553270E+02  0.00000000000E+00 0.  1.
         -3    1    6    6    0  502 -0.98607537318E+02 -0.15416539441E+02  0.97809309713E+02  0.13974182327E+03  0.00000000000E+00 0.  1.
<mgrwt>
<rscale>  0 0.27059433E+04</rscale>
<asrwt>0</asrwt>
<pdfrwt beam="1">  1        1 0.14773345E+00 0.27059433E+04</pdfrwt>
<pdfrwt beam="2">  1       -1 0.29327283E+00 0.27059433E+04</pdfrwt>
<totfact> 0.51825968E-01</totfact>
</mgrwt>
</event>
<event>
12    1  0.2214165E-007  0.2400031E+04  0.7818608E-02  0.8439492E-01
          1   -1    0    0  501    0  0.00000000000E+00  0.00000000000E+00  0.10460166356E+04  0.10460166356E+04  0.00000000000E+00 0. -1.
         -1   -1    0    0    0  501 -0.00000000000E+00 -0.00000000000E+00 -0.13766870877E+04  0.13766870877E+04  0.00000000000E+00 0.  1.
         23    2    1    2    0    0 -0.17129744749E+02 -0.83999145940E+03 -0.74361478391E+03  0.11243920129E+04  0.73589209683E+02 0.  0.
        254    2    1    2    0    0  0.17129744749E+02  0.83999145940E+03  0.41294433183E+03  0.12983117105E+04  0.89956166900E+03 0.  0.
        -24    2    4    4    0    0  0.51182743793E+02  0.29706078866E+03  0.63373786106E+03  0.70627294243E+03  0.79580193817E+02 0.  0.
         24    2    4    4    0    0 -0.34052999043E+02  0.54293067075E+03 -0.22079352923E+03  0.59203876805E+03  0.76333481093E+02 0.  0.
         11    1    3    3    0    0 -0.11931181861E+02 -0.77933987033E+03 -0.71255138447E+03  0.10560504070E+04  0.00000000000E+00 0. -1.
        -11    1    3    3    0    0 -0.51985628884E+01 -0.60651589069E+02 -0.31063399443E+02  0.68341605905E+02  0.00000000000E+00 0.  1.
          4    1    6    6  502    0 -0.10569562389E+02  0.20967245097E+03 -0.12566206486E+03  0.24467367429E+03  0.00000000000E+00 0. -1.
          1    1    5    5  503    0 -0.19982623397E+02  0.35952463751E+02  0.83976165618E+02  0.93508723013E+02  0.00000000000E+00 0. -1.
         -2    1    5    5    0  503  0.71165367190E+02  0.26110832491E+03  0.54976169544E+03  0.61276421942E+03  0.00000000000E+00 0.  1.
         -3    1    6    6    0  502 -0.23483436654E+02  0.33325821978E+03 -0.95131464368E+02  0.34736509376E+03  0.00000000000E+00 0.  1.
<mgrwt>
<rscale>  0 0.24000313E+04</rscale>
<asrwt>0</asrwt>
<pdfrwt beam="1">  1        1 0.16092564E+00 0.24000313E+04</pdfrwt>
<pdfrwt beam="2">  1       -1 0.21179801E+00 0.24000313E+04</pdfrwt>
<totfact> 0.15610729E+00</totfact>
</mgrwt>
</event>
<event>
12    1  0.2214165E-007  0.1481216E+04  0.7818608E-02  0.8897041E-01
          1   -1    0    0  501    0  0.00000000000E+00  0.00000000000E+00  0.55323666230E+03  0.55323666230E+03  0.00000000000E+00 0. -1.
         -1   -1    0    0    0  501 -0.00000000000E+00 -0.00000000000E+00 -0.99143888249E+03  0.99143888249E+03  0.00000000000E+00 0.  1.
         23    2    1    2    0    0  0.42375563822E+03 -0.10709184396E+03  0.19293521489E+02  0.44555762787E+03  0.84331819694E+02 0.  0.
        254    2    1    2    0    0 -0.42375563822E+03  0.10709184396E+03 -0.45749574167E+03  0.10991179169E+04  0.89873262858E+03 0.  0.
        -24    2    4    4    0    0 -0.45813989880E+03 -0.30824932772E+03 -0.15821548577E+03  0.58006662309E+03  0.80841402618E+02 0.  0.
         24    2    4    4    0    0  0.34384260574E+02  0.41534117168E+03 -0.29928025590E+03  0.51905129383E+03  0.78453857707E+02 0.  0.
         13    1    3    3    0    0  0.58420407862E+02 -0.41225610483E+02 -0.13939389784E+02  0.72847797510E+02  0.00000000000E+00 0.  1.
        -13    1    3    3    0    0  0.36533523036E+03 -0.65866233478E+02  0.33232911273E+02  0.37270983036E+03  0.00000000000E+00 0. -1.
          4    1    6    6  502    0  0.76839138654E+01  0.33757987729E+03 -0.26795858543E+03  0.43106962267E+03  0.00000000000E+00 0. -1.
          1    1    5    5  503    0 -0.43577171489E+03 -0.29581327854E+03 -0.16774457559E+03  0.55275738430E+03  0.00000000000E+00 0. -1.
         -2    1    5    5    0  503 -0.22368183906E+02 -0.12436049181E+02  0.95290898206E+01  0.27309238790E+02  0.00000000000E+00 0.  1.
         -3    1    6    6    0  502  0.26700346708E+02  0.77761294386E+02 -0.31321670473E+02  0.87981671160E+02  0.00000000000E+00 0.  1.
<mgrwt>
<rscale>  0 0.14812162E+04</rscale>
<asrwt>0</asrwt>
<pdfrwt beam="1">  1        1 0.85113334E-01 0.14812162E+04</pdfrwt>
<pdfrwt beam="2">  1       -1 0.15252906E+00 0.14812162E+04</pdfrwt>
<totfact> 0.12428089E+01</totfact>
</mgrwt>
</event>
<event>
12    1  0.2214165E-007  0.1972506E+04  0.7818608E-02  0.8619584E-01
         -2   -1    0    0    0  501 -0.00000000000E+00  0.00000000000E+00  0.87669008493E+03  0.87669008493E+03  0.00000000000E+00 0. -1.
          2   -1    0    0  501    0  0.00000000000E+00 -0.00000000000E+00 -0.11095089183E+04  0.11095089183E+04  0.00000000000E+00 0.  1.
         23    2    1    2    0    0 -0.32084616215E+03 -0.58461863463E+03 -0.49606660428E+03  0.83628888178E+03  0.92605670412E+02 0.  0.
        254    2    1    2    0    0  0.32084616215E+03  0.58461863463E+03  0.26324777090E+03  0.11499101215E+04  0.89903987166E+03 0.  0.
        -24    2    4    4    0    0  0.34752026533E+03 -0.10517585456E+03 -0.71681202837E+02  0.37852646726E+03  0.79446814785E+02 0.  0.
         24    2    4    4    0    0 -0.26674103182E+02  0.68979448919E+03  0.33492897374E+03  0.77138365420E+03  0.79544826472E+02 0.  0.
         13    1    3    3    0    0 -0.16808187492E+03 -0.39701648559E+03 -0.30769173831E+03  0.52966764327E+03  0.00000000000E+00 0. -1.
        -13    1    3    3    0    0 -0.15276428722E+03 -0.18760214904E+03 -0.18837486597E+03  0.30662123851E+03  0.00000000000E+00 0.  1.
          4    1    6    6  502    0  0.16259806282E+02  0.49868391756E+03  0.24487113015E+03  0.55579843587E+03  0.00000000000E+00 0. -1.
          3    1    5    5  503    0  0.24129021296E+03 -0.40953767908E+02 -0.69324337948E+02  0.25436989171E+03  0.00000000000E+00 0. -1.
         -4    1    5    5    0  503  0.10623005237E+03 -0.64222086654E+02 -0.23568648889E+01  0.12415657555E+03  0.00000000000E+00 0.  1.
         -3    1    6    6    0  502 -0.42933909464E+02  0.19111057163E+03  0.90057843589E+02  0.21558521833E+03  0.00000000000E+00 0.  1.
<mgrwt>
<rscale>  0 0.19725065E+04</rscale>
<asrwt>0</asrwt>
<pdfrwt beam="1">  1        2 0.17069368E+00 0.19725065E+04</pdfrwt>
<pdfrwt beam="2">  1       -2 0.13487540E+00 0.19725065E+04</pdfrwt>
<totfact> 0.79148011E+00</totfact>
</mgrwt>
</event>
<event>
12    1  0.2214165E-007  0.1798307E+04  0.7818608E-02  0.8707200E-01
         -1   -1    0    0    0  501 -0.00000000000E+00  0.00000000000E+00  0.39622815197E+03  0.39622815197E+03  0.00000000000E+00 0.  1.
          1   -1    0    0  501    0  0.00000000000E+00 -0.00000000000E+00 -0.20404332402E+04  0.20404332402E+04  0.00000000000E+00 0. -1.
         23    2    1    2    0    0 -0.21993660038E+03  0.63191059434E+03 -0.62411557278E+03  0.91970418621E+03  0.93018463269E+02 0.  0.
        254    2    1    2    0    0  0.21993660038E+03 -0.63191059434E+03 -0.10200895154E+04  0.15169572059E+04  0.90160603243E+03 0.  0.
        -24    2    4    4    0    0 -0.13219777788E+03  0.86706289190E+02 -0.56460787807E+03  0.59278008108E+03  0.87246406771E+02 0.  0.
         24    2    4    4    0    0  0.35213437825E+03 -0.71861688353E+03 -0.45548163734E+03  0.92417712484E+03  0.78936623077E+02 0.  0.
         13    1    3    3    0    0 -0.15796749940E+02  0.10253146540E+02 -0.32600446223E+02  0.37649082546E+02  0.00000000000E+00 0. -1.
        -13    1    3    3    0    0 -0.20413985044E+03  0.62165744780E+03 -0.59151512656E+03  0.88205510366E+03  0.00000000000E+00 0.  1.
          4    1    6    6  502    0  0.19044637585E+03 -0.46997694152E+03 -0.30228921048E+03  0.59036168101E+03  0.00000000000E+00 0. -1.
          3    1    5    5  503    0 -0.12560548332E+03  0.81667063855E+02 -0.56494714842E+03  0.58447542914E+03  0.00000000000E+00 0. -1.
         -4    1    5    5    0  503 -0.65922945583E+01  0.50392253356E+01  0.33927035608E+00  0.83046519434E+01  0.00000000000E+00 0.  1.
         -3    1    6    6    0  502  0.16168800241E+03 -0.24863994201E+03 -0.15319242687E+03  0.33381544383E+03  0.00000000000E+00 0.  1.
<mgrwt>
<rscale>  0 0.17983071E+04</rscale>
<asrwt>0</asrwt>
<pdfrwt beam="1">  1        1 0.31391281E+00 0.17983071E+04</pdfrwt>
<pdfrwt beam="2">  1       -1 0.60958177E-01 0.17983071E+04</pdfrwt>
<totfact> 0.72066469E+00</totfact>
</mgrwt>
</event>
<event>
12    1  0.2214165E-007  0.1118245E+04  0.7818608E-02  0.9187589E-01
         -1   -1    0    0    0  501 -0.00000000000E+00  0.00000000000E+00  0.49431909553E+03  0.49431909553E+03  0.00000000000E+00 0.  1.
          1   -1    0    0  501    0  0.00000000000E+00 -0.00000000000E+00 -0.63242139829E+03  0.63242139829E+03  0.00000000000E+00 0. -1.
         23    2    1    2    0    0  0.55303343987E+02 -0.81214565338E+02  0.12316289242E+03  0.18121605802E+03  0.89531537111E+02 0.  0.
        254    2    1    2    0    0 -0.55303343987E+02  0.81214565338E+02 -0.26126519519E+03  0.94552443580E+03  0.90338402188E+03 0.  0.
        -24    2    4    4    0    0  0.18704537133E+03 -0.12184582196E+03  0.24659984844E+03  0.34189654732E+03  0.79053074302E+02 0.  0.
         24    2    4    4    0    0 -0.24234871532E+03  0.20306038730E+03 -0.50786504362E+03  0.60362788847E+03  0.80456848691E+02 0.  0.
         13    1    3    3    0    0  0.92462668968E+01  0.56986070699E+01  0.67151205585E+02  0.68023907456E+02  0.00000000000E+00 0.  1.
        -13    1    3    3    0    0  0.46057077090E+02 -0.86913172408E+02  0.56011686834E+02  0.11319215057E+03  0.00000000000E+00 0. -1.
          2    1    6    6  502    0 -0.14624406617E+03  0.14759964251E+03 -0.26607103818E+03  0.33758966026E+03  0.00000000000E+00 0. -1.
          1    1    5    5  503    0  0.93008936641E+02 -0.89762608346E+02  0.94096821588E+02  0.15988183132E+03  0.00000000000E+00 0. -1.
         -2    1    5    5    0  503  0.94036434689E+02 -0.32083213618E+02  0.15250302685E+03  0.18201471601E+03  0.00000000000E+00 0.  1.
         -1    1    6    6    0  502 -0.96104649146E+02  0.55460744796E+02 -0.24179400545E+03  0.26603822821E+03  0.00000000000E+00 0.  1.
<mgrwt>
<rscale>  0 0.11182450E+04</rscale>
<asrwt>0</asrwt>
<pdfrwt beam="1">  1        1 0.97295600E-01 0.11182450E+04</pdfrwt>
<pdfrwt beam="2">  1       -1 0.76049091E-01 0.11182450E+04</pdfrwt>
<totfact> 0.54843259E+01</totfact>
</mgrwt>
</event>
<event>
12    1  0.2214165E-007  0.2288147E+04  0.7818608E-02  0.8482609E-01
          2   -1    0    0  501    0  0.00000000000E+00  0.00000000000E+00  0.98178050302E+03  0.98178050302E+03  0.00000000000E+00 0. -1.
         -2   -1    0    0    0  501 -0.00000000000E+00 -0.00000000000E+00 -0.13331941807E+04  0.13331941807E+04  0.00000000000E+00 0.  1.
         23    2    1    2    0    0  0.19441291267E+03  0.93822896996E+03 -0.25902073372E+03  0.99700024978E+03  0.94062622097E+02 0.  0.
        254    2    1    2    0    0 -0.19441291267E+03 -0.93822896996E+03 -0.92392943934E+02  0.13179744339E+04  0.90025006062E+03 0.  0.
        -24    2    4    4    0    0 -0.81523933685E+02 -0.10518871156E+04 -0.24102673447E+03  0.10851489214E+04  0.79634409167E+02 0.  0.
         24    2    4    4    0    0 -0.11288897899E+03  0.11365814563E+03  0.14863379053E+03  0.23282551253E+03  0.80334425697E+02 0.  0.
         11    1    3    3    0    0  0.31347923013E+02  0.21816393936E+03 -0.21570815287E+02  0.22145766364E+03  0.00000000000E+00 0. -1.
        -11    1    3    3    0    0  0.16306498966E+03  0.72006503060E+03 -0.23744991843E+03  0.77554258614E+03  0.00000000000E+00 0.  1.
          4    1    6    6  502    0 -0.67285643025E+02  0.10399216078E+03  0.13717620566E+03  0.18482164013E+03  0.00000000000E+00 0. -1.
          1    1    5    5  503    0 -0.89837854738E+02 -0.75481129217E+03 -0.19110122555E+03  0.78379245042E+03  0.00000000000E+00 0. -1.
         -2    1    5    5    0  503  0.83139210530E+01 -0.29707582342E+03 -0.49925508912E+02  0.30135647095E+03  0.00000000000E+00 0.  1.
         -3    1    6    6    0  502 -0.45603335962E+02  0.96659848468E+01  0.11457584867E+02  0.48003872395E+02  0.00000000000E+00 0.  1.
<mgrwt>
<rscale>  0 0.22881469E+04</rscale>
<asrwt>0</asrwt>
<pdfrwt beam="1">  1        2 0.15104315E+00 0.22881469E+04</pdfrwt>
<pdfrwt beam="2">  1       -2 0.20510680E+00 0.22881469E+04</pdfrwt>
<totfact> 0.28919641E+00</totfact>
</mgrwt>
</event>
<event>
12    1  0.2214165E-007  0.1637978E+04  0.7818608E-02  0.8797551E-01
         -1   -1    0    0    0  501 -0.00000000000E+00  0.00000000000E+00  0.25097264413E+04  0.25097264413E+04  0.00000000000E+00 0.  1.
          1   -1    0    0  501    0  0.00000000000E+00 -0.00000000000E+00 -0.26725734092E+03  0.26725734092E+03  0.00000000000E+00 0. -1.
         23    2    1    2    0    0 -0.53226525102E+03 -0.95128268794E+02  0.49808368026E+03  0.74050622272E+03  0.88918099301E+02 0.  0.
        254    2    1    2    0    0  0.53226525102E+03  0.95128268794E+02  0.17443854201E+04  0.20364775595E+04  0.90111301812E+03 0.  0.
        -24    2    4    4    0    0  0.69335556015E+03 -0.33371017141E+02  0.78121974234E+03  0.10486565222E+04  0.86721728637E+02 0.  0.
         24    2    4    4    0    0 -0.16109030913E+03  0.12849928593E+03  0.96316567776E+03  0.98782103724E+03  0.75100763184E+02 0.  0.
         13    1    3    3    0    0 -0.88954287765E+02  0.72363776937E+01  0.51808328939E+02  0.10319560757E+03  0.00000000000E+00 0. -1.
        -13    1    3    3    0    0 -0.44331096325E+03 -0.10236464649E+03  0.44627535132E+03  0.63731061515E+03  0.00000000000E+00 0.  1.
          2    1    6    6  502    0 -0.93548857361E+02  0.46661057690E+02  0.61578289851E+03  0.62459364479E+03  0.00000000000E+00 0. -1.
          1    1    5    5  503    0  0.16705622011E+02  0.82178273938E+01  0.40297790266E+02  0.44390566500E+02  0.00000000000E+00 0. -1.
         -2    1    5    5    0  503  0.67664993814E+03 -0.41588844535E+02  0.74092195207E+03  0.10042659557E+04  0.00000000000E+00 0.  1.
         -1    1    6    6    0  502 -0.67541451769E+02  0.81838228244E+02  0.34738277925E+03  0.36322739245E+03  0.00000000000E+00 0.  1.
<mgrwt>
<rscale>  0 0.16379778E+04</rscale>
<asrwt>0</asrwt>
<pdfrwt beam="1">  1        1 0.41116516E-01 0.16379778E+04</pdfrwt>
<pdfrwt beam="2">  1       -1 0.38611174E+00 0.16379778E+04</pdfrwt>
<totfact> 0.87139133E-01</totfact>
</mgrwt>
</event>
<event>
12    1  0.2214165E-007  0.1509898E+04  0.7818608E-02  0.8877898E-01
         -1   -1    0    0    0  501 -0.00000000000E+00  0.00000000000E+00  0.10428697794E+04  0.10428697794E+04  0.00000000000E+00 0.  1.
          1   -1    0    0  501    0  0.00000000000E+00 -0.00000000000E+00 -0.54651876994E+03  0.54651876994E+03  0.00000000000E+00 0. -1.
         23    2    1    2    0    0  0.47166112176E+03  0.39391105516E+02  0.32634933963E+02  0.48317065073E+03  0.91503911601E+02 0.  0.
        254    2    1    2    0    0 -0.47166112176E+03 -0.39391105516E+02  0.46371607548E+03  0.11062178986E+04  0.88581576389E+03 0.  0.
        -24    2    4    4    0    0  0.18994356030E+02  0.34231309532E+03  0.28966552326E+03  0.45590508019E+03  0.80026782944E+02 0.  0.
         24    2    4    4    0    0 -0.49065547779E+03 -0.38170420083E+03  0.17405055222E+03  0.65031281842E+03  0.78563810049E+02 0.  0.
         13    1    3    3    0    0  0.13281996806E+03 -0.29947956922E+02  0.12346968459E+02  0.13671309985E+03  0.00000000000E+00 0. -1.
        -13    1    3    3    0    0  0.33884115369E+03  0.69339062438E+02  0.20287965504E+02  0.34645755088E+03  0.00000000000E+00 0.  1.
          4    1    6    6  502    0 -0.97723908398E+02 -0.11545148448E+03  0.29115752892E+02  0.15403484868E+03  0.00000000000E+00 0. -1.
          3    1    5    5  503    0 -0.20643963749E+02  0.32982477771E+02  0.45246020493E+02  0.59675953697E+02  0.00000000000E+00 0. -1.
         -4    1    5    5    0  503  0.39638319778E+02  0.30933061755E+03  0.24441950276E+03  0.39622912649E+03  0.00000000000E+00 0.  1.
         -3    1    6    6    0  502 -0.39293156939E+03 -0.26625271636E+03  0.14493479933E+03  0.49627796974E+03  0.00000000000E+00 0.  1.
<mgrwt>
<rscale>  0 0.15098979E+04</rscale>
<asrwt>0</asrwt>
<pdfrwt beam="1">  1        1 0.84079811E-01 0.15098979E+04</pdfrwt>
<pdfrwt beam="2">  1       -1 0.16044150E+00 0.15098979E+04</pdfrwt>
<totfact> 0.10971131E+01</totfact>
</mgrwt>
</event>
<event>
12    1  0.2214165E-007  0.3326556E+04  0.7818608E-02  0.8156171E-01
          1   -1    0    0  501    0  0.00000000000E+00  0.00000000000E+00  0.22049707590E+04  0.22049707590E+04  0.00000000000E+00 0. -1.
         -1   -1    0    0    0  501 -0.00000000000E+00 -0.00000000000E+00 -0.12546624677E+04  0.12546624677E+04  0.00000000000E+00 0.  1.
         23    2    1    2    0    0 -0.74250165812E+03  0.13301092622E+04  0.67808975790E+03  0.16697278756E+04  0.87670389363E+02 0.  0.
        254    2    1    2    0    0  0.74250165812E+03 -0.13301092622E+04  0.27221853346E+03  0.17899053511E+04  0.89953258655E+03 0.  0.
        -24    2    4    4    0    0  0.11284113191E+03 -0.22212585472E+02 -0.21490923597E+03  0.25671131020E+03  0.80549345606E+02 0.  0.
         24    2    4    4    0    0  0.62966052621E+03 -0.13078966767E+04  0.48712776943E+03  0.15331940409E+04  0.79526146939E+02 0.  0.
         13    1    3    3    0    0 -0.61253304778E+03  0.11243185908E+04  0.60123146955E+03  0.14144851742E+04  0.00000000000E+00 0. -1.
        -13    1    3    3    0    0 -0.12996861034E+03  0.20579067142E+03  0.76858288347E+02  0.25524270138E+03  0.00000000000E+00 0.  1.
          4    1    6    6  502    0  0.41387252680E+03 -0.78906408224E+03  0.32366845455E+03  0.94798410471E+03  0.00000000000E+00 0. -1.
          1    1    5    5  503    0 -0.77167213534E+01 -0.12289076274E+02 -0.50836047232E+02  0.52866557315E+02  0.00000000000E+00 0. -1.
         -2    1    5    5    0  503  0.12055785326E+03 -0.99235091974E+01 -0.16407318874E+03  0.20384475289E+03  0.00000000000E+00 0.  1.
         -3    1    6    6    0  502  0.21578799941E+03 -0.51883259449E+03  0.16345931488E+03  0.58520993619E+03  0.00000000000E+00 0.  1.
<mgrwt>
<rscale>  0 0.33265562E+04</rscale>
<asrwt>0</asrwt>
<pdfrwt beam="1">  1        1 0.33922627E+00 0.33265562E+04</pdfrwt>
<pdfrwt beam="2">  1       -1 0.19302499E+00 0.33265562E+04</pdfrwt>
<totfact> 0.30109685E-01</totfact>
</mgrwt>
</event>
<event>
12    1  0.2214165E-007  0.2558870E+04  0.7818608E-02  0.8382308E-01
          1   -1    0    0  501    0  0.00000000000E+00  0.00000000000E+00  0.98468406933E+03  0.98468406933E+03  0.00000000000E+00 0. -1.
         -1   -1    0    0    0  501 -0.00000000000E+00 -0.00000000000E+00 -0.16624149386E+04  0.16624149386E+04  0.00000000000E+00 0.  1.
         23    2    1    2    0    0  0.91008154985E+03  0.38023924628E+03  0.24724041341E+03  0.10221332954E+04  0.10391505978E+03 0.  0.
        254    2    1    2    0    0 -0.91008154985E+03 -0.38023924628E+03 -0.92497128269E+03  0.16249657126E+04  0.90117222630E+03 0.  0.
        -24    2    4    4    0    0 -0.83951821249E+03  0.61047763904E+01 -0.88537160570E+03  0.12227429777E+04  0.79933796691E+02 0.  0.
         24    2    4    4    0    0 -0.70563337363E+02 -0.38634402267E+03 -0.39599676987E+02  0.40222273491E+03  0.77292338734E+02 0.  0.
         11    1    3    3    0    0  0.78651850458E+03  0.28984566288E+03  0.19775360763E+03  0.86123652714E+03  0.00000000000E+00 0. -1.
        -11    1    3    3    0    0  0.12356304527E+03  0.90393583400E+02  0.49486805781E+02  0.16089676822E+03  0.00000000000E+00 0.  1.
          4    1    6    6  502    0 -0.21341146819E+02 -0.20904419112E+02  0.66177899780E+01  0.30597948137E+02  0.00000000000E+00 0. -1.
          3    1    5    5  503    0 -0.82976145738E+02  0.14336729085E+02 -0.11944901437E+03  0.14614598727E+03  0.00000000000E+00 0. -1.
         -2    1    5    5    0  503 -0.75654206675E+03 -0.82319526947E+01 -0.76592259133E+03  0.10765969904E+04  0.00000000000E+00 0.  1.
         -3    1    6    6    0  502 -0.49222190544E+02 -0.36543960356E+03 -0.46217466965E+02  0.37162478677E+03  0.00000000000E+00 0.  1.
<mgrwt>
<rscale>  0 0.25588697E+04</rscale>
<asrwt>0</asrwt>
<pdfrwt beam="1">  1        1 0.15148986E+00 0.25588697E+04</pdfrwt>
<pdfrwt beam="2">  1       -1 0.25575614E+00 0.25588697E+04</pdfrwt>
<totfact> 0.87913996E-01</totfact>
</mgrwt>
</event>
<event>
12    1  0.2214165E-007  0.1470903E+04  0.7818608E-02  0.8904036E-01
          2   -1    0    0  501    0  0.00000000000E+00  0.00000000000E+00  0.10471852366E+04  0.10471852366E+04  0.00000000000E+00 0. -1.
         -2   -1    0    0    0  501 -0.00000000000E+00 -0.00000000000E+00 -0.51651689896E+03  0.51651689896E+03  0.00000000000E+00 0.  1.
         23    2    1    2    0    0 -0.11225422654E+03  0.46656049735E+01  0.63657388212E+03  0.65191864916E+03  0.84550804132E+02 0.  0.
        254    2    1    2    0    0  0.11225422654E+03 -0.46656049735E+01 -0.10590554446E+03  0.91178348642E+03  0.89861580362E+03 0.  0.
        -24    2    4    4    0    0  0.32147798000E+03  0.20720803119E+03  0.23196990780E+03  0.45441544888E+03  0.80000638992E+02 0.  0.
         24    2    4    4    0    0 -0.20922375346E+03 -0.21187363617E+03 -0.33787545225E+03  0.45736803755E+03  0.79753895344E+02 0.  0.
         13    1    3    3    0    0 -0.11771635996E+02  0.32387915597E+02  0.11595770117E+03  0.12096998368E+03  0.00000000000E+00 0.  1.
        -13    1    3    3    0    0 -0.10048259054E+03 -0.27722310623E+02  0.52061618096E+03  0.53094866549E+03  0.00000000000E+00 0. -1.
          4    1    6    6  502    0 -0.61823456026E+02 -0.64889569794E+02 -0.16074765224E+03  0.18404511318E+03  0.00000000000E+00 0. -1.
          3    1    5    5  503    0  0.10229344981E+03  0.45979513766E+02  0.10694888080E+03  0.15497138015E+03  0.00000000000E+00 0. -1.
         -4    1    5    5    0  503  0.21918453019E+03  0.16122851743E+03  0.12502102700E+03  0.29944406873E+03  0.00000000000E+00 0.  1.
         -3    1    6    6    0  502 -0.14740029743E+03 -0.14698406637E+03 -0.17712780001E+03  0.27332292437E+03  0.00000000000E+00 0.  1.
<mgrwt>
<rscale>  0 0.14709029E+04</rscale>
<asrwt>0</asrwt>
<pdfrwt beam="1">  1        2 0.16110542E+00 0.14709029E+04</pdfrwt>
<pdfrwt beam="2">  1       -2 0.79464139E-01 0.14709029E+04</pdfrwt>
<totfact> 0.31945755E+01</totfact>
</mgrwt>
</event>
<event>
12    1  0.2214165E-007  0.2147115E+04  0.7818608E-02  0.8540768E-01
         -2   -1    0    0    0  501 -0.00000000000E+00  0.00000000000E+00  0.21699473084E+04  0.21699473084E+04  0.00000000000E+00 0.  1.
          2   -1    0    0  501    0  0.00000000000E+00 -0.00000000000E+00 -0.53113078561E+03  0.53113078561E+03  0.00000000000E+00 0. -1.
         23    2    1    2    0    0  0.78661723930E+02 -0.53809145835E+03  0.15513654725E+04  0.16464963847E+04  0.92116399229E+02 0.  0.
        254    2    1    2    0    0 -0.78661723930E+02  0.53809145835E+03  0.87451050274E+02  0.10545817093E+04  0.89931352216E+03 0.  0.
        -24    2    4    4    0    0  0.13616220184E+03 -0.21301876427E+03  0.37580558836E+02  0.26772166025E+03  0.79658331798E+02 0.  0.
         24    2    4    4    0    0 -0.21482392577E+03  0.75111022262E+03  0.49870491438E+02  0.78686004910E+03  0.79660437796E+02 0.  0.
         13    1    3    3    0    0  0.56924064255E+02 -0.38299302459E+03  0.97054555671E+03  0.10449319038E+04  0.00000000000E+00 0. -1.
        -13    1    3    3    0    0  0.21737659675E+02 -0.15509843377E+03  0.58081991582E+03  0.60156448085E+03  0.00000000000E+00 0.  1.
          4    1    6    6  502    0 -0.15648420131E+03  0.47705013593E+03 -0.10999634959E+01  0.50206109924E+03  0.00000000000E+00 0. -1.
          1    1    5    5  503    0  0.14653665501E+03 -0.19979009954E+03  0.39129367390E+02  0.25083895736E+03  0.00000000000E+00 0. -1.
         -4    1    5    5    0  503 -0.10374453170E+02 -0.13228664724E+02 -0.15488085546E+01  0.16882702891E+02  0.00000000000E+00 0.  1.
         -3    1    6    6    0  502 -0.58339724459E+02  0.27406008669E+03  0.50970454934E+02  0.28479894986E+03  0.00000000000E+00 0.  1.
<mgrwt>
<rscale>  0 0.21471151E+04</rscale>
<asrwt>0</asrwt>
<pdfrwt beam="1">  1        2 0.81712430E-01 0.21471151E+04</pdfrwt>
<pdfrwt beam="2">  1       -2 0.33383804E+00 0.21471151E+04</pdfrwt>
<totfact> 0.10362149E+00</totfact>
</mgrwt>
</event>
<event>
12    1  0.2214165E-007  0.1711316E+04  0.7818608E-02  0.8754937E-01
          2   -1    0    0  501    0  0.00000000000E+00  0.00000000000E+00  0.16599885301E+04  0.16599885301E+04  0.00000000000E+00 0. -1.
         -2   -1    0    0    0  501 -0.00000000000E+00 -0.00000000000E+00 -0.44105745959E+03  0.44105745959E+03  0.00000000000E+00 0.  1.
         23    2    1    2    0    0  0.11801026380E+03 -0.41112228308E+03 -0.96169838425E+02  0.45006490600E+03  0.10179306353E+03 0.  0.
        254    2    1    2    0    0 -0.11801026380E+03  0.41112228308E+03  0.13151009089E+04  0.16509810837E+04  0.90183157186E+03 0.  0.
        -24    2    4    4    0    0  0.18108879842E+03 -0.17408395379E+03  0.69734002581E+03  0.74541836773E+03  0.79164736322E+02 0.  0.
         24    2    4    4    0    0 -0.29909906222E+03  0.58520623688E+03  0.61776088310E+03  0.90556271593E+03  0.80552685237E+02 0.  0.
         11    1    3    3    0    0  0.98827743653E+02 -0.17386898541E+03 -0.63340588032E+02  0.20978412021E+03  0.00000000000E+00 0.  1.
        -11    1    3    3    0    0  0.19182520142E+02 -0.23725329768E+03 -0.32829250393E+02  0.24028078579E+03  0.00000000000E+00 0. -1.
          4    1    6    6  502    0 -0.20522807658E+03  0.46543178696E+03  0.49859992435E+03  0.71228308719E+03  0.00000000000E+00 0. -1.
          1    1    5    5  503    0  0.16258616296E+03 -0.17888940326E+03  0.61306859246E+03  0.65900590137E+03  0.00000000000E+00 0. -1.
         -4    1    5    5    0  503  0.18502635462E+02  0.48054494673E+01  0.84271433348E+02  0.86412466359E+02  0.00000000000E+00 0.  1.
         -3    1    6    6    0  502 -0.93870985642E+02  0.11977444991E+03  0.11916095874E+03  0.19327962874E+03  0.00000000000E+00 0.  1.
<mgrwt>
<rscale>  0 0.17113157E+04</rscale>
<asrwt>0</asrwt>
<pdfrwt beam="1">  1        2 0.25538285E+00 0.17113157E+04</pdfrwt>
<pdfrwt beam="2">  1       -2 0.67854994E-01 0.17113157E+04</pdfrwt>
<totfact> 0.19522980E+01</totfact>
</mgrwt>
</event>
<event>
12    1  0.2214165E-007  0.1280404E+04  0.7818608E-02  0.9045251E-01
          1   -1    0    0  501    0  0.00000000000E+00  0.00000000000E+00  0.36114639305E+04  0.36114639305E+04  0.00000000000E+00 0. -1.
         -1   -1    0    0    0  501 -0.00000000000E+00 -0.00000000000E+00 -0.11348814695E+03  0.11348814695E+03  0.00000000000E+00 0.  1.
         23    2    1    2    0    0 -0.19893133529E+03 -0.69655801144E+02  0.15773893002E+04  0.15940230863E+04  0.91252334074E+02 0.  0.
        254    2    1    2    0    0  0.19893133529E+03  0.69655801144E+02  0.19205864833E+04  0.21309289911E+04  0.89876599764E+03 0.  0.
        -24    2    4    4    0    0  0.49095903598E+03 -0.87721903024E+02  0.69821529406E+03  0.86169668639E+03  0.79250711054E+02 0.  0.
         24    2    4    4    0    0 -0.29202770069E+03  0.15737770417E+03  0.12223711893E+04  0.12692323048E+04  0.81923130411E+02 0.  0.
         11    1    3    3    0    0 -0.14233889695E+03 -0.66419064589E+02  0.13717702485E+04  0.13807336703E+04  0.00000000000E+00 0. -1.
        -11    1    3    3    0    0 -0.56592438340E+02 -0.32367365547E+01  0.20561905174E+03  0.21328941601E+03  0.00000000000E+00 0.  1.
          4    1    6    6  502    0 -0.72395404231E+02  0.79247478975E+02  0.33664199921E+03  0.35333991158E+03  0.00000000000E+00 0. -1.
          3    1    5    5  503    0  0.38817199403E+03 -0.97046105204E+02  0.52542680980E+03  0.66043075030E+03  0.00000000000E+00 0. -1.
         -4    1    5    5    0  503  0.10278704195E+03  0.93242021801E+01  0.17278848426E+03  0.20126593610E+03  0.00000000000E+00 0.  1.
         -3    1    6    6    0  502 -0.21963229646E+03  0.78130225192E+02  0.88572919007E+03  0.91589239318E+03  0.00000000000E+00 0.  1.
<mgrwt>
<rscale>  0 0.12804036E+04</rscale>
<asrwt>0</asrwt>
<pdfrwt beam="1">  1        1 0.55560975E+00 0.12804036E+04</pdfrwt>
<pdfrwt beam="2">  1       -1 0.17459718E-01 0.12804036E+04</pdfrwt>
<totfact> 0.52467387E+00</totfact>
</mgrwt>
</event>
<event>
12    1  0.2214165E-007  0.2732908E+04  0.7818608E-02  0.8324406E-01
          2   -1    0    0  501    0  0.00000000000E+00  0.00000000000E+00  0.15766602045E+04  0.15766602045E+04  0.00000000000E+00 0. -1.
         -2   -1    0    0    0  501 -0.00000000000E+00 -0.00000000000E+00 -0.11842736804E+04  0.11842736804E+04  0.00000000000E+00 0.  1.
         23    2    1    2    0    0  0.86034721140E+03 -0.77102925000E+03  0.55613276185E+03  0.12863577617E+04  0.10367841460E+03 0.  0.
        254    2    1    2    0    0 -0.86034721140E+03  0.77102925000E+03 -0.16374623773E+03  0.14745761232E+04  0.90159773973E+03 0.  0.
        -24    2    4    4    0    0  0.18394117494E+02  0.31539172525E+03  0.23726251310E+03  0.40362905381E+03  0.82538651802E+02 0.  0.
         24    2    4    4    0    0 -0.87874132889E+03  0.45563752475E+03 -0.40100875083E+03  0.10709470694E+04  0.79547031248E+02 0.  0.
         13    1    3    3    0    0  0.31374456439E+03 -0.28114135834E+03  0.25875806025E+03  0.49440049433E+03  0.00000000000E+00 0.  1.
        -13    1    3    3    0    0  0.54660264701E+03 -0.48988789166E+03  0.29737470160E+03  0.79195726732E+03  0.00000000000E+00 0. -1.
          4    1    6    6  502    0 -0.12597623552E+02  0.19572391774E+02 -0.79785633095E+01  0.24605611380E+02  0.00000000000E+00 0. -1.
          3    1    5    5  503    0  0.77385711551E+01  0.66508676642E+02  0.12513054073E+02  0.68116562409E+02  0.00000000000E+00 0. -1.
         -4    1    5    5    0  503  0.10655546339E+02  0.24888304861E+03  0.22474945903E+03  0.33551249140E+03  0.00000000000E+00 0.  1.
         -3    1    6    6    0  502 -0.86614370534E+03  0.43606513298E+03 -0.39303018752E+03  0.10463414580E+04  0.00000000000E+00 0.  1.
<mgrwt>
<rscale>  0 0.27329085E+04</rscale>
<asrwt>0</asrwt>
<pdfrwt beam="1">  1        2 0.24256311E+00 0.27329085E+04</pdfrwt>
<pdfrwt beam="2">  1       -2 0.18219595E+00 0.27329085E+04</pdfrwt>
<totfact> 0.17611791E+00</totfact>
</mgrwt>
</event>
<event>
12    1  0.2214165E-007  0.1335056E+04  0.7818608E-02  0.9002218E-01
         -2   -1    0    0    0  501 -0.00000000000E+00  0.00000000000E+00  0.59315903836E+03  0.59315903836E+03  0.00000000000E+00 0. -1.
          2   -1    0    0  501    0  0.00000000000E+00 -0.00000000000E+00 -0.75122133652E+03  0.75122133652E+03  0.00000000000E+00 0.  1.
         23    2    1    2    0    0  0.21536710359E+03  0.27722828290E+03  0.12913913396E+02  0.36118895747E+03  0.83977280766E+02 0.  0.
        254    2    1    2    0    0 -0.21536710359E+03 -0.27722828290E+03 -0.17097621155E+03  0.98319141742E+03  0.90232698520E+03 0.  0.
        -24    2    4    4    0    0 -0.16755353734E+03 -0.57615405733E+03 -0.25826204770E+03  0.65793167857E+03  0.78403588781E+02 0.  0.
         24    2    4    4    0    0 -0.47813566254E+02  0.29892577442E+03  0.87285836149E+02  0.32525973885E+03  0.80822798710E+02 0.  0.
         11    1    3    3    0    0  0.20261395050E+03  0.21366433364E+03  0.23935348372E+02  0.29542809837E+03  0.00000000000E+00 0. -1.
        -11    1    3    3    0    0  0.12753153096E+02  0.63563949268E+02 -0.11021434976E+02  0.65760859098E+02  0.00000000000E+00 0.  1.
          2    1    6    6  502    0 -0.51300615518E+02  0.29710743188E+03  0.72688896225E+02  0.31014231389E+03  0.00000000000E+00 0. -1.
          1    1    5    5  503    0 -0.14906149007E+03 -0.55542505477E+03 -0.25761844200E+03  0.63014568233E+03  0.00000000000E+00 0. -1.
         -2    1    5    5    0  503 -0.18492047269E+02 -0.20729002553E+02 -0.64360569832E+00  0.27785996245E+02  0.00000000000E+00 0.  1.
         -1    1    6    6    0  502  0.34870492642E+01  0.18183425406E+01  0.14596939924E+02  0.15117424956E+02  0.00000000000E+00 0.  1.
<mgrwt>
<rscale>  0 0.13350561E+04</rscale>
<asrwt>0</asrwt>
<pdfrwt beam="1">  1        2 0.11557251E+00 0.13350561E+04</pdfrwt>
<pdfrwt beam="2">  1       -2 0.91255237E-01 0.13350561E+04</pdfrwt>
<totfact> 0.37462393E+01</totfact>
</mgrwt>
</event>
<event>
12    1  0.2214165E-007  0.2298501E+04  0.7818608E-02  0.8478512E-01
         -2   -1    0    0    0  501 -0.00000000000E+00  0.00000000000E+00  0.98854156025E+03  0.98854156025E+03  0.00000000000E+00 0.  1.
          2   -1    0    0  501    0  0.00000000000E+00 -0.00000000000E+00 -0.13360860615E+04  0.13360860615E+04  0.00000000000E+00 0. -1.
         23    2    1    2    0    0  0.58427294412E+03 -0.20507906788E+03  0.60751562954E+03  0.87224239310E+03  0.91100246332E+02 0.  0.
        254    2    1    2    0    0 -0.58427294412E+03  0.20507906788E+03 -0.95506013077E+03  0.14523852286E+04  0.90213674221E+03 0.  0.
        -24    2    4    4    0    0 -0.80313867030E+03  0.26913523468E+03 -0.70826165840E+03  0.11069833446E+04  0.79448412695E+02 0.  0.
         24    2    4    4    0    0  0.21886572618E+03 -0.64056166800E+02 -0.24679847238E+03  0.34540188399E+03  0.79922317875E+02 0.  0.
         13    1    3    3    0    0  0.29284467447E+03 -0.59092273882E+02  0.26374102508E+03  0.39850875587E+03  0.00000000000E+00 0.  1.
        -13    1    3    3    0    0  0.29142826965E+03 -0.14598679400E+03  0.34377460446E+03  0.47373363723E+03  0.00000000000E+00 0. -1.
          4    1    6    6  502    0  0.19247742843E+03 -0.78639772760E+02 -0.23288183302E+03  0.31219500711E+03  0.00000000000E+00 0. -1.
          3    1    5    5  503    0 -0.31099917136E+03  0.14193940403E+03 -0.26482391214E+03  0.43243379083E+03  0.00000000000E+00 0. -1.
         -4    1    5    5    0  503 -0.49213949894E+03  0.12719583064E+03 -0.44343774626E+03  0.67454955381E+03  0.00000000000E+00 0.  1.
         -3    1    6    6    0  502  0.26388297750E+02  0.14583605960E+02 -0.13916639356E+02  0.33206876877E+02  0.00000000000E+00 0.  1.
<mgrwt>
<rscale>  0 0.22985009E+04</rscale>
<asrwt>0</asrwt>
<pdfrwt beam="1">  1        2 0.20555170E+00 0.22985009E+04</pdfrwt>
<pdfrwt beam="2">  1       -2 0.15208332E+00 0.22985009E+04</pdfrwt>
<totfact> 0.41256310E+00</totfact>
</mgrwt>
</event>
<event>
12    1  0.2214165E-007  0.1616252E+04  0.7818608E-02  0.8810625E-01
          2   -1    0    0  501    0  0.00000000000E+00  0.00000000000E+00  0.89760433030E+03  0.89760433030E+03  0.00000000000E+00 0. -1.
         -2   -1    0    0    0  501 -0.00000000000E+00 -0.00000000000E+00 -0.72756759799E+03  0.72756759799E+03  0.00000000000E+00 0.  1.
         23    2    1    2    0    0  0.27930399779E+03  0.47237200995E+03 -0.93578411393E+01  0.55575254934E+03  0.87334345769E+02 0.  0.
        254    2    1    2    0    0 -0.27930399779E+03 -0.47237200995E+03  0.17939457345E+03  0.10694193790E+04  0.90018295704E+03 0.  0.
        -24    2    4    4    0    0 -0.40269511235E+03 -0.47195181403E+03  0.44224621879E+03  0.76606910625E+03  0.79864192452E+02 0.  0.
         24    2    4    4    0    0  0.12339111456E+03 -0.42019591180E+00 -0.26285164534E+03  0.30335027270E+03  0.87777313530E+02 0.  0.
         11    1    3    3    0    0  0.15522375174E+03  0.18086164845E+03 -0.15872907749E+02  0.23886669543E+03  0.00000000000E+00 0. -1.
        -11    1    3    3    0    0  0.12408024605E+03  0.29151036150E+03  0.65150666095E+01  0.31688585392E+03  0.00000000000E+00 0.  1.
          2    1    6    6  502    0  0.30209038862E+02  0.24931726539E+02 -0.24552970597E+02  0.46227971861E+02  0.00000000000E+00 0. -1.
          1    1    5    5  503    0 -0.47645497253E+02 -0.44626966320E+02  0.78089969030E+02  0.10178262521E+03  0.00000000000E+00 0. -1.
         -2    1    5    5    0  503 -0.35504961510E+03 -0.42732484771E+03  0.36415624976E+03  0.66428648104E+03  0.00000000000E+00 0.  1.
         -1    1    6    6    0  502  0.93182075701E+02 -0.25351922451E+02 -0.23829867475E+03  0.25712230084E+03  0.00000000000E+00 0.  1.
<mgrwt>
<rscale>  0 0.16162522E+04</rscale>
<asrwt>0</asrwt>
<pdfrwt beam="1">  1        2 0.13809297E+00 0.16162522E+04</pdfrwt>
<pdfrwt beam="2">  1       -2 0.11193348E+00 0.16162522E+04</pdfrwt>
<totfact> 0.17754375E+01</totfact>
</mgrwt>
</event>
<event>
12    1  0.2288113E-007  0.2543067E+04  0.7818608E-02  0.8387801E-01
          1   -1    0    0  501    0  0.00000000000E+00  0.00000000000E+00  0.94246758953E+03  0.94246758953E+03  0.00000000000E+00 0. -1.
         -1   -1    0    0    0  501 -0.00000000000E+00 -0.00000000000E+00 -0.17154937530E+04  0.17154937530E+04  0.00000000000E+00 0.  1.
         23    2    1    2    0    0  0.23381508504E+03 -0.60010184148E+03  0.60573179205E+03  0.88924260167E+03  0.95129840588E+02 0.  0.
        254    2    1    2    0    0 -0.23381508504E+03  0.60010184148E+03 -0.13787579555E+04  0.17687187408E+04  0.90144371438E+03 0.  0.
        -24    2    4    4    0    0  0.72580757994E+02 -0.10845235680E+03 -0.76245617558E+03  0.77777563124E+03  0.81028592122E+02 0.  0.
         24    2    4    4    0    0 -0.30639584303E+03  0.70855419829E+03 -0.61630177991E+03  0.99094310959E+03  0.78821938494E+02 0.  0.
         11    1    3    3    0    0  0.13881368857E+03 -0.33890163235E+03  0.40729500983E+03  0.54773422531E+03  0.00000000000E+00 0.  1.
        -11    1    3    3    0    0  0.95001396471E+02 -0.26120020913E+03  0.19843678223E+03  0.34150837636E+03  0.00000000000E+00 0. -1.
          4    1    6    6  502    0 -0.22536986160E+02  0.42787551958E+02 -0.65587504507E+02  0.81488717594E+02  0.00000000000E+00 0. -1.
          1    1    5    5  503    0 -0.97065917280E+01 -0.18207785091E+02 -0.39379292302E+02  0.44457508062E+02  0.00000000000E+00 0. -1.
         -2    1    5    5    0  503  0.82287349722E+02 -0.90244571713E+02 -0.72307688328E+03  0.73331812317E+03  0.00000000000E+00 0.  1.
         -3    1    6    6    0  502 -0.28385885687E+03  0.66576664633E+03 -0.55071427540E+03  0.90945439200E+03  0.00000000000E+00 0.  1.
<mgrwt>
<rscale>  0 0.25430669E+04</rscale>
<asrwt>0</asrwt>
<pdfrwt beam="1">  1        1 0.14499501E+00 0.25430669E+04</pdfrwt>
<pdfrwt beam="2">  1       -1 0.26392211E+00 0.25430669E+04</pdfrwt>
<totfact> 0.84167890E-01</totfact>
</mgrwt>
</event>
<event>
12    1  0.2214165E-007  0.2611078E+04  0.7818608E-02  0.8364448E-01
          1   -1    0    0  501    0  0.00000000000E+00  0.00000000000E+00  0.39419882887E+04  0.39419882887E+04  0.00000000000E+00 0. -1.
         -1   -1    0    0    0  501 -0.00000000000E+00 -0.00000000000E+00 -0.43237884639E+03  0.43237884639E+03  0.00000000000E+00 0.  1.
         23    2    1    2    0    0  0.87363705418E+03  0.65737444969E+03  0.21366314627E+04  0.24018781395E+04  0.91878834844E+02 0.  0.
        254    2    1    2    0    0 -0.87363705418E+03 -0.65737444969E+03  0.13729779797E+04  0.19724889956E+04  0.90014523026E+03 0.  0.
        -24    2    4    4    0    0 -0.73291568365E+03 -0.77329570441E+02  0.44004400829E+03  0.86202232019E+03  0.79363023387E+02 0.  0.
         24    2    4    4    0    0 -0.14072137053E+03 -0.58004487925E+03  0.93293397140E+03  0.11104666754E+04  0.80720977140E+02 0.  0.
         13    1    3    3    0    0  0.83308813511E+03  0.61826729857E+03  0.20629943204E+04  0.23091634545E+04  0.00000000000E+00 0. -1.
        -13    1    3    3    0    0  0.40548919067E+02  0.39107151121E+02  0.73637142247E+02  0.92714685054E+02  0.00000000000E+00 0.  1.
          2    1    6    6  502    0 -0.81129573327E+02 -0.42073860075E+03  0.60963864311E+03  0.74515921319E+03  0.00000000000E+00 0. -1.
          3    1    5    5  503    0 -0.61033465061E+03 -0.84152308497E+02  0.39166873412E+03  0.73006465059E+03  0.00000000000E+00 0. -1.
         -4    1    5    5    0  503 -0.12258103304E+03  0.68227380561E+01  0.48375274165E+02  0.13195766960E+03  0.00000000000E+00 0.  1.
         -1    1    6    6    0  502 -0.59591797208E+02 -0.15930627850E+03  0.32329532830E+03  0.36530746223E+03  0.00000000000E+00 0.  1.
<mgrwt>
<rscale>  0 0.26110782E+04</rscale>
<asrwt>0</asrwt>
<pdfrwt beam="1">  1        1 0.60645971E+00 0.26110782E+04</pdfrwt>
<pdfrwt beam="2">  1       -1 0.66519825E-01 0.26110782E+04</pdfrwt>
<totfact> 0.21759947E-01</totfact>
</mgrwt>
</event>
<event>
12    1  0.2214165E-007  0.3918008E+04  0.7818608E-02  0.8021294E-01
         -2   -1    0    0    0  501 -0.00000000000E+00  0.00000000000E+00  0.89394819107E+03  0.89394819107E+03  0.00000000000E+00 0.  1.
          2   -1    0    0  501    0  0.00000000000E+00 -0.00000000000E+00 -0.42929749742E+04  0.42929749742E+04  0.00000000000E+00 0. -1.
         23    2    1    2    0    0  0.12971444519E+03  0.17019995362E+04 -0.25711746260E+04  0.30875138549E+04  0.90413429901E+02 0.  0.
        254    2    1    2    0    0 -0.12971444519E+03 -0.17019995362E+04 -0.82785215707E+03  0.20994093103E+04  0.89919519563E+03 0.  0.
        -24    2    4    4    0    0 -0.29063005232E+03 -0.17077687016E+03  0.68644800517E+01  0.34637283683E+03  0.79350200466E+02 0.  0.
         24    2    4    4    0    0  0.16091560712E+03 -0.15312226660E+04 -0.83471663712E+03  0.17530364735E+04  0.76474358835E+02 0.  0.
         11    1    3    3    0    0  0.92155389627E+02  0.14354627964E+04 -0.22148848095E+04  0.26409772387E+04  0.00000000000E+00 0. -1.
        -11    1    3    3    0    0  0.37559055568E+02  0.26653673975E+03 -0.35628981648E+03  0.44653661621E+03  0.00000000000E+00 0.  1.
          2    1    6    6  502    0  0.14948391718E+03 -0.15071736060E+04 -0.81518086385E+03  0.17200109189E+04  0.00000000000E+00 0. -1.
          1    1    5    5  503    0 -0.24539736993E+03 -0.11413964940E+03 -0.13821637315E+02  0.27099587892E+03  0.00000000000E+00 0. -1.
         -2    1    5    5    0  503 -0.45232682387E+02 -0.56637220766E+02  0.20686117367E+02  0.75376957909E+02  0.00000000000E+00 0.  1.
         -1    1    6    6    0  502  0.11431689944E+02 -0.24049059973E+02 -0.19535773269E+02  0.33025554617E+02  0.00000000000E+00 0.  1.
<mgrwt>
<rscale>  0 0.39180083E+04</rscale>
<asrwt>0</asrwt>
<pdfrwt beam="1">  1        2 0.66045767E+00 0.39180083E+04</pdfrwt>
<pdfrwt beam="2">  1       -2 0.13753049E+00 0.39180083E+04</pdfrwt>
<totfact> 0.57183399E-02</totfact>
</mgrwt>
</event>
<event>
12    1  0.2214165E-007  0.1402290E+04  0.7818608E-02  0.8952162E-01
          1   -1    0    0  501    0  0.00000000000E+00  0.00000000000E+00  0.10839543950E+04  0.10839543950E+04  0.00000000000E+00 0. -1.
         -1   -1    0    0    0  501 -0.00000000000E+00 -0.00000000000E+00 -0.45352869086E+03  0.45352869086E+03  0.00000000000E+00 0.  1.
         23    2    1    2    0    0  0.30882948689E+03 -0.25394724379E+03  0.13398031322E+03  0.43153110354E+03  0.91670684485E+02 0.  0.
        254    2    1    2    0    0 -0.30882948689E+03  0.25394724379E+03  0.49644539089E+03  0.11059519823E+04  0.90377370308E+03 0.  0.
        -24    2    4    4    0    0  0.10006896117E+03  0.40621177356E+03 -0.18126535137E+02  0.42630148394E+03  0.79891063150E+02 0.  0.
         24    2    4    4    0    0 -0.40889844805E+03 -0.15226452977E+03  0.51457192603E+03  0.67965049834E+03  0.82207694249E+02 0.  0.
         11    1    3    3    0    0  0.15386957252E+03 -0.77799395075E+02  0.83409342875E+02  0.19153513960E+03  0.00000000000E+00 0. -1.
        -11    1    3    3    0    0  0.15495991436E+03 -0.17614784872E+03  0.50570970345E+02  0.23999596394E+03  0.00000000000E+00 0.  1.
          4    1    6    6  502    0 -0.62606269948E+02 -0.50338759088E+02  0.12459100929E+03  0.14824457933E+03  0.00000000000E+00 0. -1.
          1    1    5    5  503    0  0.14949197955E+02  0.51038790499E+02 -0.29649308764E+02  0.60889392880E+02  0.00000000000E+00 0. -1.
         -2    1    5    5    0  503  0.85119763211E+02  0.35517298306E+03  0.11522773627E+02  0.36541209106E+03  0.00000000000E+00 0.  1.
         -3    1    6    6    0  502 -0.34629217810E+03 -0.10192577068E+03  0.38998091673E+03  0.53140591901E+03  0.00000000000E+00 0.  1.
<mgrwt>
<rscale>  0 0.14022902E+04</rscale>
<asrwt>0</asrwt>
<pdfrwt beam="1">  1        1 0.16676221E+00 0.14022902E+04</pdfrwt>
<pdfrwt beam="2">  1       -1 0.69773645E-01 0.14022902E+04</pdfrwt>
<totfact> 0.26403008E+01</totfact>
</mgrwt>
</event>
<event>
12    1  0.2214165E-007  0.3545995E+04  0.7818608E-02  0.8102975E-01
          2   -1    0    0  501    0  0.00000000000E+00  0.00000000000E+00  0.17774980255E+04  0.17774980255E+04  0.00000000000E+00 0. -1.
         -2   -1    0    0    0  501 -0.00000000000E+00 -0.00000000000E+00 -0.17685084724E+04  0.17685084724E+04  0.00000000000E+00 0.  1.
         23    2    1    2    0    0 -0.16349603448E+04  0.13649638388E+03  0.23975873764E+03  0.16605014108E+04  0.89744589633E+02 0.  0.
        254    2    1    2    0    0  0.16349603448E+04 -0.13649638388E+03 -0.23076918460E+03  0.18855050871E+04  0.90008245457E+03 0.  0.
        -24    2    4    4    0    0  0.95034149584E+01  0.13381932016E+03  0.11973861414E+03  0.19913133944E+03  0.85545480825E+02 0.  0.
         24    2    4    4    0    0  0.16254569298E+04 -0.27031570404E+03 -0.35050779873E+03  0.16863737476E+04  0.76288198235E+02 0.  0.
         11    1    3    3    0    0 -0.65706944113E+03  0.10928447618E+02  0.99984868639E+02  0.66472299147E+03  0.00000000000E+00 0.  1.
        -11    1    3    3    0    0 -0.97789090364E+03  0.12556793626E+03  0.13977386900E+03  0.99577841937E+03  0.00000000000E+00 0. -1.
          2    1    6    6  502    0  0.90334727088E+03 -0.16577788766E+03 -0.23071772269E+03  0.94696846167E+03  0.00000000000E+00 0. -1.
          3    1    5    5  503    0  0.34619717873E+02  0.15111533061E+02  0.28457678084E+02  0.47294003203E+02  0.00000000000E+00 0. -1.
         -2    1    5    5    0  503 -0.25116302914E+02  0.11870778710E+03  0.91280936051E+02  0.15183733624E+03  0.00000000000E+00 0.  1.
         -1    1    6    6    0  502  0.72210965893E+03 -0.10453781638E+03 -0.11979007604E+03  0.73940528595E+03  0.00000000000E+00 0.  1.
<mgrwt>
<rscale>  0 0.35459951E+04</rscale>
<asrwt>0</asrwt>
<pdfrwt beam="1">  1        2 0.27346123E+00 0.35459951E+04</pdfrwt>
<pdfrwt beam="2">  1       -2 0.27207823E+00 0.35459951E+04</pdfrwt>
<totfact> 0.34221327E-01</totfact>
</mgrwt>
</event>
<event>
12    1  0.2214165E-007  0.1895787E+04  0.7818608E-02  0.8656956E-01
         -1   -1    0    0    0  501 -0.00000000000E+00  0.00000000000E+00  0.72068628081E+03  0.72068628081E+03  0.00000000000E+00 0.  1.
          1   -1    0    0  501    0  0.00000000000E+00 -0.00000000000E+00 -0.12467308511E+04  0.12467308511E+04  0.00000000000E+00 0. -1.
         23    2    1    2    0    0 -0.68319059917E+03 -0.23428970333E+03 -0.30185848224E+03  0.78806829298E+03  0.91060590915E+02 0.  0.
        254    2    1    2    0    0  0.68319059917E+03  0.23428970333E+03 -0.22418608804E+03  0.11793488389E+04  0.90496586783E+03 0.  0.
        -24    2    4    4    0    0  0.63350280389E+02  0.25474989995E+03 -0.44038252758E+03  0.51889219536E+03  0.80009813540E+02 0.  0.
         24    2    4    4    0    0  0.61984031878E+03 -0.20460196615E+02  0.21619643953E+03  0.66045664357E+03  0.69580436451E+02 0.  0.
         13    1    3    3    0    0 -0.33943136738E+03 -0.97312461815E+02 -0.19267279743E+03  0.40225138316E+03  0.00000000000E+00 0.  1.
        -13    1    3    3    0    0 -0.34375923179E+03 -0.13697724152E+03 -0.10918568481E+03  0.38581690982E+03  0.00000000000E+00 0. -1.
          4    1    6    6  502    0  0.47177124920E+03  0.12246408542E+02  0.15218447796E+03  0.49586107069E+03  0.00000000000E+00 0. -1.
          1    1    5    5  503    0 -0.83196439638E+00  0.12404362656E+03 -0.25120230496E+03  0.28016086713E+03  0.00000000000E+00 0. -1.
         -2    1    5    5    0  503  0.64182244785E+02  0.13070627339E+03 -0.18918022262E+03  0.23873132823E+03  0.00000000000E+00 0.  1.
         -3    1    6    6    0  502  0.14806906959E+03 -0.32706605156E+02  0.64011961568E+02  0.16459557288E+03  0.00000000000E+00 0.  1.
<mgrwt>
<rscale>  0 0.18957867E+04</rscale>
<asrwt>0</asrwt>
<pdfrwt beam="1">  1        1 0.19180474E+00 0.18957867E+04</pdfrwt>
<pdfrwt beam="2">  1       -1 0.11087481E+00 0.18957867E+04</pdfrwt>
<totfact> 0.69268908E+00</totfact>
</mgrwt>
</event>
<event>
12    1  0.2214165E-007  0.2940477E+04  0.7818608E-02  0.8260935E-01
          1   -1    0    0  501    0  0.00000000000E+00  0.00000000000E+00  0.11774087379E+04  0.11774087379E+04  0.00000000000E+00 0. -1.
         -1   -1    0    0    0  501 -0.00000000000E+00 -0.00000000000E+00 -0.18358970575E+04  0.18358970575E+04  0.00000000000E+00 0.  1.
         23    2    1    2    0    0  0.33960878680E+02 -0.10441016248E+04 -0.11450577731E+04  0.15523825340E+04  0.86213015327E+02 0.  0.
        254    2    1    2    0    0 -0.33960878680E+02  0.10441016248E+04  0.48656945348E+03  0.14609232613E+04  0.89791168731E+03 0.  0.
        -24    2    4    4    0    0  0.27685827954E+03  0.53184027519E+01  0.75693522009E+02  0.29867373318E+03  0.82448148931E+02 0.  0.
         24    2    4    4    0    0 -0.31081915822E+03  0.10387832221E+04  0.41087593147E+03  0.11622495282E+04  0.79534917181E+02 0.  0.
         13    1    3    3    0    0  0.35475836104E+02 -0.26804577101E+03 -0.33623079746E+03  0.43146056537E+03  0.00000000000E+00 0.  1.
        -13    1    3    3    0    0 -0.15149574239E+01 -0.77605585382E+03 -0.80882697563E+03  0.11209219687E+04  0.00000000000E+00 0. -1.
          4    1    6    6  502    0 -0.31856135362E+02  0.17095938507E+03  0.42129582710E+02  0.17893246336E+03  0.00000000000E+00 0. -1.
          3    1    5    5  503    0  0.76854502527E+02 -0.26090332332E+02 -0.36057895841E+01  0.81242364062E+02  0.00000000000E+00 0. -1.
         -4    1    5    5    0  503  0.20000377701E+03  0.31408735084E+02  0.79299311593E+02  0.21743136912E+03  0.00000000000E+00 0.  1.
         -3    1    6    6    0  502 -0.27896302286E+03  0.86782383701E+03  0.36874634876E+03  0.98331706480E+03  0.00000000000E+00 0.  1.
<mgrwt>
<rscale>  0 0.29404770E+04</rscale>
<asrwt>0</asrwt>
<pdfrwt beam="1">  1        1 0.18113980E+00 0.29404770E+04</pdfrwt>
<pdfrwt beam="2">  1       -1 0.28244570E+00 0.29404770E+04</pdfrwt>
<totfact> 0.40749538E-01</totfact>
</mgrwt>
</event>
<event>
12    1  0.2214165E-007  0.1555297E+04  0.7818608E-02  0.8848491E-01
         -1   -1    0    0    0  501 -0.00000000000E+00  0.00000000000E+00  0.96877202264E+03  0.96877202264E+03  0.00000000000E+00 0.  1.
          1   -1    0    0  501    0  0.00000000000E+00 -0.00000000000E+00 -0.62423076835E+03  0.62423076835E+03  0.00000000000E+00 0. -1.
         23    2    1    2    0    0  0.41196415403E+03  0.30241333389E+03  0.15500085215E+03  0.54158425498E+03  0.90110778263E+02 0.  0.
        254    2    1    2    0    0 -0.41196415403E+03 -0.30241333389E+03  0.18954040214E+03  0.10514185360E+04  0.89910348965E+03 0.  0.
        -24    2    4    4    0    0 -0.21561728482E+02 -0.17687603725E+03 -0.33101493610E+03  0.38411148140E+03  0.78871424061E+02 0.  0.
         24    2    4    4    0    0 -0.39040242554E+03 -0.12553729664E+03  0.52055533823E+03  0.66730705461E+03  0.78403942833E+02 0.  0.
         13    1    3    3    0    0  0.90544720381E+02  0.76220887501E+02 -0.19565019900E+01  0.11837144073E+03  0.00000000000E+00 0. -1.
        -13    1    3    3    0    0  0.32141943364E+03  0.22619244639E+03  0.15695735414E+03  0.42321281425E+03  0.00000000000E+00 0.  1.
          2    1    6    6  502    0 -0.16087538558E+03 -0.75252260622E+02  0.27563367319E+03  0.32789893902E+03  0.00000000000E+00 0. -1.
          3    1    5    5  503    0  0.90154093441E+01 -0.99694747255E+02 -0.24455113459E+03  0.26424529829E+03  0.00000000000E+00 0. -1.
         -4    1    5    5    0  503 -0.30577137827E+02 -0.77181289994E+02 -0.86463801503E+02  0.11986618311E+03  0.00000000000E+00 0.  1.
         -1    1    6    6    0  502 -0.22952703996E+03 -0.50285036017E+02  0.24492166504E+03  0.33940811559E+03  0.00000000000E+00 0.  1.
<mgrwt>
<rscale>  0 0.15552971E+04</rscale>
<asrwt>0</asrwt>
<pdfrwt beam="1">  1        1 0.96035503E-01 0.15552971E+04</pdfrwt>
<pdfrwt beam="2">  1       -1 0.14904185E+00 0.15552971E+04</pdfrwt>
<totfact> 0.11052829E+01</totfact>
</mgrwt>
</event>
<event>
12    1  0.2214165E-007  0.2044839E+04  0.7818608E-02  0.8585939E-01
          2   -1    0    0  501    0  0.00000000000E+00  0.00000000000E+00  0.97679151521E+03  0.97679151521E+03  0.00000000000E+00 0.  1.
         -2   -1    0    0    0  501 -0.00000000000E+00 -0.00000000000E+00 -0.10701789789E+04  0.10701789789E+04  0.00000000000E+00 0. -1.
         23    2    1    2    0    0  0.27265296962E+03  0.74839038582E+03  0.16276672195E+03  0.81804938667E+03  0.91016382177E+02 0.  0.
        254    2    1    2    0    0 -0.27265296962E+03 -0.74839038582E+03 -0.25615418561E+03  0.12289211074E+04  0.90011349840E+03 0.  0.
        -24    2    4    4    0    0 -0.57203099305E+03 -0.63133677970E+03 -0.27091971629E+03  0.89739399024E+03  0.78185002647E+02 0.  0.
         24    2    4    4    0    0  0.29937802343E+03 -0.11705360613E+03  0.14765530672E+02  0.33152711718E+03  0.79771303803E+02 0.  0.
         11    1    3    3    0    0  0.11949486079E+03  0.21120132199E+03  0.36950812575E+02  0.24545953376E+03  0.00000000000E+00 0. -1.
        -11    1    3    3    0    0  0.15315810883E+03  0.53718906383E+03  0.12581590937E+03  0.57258985291E+03  0.00000000000E+00 0.  1.
          2    1    6    6  502    0  0.82097977902E+01 -0.10048495008E+02  0.16906066803E+02  0.21311689901E+02  0.00000000000E+00 0. -1.
          3    1    5    5  503    0 -0.81208208253E+02 -0.12882736479E+03 -0.63242057480E+02  0.16489639427E+03  0.00000000000E+00 0. -1.
         -4    1    5    5    0  503 -0.49082278479E+03 -0.50250941490E+03 -0.20767765881E+03  0.73249759597E+03  0.00000000000E+00 0.  1.
         -1    1    6    6    0  502  0.29116822564E+03 -0.10700511112E+03 -0.21405361312E+01  0.31021542728E+03  0.00000000000E+00 0.  1.
<mgrwt>
<rscale>  0 0.20448391E+04</rscale>
<asrwt>0</asrwt>
<pdfrwt beam="1">  1        2 0.15027562E+00 0.20448391E+04</pdfrwt>
<pdfrwt beam="2">  1       -2 0.16464292E+00 0.20448391E+04</pdfrwt>
<totfact> 0.56205331E+00</totfact>
</mgrwt>
</event>
<event>
12    1  0.2214165E-007  0.1787121E+04  0.7818608E-02  0.8713178E-01
         -2   -1    0    0    0  501 -0.00000000000E+00  0.00000000000E+00  0.37173511351E+03  0.37173511351E+03  0.00000000000E+00 0.  1.
          2   -1    0    0  501    0  0.00000000000E+00 -0.00000000000E+00 -0.21479020577E+04  0.21479020577E+04  0.00000000000E+00 0. -1.
         23    2    1    2    0    0 -0.27406191889E+02  0.37536359464E+03  0.10436657438E+03  0.40099396542E+03  0.90856210134E+02 0.  0.
        254    2    1    2    0    0  0.27406191889E+02 -0.37536359464E+03 -0.18805335186E+04  0.21186432058E+04  0.90032982370E+03 0.  0.
        -24    2    4    4    0    0  0.15163990180E+03 -0.64019906900E+03 -0.11489527585E+04  0.13268251306E+04  0.86735104395E+02 0.  0.
         24    2    4    4    0    0 -0.12423370991E+03  0.26483547435E+03 -0.73158076014E+03  0.79181807519E+03  0.78699507193E+02 0.  0.
         13    1    3    3    0    0 -0.93534901814E+01  0.11928793406E+03  0.78224433006E+02  0.14295510103E+03  0.00000000000E+00 0.  1.
        -13    1    3    3    0    0 -0.18052701708E+02  0.25607566058E+03  0.26142141373E+02  0.25803886439E+03  0.00000000000E+00 0. -1.
          2    1    6    6  502    0 -0.78498664116E+02  0.11417423535E+03 -0.25950938605E+03  0.29418177669E+03  0.00000000000E+00 0. -1.
          1    1    5    5  503    0  0.12284982680E+03 -0.38447933364E+03 -0.75829410752E+03  0.85902642069E+03  0.00000000000E+00 0. -1.
         -2    1    5    5    0  503  0.28790075004E+02 -0.25571973535E+03 -0.39065865096E+03  0.46779870996E+03  0.00000000000E+00 0.  1.
         -1    1    6    6    0  502 -0.45735045796E+02  0.15066123900E+03 -0.47207137409E+03  0.49763629850E+03  0.00000000000E+00 0.  1.
<mgrwt>
<rscale>  0 0.17871213E+04</rscale>
<asrwt>0</asrwt>
<pdfrwt beam="1">  1        2 0.33044646E+00 0.17871213E+04</pdfrwt>
<pdfrwt beam="2">  1       -2 0.57190019E-01 0.17871213E+04</pdfrwt>
<totfact> 0.14961275E+01</totfact>
</mgrwt>
</event>
<event>
12    1  0.2214165E-007  0.1439989E+04  0.7818608E-02  0.8925370E-01
         -2   -1    0    0    0  501 -0.00000000000E+00  0.00000000000E+00  0.54476161723E+03  0.54476161723E+03  0.00000000000E+00 0.  1.
          2   -1    0    0  501    0  0.00000000000E+00 -0.00000000000E+00 -0.95159494495E+03  0.95159494495E+03  0.00000000000E+00 0. -1.
         23    2    1    2    0    0 -0.19717303656E+03  0.13814886630E+03  0.24799482853E+03  0.35820822870E+03  0.94071167342E+02 0.  0.
        254    2    1    2    0    0  0.19717303656E+03 -0.13814886630E+03 -0.65482815625E+03  0.11381483335E+04  0.89923267244E+03 0.  0.
        -24    2    4    4    0    0  0.11819714332E+02  0.34986258394E+03 -0.44035327058E+03  0.56822568094E+03  0.80161638437E+02 0.  0.
         24    2    4    4    0    0  0.18535332222E+03 -0.48801145024E+03 -0.21447488567E+03  0.56992265254E+03  0.79380877205E+02 0.  0.
         13    1    3    3    0    0 -0.12766427884E+03  0.13245642496E+03  0.14704416070E+03  0.23550978281E+03  0.00000000000E+00 0. -1.
        -13    1    3    3    0    0 -0.69508757714E+02  0.56924413431E+01  0.10095066783E+03  0.12269844589E+03  0.00000000000E+00 0.  1.
          4    1    6    6  502    0  0.59099988657E+02 -0.25727731291E+03 -0.12523423950E+03  0.29217809491E+03  0.00000000000E+00 0. -1.
          1    1    5    5  503    0 -0.80486561785E+01  0.31970457038E+03 -0.41576936824E+03  0.52453785446E+03  0.00000000000E+00 0. -1.
         -2    1    5    5    0  503  0.19868370510E+02  0.30158013559E+02 -0.24583902345E+02  0.43687826486E+02  0.00000000000E+00 0.  1.
         -3    1    6    6    0  502  0.12625333357E+03 -0.23073413733E+03 -0.89240646162E+02  0.27774455763E+03  0.00000000000E+00 0.  1.
<mgrwt>
<rscale>  0 0.14399894E+04</rscale>
<asrwt>0</asrwt>
<pdfrwt beam="1">  1        2 0.14639922E+00 0.14399894E+04</pdfrwt>
<pdfrwt beam="2">  1       -2 0.83809480E-01 0.14399894E+04</pdfrwt>
<totfact> 0.32713433E+01</totfact>
</mgrwt>
</event>
<event>
12    1  0.2214165E-007  0.3208241E+04  0.7818608E-02  0.8186644E-01
         -2   -1    0    0    0  501 -0.00000000000E+00  0.00000000000E+00  0.12798341454E+04  0.12798341454E+04  0.00000000000E+00 0.  1.
          2   -1    0    0  501    0  0.00000000000E+00 -0.00000000000E+00 -0.20105746605E+04  0.20105746605E+04  0.00000000000E+00 0. -1.
         23    2    1    2    0    0  0.39794708001E+03 -0.13066189642E+04  0.24282412723E+03  0.13904423073E+04  0.93548154087E+02 0.  0.
        254    2    1    2    0    0 -0.39794708001E+03  0.13066189642E+04 -0.97356464231E+03  0.18999664987E+04  0.89242903769E+03 0.  0.
        -24    2    4    4    0    0  0.22907449155E+01 -0.63287060956E+02  0.75485868325E+02  0.12693885161E+03  0.80030345085E+02 0.  0.
         24    2    4    4    0    0 -0.40023782493E+03  0.13699060251E+04 -0.10490505106E+04  0.17730276471E+04  0.79292050107E+02 0.  0.
         13    1    3    3    0    0  0.24773235089E+03 -0.90142601935E+03  0.13023859224E+03  0.94387619789E+03  0.00000000000E+00 0. -1.
        -13    1    3    3    0    0  0.15021472913E+03 -0.40519294481E+03  0.11258553500E+03  0.44656610940E+03  0.00000000000E+00 0.  1.
          4    1    6    6  502    0 -0.21356657483E+03  0.62269596392E+03 -0.51487806530E+03  0.83573941363E+03  0.00000000000E+00 0. -1.
          1    1    5    5  503    0  0.22495883038E+02 -0.62669696662E+02  0.82065727888E+02  0.10568036396E+03  0.00000000000E+00 0. -1.
         -2    1    5    5    0  503 -0.20205138122E+02 -0.61736429398E+00 -0.65798595628E+01  0.21258487648E+02  0.00000000000E+00 0.  1.
         -3    1    6    6    0  502 -0.18667125010E+03  0.74721006119E+03 -0.53417244533E+03  0.93728823342E+03  0.00000000000E+00 0.  1.
<mgrwt>
<rscale>  0 0.32082407E+04</rscale>
<asrwt>0</asrwt>
<pdfrwt beam="1">  1        2 0.30931918E+00 0.32082407E+04</pdfrwt>
<pdfrwt beam="2">  1       -2 0.19689756E+00 0.32082407E+04</pdfrwt>
<totfact> 0.77333078E-01</totfact>
</mgrwt>
</event>
<event>
12    1  0.2214165E-007  0.2727410E+04  0.7818608E-02  0.8326166E-01
          2   -1    0    0  501    0  0.00000000000E+00  0.00000000000E+00  0.20208832652E+04  0.20208832652E+04  0.00000000000E+00 0. -1.
         -2   -1    0    0    0  501 -0.00000000000E+00 -0.00000000000E+00 -0.92023712431E+03  0.92023712431E+03  0.00000000000E+00 0.  1.
         23    2    1    2    0    0 -0.56158261587E+03 -0.74600551258E+03  0.13303541556E+04  0.16278920058E+04  0.91054620573E+02 0.  0.
        254    2    1    2    0    0  0.56158261587E+03  0.74600551258E+03 -0.22970801463E+03  0.13132283838E+04  0.89437338779E+03 0.  0.
        -24    2    4    4    0    0  0.51292313695E+03  0.41070417522E+03 -0.53469457521E+03  0.85065152385E+03  0.77082178908E+02 0.  0.
         24    2    4    4    0    0  0.48659478917E+02  0.33530133736E+03  0.30498656058E+03  0.46257685995E+03  0.78522719669E+02 0.  0.
         13    1    3    3    0    0 -0.46087172541E+03 -0.59177767062E+03  0.11239739969E+04  0.13512664817E+04  0.00000000000E+00 0.  1.
        -13    1    3    3    0    0 -0.10071089046E+03 -0.15422784197E+03  0.20638015862E+03  0.27662552407E+03  0.00000000000E+00 0. -1.
          4    1    6    6  502    0 -0.15524672654E+00  0.96961977267E+02  0.46260456488E+02  0.10743220640E+03  0.00000000000E+00 0. -1.
          3    1    5    5  503    0  0.10356801395E+03  0.12401664022E+03 -0.12049218481E+03  0.20155601496E+03  0.00000000000E+00 0. -1.
         -4    1    5    5    0  503  0.40935512301E+03  0.28668753500E+03 -0.41420239039E+03  0.64909550889E+03  0.00000000000E+00 0.  1.
         -1    1    6    6    0  502  0.48814725644E+02  0.23833936010E+03  0.25872610409E+03  0.35514465356E+03  0.00000000000E+00 0.  1.
<mgrwt>
<rscale>  0 0.27274104E+04</rscale>
<asrwt>0</asrwt>
<pdfrwt beam="1">  1        2 0.31090512E+00 0.27274104E+04</pdfrwt>
<pdfrwt beam="2">  1       -2 0.14157494E+00 0.27274104E+04</pdfrwt>
<totfact> 0.19863406E+00</totfact>
</mgrwt>
</event>
<event>
12    1  0.2214165E-007  0.1805070E+04  0.7818608E-02  0.8703608E-01
         -2   -1    0    0    0  501 -0.00000000000E+00  0.00000000000E+00  0.30084478250E+03  0.30084478250E+03  0.00000000000E+00 0. -1.
          2   -1    0    0  501    0  0.00000000000E+00 -0.00000000000E+00 -0.27076071084E+04  0.27076071084E+04  0.00000000000E+00 0.  1.
         23    2    1    2    0    0 -0.66930484287E+03 -0.56700617711E+01 -0.76873827113E+03  0.10236058501E+04  0.93857788755E+02 0.  0.
        254    2    1    2    0    0  0.66930484287E+03  0.56700617711E+01 -0.16380240548E+04  0.19848460408E+04  0.89916065276E+03 0.  0.
        -24    2    4    4    0    0  0.12279789642E+03  0.39590256726E+03 -0.83402107201E+03  0.93432445929E+03  0.74517652566E+02 0.  0.
         24    2    4    4    0    0  0.54650694645E+03 -0.39023250549E+03 -0.80400298276E+03  0.10505215815E+04  0.78889455062E+02 0.  0.
         11    1    3    3    0    0 -0.16458294041E+03  0.33450638507E+02 -0.22381798046E+03  0.27982311889E+03  0.00000000000E+00 0.  1.
        -11    1    3    3    0    0 -0.50472190246E+03 -0.39120700278E+02 -0.54492029067E+03  0.74378273117E+03  0.00000000000E+00 0. -1.
          4    1    6    6  502    0  0.53278632093E+03 -0.38371157394E+03 -0.76198333338E+03  0.10058401643E+04  0.00000000000E+00 0. -1.
          3    1    5    5  503    0  0.10285561735E+03  0.35996141822E+03 -0.78930875948E+03  0.87359018906E+03  0.00000000000E+00 0. -1.
         -4    1    5    5    0  503  0.19942279073E+02  0.35941149039E+02 -0.44712312531E+02  0.60734270233E+02  0.00000000000E+00 0.  1.
         -3    1    6    6    0  502  0.13720625512E+02 -0.65209315542E+01 -0.42019649380E+02  0.44681417243E+02  0.00000000000E+00 0.  1.
<mgrwt>
<rscale>  0 0.18050701E+04</rscale>
<asrwt>0</asrwt>
<pdfrwt beam="1">  1        2 0.41655493E+00 0.18050701E+04</pdfrwt>
<pdfrwt beam="2">  1       -2 0.46283814E-01 0.18050701E+04</pdfrwt>
<totfact> 0.10998839E+01</totfact>
</mgrwt>
</event>
<event>
12    1  0.2214165E-007  0.3864010E+04  0.7818608E-02  0.8032556E-01
          1   -1    0    0  501    0  0.00000000000E+00  0.00000000000E+00  0.26694849536E+04  0.26694849536E+04  0.00000000000E+00 0. -1.
         -1   -1    0    0    0  501 -0.00000000000E+00 -0.00000000000E+00 -0.13982633880E+04  0.13982633880E+04  0.00000000000E+00 0.  1.
         23    2    1    2    0    0 -0.16908122961E+04  0.51936717642E+03  0.12313280907E+03  0.17754056173E+04  0.91186252683E+02 0.  0.
        254    2    1    2    0    0  0.16908122961E+04 -0.51936717642E+03  0.11480887566E+04  0.22923427243E+04  0.89896545419E+03 0.  0.
        -24    2    4    4    0    0  0.14026500126E+04 -0.23967763322E+03  0.12209071452E+04  0.18766673531E+04  0.79960436626E+02 0.  0.
         24    2    4    4    0    0  0.28816228351E+03 -0.27968954320E+03 -0.72818388594E+02  0.41567537113E+03  0.78865418498E+02 0.  0.
         11    1    3    3    0    0 -0.89134958841E+03  0.25673715567E+03  0.10717766589E+03  0.93375859189E+03  0.00000000000E+00 0.  1.
        -11    1    3    3    0    0 -0.79946270773E+03  0.26263002075E+03  0.15955143176E+02  0.84164702545E+03  0.00000000000E+00 0. -1.
          4    1    6    6  502    0  0.27625044470E+02 -0.36480081552E+02  0.15799399092E+02  0.48410334059E+02  0.00000000000E+00 0. -1.
          1    1    5    5  503    0  0.14822350429E+03 -0.17173362545E+01  0.13659487335E+03  0.20157211090E+03  0.00000000000E+00 0. -1.
         -2    1    5    5    0  503  0.12544265083E+04 -0.23796029697E+03  0.10843122718E+04  0.16750952422E+04  0.00000000000E+00 0.  1.
         -3    1    6    6    0  502  0.26053723904E+03 -0.24320946164E+03 -0.88617787686E+02  0.36726503707E+03  0.00000000000E+00 0.  1.
<mgrwt>
<rscale>  0 0.38640099E+04</rscale>
<asrwt>0</asrwt>
<pdfrwt beam="1">  1        1 0.41068999E+00 0.38640099E+04</pdfrwt>
<pdfrwt beam="2">  1       -1 0.21511744E+00 0.38640099E+04</pdfrwt>
<totfact> 0.96861331E-02</totfact>
</mgrwt>
</event>
<event>
12    1  0.2214165E-007  0.2072001E+04  0.7818608E-02  0.8573678E-01
         -1   -1    0    0    0  501 -0.00000000000E+00  0.00000000000E+00  0.69381827158E+03  0.69381827158E+03  0.00000000000E+00 0.  1.
          1   -1    0    0  501    0  0.00000000000E+00 -0.00000000000E+00 -0.15469425765E+04  0.15469425765E+04  0.00000000000E+00 0. -1.
         23    2    1    2    0    0  0.24239043240E+02 -0.83498778441E+03 -0.28385847189E+03  0.88695557932E+03  0.91227387847E+02 0.  0.
        254    2    1    2    0    0 -0.24239043240E+02  0.83498778441E+03 -0.56926583304E+03  0.13538052688E+04  0.90051817627E+03 0.  0.
        -24    2    4    4    0    0  0.41545537368E+03  0.35862431324E+03 -0.14144154125E+03  0.57255965035E+03  0.81266709309E+02 0.  0.
         24    2    4    4    0    0 -0.43969441692E+03  0.47636347116E+03 -0.42782429180E+03  0.78124561844E+03  0.84010444238E+02 0.  0.
         13    1    3    3    0    0 -0.32697249579E+02 -0.38767735546E+03 -0.14393397964E+03  0.41482506260E+03  0.00000000000E+00 0. -1.
        -13    1    3    3    0    0  0.56936292818E+02 -0.44731042895E+03 -0.13992449225E+03  0.47213051672E+03  0.00000000000E+00 0.  1.
          2    1    6    6  502    0 -0.88081645812E+02  0.55220551084E+02 -0.52025734397E+02  0.11625129088E+03  0.00000000000E+00 0. -1.
          1    1    5    5  503    0  0.13695361285E+03  0.78080195205E+02 -0.61685475259E+02  0.16928646377E+03  0.00000000000E+00 0. -1.
         -2    1    5    5    0  503  0.27850176083E+03  0.28054411804E+03 -0.79756065986E+02  0.40327318658E+03  0.00000000000E+00 0.  1.
         -1    1    6    6    0  502 -0.35161277111E+03  0.42114292008E+03 -0.37579855740E+03  0.66499432756E+03  0.00000000000E+00 0.  1.
<mgrwt>
<rscale>  0 0.20720010E+04</rscale>
<asrwt>0</asrwt>
<pdfrwt beam="1">  1        1 0.23799116E+00 0.20720010E+04</pdfrwt>
<pdfrwt beam="2">  1       -1 0.10674127E+00 0.20720010E+04</pdfrwt>
<totfact> 0.45842472E+00</totfact>
</mgrwt>
</event>
<event>
12    1  0.2214165E-007  0.2023709E+04  0.7818608E-02  0.8595615E-01
         -1   -1    0    0    0  501 -0.00000000000E+00  0.00000000000E+00  0.52602613710E+03  0.52602613710E+03  0.00000000000E+00 0.  1.
          1   -1    0    0  501    0  0.00000000000E+00 -0.00000000000E+00 -0.19463856221E+04  0.19463856221E+04  0.00000000000E+00 0. -1.
         23    2    1    2    0    0 -0.74172874864E+03  0.32143649780E+03 -0.61258387455E+03  0.10176448415E+04  0.82819450650E+02 0.  0.
        254    2    1    2    0    0  0.74172874864E+03 -0.32143649780E+03 -0.80777561047E+03  0.14547669177E+04  0.90020130488E+03 0.  0.
        -24    2    4    4    0    0  0.63678139481E+03 -0.21818844930E+03 -0.99621300990E+03  0.12049278675E+04  0.79461063342E+02 0.  0.
         24    2    4    4    0    0  0.10494735383E+03 -0.10324804851E+03  0.18843739942E+03  0.24983905022E+03  0.72365674993E+02 0.  0.
         13    1    3    3    0    0 -0.22320864094E+03  0.96640151453E+02 -0.13797003807E+03  0.27963752907E+03  0.00000000000E+00 0.  1.
        -13    1    3    3    0    0 -0.51852010770E+03  0.22479634635E+03 -0.47461383648E+03  0.73800731243E+03  0.00000000000E+00 0. -1.
          4    1    6    6  502    0  0.82466953550E+02 -0.33412865045E+02  0.12096199706E+03  0.15016332012E+03  0.00000000000E+00 0. -1.
          1    1    5    5  503    0  0.54736370494E+03 -0.19462125792E+03 -0.90222350475E+03  0.10730758184E+04  0.00000000000E+00 0. -1.
         -2    1    5    5    0  503  0.89417689864E+02 -0.23567191378E+02 -0.93989505146E+02  0.13185204908E+03  0.00000000000E+00 0.  1.
         -3    1    6    6    0  502  0.22480400284E+02 -0.69835183463E+02  0.67475402363E+02  0.99675730097E+02  0.00000000000E+00 0.  1.
<mgrwt>
<rscale>  0 0.20237092E+04</rscale>
<asrwt>0</asrwt>
<pdfrwt beam="1">  1        1 0.29944394E+00 0.20237092E+04</pdfrwt>
<pdfrwt beam="2">  1       -1 0.80927099E-01 0.20237092E+04</pdfrwt>
<totfact> 0.45652647E+00</totfact>
</mgrwt>
</event>
<event>
12    1  0.2214165E-007  0.1424777E+04  0.7818608E-02  0.8936076E-01
         -2   -1    0    0    0  501 -0.00000000000E+00  0.00000000000E+00  0.15132719099E+03  0.15132719099E+03  0.00000000000E+00 0.  1.
          2   -1    0    0  501    0  0.00000000000E+00 -0.00000000000E+00 -0.33536434004E+04  0.33536434004E+04  0.00000000000E+00 0. -1.
         23    2    1    2    0    0  0.33586006157E+03  0.15475107573E+03 -0.14618334692E+04  0.15108913079E+04  0.95318290042E+02 0.  0.
        254    2    1    2    0    0 -0.33586006157E+03 -0.15475107573E+03 -0.17404827402E+04  0.19940792834E+04  0.90017895067E+03 0.  0.
        -24    2    4    4    0    0  0.29026525042E+02  0.27609627865E+01 -0.15393361386E+04  0.15417698419E+04  0.81537328012E+02 0.  0.
         24    2    4    4    0    0 -0.36488658662E+03 -0.15751203852E+03 -0.20114660163E+03  0.45230944151E+03  0.78559608939E+02 0.  0.
         13    1    3    3    0    0  0.42316777422E+01  0.12810104701E+02 -0.14233334773E+03  0.14297128297E+03  0.00000000000E+00 0. -1.
        -13    1    3    3    0    0  0.33162838383E+03  0.14194097103E+03 -0.13195001215E+04  0.13679200250E+04  0.00000000000E+00 0.  1.
          4    1    6    6  502    0 -0.32472567956E+02  0.34445657738E+01 -0.20195267080E+01  0.32717139104E+02  0.00000000000E+00 0. -1.
          1    1    5    5  503    0  0.40058086436E+01 -0.24197049841E+02 -0.15361162474E+03  0.15555730449E+03  0.00000000000E+00 0. -1.
         -2    1    5    5    0  503  0.25020716398E+02  0.26958012628E+02 -0.13857245139E+04  0.13862125375E+04  0.00000000000E+00 0.  1.
         -3    1    6    6    0  502 -0.33241401866E+03 -0.16095660429E+03 -0.19912707492E+03  0.41959230240E+03  0.00000000000E+00 0.  1.
<mgrwt>
<rscale>  0 0.14247771E+04</rscale>
<asrwt>0</asrwt>
<pdfrwt beam="1">  1        2 0.51594508E+00 0.14247771E+04</pdfrwt>
<pdfrwt beam="2">  1       -2 0.23281109E-01 0.14247771E+04</pdfrwt>
<totfact> 0.16477959E+01</totfact>
</mgrwt>
</event>
<event>
12    1  0.2214165E-007  0.1578236E+04  0.7818608E-02  0.8834031E-01
         -1   -1    0    0    0  501 -0.00000000000E+00  0.00000000000E+00  0.10828877295E+04  0.10828877295E+04  0.00000000000E+00 0.  1.
          1   -1    0    0  501    0  0.00000000000E+00 -0.00000000000E+00 -0.57504352022E+03  0.57504352022E+03  0.00000000000E+00 0. -1.
         23    2    1    2    0    0 -0.19159004641E+03  0.46787605405E+03  0.34744820344E+03  0.62020469229E+03  0.91207776156E+02 0.  0.
        254    2    1    2    0    0  0.19159004641E+03 -0.46787605405E+03  0.16039600583E+03  0.10377265574E+04  0.89192756514E+03 0.  0.
        -24    2    4    4    0    0  0.22277050186E+02 -0.52762272359E+03 -0.24495407070E+03  0.58695130155E+03  0.75015519868E+02 0.  0.
         24    2    4    4    0    0  0.16931299622E+03  0.59746669543E+02  0.40535007653E+03  0.45077525588E+03  0.81566485492E+02 0.  0.
         13    1    3    3    0    0 -0.16540972163E+03  0.32742657307E+03  0.28379511518E+03  0.46379758964E+03  0.00000000000E+00 0.  1.
        -13    1    3    3    0    0 -0.26180324782E+02  0.14044948098E+03  0.63653088260E+02  0.15640710265E+03  0.00000000000E+00 0. -1.
          4    1    6    6  502    0  0.12893081929E+03  0.32154954421E+02  0.20318419559E+03  0.24277750018E+03  0.00000000000E+00 0. -1.
          1    1    5    5  503    0  0.61859989452E+01 -0.30442725730E+03 -0.10069822394E+03  0.32070914218E+03  0.00000000000E+00 0. -1.
         -2    1    5    5    0  503  0.16091051241E+02 -0.22319546629E+03 -0.14425584676E+03  0.26624215937E+03  0.00000000000E+00 0.  1.
         -3    1    6    6    0  502  0.40382176930E+02  0.27591715122E+02  0.20216588094E+03  0.20799775569E+03  0.00000000000E+00 0.  1.
<mgrwt>
<rscale>  0 0.15782364E+04</rscale>
<asrwt>0</asrwt>
<pdfrwt beam="1">  1        1 0.88468234E-01 0.15782364E+04</pdfrwt>
<pdfrwt beam="2">  1       -1 0.16659811E+00 0.15782364E+04</pdfrwt>
<totfact> 0.91247088E+00</totfact>
</mgrwt>
</event>
<event>
12    1  0.2214165E-007  0.1465508E+04  0.7818608E-02  0.8907719E-01
          1   -1    0    0  501    0  0.00000000000E+00  0.00000000000E+00  0.15306794432E+04  0.15306794432E+04  0.00000000000E+00 0. -1.
         -1   -1    0    0    0  501 -0.00000000000E+00 -0.00000000000E+00 -0.35077769178E+03  0.35077769178E+03  0.00000000000E+00 0.  1.
         23    2    1    2    0    0 -0.24703714520E+03  0.76234790478E+02  0.83974309474E+03  0.88338657671E+03  0.91456461526E+02 0.  0.
        254    2    1    2    0    0  0.24703714520E+03 -0.76234790478E+02  0.34015865667E+03  0.99807055826E+03  0.90199658157E+03 0.  0.
        -24    2    4    4    0    0  0.55688148336E+03 -0.12272420927E+03  0.34858584685E+03  0.67308237756E+03  0.79684228700E+02 0.  0.
         24    2    4    4    0    0 -0.30984433817E+03  0.46489418795E+02 -0.84271901777E+01  0.32498818070E+03  0.85915773318E+02 0.  0.
         11    1    3    3    0    0 -0.17544700710E+03  0.94683457093E+01  0.50986013987E+03  0.53928532717E+03  0.00000000000E+00 0. -1.
        -11    1    3    3    0    0 -0.71590138097E+02  0.66766444768E+02  0.32988295487E+03  0.34410124954E+03  0.00000000000E+00 0.  1.
          2    1    6    6  502    0 -0.78298923336E+02  0.82397486926E+01 -0.39796043498E+02  0.88217571561E+02  0.00000000000E+00 0. -1.
          1    1    5    5  503    0  0.38105823333E+03 -0.86072379892E+02  0.28083433670E+03  0.48112551007E+03  0.00000000000E+00 0. -1.
         -2    1    5    5    0  503  0.17582325004E+03 -0.36651829381E+02  0.67751510147E+02  0.19195686749E+03  0.00000000000E+00 0.  1.
         -1    1    6    6    0  502 -0.23154541483E+03  0.38249670102E+02  0.31368853320E+02  0.23677060914E+03  0.00000000000E+00 0.  1.
<mgrwt>
<rscale>  0 0.14655077E+04</rscale>
<asrwt>0</asrwt>
<pdfrwt beam="1">  1        1 0.23548914E+00 0.14655077E+04</pdfrwt>
<pdfrwt beam="2">  1       -1 0.53965800E-01 0.14655077E+04</pdfrwt>
<totfact> 0.20944828E+01</totfact>
</mgrwt>
</event>
<event>
12    1  0.2214165E-007  0.2255216E+04  0.7818608E-02  0.8495791E-01
         -2   -1    0    0    0  501 -0.00000000000E+00  0.00000000000E+00  0.16593947596E+04  0.16593947596E+04  0.00000000000E+00 0.  1.
          2   -1    0    0  501    0  0.00000000000E+00 -0.00000000000E+00 -0.76624277464E+03  0.76624277464E+03  0.00000000000E+00 0. -1.
         23    2    1    2    0    0 -0.89929025411E+03  0.14305633009E+03  0.10385958839E+03  0.92079590638E+03  0.88826867487E+02 0.  0.
        254    2    1    2    0    0  0.89929025411E+03 -0.14305633009E+03  0.78929239660E+03  0.15048416279E+04  0.90132001142E+03 0.  0.
        -24    2    4    4    0    0  0.56036416218E+03 -0.73795263310E+02  0.95520301157E+03  0.11129244530E+04  0.82062840078E+02 0.  0.
         24    2    4    4    0    0  0.33892609193E+03 -0.69261066781E+02 -0.16591061498E+03  0.39191717484E+03  0.80029673331E+02 0.  0.
         11    1    3    3    0    0 -0.74169537923E+03  0.85853073394E+02  0.97856585156E+02  0.75303299864E+03  0.00000000000E+00 0.  1.
        -11    1    3    3    0    0 -0.15759487488E+03  0.57203256697E+02  0.60030032289E+01  0.16776290774E+03  0.00000000000E+00 0. -1.
          2    1    6    6  502    0  0.29640321761E+03 -0.82379789515E+02 -0.16078863292E+03  0.34712286240E+03  0.00000000000E+00 0. -1.
          3    1    5    5  503    0  0.89047727132E+02 -0.11081497626E+02  0.21732923397E+03  0.23512612197E+03  0.00000000000E+00 0. -1.
         -4    1    5    5    0  503  0.47131643505E+03 -0.62713765683E+02  0.73787377760E+03  0.87779833107E+03  0.00000000000E+00 0.  1.
         -1    1    6    6    0  502  0.42522874322E+02  0.13118722734E+02 -0.51219820626E+01  0.44794312440E+02  0.00000000000E+00 0.  1.
<mgrwt>
<rscale>  0 0.22552155E+04</rscale>
<asrwt>0</asrwt>
<pdfrwt beam="1">  1        2 0.11788350E+00 0.22552155E+04</pdfrwt>
<pdfrwt beam="2">  1       -2 0.25529150E+00 0.22552155E+04</pdfrwt>
<totfact> 0.19781828E+00</totfact>
</mgrwt>
</event>
<event>
12    1  0.2214165E-007  0.2841536E+04  0.7818608E-02  0.8290488E-01
         -1   -1    0    0    0  501 -0.00000000000E+00  0.00000000000E+00  0.12441193786E+04  0.12441193786E+04  0.00000000000E+00 0.  1.
          1   -1    0    0  501    0  0.00000000000E+00 -0.00000000000E+00 -0.16224981458E+04  0.16224981458E+04  0.00000000000E+00 0. -1.
         23    2    1    2    0    0  0.11957544107E+04  0.44679993039E+03 -0.26835541552E+03  0.13079851810E+04  0.96704787584E+02 0.  0.
        254    2    1    2    0    0 -0.11957544107E+04 -0.44679993039E+03 -0.11002335164E+03  0.15586323435E+04  0.88756456415E+03 0.  0.
        -24    2    4    4    0    0 -0.98525552008E+03  0.70168722345E+02 -0.77594544327E+02  0.99424427403E+03  0.82756713788E+02 0.  0.
         24    2    4    4    0    0 -0.21049889066E+03 -0.51696865274E+03 -0.32428807312E+02  0.56438806943E+03  0.76914852174E+02 0.  0.
         13    1    3    3    0    0  0.27710284708E+03  0.92098671104E+02 -0.10183402026E+03  0.30925445957E+03  0.00000000000E+00 0. -1.
        -13    1    3    3    0    0  0.91865156366E+03  0.35470125929E+03 -0.16652139526E+03  0.99873072139E+03  0.00000000000E+00 0.  1.
          2    1    6    6  502    0 -0.12963202773E+03 -0.22295161811E+03 -0.16582935208E+01  0.25790431669E+03  0.00000000000E+00 0. -1.
          3    1    5    5  503    0 -0.11948026135E+02  0.32693783108E+01  0.82309190535E+01  0.14872531443E+02  0.00000000000E+00 0. -1.
         -4    1    5    5    0  503 -0.97330749395E+03  0.66899344034E+02 -0.85825463381E+02  0.97937174258E+03  0.00000000000E+00 0.  1.
         -1    1    6    6    0  502 -0.80866862934E+02 -0.29401703463E+03 -0.30770513791E+02  0.30648375274E+03  0.00000000000E+00 0.  1.
<mgrwt>
<rscale>  0 0.28415358E+04</rscale>
<asrwt>0</asrwt>
<pdfrwt beam="1">  1        1 0.24961510E+00 0.28415358E+04</pdfrwt>
<pdfrwt beam="2">  1       -1 0.19140298E+00 0.28415358E+04</pdfrwt>
<totfact> 0.80250359E-01</totfact>
</mgrwt>
</event>
<event>
12    1  0.2214165E-007  0.1498179E+04  0.7818608E-02  0.8885665E-01
         -1   -1    0    0    0  501 -0.00000000000E+00  0.00000000000E+00  0.32784410433E+03  0.32784410433E+03  0.00000000000E+00 0.  1.
          1   -1    0    0  501    0  0.00000000000E+00 -0.00000000000E+00 -0.17115908716E+04  0.17115908716E+04  0.00000000000E+00 0. -1.
         23    2    1    2    0    0  0.25762041626E+03 -0.20572430653E+03  0.18167370928E+02  0.34271046745E+03  0.91813081654E+02 0.  0.
        254    2    1    2    0    0 -0.25762041626E+03  0.20572430653E+03 -0.14019141382E+04  0.16967245084E+04  0.89711762751E+03 0.  0.
        -24    2    4    4    0    0 -0.54002941300E+03 -0.47049618003E+02 -0.64266082479E+03  0.84432947426E+03  0.77678130247E+02 0.  0.
         24    2    4    4    0    0  0.28240899674E+03  0.25277392453E+03 -0.75925331337E+03  0.85239503418E+03  0.80387822933E+02 0.  0.
         11    1    3    3    0    0  0.10375728536E+03 -0.10872620196E+03 -0.32782066501E+02  0.15382335694E+03  0.00000000000E+00 0. -1.
        -11    1    3    3    0    0  0.15386313091E+03 -0.96998104571E+02  0.50949437429E+02  0.18888711051E+03  0.00000000000E+00 0.  1.
          2    1    6    6  502    0  0.82689616453E+02  0.30482484124E+02 -0.15562977668E+03  0.17885016606E+03  0.00000000000E+00 0. -1.
          3    1    5    5  503    0 -0.53470019491E+03 -0.50815506958E+02 -0.61784027996E+03  0.81866545409E+03  0.00000000000E+00 0. -1.
         -4    1    5    5    0  503 -0.53292180842E+01  0.37658889557E+01 -0.24820544837E+02  0.25664020164E+02  0.00000000000E+00 0.  1.
         -1    1    6    6    0  502  0.19971938028E+03  0.22229144041E+03 -0.60362353668E+03  0.67354486812E+03  0.00000000000E+00 0.  1.
<mgrwt>
<rscale>  0 0.14981789E+04</rscale>
<asrwt>0</asrwt>
<pdfrwt beam="1">  1        1 0.26332167E+00 0.14981789E+04</pdfrwt>
<pdfrwt beam="2">  1       -1 0.50437555E-01 0.14981789E+04</pdfrwt>
<totfact> 0.17875866E+01</totfact>
</mgrwt>
</event>
<event>
12    1  0.2214165E-007  0.3530715E+04  0.7818608E-02  0.8106549E-01
          2   -1    0    0  501    0  0.00000000000E+00  0.00000000000E+00  0.15943536109E+04  0.15943536109E+04  0.00000000000E+00 0. -1.
         -2   -1    0    0    0  501 -0.00000000000E+00 -0.00000000000E+00 -0.19547027950E+04  0.19547027950E+04  0.00000000000E+00 0.  1.
         23    2    1    2    0    0  0.66848535085E+03  0.15064825972E+04 -0.10993216118E+03  0.16542122570E+04  0.89278391399E+02 0.  0.
        254    2    1    2    0    0 -0.66848535085E+03 -0.15064825972E+04 -0.25041702293E+03  0.18948441490E+04  0.90075700601E+03 0.  0.
        -24    2    4    4    0    0 -0.75902555162E+03 -0.13979175037E+04  0.41975708804E+01  0.15927092492E+04  0.80074950872E+02 0.  0.
         24    2    4    4    0    0  0.90540200769E+02 -0.10856509347E+03 -0.25461459381E+03  0.30213489982E+03  0.80454949091E+02 0.  0.
         13    1    3    3    0    0  0.24630559297E+03  0.51003778224E+03 -0.76161653092E+02  0.57149416606E+03  0.00000000000E+00 0. -1.
        -13    1    3    3    0    0  0.42217975788E+03  0.99644481491E+03 -0.33770508091E+02  0.10827180909E+04  0.00000000000E+00 0.  1.
          2    1    6    6  502    0 -0.30638180849E+01 -0.45689473246E+01 -0.71362364951E+02  0.71574083245E+02  0.00000000000E+00 0. -1.
          1    1    5    5  503    0 -0.79451746879E+02 -0.20127731345E+03  0.85455172214E+01  0.21655983667E+03  0.00000000000E+00 0. -1.
         -2    1    5    5    0  503 -0.67957380474E+03 -0.11966401902E+04 -0.43479463410E+01  0.13761494125E+04  0.00000000000E+00 0.  1.
         -1    1    6    6    0  502  0.93604018854E+02 -0.10399614614E+03 -0.18325222886E+03  0.23056081658E+03  0.00000000000E+00 0.  1.
<mgrwt>
<rscale>  0 0.35307152E+04</rscale>
<asrwt>0</asrwt>
<pdfrwt beam="1">  1        2 0.24528517E+00 0.35307152E+04</pdfrwt>
<pdfrwt beam="2">  1       -2 0.30072351E+00 0.35307152E+04</pdfrwt>
<totfact> 0.28965176E-01</totfact>
</mgrwt>
</event>
<event>
12    1  0.2214165E-007  0.1434212E+04  0.7818608E-02  0.8929420E-01
          2   -1    0    0  501    0  0.00000000000E+00  0.00000000000E+00  0.82410095127E+03  0.82410095127E+03  0.00000000000E+00 0.  1.
         -2   -1    0    0    0  501 -0.00000000000E+00 -0.00000000000E+00 -0.62400207612E+03  0.62400207612E+03  0.00000000000E+00 0. -1.
         23    2    1    2    0    0  0.18745227287E+03 -0.69841110382E+02 -0.32255940892E+03  0.38758080029E+03  0.78474003107E+02 0.  0.
        254    2    1    2    0    0 -0.18745227287E+03  0.69841110382E+02  0.52265828407E+03  0.10605222271E+04  0.90084381386E+03 0.  0.
        -24    2    4    4    0    0 -0.33962774347E+03  0.39830998719E+03  0.42196455109E+03  0.67690758090E+03  0.78434307993E+02 0.  0.
         24    2    4    4    0    0  0.15217547060E+03 -0.32846887681E+03  0.10069373298E+03  0.38361464620E+03  0.77277370787E+02 0.  0.
         11    1    3    3    0    0  0.41392362899E+02 -0.18853123584E+02 -0.24254806702E+02  0.51546713022E+02  0.00000000000E+00 0.  1.
        -11    1    3    3    0    0  0.14605990997E+03 -0.50987986798E+02 -0.29830460222E+03  0.33603408727E+03  0.00000000000E+00 0. -1.
          4    1    6    6  502    0  0.11459299991E+03 -0.19032196631E+03  0.91147800547E+02  0.24012898207E+03  0.00000000000E+00 0. -1.
          1    1    5    5  503    0 -0.16935303876E+03  0.17057348068E+03  0.14936566102E+03  0.28299446062E+03  0.00000000000E+00 0. -1.
         -2    1    5    5    0  503 -0.17027470471E+03  0.22773650651E+03  0.27259889007E+03  0.39391312028E+03  0.00000000000E+00 0.  1.
         -3    1    6    6    0  502  0.37582470690E+02 -0.13814691051E+03  0.95459324306E+01  0.14348566413E+03  0.00000000000E+00 0.  1.
<mgrwt>
<rscale>  0 0.14342116E+04</rscale>
<asrwt>0</asrwt>
<pdfrwt beam="1">  1        2 0.12678476E+00 0.14342116E+04</pdfrwt>
<pdfrwt beam="2">  1       -2 0.96000319E-01 0.14342116E+04</pdfrwt>
<totfact> 0.29234982E+01</totfact>
</mgrwt>
</event>
<event>
12    1  0.2214165E-007  0.1747442E+04  0.7818608E-02  0.8734759E-01
         -1   -1    0    0    0  501 -0.00000000000E+00  0.00000000000E+00  0.89037641070E+03  0.89037641070E+03  0.00000000000E+00 0.  1.
          1   -1    0    0  501    0  0.00000000000E+00 -0.00000000000E+00 -0.85737745975E+03  0.85737745975E+03  0.00000000000E+00 0. -1.
         23    2    1    2    0    0 -0.37122657927E+03 -0.51038359336E+03  0.11064673840E+03  0.64768405682E+03  0.94611580740E+02 0.  0.
        254    2    1    2    0    0  0.37122657927E+03  0.51038359336E+03 -0.77647787445E+02  0.11000698136E+04  0.89767690761E+03 0.  0.
        -24    2    4    4    0    0  0.51044440153E+03  0.40172967208E+03 -0.36845132554E+03  0.75094469701E+03  0.78875485319E+02 0.  0.
         24    2    4    4    0    0 -0.13921782226E+03  0.10865392128E+03  0.29080353809E+03  0.34912511663E+03  0.78322236011E+02 0.  0.
         11    1    3    3    0    0 -0.21617660719E+03 -0.37068454469E+03  0.64402794274E+02  0.43392058844E+03  0.00000000000E+00 0.  1.
        -11    1    3    3    0    0 -0.15504997209E+03 -0.13969904867E+03  0.46243944122E+02  0.21376346837E+03  0.00000000000E+00 0. -1.
          2    1    6    6  502    0  0.81420206370E+01  0.44324940725E+01  0.36600273905E+01  0.99667098009E+01  0.00000000000E+00 0. -1.
          3    1    5    5  503    0  0.48361363979E+02  0.19823074638E+02 -0.12450633578E+02  0.53728894373E+02  0.00000000000E+00 0. -1.
         -4    1    5    5    0  503  0.46208303755E+03  0.38190659744E+03 -0.35600069196E+03  0.69721580263E+03  0.00000000000E+00 0.  1.
         -1    1    6    6    0  502 -0.14735984289E+03  0.10422142720E+03  0.28714351070E+03  0.33915840683E+03  0.00000000000E+00 0.  1.
<mgrwt>
<rscale>  0 0.17474423E+04</rscale>
<asrwt>0</asrwt>
<pdfrwt beam="1">  1        1 0.13190422E+00 0.17474423E+04</pdfrwt>
<pdfrwt beam="2">  1       -1 0.13698099E+00 0.17474423E+04</pdfrwt>
<totfact> 0.83035883E+00</totfact>
</mgrwt>
</event>
<event>
12    1  0.2214165E-007  0.1720394E+04  0.7818608E-02  0.8749817E-01
          3   -1    0    0  501    0  0.00000000000E+00  0.00000000000E+00  0.81117359120E+03  0.81117359120E+03  0.00000000000E+00 0. -1.
         -3   -1    0    0    0  501 -0.00000000000E+00 -0.00000000000E+00 -0.91218352496E+03  0.91218352496E+03  0.00000000000E+00 0.  1.
         23    2    1    2    0    0 -0.46618037007E+03  0.38112057896E+03 -0.18705947686E+03  0.63706749458E+03  0.91031377058E+02 0.  0.
        254    2    1    2    0    0  0.46618037007E+03 -0.38112057896E+03  0.86049543100E+02  0.10862896216E+04  0.90002421353E+03 0.  0.
        -24    2    4    4    0    0  0.24357423286E+02 -0.57716765504E+03 -0.25984568684E+02  0.58362237501E+03  0.78892919283E+02 0.  0.
         24    2    4    4    0    0  0.44182294679E+03  0.19604707607E+03  0.11203411178E+03  0.50266724657E+03  0.80503082101E+02 0.  0.
         13    1    3    3    0    0 -0.69911171027E+02  0.10374638056E+03 -0.32172832857E+02  0.12917420209E+03  0.00000000000E+00 0. -1.
        -13    1    3    3    0    0 -0.39626919905E+03  0.27737419841E+03 -0.15488664401E+03  0.50789329248E+03  0.00000000000E+00 0.  1.
          4    1    6    6  502    0  0.31884203023E+03  0.12722731920E+03  0.11401234106E+03  0.36172620158E+03  0.00000000000E+00 0. -1.
          3    1    5    5  503    0  0.29465168799E+02 -0.42512182759E+03 -0.51930055595E+02  0.42929418252E+03  0.00000000000E+00 0. -1.
         -4    1    5    5    0  503 -0.51077455131E+01 -0.15204582744E+03  0.25945486911E+02  0.15432819249E+03  0.00000000000E+00 0.  1.
         -3    1    6    6    0  502  0.12298091656E+03  0.68819756867E+02 -0.19782292809E+01  0.14094104499E+03  0.00000000000E+00 0.  1.
<mgrwt>
<rscale>  0 0.17203944E+04</rscale>
<asrwt>0</asrwt>
<pdfrwt beam="1">  1        3 0.12479594E+00 0.17203944E+04</pdfrwt>
<pdfrwt beam="2">  1       -3 0.14033593E+00 0.17203944E+04</pdfrwt>
<totfact> 0.48971128E-01</totfact>
</mgrwt>
</event>
<event>
12    1  0.2214165E-007  0.2724277E+04  0.7818608E-02  0.8327171E-01
         -2   -1    0    0    0  501 -0.00000000000E+00  0.00000000000E+00  0.73426669183E+03  0.73426669183E+03  0.00000000000E+00 0.  1.
          2   -1    0    0  501    0  0.00000000000E+00 -0.00000000000E+00 -0.25269029657E+04  0.25269029657E+04  0.00000000000E+00 0. -1.
         23    2    1    2    0    0  0.10574518261E+04  0.45965758799E+03 -0.12484953097E+04  0.17019174699E+04  0.91066313995E+02 0.  0.
        254    2    1    2    0    0 -0.10574518261E+04 -0.45965758799E+03 -0.54414096423E+03  0.15592521876E+04  0.89760154461E+03 0.  0.
        -24    2    4    4    0    0 -0.46073887539E+02 -0.10329763480E+03  0.20519531865E+03  0.24823374191E+03  0.81985775365E+02 0.  0.
         24    2    4    4    0    0 -0.10113779386E+04 -0.35635995319E+03 -0.74933628287E+03  0.13110184457E+04  0.85946199857E+02 0.  0.
         11    1    3    3    0    0  0.29924606054E+03  0.14625135379E+03 -0.30522617623E+03  0.45177503460E+03  0.00000000000E+00 0. -1.
        -11    1    3    3    0    0  0.75820576556E+03  0.31340623420E+03 -0.94326913344E+03  0.12501424354E+04  0.00000000000E+00 0.  1.
          2    1    6    6  502    0 -0.10021122889E+04 -0.36111702236E+03 -0.73979059423E+03  0.12968903835E+04  0.00000000000E+00 0. -1.
          3    1    5    5  503    0 -0.14173245313E+02 -0.74002953850E+02  0.18633858278E+03  0.20099598378E+03  0.00000000000E+00 0. -1.
         -4    1    5    5    0  503 -0.31900642226E+02 -0.29294680951E+02  0.18856735865E+02  0.47237758138E+02  0.00000000000E+00 0.  1.
         -1    1    6    6    0  502 -0.92656496455E+01  0.47570691682E+01 -0.95456886399E+01  0.14128062218E+02  0.00000000000E+00 0.  1.
<mgrwt>
<rscale>  0 0.27242766E+04</rscale>
<asrwt>0</asrwt>
<pdfrwt beam="1">  1        2 0.38875430E+00 0.27242766E+04</pdfrwt>
<pdfrwt beam="2">  1       -2 0.11296411E+00 0.27242766E+04</pdfrwt>
<totfact> 0.18104282E+00</totfact>
</mgrwt>
</event>
<event>
12    1  0.2214165E-007  0.2034779E+04  0.7818608E-02  0.8590531E-01
          1   -1    0    0  501    0  0.00000000000E+00  0.00000000000E+00  0.30718687001E+04  0.30718687001E+04  0.00000000000E+00 0. -1.
         -1   -1    0    0    0  501 -0.00000000000E+00 -0.00000000000E+00 -0.33695499426E+03  0.33695499426E+03  0.00000000000E+00 0.  1.
         23    2    1    2    0    0  0.54238329539E+03  0.60730708149E+03  0.11736024789E+04  0.14313465737E+04  0.91698991775E+02 0.  0.
        254    2    1    2    0    0 -0.54238329539E+03 -0.60730708149E+03  0.15613112270E+04  0.19774771207E+04  0.89984525628E+03 0.  0.
        -24    2    4    4    0    0 -0.23096645233E+03 -0.69758035575E+03  0.14457551913E+04  0.16237841170E+04  0.80640749605E+02 0.  0.
         24    2    4    4    0    0 -0.31141684306E+03  0.90273274258E+02  0.11555603563E+03  0.35369300375E+03  0.81337748572E+02 0.  0.
         11    1    3    3    0    0  0.33167876876E+03  0.43140934585E+03  0.75089846423E+03  0.92734747151E+03  0.00000000000E+00 0.  1.
        -11    1    3    3    0    0  0.21070452663E+03  0.17589773563E+03  0.42270401469E+03  0.50399910216E+03  0.00000000000E+00 0. -1.
          4    1    6    6  502    0 -0.20451622948E+03  0.94297244326E+02  0.96592277544E+02  0.24504882470E+03  0.00000000000E+00 0. -1.
          3    1    5    5  503    0 -0.41978091430E+02 -0.19513363940E+03  0.33131085700E+03  0.38678958279E+03  0.00000000000E+00 0. -1.
         -4    1    5    5    0  503 -0.18898836090E+03 -0.50244671634E+03  0.11144443343E+04  0.12369945342E+04  0.00000000000E+00 0.  1.
         -3    1    6    6    0  502 -0.10690061358E+03 -0.40239700679E+01  0.18963758085E+02  0.10864417905E+03  0.00000000000E+00 0.  1.
<mgrwt>
<rscale>  0 0.20347791E+04</rscale>
<asrwt>0</asrwt>
<pdfrwt beam="1">  1        1 0.47259516E+00 0.20347791E+04</pdfrwt>
<pdfrwt beam="2">  1       -1 0.51839232E-01 0.20347791E+04</pdfrwt>
<totfact> 0.18376753E+00</totfact>
</mgrwt>
</event>
<event>
12    1  0.2214165E-007  0.1376174E+04  0.7818608E-02  0.8971248E-01
         -1   -1    0    0    0  501 -0.00000000000E+00  0.00000000000E+00  0.32389270446E+03  0.32389270446E+03  0.00000000000E+00 0.  1.
          1   -1    0    0  501    0  0.00000000000E+00 -0.00000000000E+00 -0.14617915008E+04  0.14617915008E+04  0.00000000000E+00 0. -1.
         23    2    1    2    0    0 -0.35772553676E+03 -0.11690944956E+03 -0.21340457332E+03  0.44073833622E+03  0.84103448495E+02 0.  0.
        254    2    1    2    0    0  0.35772553676E+03  0.11690944956E+03 -0.92449422299E+03  0.13449458690E+04  0.90141801800E+03 0.  0.
        -24    2    4    4    0    0  0.27295379021E+03 -0.15652974864E+03 -0.98903849356E+03  0.10407887617E+04  0.77709528683E+02 0.  0.
         24    2    4    4    0    0  0.84771746552E+02  0.27343919820E+03  0.64544270570E+02  0.30415710735E+03  0.79939595711E+02 0.  0.
         13    1    3    3    0    0 -0.11004873811E+03 -0.62279459880E+02 -0.36854968826E+02  0.13171083710E+03  0.00000000000E+00 0.  1.
        -13    1    3    3    0    0 -0.24767679865E+03 -0.54629989682E+02 -0.17654960449E+03  0.30902749912E+03  0.00000000000E+00 0. -1.
          2    1    6    6  502    0  0.31346031536E+02  0.19234183229E+02  0.12476824370E+01  0.36797883214E+02  0.00000000000E+00 0. -1.
          3    1    5    5  503    0  0.90675843148E+02 -0.95953674503E+02 -0.40582381307E+03  0.42675775733E+03  0.00000000000E+00 0. -1.
         -4    1    5    5    0  503  0.18227794706E+03 -0.60576074135E+02 -0.58321468049E+03  0.61403100433E+03  0.00000000000E+00 0.  1.
         -1    1    6    6    0  502  0.53425715015E+02  0.25420501497E+03  0.63296588133E+02  0.26735922414E+03  0.00000000000E+00 0.  1.
<mgrwt>
<rscale>  0 0.13761738E+04</rscale>
<asrwt>0</asrwt>
<pdfrwt beam="1">  1        1 0.22489100E+00 0.13761738E+04</pdfrwt>
<pdfrwt beam="2">  1       -1 0.49829647E-01 0.13761738E+04</pdfrwt>
<totfact> 0.27443502E+01</totfact>
</mgrwt>
</event>
<event>
12    1  0.2214165E-007  0.2272495E+04  0.7818608E-02  0.8488846E-01
         -2   -1    0    0    0  501 -0.00000000000E+00  0.00000000000E+00  0.14973989540E+04  0.14973989540E+04  0.00000000000E+00 0.  1.
          2   -1    0    0  501    0  0.00000000000E+00 -0.00000000000E+00 -0.86220033841E+03  0.86220033841E+03  0.00000000000E+00 0. -1.
         23    2    1    2    0    0  0.47264102473E+03  0.72640398059E+02 -0.59650734002E+03  0.77003956033E+03  0.92052985288E+02 0.  0.
        254    2    1    2    0    0 -0.47264102473E+03 -0.72640398059E+02  0.12317059556E+04  0.15895597321E+04  0.88370493667E+03 0.  0.
        -24    2    4    4    0    0 -0.55770002841E+03  0.26483781546E+02  0.13015837983E+04  0.14185704359E+04  0.80566650755E+02 0.  0.
         24    2    4    4    0    0  0.85059003682E+02 -0.99124179604E+02 -0.69877842716E+02  0.17098929617E+03  0.85403685005E+02 0.  0.
         13    1    3    3    0    0  0.47249793450E+03  0.62672050941E+02 -0.57960211351E+03  0.75041368195E+03  0.00000000000E+00 0. -1.
        -13    1    3    3    0    0  0.14309023016E+00  0.99683471181E+01 -0.16905226508E+02  0.19625878385E+02  0.00000000000E+00 0.  1.
          4    1    6    6  502    0  0.46940254437E+02  0.28755798235E+01 -0.17766013961E+02  0.50272136398E+02  0.00000000000E+00 0. -1.
          1    1    5    5  503    0 -0.15020459474E+03  0.34185057753E+02  0.30004961998E+03  0.33728298639E+03  0.00000000000E+00 0. -1.
         -4    1    5    5    0  503 -0.40749543368E+03 -0.77012762075E+01  0.10015341783E+04  0.10812874495E+04  0.00000000000E+00 0.  1.
         -3    1    6    6    0  502  0.38118749245E+02 -0.10199975943E+03 -0.52111828755E+02  0.12071715977E+03  0.00000000000E+00 0.  1.
<mgrwt>
<rscale>  0 0.22724946E+04</rscale>
<asrwt>0</asrwt>
<pdfrwt beam="1">  1        2 0.13264621E+00 0.22724946E+04</pdfrwt>
<pdfrwt beam="2">  1       -2 0.23036907E+00 0.22724946E+04</pdfrwt>
<totfact> 0.24044504E+00</totfact>
</mgrwt>
</event>
<event>
12    1  0.2214165E-007  0.2394509E+04  0.7818608E-02  0.8441562E-01
         -2   -1    0    0    0  501 -0.00000000000E+00  0.00000000000E+00  0.17922261542E+04  0.17922261542E+04  0.00000000000E+00 0.  1.
          2   -1    0    0  501    0  0.00000000000E+00 -0.00000000000E+00 -0.79979781143E+03  0.79979781143E+03  0.00000000000E+00 0. -1.
         23    2    1    2    0    0 -0.78691219440E+03 -0.88700521425E+02 -0.27931482833E+03  0.84493537358E+03  0.93810596431E+02 0.  0.
        254    2    1    2    0    0  0.78691219440E+03  0.88700521425E+02  0.12717431711E+04  0.17470885921E+04  0.89882660790E+03 0.  0.
        -24    2    4    4    0    0  0.45426495486E+03  0.12293867602E+03  0.52497523510E+02  0.48034130287E+03  0.80630081199E+02 0.  0.
         24    2    4    4    0    0  0.33264723954E+03 -0.34238154596E+02  0.12192456476E+04  0.12667472892E+04  0.79134747678E+02 0.  0.
         13    1    3    3    0    0 -0.61941931761E+03 -0.71519644367E+02 -0.25958802829E+03  0.67541194466E+03  0.00000000000E+00 0. -1.
        -13    1    3    3    0    0 -0.16749287679E+03 -0.17180877058E+02 -0.19726800036E+02  0.16952342892E+03  0.00000000000E+00 0.  1.
          4    1    6    6  502    0  0.23429676066E+03 -0.40749917702E+02  0.73303147251E+03  0.77064302212E+03  0.00000000000E+00 0. -1.
          3    1    5    5  503    0  0.42409881938E+03  0.91457074437E+02  0.46630752002E+02  0.43634691714E+03  0.00000000000E+00 0. -1.
         -4    1    5    5    0  503  0.30166135481E+02  0.31481601585E+02  0.58667715086E+01  0.43994385734E+02  0.00000000000E+00 0.  1.
         -3    1    6    6    0  502  0.98350478879E+02  0.65117631057E+01  0.48621417509E+03  0.49610426708E+03  0.00000000000E+00 0.  1.
<mgrwt>
<rscale>  0 0.23945092E+04</rscale>
<asrwt>0</asrwt>
<pdfrwt beam="1">  1        2 0.12304582E+00 0.23945092E+04</pdfrwt>
<pdfrwt beam="2">  1       -2 0.27572710E+00 0.23945092E+04</pdfrwt>
<totfact> 0.13862678E+00</totfact>
</mgrwt>
</event>
<event>
12    1  0.2214165E-007  0.1107414E+04  0.7818608E-02  0.9197996E-01
         -4   -1    0    0    0  501 -0.00000000000E+00  0.00000000000E+00  0.30315767769E+03  0.30315767769E+03  0.00000000000E+00 0.  1.
          4   -1    0    0  501    0  0.00000000000E+00 -0.00000000000E+00 -0.10113269353E+04  0.10113269353E+04  0.00000000000E+00 0. -1.
         23    2    1    2    0    0 -0.85368782246E+02  0.74693302780E+02 -0.26869919989E+03  0.30653991598E+03  0.94342681780E+02 0.  0.
        254    2    1    2    0    0  0.85368782246E+02 -0.74693302780E+02 -0.43947005768E+03  0.10079446970E+04  0.89997314520E+03 0.  0.
        -24    2    4    4    0    0  0.27569741254E+03 -0.27491639814E+03 -0.56899891834E+03  0.69395695241E+03  0.78920171522E+02 0.  0.
         24    2    4    4    0    0 -0.19032863030E+03  0.20022309536E+03  0.12952886066E+03  0.31398774455E+03  0.74137052535E+02 0.  0.
         11    1    3    3    0    0 -0.78669879477E+02  0.24414869271E+02 -0.22494810417E+03  0.23955518227E+03  0.00000000000E+00 0. -1.
        -11    1    3    3    0    0 -0.66989027691E+01  0.50278433509E+02 -0.43751095711E+02  0.66984733711E+02  0.00000000000E+00 0.  1.
          4    1    6    6  502    0 -0.10568695630E+03  0.12291066813E+03  0.36029633598E+02  0.16605691665E+03  0.00000000000E+00 0. -1.
          1    1    5    5  503    0  0.16112645445E+03 -0.19560123589E+03 -0.31541128523E+03  0.40460580403E+03  0.00000000000E+00 0. -1.
         -2    1    5    5    0  503  0.11457095809E+03 -0.79315162257E+02 -0.25358763311E+03  0.28935114838E+03  0.00000000000E+00 0.  1.
         -3    1    6    6    0  502 -0.84641674001E+02  0.77312427239E+02  0.93499227063E+02  0.14793082790E+03  0.00000000000E+00 0.  1.
<mgrwt>
<rscale>  0 0.11074142E+04</rscale>
<asrwt>0</asrwt>
<pdfrwt beam="1">  1        4 0.15558876E+00 0.11074142E+04</pdfrwt>
<pdfrwt beam="2">  1       -4 0.46639643E-01 0.11074142E+04</pdfrwt>
<totfact> 0.23804758E+00</totfact>
</mgrwt>
</event>
<event>
12    1  0.2214165E-007  0.2894257E+04  0.7818608E-02  0.8274588E-01
         -1   -1    0    0    0  501 -0.00000000000E+00  0.00000000000E+00  0.13906490978E+04  0.13906490978E+04  0.00000000000E+00 0.  1.
          1   -1    0    0  501    0  0.00000000000E+00 -0.00000000000E+00 -0.15059012809E+04  0.15059012809E+04  0.00000000000E+00 0. -1.
         23    2    1    2    0    0  0.16254288503E+03 -0.12930625134E+04  0.21356516589E+02  0.13067554118E+04  0.93395676712E+02 0.  0.
        254    2    1    2    0    0 -0.16254288503E+03  0.12930625134E+04 -0.13660869969E+03  0.15897949668E+04  0.90019733761E+03 0.  0.
        -24    2    4    4    0    0  0.21883545434E+03  0.86222094318E+03  0.20436599297E+03  0.91629318689E+03  0.80708328676E+02 0.  0.
         24    2    4    4    0    0 -0.38137833936E+03  0.43084157025E+03 -0.34097469266E+03  0.67350177996E+03  0.79164450202E+02 0.  0.
         13    1    3    3    0    0  0.16884407723E+03 -0.10755049356E+04  0.27404504399E+02  0.10890225873E+04  0.00000000000E+00 0.  1.
        -13    1    3    3    0    0 -0.63011922042E+01 -0.21755757785E+03 -0.60479878100E+01  0.21773282448E+03  0.00000000000E+00 0. -1.
          2    1    6    6  502    0 -0.16369977524E+03  0.12798929787E+03 -0.12622444732E+03  0.24312854189E+03  0.00000000000E+00 0. -1.
          1    1    5    5  503    0  0.20102408081E+03  0.80931105249E+03  0.17100247795E+03  0.85125607675E+03  0.00000000000E+00 0. -1.
         -2    1    5    5    0  503  0.17811373527E+02  0.52909890698E+02  0.33363515020E+02  0.65037110138E+02  0.00000000000E+00 0.  1.
         -1    1    6    6    0  502 -0.21767856413E+03  0.30285227238E+03 -0.21475024534E+03  0.43037323806E+03  0.00000000000E+00 0.  1.
<mgrwt>
<rscale>  0 0.28942566E+04</rscale>
<asrwt>0</asrwt>
<pdfrwt beam="1">  1        1 0.23167712E+00 0.28942566E+04</pdfrwt>
<pdfrwt beam="2">  1       -1 0.21394602E+00 0.28942566E+04</pdfrwt>
<totfact> 0.67273995E-01</totfact>
</mgrwt>
</event>
<event>
12    1  0.2214165E-007  0.1501950E+04  0.7818608E-02  0.8883157E-01
         -2   -1    0    0    0  501 -0.00000000000E+00  0.00000000000E+00  0.30165218421E+03  0.30165218421E+03  0.00000000000E+00 0.  1.
          2   -1    0    0  501    0  0.00000000000E+00 -0.00000000000E+00 -0.18695820315E+04  0.18695820315E+04  0.00000000000E+00 0. -1.
         23    2    1    2    0    0  0.23425857288E+03  0.34182366540E+03 -0.17954438383E+03  0.46039102154E+03  0.89460660375E+02 0.  0.
        254    2    1    2    0    0 -0.23425857288E+03 -0.34182366540E+03 -0.13883854635E+04  0.17108431942E+04  0.90975257223E+03 0.  0.
        -24    2    4    4    0    0 -0.95939627776E+02 -0.63455262347E+03 -0.75420486705E+03  0.99352481295E+03  0.80032045745E+02 0.  0.
         24    2    4    4    0    0 -0.13831894510E+03  0.29272895807E+03 -0.63418059641E+03  0.71731838121E+03  0.86823140322E+02 0.  0.
         13    1    3    3    0    0  0.94352118007E+02  0.92284080010E+02 -0.93169414695E+02  0.16155250982E+03  0.00000000000E+00 0. -1.
        -13    1    3    3    0    0  0.13990645487E+03  0.24953958539E+03 -0.86374969134E+02  0.29883851172E+03  0.00000000000E+00 0.  1.
          4    1    6    6  502    0  0.27744924155E+00  0.67054207184E+02 -0.17244846652E+03  0.18502653130E+03  0.00000000000E+00 0. -1.
          3    1    5    5  503    0 -0.93788830907E+02 -0.46937902682E+03 -0.51803292892E+03  0.70531633404E+03  0.00000000000E+00 0. -1.
         -4    1    5    5    0  503 -0.21507968689E+01 -0.16517359665E+03 -0.23617193813E+03  0.28820847891E+03  0.00000000000E+00 0.  1.
         -3    1    6    6    0  502 -0.13859639434E+03  0.22567475088E+03 -0.46173212989E+03  0.53229184991E+03  0.00000000000E+00 0.  1.
<mgrwt>
<rscale>  0 0.15019501E+04</rscale>
<asrwt>0</asrwt>
<pdfrwt beam="1">  1        2 0.28762801E+00 0.15019501E+04</pdfrwt>
<pdfrwt beam="2">  1       -2 0.46408028E-01 0.15019501E+04</pdfrwt>
<totfact> 0.33575675E+01</totfact>
</mgrwt>
</event>
<event>
12    1  0.2214165E-007  0.1705271E+04  0.7818608E-02  0.8758364E-01
          2   -1    0    0  501    0  0.00000000000E+00  0.00000000000E+00  0.22859360608E+04  0.22859360608E+04  0.00000000000E+00 0. -1.
         -2   -1    0    0    0  501 -0.00000000000E+00 -0.00000000000E+00 -0.31802604052E+03  0.31802604052E+03  0.00000000000E+00 0.  1.
         23    2    1    2    0    0 -0.33117313300E+03  0.35075992842E+03  0.12830907220E+04  0.13736831032E+04  0.89304511073E+02 0.  0.
        254    2    1    2    0    0  0.33117313300E+03 -0.35075992842E+03  0.68481929828E+03  0.12302789981E+04  0.90105536487E+03 0.  0.
        -24    2    4    4    0    0 -0.27407274095E+03 -0.15682602863E+03  0.51340730280E+02  0.32933263909E+03  0.78191086400E+02 0.  0.
         24    2    4    4    0    0  0.60524587395E+03 -0.19393389979E+03  0.63347856800E+03  0.90094635905E+03  0.80475588583E+02 0.  0.
         11    1    3    3    0    0 -0.25673013519E+03  0.27190922460E+03  0.10880936982E+04  0.11505619865E+04  0.00000000000E+00 0. -1.
        -11    1    3    3    0    0 -0.74442997809E+02  0.78850703822E+02  0.19499702374E+03  0.22312111663E+03  0.00000000000E+00 0.  1.
          2    1    6    6  502    0  0.30494043351E+02  0.24832628895E+01  0.14932284082E+02  0.34044476533E+02  0.00000000000E+00 0. -1.
          3    1    5    5  503    0 -0.19966171352E+02 -0.60687087464E+01  0.25196385541E+02  0.32715975740E+02  0.00000000000E+00 0. -1.
         -4    1    5    5    0  503 -0.25410656960E+03 -0.15075731988E+03  0.26144344740E+02  0.29661666335E+03  0.00000000000E+00 0.  1.
         -1    1    6    6    0  502  0.57475183060E+03 -0.19641716268E+03  0.61854628392E+03  0.86690188252E+03  0.00000000000E+00 0.  1.
<mgrwt>
<rscale>  0 0.17052709E+04</rscale>
<asrwt>0</asrwt>
<pdfrwt beam="1">  1        2 0.35168246E+00 0.17052709E+04</pdfrwt>
<pdfrwt beam="2">  1       -2 0.48927085E-01 0.17052709E+04</pdfrwt>
<totfact> 0.17385766E+01</totfact>
</mgrwt>
</event>
<event>
12    1  0.2214165E-007  0.3093997E+04  0.7818608E-02  0.8217387E-01
          2   -1    0    0  501    0  0.00000000000E+00  0.00000000000E+00  0.12972690523E+04  0.12972690523E+04  0.00000000000E+00 0. -1.
         -2   -1    0    0    0  501 -0.00000000000E+00 -0.00000000000E+00 -0.18448015921E+04  0.18448015921E+04  0.00000000000E+00 0.  1.
         23    2    1    2    0    0  0.82870979778E+03  0.77892778363E+03 -0.11046095880E+04  0.15880637388E+04  0.91080599319E+02 0.  0.
        254    2    1    2    0    0 -0.82870979778E+03 -0.77892778363E+03  0.55707704823E+03  0.15540069055E+04  0.90061878933E+03 0.  0.
        -24    2    4    4    0    0  0.19499994029E+02 -0.55458431750E+03  0.13175464718E+03  0.57575119420E+03  0.78651990320E+02 0.  0.
         24    2    4    4    0    0 -0.84820979181E+03 -0.22434346613E+03  0.42532240104E+03  0.97825571133E+03  0.79342612753E+02 0.  0.
         13    1    3    3    0    0  0.30940177269E+03  0.33840293952E+03 -0.48393558811E+03  0.66666307822E+03  0.00000000000E+00 0.  1.
        -13    1    3    3    0    0  0.51930802508E+03  0.44052484411E+03 -0.62067399993E+03  0.92140066061E+03  0.00000000000E+00 0. -1.
          4    1    6    6  502    0 -0.73591814794E+02 -0.28407017471E+02  0.62882677141E+02  0.10088084521E+03  0.00000000000E+00 0. -1.
          1    1    5    5  503    0  0.19731307740E+02 -0.43608345478E+02  0.23969414747E+02  0.53530786878E+02  0.00000000000E+00 0. -1.
         -2    1    5    5    0  503 -0.23131371023E+00 -0.51097597202E+03  0.10778523244E+03  0.52222040732E+03  0.00000000000E+00 0.  1.
         -3    1    6    6    0  502 -0.77461797701E+03 -0.19593644866E+03  0.36243972390E+03  0.87737486611E+03  0.00000000000E+00 0.  1.
<mgrwt>
<rscale>  0 0.30939968E+04</rscale>
<asrwt>0</asrwt>
<pdfrwt beam="1">  1        2 0.19957985E+00 0.30939968E+04</pdfrwt>
<pdfrwt beam="2">  1       -2 0.28381563E+00 0.30939968E+04</pdfrwt>
<totfact> 0.56253434E-01</totfact>
</mgrwt>
</event>
<event>
12    1  0.2214165E-007  0.1684407E+04  0.7818608E-02  0.8770308E-01
         -2   -1    0    0    0  501 -0.00000000000E+00  0.00000000000E+00  0.22758665334E+03  0.22758665334E+03  0.00000000000E+00 0.  1.
          2   -1    0    0  501    0  0.00000000000E+00 -0.00000000000E+00 -0.31166459853E+04  0.31166459853E+04  0.00000000000E+00 0. -1.
         23    2    1    2    0    0  0.16364597130E+03  0.16860547544E+03 -0.21248003104E+04  0.21397319446E+04  0.92025136059E+02 0.  0.
        254    2    1    2    0    0 -0.16364597130E+03 -0.16860547544E+03 -0.76425902164E+03  0.12045006941E+04  0.90084530278E+03 0.  0.
        -24    2    4    4    0    0 -0.46259577699E+03 -0.31381339075E+03 -0.33802714963E+03  0.65811999795E+03  0.79911705676E+02 0.  0.
         24    2    4    4    0    0  0.29894980569E+03  0.14520791531E+03 -0.42623187201E+03  0.54638069611E+03  0.80012070152E+02 0.  0.
         13    1    3    3    0    0  0.54559920739E+02  0.86810177523E+02 -0.12693214317E+04  0.12734558057E+04  0.00000000000E+00 0. -1.
        -13    1    3    3    0    0  0.10908605056E+03  0.81795297919E+02 -0.85547887862E+03  0.86627613898E+03  0.00000000000E+00 0.  1.
          4    1    6    6  502    0  0.19942134481E+03  0.13631820668E+03 -0.28991349744E+03  0.37736105024E+03  0.00000000000E+00 0. -1.
          3    1    5    5  503    0 -0.34703169942E+03 -0.19343554718E+03 -0.25061687746E+03  0.46974155723E+03  0.00000000000E+00 0. -1.
         -4    1    5    5    0  503 -0.11556407757E+03 -0.12037784357E+03 -0.87410272168E+02  0.18837844072E+03  0.00000000000E+00 0.  1.
         -3    1    6    6    0  502  0.99528460887E+02  0.88897086336E+01 -0.13631837456E+03  0.16901964587E+03  0.00000000000E+00 0.  1.
<mgrwt>
<rscale>  0 0.16844073E+04</rscale>
<asrwt>0</asrwt>
<pdfrwt beam="1">  1        2 0.47948398E+00 0.16844073E+04</pdfrwt>
<pdfrwt beam="2">  1       -2 0.35013333E-01 0.16844073E+04</pdfrwt>
<totfact> 0.10773902E+01</totfact>
</mgrwt>
</event>
<event>
12    1  0.2214165E-007  0.1352487E+04  0.7818608E-02  0.8988948E-01
          2   -1    0    0  501    0  0.00000000000E+00  0.00000000000E+00  0.13280741871E+04  0.13280741871E+04  0.00000000000E+00 0. -1.
         -2   -1    0    0    0  501 -0.00000000000E+00 -0.00000000000E+00 -0.34433703502E+03  0.34433703502E+03  0.00000000000E+00 0.  1.
         23    2    1    2    0    0 -0.19121720573E+03 -0.15445450598E+03  0.61691094253E+03  0.67031268334E+03  0.91212763581E+02 0.  0.
        254    2    1    2    0    0  0.19121720573E+03  0.15445450598E+03  0.36682620953E+03  0.10020985388E+04  0.89956645070E+03 0.  0.
        -24    2    4    4    0    0  0.52649090089E+03  0.11047617125E+03  0.76605105330E+02  0.54938635621E+03  0.80989956692E+02 0.  0.
         24    2    4    4    0    0 -0.33527369516E+03  0.43978334732E+02  0.29022110420E+03  0.45271218257E+03  0.79859165599E+02 0.  0.
         13    1    3    3    0    0 -0.11558240559E+03 -0.91014900747E+02  0.47634483972E+03  0.49854529481E+03  0.00000000000E+00 0. -1.
        -13    1    3    3    0    0 -0.75634800140E+02 -0.63439605232E+02  0.14056610281E+03  0.17176738853E+03  0.00000000000E+00 0.  1.
          2    1    6    6  502    0 -0.14834410355E+03  0.30384589892E+02  0.18023093071E+03  0.23539835332E+03  0.00000000000E+00 0. -1.
          3    1    5    5  503    0  0.23492730512E+03  0.35597961329E+02  0.72174030807E+02  0.24832870206E+03  0.00000000000E+00 0. -1.
         -4    1    5    5    0  503  0.29156359577E+03  0.74878209917E+02  0.44310745233E+01  0.30105765415E+03  0.00000000000E+00 0.  1.
         -1    1    6    6    0  502 -0.18692959161E+03  0.13593744840E+02  0.10999017349E+03  0.21731382925E+03  0.00000000000E+00 0.  1.
<mgrwt>
<rscale>  0 0.13524868E+04</rscale>
<asrwt>0</asrwt>
<pdfrwt beam="1">  1        2 0.20431910E+00 0.13524868E+04</pdfrwt>
<pdfrwt beam="2">  1       -2 0.52974929E-01 0.13524868E+04</pdfrwt>
<totfact> 0.52240461E+01</totfact>
</mgrwt>
</event>
<event>
12    1  0.2214165E-007  0.1904335E+04  0.7818608E-02  0.8652702E-01
         -2   -1    0    0    0  501 -0.00000000000E+00  0.00000000000E+00  0.78827170155E+03  0.78827170155E+03  0.00000000000E+00 0.  1.
          2   -1    0    0  501    0  0.00000000000E+00 -0.00000000000E+00 -0.11501397830E+04  0.11501397830E+04  0.00000000000E+00 0. -1.
         23    2    1    2    0    0  0.37667273598E+03 -0.47604984414E+03 -0.56083201217E+03  0.83150785139E+03  0.91471071467E+02 0.  0.
        254    2    1    2    0    0 -0.37667273598E+03  0.47604984414E+03  0.19896393075E+03  0.11069036331E+04  0.90395973536E+03 0.  0.
        -24    2    4    4    0    0 -0.25701055493E+03 -0.23565425645E+03  0.16275662718E+02  0.35805815042E+03  0.79708142372E+02 0.  0.
         24    2    4    4    0    0 -0.11966218105E+03  0.71170410059E+03  0.18268826803E+03  0.74884548271E+03  0.80949300944E+02 0.  0.
         11    1    3    3    0    0  0.97534200638E+02 -0.15654234683E+03 -0.22145799345E+03  0.28820490889E+03  0.00000000000E+00 0. -1.
        -11    1    3    3    0    0  0.27913853534E+03 -0.31950749731E+03 -0.33937401872E+03  0.54330294250E+03  0.00000000000E+00 0.  1.
          4    1    6    6  502    0 -0.32963306439E+02  0.57364871247E+02  0.16786801014E+02  0.68257634832E+02  0.00000000000E+00 0. -1.
          3    1    5    5  503    0 -0.28638055477E+02 -0.69143748961E+02  0.85023451943E+01  0.75321219558E+02  0.00000000000E+00 0. -1.
         -4    1    5    5    0  503 -0.22837249945E+03 -0.16651050749E+03  0.77733175236E+01  0.28273693086E+03  0.00000000000E+00 0.  1.
         -3    1    6    6    0  502 -0.86698874610E+02  0.65433922934E+03  0.16590146702E+03  0.68058784787E+03  0.00000000000E+00 0.  1.
<mgrwt>
<rscale>  0 0.19043347E+04</rscale>
<asrwt>0</asrwt>
<pdfrwt beam="1">  1        2 0.17694458E+00 0.19043347E+04</pdfrwt>
<pdfrwt beam="2">  1       -2 0.12127257E+00 0.19043347E+04</pdfrwt>
<totfact> 0.98309001E+00</totfact>
</mgrwt>
</event>
<event>
12    1  0.2214165E-007  0.1359404E+04  0.7818608E-02  0.8983740E-01
          1   -1    0    0  501    0  0.00000000000E+00  0.00000000000E+00  0.67810753072E+03  0.67810753072E+03  0.00000000000E+00 0. -1.
         -1   -1    0    0    0  501 -0.00000000000E+00 -0.00000000000E+00 -0.68130017240E+03  0.68130017240E+03  0.00000000000E+00 0.  1.
         23    2    1    2    0    0  0.29811709791E+03  0.22316535611E+03  0.48297472776E+02  0.38653201559E+03  0.91639363611E+02 0.  0.
        254    2    1    2    0    0 -0.29811709791E+03 -0.22316535611E+03 -0.51490114459E+02  0.97287568753E+03  0.89730668740E+03 0.  0.
        -24    2    4    4    0    0 -0.50225978305E+03 -0.35026646666E+03 -0.23416184522E+03  0.66038945201E+03  0.79567400616E+02 0.  0.
         24    2    4    4    0    0  0.20414268513E+03  0.12710111055E+03  0.18267173076E+03  0.31248623551E+03  0.80310385201E+02 0.  0.
         13    1    3    3    0    0  0.13056064737E+02  0.27800326588E+02 -0.16594293167E+02  0.34909734323E+02  0.00000000000E+00 0.  1.
        -13    1    3    3    0    0  0.28506103317E+03  0.19536502952E+03  0.64891765943E+02  0.35162228127E+03  0.00000000000E+00 0. -1.
          2    1    6    6  502    0  0.14671111253E+03  0.83369111284E+02  0.79411507129E+02  0.18649596972E+03  0.00000000000E+00 0. -1.
          1    1    5    5  503    0 -0.26064530217E+03 -0.13773031521E+03 -0.94239493480E+02  0.30949425746E+03  0.00000000000E+00 0. -1.
         -2    1    5    5    0  503 -0.24161448088E+03 -0.21253615145E+03 -0.13992235174E+03  0.35089519455E+03  0.00000000000E+00 0.  1.
         -1    1    6    6    0  502  0.57431572603E+02  0.43731999261E+02  0.10326022363E+03  0.12599026580E+03  0.00000000000E+00 0.  1.
<mgrwt>
<rscale>  0 0.13594040E+04</rscale>
<asrwt>0</asrwt>
<pdfrwt beam="1">  1        1 0.10432424E+00 0.13594040E+04</pdfrwt>
<pdfrwt beam="2">  1       -1 0.10481541E+00 0.13594040E+04</pdfrwt>
<totfact> 0.23914965E+01</totfact>
</mgrwt>
</event>
<event>
12    1  0.2214165E-007  0.3246528E+04  0.7818608E-02  0.8176636E-01
         -1   -1    0    0    0  501 -0.00000000000E+00  0.00000000000E+00  0.10514899379E+04  0.10514899379E+04  0.00000000000E+00 0.  1.
          1   -1    0    0  501    0  0.00000000000E+00 -0.00000000000E+00 -0.25059553197E+04  0.25059553197E+04  0.00000000000E+00 0. -1.
         23    2    1    2    0    0 -0.12243708135E+04  0.91186573817E+02 -0.16072611751E+04  0.20245701041E+04  0.90535855669E+02 0.  0.
        254    2    1    2    0    0  0.12243708135E+04 -0.91186573817E+02  0.15279579331E+03  0.15328751536E+04  0.90496453072E+03 0.  0.
        -24    2    4    4    0    0  0.97255625991E+03 -0.35995246323E+03  0.36305581614E+03  0.11015593415E+04  0.78689279330E+02 0.  0.
         24    2    4    4    0    0  0.25181455358E+03  0.26876588941E+03 -0.21026002283E+03  0.43131581211E+03  0.78602670888E+02 0.  0.
         13    1    3    3    0    0 -0.84324720260E+03  0.10320857216E+03 -0.10906430381E+04  0.13824688389E+04  0.00000000000E+00 0. -1.
        -13    1    3    3    0    0 -0.38112361089E+03 -0.12021998342E+02 -0.51661813701E+03  0.64210126516E+03  0.00000000000E+00 0.  1.
          4    1    6    6  502    0  0.11790205049E+02 -0.43253823861E+00  0.31890810588E+01  0.12221549101E+02  0.00000000000E+00 0. -1.
          1    1    5    5  503    0  0.37372185415E+03 -0.12335109174E+03  0.10032736496E+03  0.40613925723E+03  0.00000000000E+00 0. -1.
         -2    1    5    5    0  503  0.59883440577E+03 -0.23660137149E+03  0.26272845118E+03  0.69542008425E+03  0.00000000000E+00 0.  1.
         -3    1    6    6    0  502  0.24002434853E+03  0.26919842765E+03 -0.21344910389E+03  0.41909426301E+03  0.00000000000E+00 0.  1.
<mgrwt>
<rscale>  0 0.32465285E+04</rscale>
<asrwt>0</asrwt>
<pdfrwt beam="1">  1        1 0.38553158E+00 0.32465285E+04</pdfrwt>
<pdfrwt beam="2">  1       -1 0.16176768E+00 0.32465285E+04</pdfrwt>
<totfact> 0.31679813E-01</totfact>
</mgrwt>
</event>
<event>
12    1  0.2214165E-007  0.1320056E+04  0.7818608E-02  0.9013810E-01
          1   -1    0    0  501    0  0.00000000000E+00  0.00000000000E+00  0.26450563057E+03  0.26450563057E+03  0.00000000000E+00 0. -1.
         -1   -1    0    0    0  501 -0.00000000000E+00 -0.00000000000E+00 -0.16469844025E+04  0.16469844025E+04  0.00000000000E+00 0.  1.
         23    2    1    2    0    0  0.15578736828E+03  0.66322056255E+02 -0.80571537080E+03  0.82828409387E+03  0.90603323106E+02 0.  0.
        254    2    1    2    0    0 -0.15578736828E+03 -0.66322056255E+02 -0.57676340112E+03  0.10832059392E+04  0.90111640011E+03 0.  0.
        -24    2    4    4    0    0 -0.44272938446E+03 -0.27815207838E+03 -0.22048343891E+03  0.57307000592E+03  0.80114906747E+02 0.  0.
         24    2    4    4    0    0  0.28694201619E+03  0.21183002212E+03 -0.35627996221E+03  0.51013593326E+03  0.78074195493E+02 0.  0.
         11    1    3    3    0    0 -0.74981772087E+01  0.59825387353E+01 -0.10431611287E+02  0.14171518804E+02  0.00000000000E+00 0. -1.
        -11    1    3    3    0    0  0.16328554548E+03  0.60339517520E+02 -0.79528375951E+03  0.81411257507E+03  0.00000000000E+00 0.  1.
          4    1    6    6  502    0  0.23085792236E+03  0.17865363523E+03 -0.32804516461E+03  0.43911972367E+03  0.00000000000E+00 0. -1.
          1    1    5    5  503    0 -0.38007638488E+03 -0.26147836673E+03 -0.21189587378E+03  0.50767002663E+03  0.00000000000E+00 0. -1.
         -2    1    5    5    0  503 -0.62652999583E+02 -0.16673711646E+02 -0.85875651261E+01  0.65399979294E+02  0.00000000000E+00 0.  1.
         -3    1    6    6    0  502  0.56084093833E+02  0.33176386896E+02 -0.28234797603E+02  0.71016209588E+02  0.00000000000E+00 0.  1.
<mgrwt>
<rscale>  0 0.13200555E+04</rscale>
<asrwt>0</asrwt>
<pdfrwt beam="1">  1        1 0.40693175E-01 0.13200555E+04</pdfrwt>
<pdfrwt beam="2">  1       -1 0.25338221E+00 0.13200555E+04</pdfrwt>
<totfact> 0.67278293E+00</totfact>
</mgrwt>
</event>
<event>
12    1  0.2214165E-007  0.2716609E+04  0.7818608E-02  0.8329636E-01
          1   -1    0    0  501    0  0.00000000000E+00  0.00000000000E+00  0.14401119107E+04  0.14401119107E+04  0.00000000000E+00 0. -1.
         -1   -1    0    0    0  501 -0.00000000000E+00 -0.00000000000E+00 -0.12811445090E+04  0.12811445090E+04  0.00000000000E+00 0.  1.
         23    2    1    2    0    0  0.28209580783E+02  0.11833738363E+04 -0.16478629671E+03  0.11985881631E+04  0.91047483813E+02 0.  0.
        254    2    1    2    0    0 -0.28209580783E+02 -0.11833738363E+04  0.32375369844E+03  0.15226682566E+04  0.90140598254E+03 0.  0.
        -24    2    4    4    0    0  0.28047401570E+03 -0.62709107556E+03 -0.17101801253E+03  0.71247399579E+03  0.80393678519E+02 0.  0.
         24    2    4    4    0    0 -0.30868359648E+03 -0.55628276077E+03  0.49477171097E+03  0.81019426077E+03  0.82943484061E+02 0.  0.
         11    1    3    3    0    0  0.36208454882E+02  0.50925855225E+03 -0.32564700910E+02  0.51158165037E+03  0.00000000000E+00 0.  1.
        -11    1    3    3    0    0 -0.79988740986E+01  0.67411528407E+03 -0.13222159580E+03  0.68700651278E+03  0.00000000000E+00 0. -1.
          4    1    6    6  502    0 -0.28828822697E+03 -0.54835905721E+03  0.48116362658E+03  0.78442730254E+03  0.00000000000E+00 0. -1.
          3    1    5    5  503    0  0.27605814370E+03 -0.58033505078E+03 -0.17280440074E+03  0.66547594306E+03  0.00000000000E+00 0. -1.
         -4    1    5    5    0  503  0.44158719932E+01 -0.46756024771E+02  0.17863882086E+01  0.46998052733E+02  0.00000000000E+00 0.  1.
         -3    1    6    6    0  502 -0.20395369512E+02 -0.79237035602E+01  0.13608084391E+02  0.25766958230E+02  0.00000000000E+00 0.  1.
<mgrwt>
<rscale>  0 0.27166093E+04</rscale>
<asrwt>0</asrwt>
<pdfrwt beam="1">  1        1 0.22155568E+00 0.27166093E+04</pdfrwt>
<pdfrwt beam="2">  1       -1 0.19709916E+00 0.27166093E+04</pdfrwt>
<totfact> 0.98975510E-01</totfact>
</mgrwt>
</event>
<event>
12    1  0.2214165E-007  0.2790885E+04  0.7818608E-02  0.8306104E-01
          2   -1    0    0  501    0  0.00000000000E+00  0.00000000000E+00  0.22673597556E+04  0.22673597556E+04  0.00000000000E+00 0. -1.
         -2   -1    0    0    0  501 -0.00000000000E+00 -0.00000000000E+00 -0.85882270382E+03  0.85882270382E+03  0.00000000000E+00 0.  1.
         23    2    1    2    0    0 -0.45947335288E+02 -0.86282476286E+03 -0.38778734801E+03  0.95149842728E+03  0.91610593273E+02 0.  0.
        254    2    1    2    0    0  0.45947335288E+02  0.86282476286E+03  0.17963243998E+04  0.21746840321E+04  0.86942024438E+03 0.  0.
        -24    2    4    4    0    0 -0.39366964895E+03  0.27618247727E+03  0.75254546377E+03  0.89660606920E+03  0.79531220534E+02 0.  0.
         24    2    4    4    0    0  0.43961698424E+03  0.58664228560E+03  0.10437789360E+04  0.12780779629E+04  0.81219135616E+02 0.  0.
         11    1    3    3    0    0  0.10279318813E+02 -0.52141351251E+03 -0.20688725772E+03  0.56105262929E+03  0.00000000000E+00 0. -1.
        -11    1    3    3    0    0 -0.56226654100E+02 -0.34141125035E+03 -0.18090009029E+03  0.39044579799E+03  0.00000000000E+00 0.  1.
          4    1    6    6  502    0  0.40889123763E+03  0.50165928747E+03  0.91838891727E+03  0.11235178184E+04  0.00000000000E+00 0. -1.
          1    1    5    5  503    0 -0.15651470450E+03  0.11623127921E+03  0.23566643148E+03  0.30585164691E+03  0.00000000000E+00 0. -1.
         -2    1    5    5    0  503 -0.23715494444E+03  0.15995119805E+03  0.51687903229E+03  0.59075442229E+03  0.00000000000E+00 0.  1.
         -3    1    6    6    0  502  0.30725746608E+02  0.84982998129E+02  0.12539001873E+03  0.15456014452E+03  0.00000000000E+00 0.  1.
<mgrwt>
<rscale>  0 0.27908852E+04</rscale>
<asrwt>0</asrwt>
<pdfrwt beam="1">  1        2 0.34882458E+00 0.27908852E+04</pdfrwt>
<pdfrwt beam="2">  1       -2 0.13212657E+00 0.27908852E+04</pdfrwt>
<totfact> 0.17168201E+00</totfact>
</mgrwt>
</event>
<event>
12    1  0.2214165E-007  0.2038472E+04  0.7818608E-02  0.8588842E-01
         -1   -1    0    0    0  501 -0.00000000000E+00  0.00000000000E+00  0.58207286411E+03  0.58207286411E+03  0.00000000000E+00 0.  1.
          1   -1    0    0  501    0  0.00000000000E+00 -0.00000000000E+00 -0.17847283550E+04  0.17847283550E+04  0.00000000000E+00 0. -1.
         23    2    1    2    0    0  0.30737631231E+03 -0.58704486878E+03 -0.10412382301E+04  0.12378139422E+04  0.94363278236E+02 0.  0.
        254    2    1    2    0    0 -0.30737631231E+03  0.58704486878E+03 -0.16141726080E+03  0.11289872770E+04  0.89969709576E+03 0.  0.
        -24    2    4    4    0    0  0.30172276757E+03  0.28092195910E+03 -0.13897404074E+03  0.44219404325E+03  0.79170779403E+02 0.  0.
         24    2    4    4    0    0 -0.60909907987E+03  0.30612290968E+03 -0.22443220060E+02  0.68679323371E+03  0.80425883962E+02 0.  0.
         13    1    3    3    0    0  0.13142030096E+03 -0.15801975592E+03 -0.32967708487E+03  0.38849519824E+03  0.00000000000E+00 0. -1.
        -13    1    3    3    0    0  0.17595601135E+03 -0.42902511285E+03 -0.71156114527E+03  0.84931874396E+03  0.00000000000E+00 0.  1.
          4    1    6    6  502    0 -0.52053766537E+03  0.27514716668E+03 -0.44338058752E+02  0.59045007228E+03  0.00000000000E+00 0. -1.
          1    1    5    5  503    0  0.23272913987E+03  0.16686551995E+03 -0.89918602240E+02  0.30015380944E+03  0.00000000000E+00 0. -1.
         -2    1    5    5    0  503  0.68993627701E+02  0.11405643914E+03 -0.49055438503E+02  0.14204023381E+03  0.00000000000E+00 0.  1.
         -3    1    6    6    0  502 -0.88561414502E+02  0.30975742999E+02  0.21894838693E+02  0.96343161430E+02  0.00000000000E+00 0.  1.
<mgrwt>
<rscale>  0 0.20384719E+04</rscale>
<asrwt>0</asrwt>
<pdfrwt beam="1">  1        1 0.27457358E+00 0.20384719E+04</pdfrwt>
<pdfrwt beam="2">  1       -1 0.89549674E-01 0.20384719E+04</pdfrwt>
<totfact> 0.47115583E+00</totfact>
</mgrwt>
</event>
<event>
12    1  0.2214165E-007  0.2423809E+04  0.7818608E-02  0.8430643E-01
         -1   -1    0    0    0  501 -0.00000000000E+00  0.00000000000E+00  0.21965758776E+04  0.21965758776E+04  0.00000000000E+00 0.  1.
          1   -1    0    0  501    0  0.00000000000E+00 -0.00000000000E+00 -0.66863736737E+03  0.66863736737E+03  0.00000000000E+00 0. -1.
         23    2    1    2    0    0 -0.21202394368E+03  0.50189333123E+03  0.17110532813E+04  0.17979833607E+04  0.90497322158E+02 0.  0.
        254    2    1    2    0    0  0.21202394368E+03 -0.50189333123E+03 -0.18311477110E+03  0.10672298842E+04  0.89922051678E+03 0.  0.
        -24    2    4    4    0    0  0.19635842534E+03 -0.73418086107E+03 -0.65281741885E+01  0.76428633454E+03  0.80702020732E+02 0.  0.
         24    2    4    4    0    0  0.15665518331E+02  0.23228752984E+03 -0.17658659691E+03  0.30294354970E+03  0.79931615211E+02 0.  0.
         11    1    3    3    0    0 -0.19286039250E+03  0.46738778107E+03  0.16458606178E+04  0.17217734004E+04  0.00000000000E+00 0.  1.
        -11    1    3    3    0    0 -0.19163551178E+02  0.34505550156E+02  0.65192663492E+02  0.76209960363E+02  0.00000000000E+00 0. -1.
          2    1    6    6  502    0  0.11763710680E+02  0.10715956274E+02 -0.38946617851E+02  0.42072029305E+02  0.00000000000E+00 0. -1.
          1    1    5    5  503    0  0.13430738928E+03 -0.38388405868E+03  0.22727704605E+02  0.40733523525E+03  0.00000000000E+00 0. -1.
         -2    1    5    5    0  503  0.62051036069E+02 -0.35029680239E+03 -0.29255878794E+02  0.35695109929E+03  0.00000000000E+00 0.  1.
         -1    1    6    6    0  502  0.39018076509E+01  0.22157157357E+03 -0.13763997906E+03  0.26087152039E+03  0.00000000000E+00 0.  1.
<mgrwt>
<rscale>  0 0.24238092E+04</rscale>
<asrwt>0</asrwt>
<pdfrwt beam="1">  1        1 0.10286729E+00 0.24238092E+04</pdfrwt>
<pdfrwt beam="2">  1       -1 0.33793475E+00 0.24238092E+04</pdfrwt>
<totfact> 0.48768147E-01</totfact>
</mgrwt>
</event>
<event>
12    1  0.2214165E-007  0.1663254E+04  0.7818608E-02  0.8782604E-01
          2   -1    0    0  501    0  0.00000000000E+00  0.00000000000E+00  0.28419720903E+04  0.28419720903E+04  0.00000000000E+00 0. -1.
         -2   -1    0    0    0  501 -0.00000000000E+00 -0.00000000000E+00 -0.24335349504E+03  0.24335349504E+03  0.00000000000E+00 0.  1.
         23    2    1    2    0    0  0.51360412573E+03  0.10861020221E+03  0.13906846945E+04  0.14893031402E+04  0.91839806126E+02 0.  0.
        254    2    1    2    0    0 -0.51360412573E+03 -0.10861020221E+03  0.12079339009E+04  0.15960224452E+04  0.90144215719E+03 0.  0.
        -24    2    4    4    0    0 -0.32655278817E+03  0.36756053525E+03  0.77383948377E+03  0.92041141386E+03  0.81192078364E+02 0.  0.
         24    2    4    4    0    0 -0.18705133756E+03 -0.47617073746E+03  0.43409441709E+03  0.67561103134E+03  0.79281325873E+02 0.  0.
         13    1    3    3    0    0  0.23479093620E+03  0.34204030365E+02  0.50875551654E+03  0.56136340727E+03  0.00000000000E+00 0. -1.
        -13    1    3    3    0    0  0.27881318953E+03  0.74406171846E+02  0.88192917791E+03  0.92793973291E+03  0.00000000000E+00 0.  1.
          2    1    6    6  502    0 -0.96623292682E+02 -0.21264432049E+03  0.14934359651E+03  0.27723127086E+03  0.00000000000E+00 0. -1.
          3    1    5    5  503    0 -0.23367155443E+03  0.22779668998E+03  0.56536883528E+03  0.65279066110E+03  0.00000000000E+00 0. -1.
         -4    1    5    5    0  503 -0.92881233736E+02  0.13976384527E+03  0.20847064849E+03  0.26762075275E+03  0.00000000000E+00 0.  1.
         -1    1    6    6    0  502 -0.90428044881E+02 -0.26352641696E+03  0.28475082058E+03  0.39837976048E+03  0.00000000000E+00 0.  1.
<mgrwt>
<rscale>  0 0.16632544E+04</rscale>
<asrwt>0</asrwt>
<pdfrwt beam="1">  1        2 0.43722645E+00 0.16632544E+04</pdfrwt>
<pdfrwt beam="2">  1       -2 0.37439001E-01 0.16632544E+04</pdfrwt>
<totfact> 0.14055961E+01</totfact>
</mgrwt>
</event>
<event>
12    1  0.2214165E-007  0.1640379E+04  0.7818608E-02  0.8796119E-01
          2   -1    0    0  501    0  0.00000000000E+00  0.00000000000E+00  0.11304510484E+04  0.11304510484E+04  0.00000000000E+00 0. -1.
         -2   -1    0    0    0  501 -0.00000000000E+00 -0.00000000000E+00 -0.59508149942E+03  0.59508149942E+03  0.00000000000E+00 0.  1.
         23    2    1    2    0    0 -0.94478474380E+02  0.91660872022E+02 -0.39299465232E+03  0.42403358094E+03  0.89620217775E+02 0.  0.
        254    2    1    2    0    0  0.94478474380E+02 -0.91660872022E+02  0.92836420128E+03  0.13014989669E+04  0.90261374517E+03 0.  0.
        -24    2    4    4    0    0  0.36680882539E+03  0.23599542253E+03  0.29096332092E+03  0.53053487726E+03  0.81024984019E+02 0.  0.
         24    2    4    4    0    0 -0.27233035101E+03 -0.32765629455E+03  0.63740088037E+03  0.77096408961E+03  0.81137400359E+02 0.  0.
         13    1    3    3    0    0 -0.32956322798E+02 -0.13051342043E+02 -0.61387421110E+02  0.70886333041E+02  0.00000000000E+00 0. -1.
        -13    1    3    3    0    0 -0.61522151582E+02  0.10471221407E+03 -0.33160723121E+03  0.35314724790E+03  0.00000000000E+00 0.  1.
          2    1    6    6  502    0 -0.53430103662E+02 -0.10019183640E+03  0.12281692111E+03  0.16726379217E+03  0.00000000000E+00 0. -1.
          3    1    5    5  503    0  0.17324244382E+03  0.77815563314E+02  0.91913366181E+02  0.21098879856E+03  0.00000000000E+00 0. -1.
         -4    1    5    5    0  503  0.19356638157E+03  0.15817985921E+03  0.19904995474E+03  0.31954607871E+03  0.00000000000E+00 0.  1.
         -1    1    6    6    0  502 -0.21890024735E+03 -0.22746445815E+03  0.51458395926E+03  0.60370029744E+03  0.00000000000E+00 0.  1.
<mgrwt>
<rscale>  0 0.16403786E+04</rscale>
<asrwt>0</asrwt>
<pdfrwt beam="1">  1        2 0.17391555E+00 0.16403786E+04</pdfrwt>
<pdfrwt beam="2">  1       -2 0.91551000E-01 0.16403786E+04</pdfrwt>
<totfact> 0.20267904E+01</totfact>
</mgrwt>
</event>
<event>
12    1  0.2214165E-007  0.1392664E+04  0.7818608E-02  0.8959146E-01
         -1   -1    0    0    0  501 -0.00000000000E+00  0.00000000000E+00  0.46635882096E+03  0.46635882096E+03  0.00000000000E+00 0.  1.
          1   -1    0    0  501    0  0.00000000000E+00 -0.00000000000E+00 -0.10397101997E+04  0.10397101997E+04  0.00000000000E+00 0. -1.
         23    2    1    2    0    0 -0.34718871227E+03  0.94067943384E+02  0.15538452039E+02  0.37167936329E+03  0.92278522420E+02 0.  0.
        254    2    1    2    0    0  0.34718871227E+03 -0.94067943384E+02 -0.58888983078E+03  0.11343896574E+04  0.90036652652E+03 0.  0.
        -24    2    4    4    0    0  0.25661082660E+03  0.38112583403E+03 -0.38104845518E+03  0.60203784258E+03  0.78394011281E+02 0.  0.
         24    2    4    4    0    0  0.90577885670E+02 -0.47519377741E+03 -0.20784137560E+03  0.53235181480E+03  0.78657090286E+02 0.  0.
         13    1    3    3    0    0 -0.25918078341E+03  0.29952977296E+02 -0.46024743646E+01  0.26094643532E+03  0.00000000000E+00 0.  1.
        -13    1    3    3    0    0 -0.88007928865E+02  0.64114966088E+02  0.20140926403E+02  0.11073292797E+03  0.00000000000E+00 0. -1.
          4    1    6    6  502    0  0.21392605941E+02 -0.11902063906E+03 -0.16165117525E+02  0.12200355378E+03  0.00000000000E+00 0. -1.
          3    1    5    5  503    0  0.19343173640E+03  0.22496807917E+03 -0.26135928714E+03  0.39539240036E+03  0.00000000000E+00 0. -1.
         -4    1    5    5    0  503  0.63179090206E+02  0.15615775485E+03 -0.11968916805E+03  0.20664544221E+03  0.00000000000E+00 0.  1.
         -1    1    6    6    0  502  0.69185279729E+02 -0.35617313835E+03 -0.19167625807E+03  0.41034826102E+03  0.00000000000E+00 0.  1.
<mgrwt>
<rscale>  0 0.13926637E+04</rscale>
<asrwt>0</asrwt>
<pdfrwt beam="1">  1        1 0.15995541E+00 0.13926637E+04</pdfrwt>
<pdfrwt beam="2">  1       -1 0.71747512E-01 0.13926637E+04</pdfrwt>
<totfact> 0.26966168E+01</totfact>
</mgrwt>
</event>
<event>
12    1  0.2214165E-007  0.1695739E+04  0.7818608E-02  0.8763798E-01
         -1   -1    0    0    0  501 -0.00000000000E+00  0.00000000000E+00  0.45435590242E+03  0.45435590242E+03  0.00000000000E+00 0.  1.
          1   -1    0    0  501    0  0.00000000000E+00 -0.00000000000E+00 -0.15822022645E+04  0.15822022645E+04  0.00000000000E+00 0. -1.
         23    2    1    2    0    0 -0.43668756893E+03 -0.83365448056E+02  0.84642115233E+02  0.46205338147E+03  0.93183737131E+02 0.  0.
        254    2    1    2    0    0  0.43668756893E+03  0.83365448056E+02 -0.12124884773E+04  0.15745047854E+04  0.90071703714E+03 0.  0.
        -24    2    4    4    0    0  0.15812107513E+03 -0.12233884748E+03 -0.11996701746E+04  0.12188428690E+04  0.80002147357E+02 0.  0.
         24    2    4    4    0    0  0.27856649380E+03  0.20570429554E+03 -0.12818302737E+02  0.35566191644E+03  0.80109557768E+02 0.  0.
         11    1    3    3    0    0 -0.10287437605E+03 -0.43817238212E+02  0.54970200093E+02  0.12459859755E+03  0.00000000000E+00 0.  1.
        -11    1    3    3    0    0 -0.33381319288E+03 -0.39548209844E+02  0.29671915140E+02  0.33745478392E+03  0.00000000000E+00 0. -1.
          4    1    6    6  502    0  0.54038644901E+02  0.22291829892E+02  0.24438961931E+02  0.63359006329E+02  0.00000000000E+00 0. -1.
          1    1    5    5  503    0  0.18028490771E+02  0.10824878759E+02 -0.86673304133E+02  0.89187813791E+02  0.00000000000E+00 0. -1.
         -2    1    5    5    0  503  0.14009258436E+03 -0.13316372624E+03 -0.11129968704E+04  0.11296550552E+04  0.00000000000E+00 0.  1.
         -3    1    6    6    0  502  0.22452784890E+03  0.18341246565E+03 -0.37257264668E+02  0.29230291011E+03  0.00000000000E+00 0.  1.
<mgrwt>
<rscale>  0 0.16957393E+04</rscale>
<asrwt>0</asrwt>
<pdfrwt beam="1">  1        1 0.24341573E+00 0.16957393E+04</pdfrwt>
<pdfrwt beam="2">  1       -1 0.69900910E-01 0.16957393E+04</pdfrwt>
<totfact> 0.11305577E+01</totfact>
</mgrwt>
</event>
<event>
12    1  0.2214165E-007  0.3042673E+04  0.7818608E-02  0.8231649E-01
         -1   -1    0    0    0  501 -0.00000000000E+00  0.00000000000E+00  0.72613674789E+03  0.72613674789E+03  0.00000000000E+00 0.  1.
          1   -1    0    0  501    0  0.00000000000E+00 -0.00000000000E+00 -0.31873666481E+04  0.31873666481E+04  0.00000000000E+00 0. -1.
         23    2    1    2    0    0 -0.10166029689E+04 -0.57395901356E+03 -0.15743817266E+03  0.11815778603E+04  0.91809128591E+02 0.  0.
        254    2    1    2    0    0  0.10166029689E+04  0.57395901356E+03 -0.23037917275E+04  0.27319255357E+04  0.89053369568E+03 0.  0.
        -24    2    4    4    0    0  0.65692998496E+03  0.23049535665E+03 -0.20538160723E+04  0.21700951092E+04  0.80418961099E+02 0.  0.
         24    2    4    4    0    0  0.35967298392E+03  0.34346365690E+03 -0.24997565521E+03  0.56183042653E+03  0.76378406663E+02 0.  0.
         13    1    3    3    0    0 -0.93835481173E+03 -0.53421919739E+03 -0.16950096861E+03  0.10929915287E+04  0.00000000000E+00 0. -1.
        -13    1    3    3    0    0 -0.78248157156E+02 -0.39739816162E+02  0.12062795950E+02  0.88586331525E+02  0.00000000000E+00 0.  1.
          4    1    6    6  502    0  0.13164966922E+02 -0.25783930244E+01 -0.56345064430E+01  0.14550330838E+02  0.00000000000E+00 0. -1.
          3    1    5    5  503    0  0.29703869937E+03  0.80058449536E+02 -0.10081634958E+04  0.10540564399E+04  0.00000000000E+00 0. -1.
         -4    1    5    5    0  503  0.35989128559E+03  0.15043690712E+03 -0.10456525765E+04  0.11160386693E+04  0.00000000000E+00 0.  1.
         -3    1    6    6    0  502  0.34650801700E+03  0.34604204993E+03 -0.24434114877E+03  0.54728009570E+03  0.00000000000E+00 0.  1.
<mgrwt>
<rscale>  0 0.30426725E+04</rscale>
<asrwt>0</asrwt>
<pdfrwt beam="1">  1        1 0.49036410E+00 0.30426725E+04</pdfrwt>
<pdfrwt beam="2">  1       -1 0.11171335E+00 0.30426725E+04</pdfrwt>
<totfact> 0.27078638E-01</totfact>
</mgrwt>
</event>
<event>
12    1  0.2214165E-007  0.3488642E+04  0.7818608E-02  0.8116487E-01
         -2   -1    0    0    0  501 -0.00000000000E+00  0.00000000000E+00  0.37441321923E+04  0.37441321923E+04  0.00000000000E+00 0.  1.
          2   -1    0    0  501    0  0.00000000000E+00 -0.00000000000E+00 -0.81264631784E+03  0.81264631784E+03  0.00000000000E+00 0. -1.
         23    2    1    2    0    0  0.15724032165E+04 -0.19276361892E+03  0.88249530418E+03  0.18156880241E+04  0.91188546827E+02 0.  0.
        254    2    1    2    0    0 -0.15724032165E+04  0.19276361892E+03  0.20489905703E+04  0.27410904860E+04  0.89755501640E+03 0.  0.
        -24    2    4    4    0    0 -0.39476742308E+03  0.45820164813E+03  0.70515037073E+03  0.93291563676E+03  0.85466199682E+02 0.  0.
         24    2    4    4    0    0 -0.11776357934E+04 -0.26543802921E+03  0.13438401996E+04  0.18081748493E+04  0.79412809555E+02 0.  0.
         13    1    3    3    0    0  0.66275682480E+03 -0.97325207941E+02  0.32507633339E+03  0.74457600515E+03  0.00000000000E+00 0.  1.
        -13    1    3    3    0    0  0.90964639168E+03 -0.95438410978E+02  0.55741897080E+03  0.10711120190E+04  0.00000000000E+00 0. -1.
          4    1    6    6  502    0 -0.11358341950E+04 -0.24112875366E+03  0.12975335651E+04  0.17412224863E+04  0.00000000000E+00 0. -1.
          3    1    5    5  503    0 -0.38531805086E+03  0.45975020051E+03  0.70057122623E+03  0.92230162648E+03  0.00000000000E+00 0. -1.
         -4    1    5    5    0  503 -0.94493722223E+01 -0.15485523755E+01  0.45791445035E+01  0.10614010281E+02  0.00000000000E+00 0.  1.
         -3    1    6    6    0  502 -0.41801598432E+02 -0.24309275557E+02  0.46306634465E+02  0.66952362954E+02  0.00000000000E+00 0.  1.
<mgrwt>
<rscale>  0 0.34886417E+04</rscale>
<asrwt>0</asrwt>
<pdfrwt beam="1">  1        2 0.12502251E+00 0.34886417E+04</pdfrwt>
<pdfrwt beam="2">  1       -2 0.57602033E+00 0.34886417E+04</pdfrwt>
<totfact> 0.17654541E-02</totfact>
</mgrwt>
</event>
<event>
12    1  0.2214165E-007  0.1844767E+04  0.7818608E-02  0.8682848E-01
         -1   -1    0    0    0  501 -0.00000000000E+00  0.00000000000E+00  0.17500637038E+04  0.17500637038E+04  0.00000000000E+00 0.  1.
          1   -1    0    0  501    0  0.00000000000E+00 -0.00000000000E+00 -0.48614900234E+03  0.48614900234E+03  0.00000000000E+00 0. -1.
         23    2    1    2    0    0  0.46218936554E+03 -0.52313332732E+03  0.60397538726E+03  0.92762781580E+03  0.91758424422E+02 0.  0.
        254    2    1    2    0    0 -0.46218936554E+03  0.52313332732E+03  0.65993931423E+03  0.13085848904E+04  0.88858709705E+03 0.  0.
        -24    2    4    4    0    0 -0.62670160523E+03  0.65582372573E+02  0.40980383876E+03  0.75617218838E+03  0.82469646730E+02 0.  0.
         24    2    4    4    0    0  0.16451223968E+03  0.45755095475E+03  0.25013547547E+03  0.55241270198E+03  0.78580430305E+02 0.  0.
         13    1    3    3    0    0  0.45036367175E+03 -0.50280633058E+03  0.55722162534E+03  0.87529285536E+03  0.00000000000E+00 0. -1.
        -13    1    3    3    0    0  0.11825693793E+02 -0.20326996744E+02  0.46753761918E+02  0.52334960436E+02  0.00000000000E+00 0.  1.
          4    1    6    6  502    0  0.40569941652E+02  0.42971219052E+02  0.20547523772E+02  0.62567136467E+02  0.00000000000E+00 0. -1.
          1    1    5    5  503    0 -0.31017726534E+03  0.64386600074E+02  0.23628719367E+03  0.39520527336E+03  0.00000000000E+00 0. -1.
         -2    1    5    5    0  503 -0.31652433989E+03  0.11957724991E+01  0.17351664509E+03  0.36096691502E+03  0.00000000000E+00 0.  1.
         -1    1    6    6    0  502  0.12394229803E+03  0.41457973569E+03  0.22958795170E+03  0.48984556552E+03  0.00000000000E+00 0.  1.
<mgrwt>
<rscale>  0 0.18447674E+04</rscale>
<asrwt>0</asrwt>
<pdfrwt beam="1">  1        1 0.74792155E-01 0.18447674E+04</pdfrwt>
<pdfrwt beam="2">  1       -1 0.26924057E+00 0.18447674E+04</pdfrwt>
<totfact> 0.22641330E+00</totfact>
</mgrwt>
</event>
<event>
12    1  0.2214165E-007  0.2507868E+04  0.7818608E-02  0.8400188E-01
         -1   -1    0    0    0  501 -0.00000000000E+00  0.00000000000E+00  0.17043076484E+04  0.17043076484E+04  0.00000000000E+00 0.  1.
          1   -1    0    0  501    0  0.00000000000E+00 -0.00000000000E+00 -0.92257402249E+03  0.92257402249E+03  0.00000000000E+00 0. -1.
         23    2    1    2    0    0  0.56332522033E+03  0.50280841526E+03 -0.48388576618E+03  0.90126332292E+03  0.89322652297E+02 0.  0.
        254    2    1    2    0    0 -0.56332522033E+03 -0.50280841526E+03  0.12656193921E+04  0.17256183479E+04  0.89767178348E+03 0.  0.
        -24    2    4    4    0    0 -0.64029377090E+02  0.18797299534E+03  0.21695748234E+02  0.21559207417E+03  0.81090251227E+02 0.  0.
         24    2    4    4    0    0 -0.49929584324E+03 -0.69078141060E+03  0.12439236438E+04  0.15100262738E+04  0.79737190138E+02 0.  0.
         11    1    3    3    0    0  0.37033693133E+03  0.31179401499E+03 -0.35720774723E+03  0.60163304861E+03  0.00000000000E+00 0.  1.
        -11    1    3    3    0    0  0.19298828900E+03  0.19101440027E+03 -0.12667801894E+03  0.29963027431E+03  0.00000000000E+00 0. -1.
          4    1    6    6  502    0 -0.40965348517E+03 -0.52234979566E+03  0.10014154321E+04  0.12014566803E+04  0.00000000000E+00 0. -1.
          3    1    5    5  503    0 -0.38246183520E+02  0.15813512896E+03 -0.12802509081E+02  0.16319740747E+03  0.00000000000E+00 0. -1.
         -4    1    5    5    0  503 -0.25783193569E+02  0.29837866381E+02  0.34498257315E+02  0.52394666699E+02  0.00000000000E+00 0.  1.
         -3    1    6    6    0  502 -0.89642358077E+02 -0.16843161494E+03  0.24250821173E+03  0.30856959350E+03  0.00000000000E+00 0.  1.
<mgrwt>
<rscale>  0 0.25078676E+04</rscale>
<asrwt>0</asrwt>
<pdfrwt beam="1">  1        1 0.14193447E+00 0.25078676E+04</pdfrwt>
<pdfrwt beam="2">  1       -1 0.26220118E+00 0.25078676E+04</pdfrwt>
<totfact> 0.89890535E-01</totfact>
</mgrwt>
</event>
<event>
12    1  0.2214165E-007  0.3520811E+04  0.7818608E-02  0.8108876E-01
         -2   -1    0    0    0  501 -0.00000000000E+00  0.00000000000E+00  0.18984236570E+04  0.18984236570E+04  0.00000000000E+00 0.  1.
          2   -1    0    0  501    0  0.00000000000E+00 -0.00000000000E+00 -0.16324210966E+04  0.16324210966E+04  0.00000000000E+00 0. -1.
         23    2    1    2    0    0 -0.13482174647E+04 -0.84114886826E+03 -0.30327566926E+03  0.16199005450E+04  0.82945122189E+02 0.  0.
        254    2    1    2    0    0  0.13482174647E+04  0.84114886826E+03  0.56927822961E+03  0.19109442086E+04  0.89577246836E+03 0.  0.
        -24    2    4    4    0    0  0.14037217077E+04  0.79933332772E+03  0.68218993960E+03  0.17554258852E+04  0.82271034317E+02 0.  0.
         24    2    4    4    0    0 -0.55504243000E+02  0.41815540533E+02 -0.11291170999E+03  0.15551832347E+03  0.81287356093E+02 0.  0.
         11    1    3    3    0    0 -0.10880761769E+04 -0.68476888346E+03 -0.27792371597E+03  0.13153173695E+04  0.00000000000E+00 0. -1.
        -11    1    3    3    0    0 -0.26014128779E+03 -0.15637998479E+03 -0.25351953292E+02  0.30458317549E+03  0.00000000000E+00 0.  1.
          4    1    6    6  502    0 -0.66155869132E+02  0.19116226500E+02 -0.11066852486E+03  0.13034397390E+03  0.00000000000E+00 0. -1.
          3    1    5    5  503    0  0.99992442664E+03  0.59618507195E+03  0.52227183606E+03  0.12759519465E+04  0.00000000000E+00 0. -1.
         -4    1    5    5    0  503  0.40379728108E+03  0.20314825577E+03  0.15991810354E+03  0.47947393868E+03  0.00000000000E+00 0.  1.
         -1    1    6    6    0  502  0.10651626132E+02  0.22699314033E+02 -0.22431851285E+01  0.25174349572E+02  0.00000000000E+00 0.  1.
<mgrwt>
<rscale>  0 0.35208106E+04</rscale>
<asrwt>0</asrwt>
<pdfrwt beam="1">  1        2 0.25114171E+00 0.35208106E+04</pdfrwt>
<pdfrwt beam="2">  1       -2 0.29206518E+00 0.35208106E+04</pdfrwt>
<totfact> 0.31182686E-01</totfact>
</mgrwt>
</event>
<event>
12    1  0.2214165E-007  0.1925267E+04  0.7818608E-02  0.8642381E-01
         -2   -1    0    0    0  501 -0.00000000000E+00  0.00000000000E+00  0.91666446288E+03  0.91666446288E+03  0.00000000000E+00 0.  1.
          2   -1    0    0  501    0  0.00000000000E+00 -0.00000000000E+00 -0.10109074571E+04  0.10109074571E+04  0.00000000000E+00 0. -1.
         23    2    1    2    0    0 -0.37264441922E+02 -0.73458686712E+03  0.10731353039E+03  0.74944629997E+03  0.95640256973E+02 0.  0.
        254    2    1    2    0    0  0.37264441922E+02  0.73458686712E+03 -0.20155652463E+03  0.11781256200E+04  0.89796906403E+03 0.  0.
        -24    2    4    4    0    0  0.39569411704E+03  0.52432661559E+03 -0.32278115692E+03  0.73634840858E+03  0.80802657650E+02 0.  0.
         24    2    4    4    0    0 -0.35842967512E+03  0.21026025153E+03  0.12122463229E+03  0.44177721144E+03  0.88263739405E+02 0.  0.
         11    1    3    3    0    0  0.14963560284E+02 -0.47129812114E+03  0.93190211417E+02  0.48065605440E+03  0.00000000000E+00 0.  1.
        -11    1    3    3    0    0 -0.52228002206E+02 -0.26328874598E+03  0.14123318973E+02  0.26879024557E+03  0.00000000000E+00 0. -1.
          2    1    6    6  502    0 -0.14435188055E+03  0.38033930733E+02  0.29922842072E+02  0.15224789583E+03  0.00000000000E+00 0. -1.
          3    1    5    5  503    0  0.84156809722E+02  0.94156858073E+02 -0.29741049599E+02  0.12973978794E+03  0.00000000000E+00 0. -1.
         -4    1    5    5    0  503  0.31153730732E+03  0.43016975752E+03 -0.29304010732E+03  0.60660862064E+03  0.00000000000E+00 0.  1.
         -1    1    6    6    0  502 -0.21407779457E+03  0.17222632080E+03  0.91301790217E+02  0.28952931562E+03  0.00000000000E+00 0.  1.
<mgrwt>
<rscale>  0 0.19252667E+04</rscale>
<asrwt>0</asrwt>
<pdfrwt beam="1">  1        2 0.15552422E+00 0.19252667E+04</pdfrwt>
<pdfrwt beam="2">  1       -2 0.14102530E+00 0.19252667E+04</pdfrwt>
<totfact> 0.81634304E+00</totfact>
</mgrwt>
</event>
<event>
12    1  0.2214165E-007  0.2841767E+04  0.7818608E-02  0.8290417E-01
          2   -1    0    0  501    0  0.00000000000E+00  0.00000000000E+00  0.27413196464E+04  0.27413196464E+04  0.00000000000E+00 0. -1.
         -2   -1    0    0    0  501 -0.00000000000E+00 -0.00000000000E+00 -0.73647364554E+03  0.73647364554E+03  0.00000000000E+00 0.  1.
         23    2    1    2    0    0  0.69346210346E+02  0.11796945630E+04  0.31094968284E+03  0.12253164600E+04  0.90678349995E+02 0.  0.
        254    2    1    2    0    0 -0.69346210346E+02 -0.11796945630E+04  0.16938963180E+04  0.22524768319E+04  0.89882088501E+03 0.  0.
        -24    2    4    4    0    0  0.28922154514E+02  0.53182754464E+02 -0.49548806508E+02  0.11339653012E+03  0.82090148142E+02 0.  0.
         24    2    4    4    0    0 -0.98268364860E+02 -0.12328773174E+04  0.17434451245E+04  0.21390803018E+04  0.80127922319E+02 0.  0.
         13    1    3    3    0    0 -0.12823580887E+02  0.34646590964E+03  0.11660471795E+03  0.36578645548E+03  0.00000000000E+00 0. -1.
        -13    1    3    3    0    0  0.82169791233E+02  0.83322865333E+03  0.19434496488E+03  0.85953000453E+03  0.00000000000E+00 0.  1.
          2    1    6    6  502    0 -0.34137605712E+02 -0.41232204497E+03  0.64965491928E+03  0.77021189230E+03  0.00000000000E+00 0. -1.
          3    1    5    5  503    0  0.22362819567E+02 -0.15439232004E+02 -0.32539298882E+02  0.42394239651E+02  0.00000000000E+00 0. -1.
         -4    1    5    5    0  503  0.65593349471E+01  0.68621986468E+02 -0.17009507627E+02  0.71002290466E+02  0.00000000000E+00 0.  1.
         -1    1    6    6    0  502 -0.64130759147E+02 -0.82055527246E+03  0.10937902052E+04  0.13688684095E+04  0.00000000000E+00 0.  1.
<mgrwt>
<rscale>  0 0.28417668E+04</rscale>
<asrwt>0</asrwt>
<pdfrwt beam="1">  1        2 0.42174148E+00 0.28417668E+04</pdfrwt>
<pdfrwt beam="2">  1       -2 0.11330364E+00 0.28417668E+04</pdfrwt>
<totfact> 0.13296366E+00</totfact>
</mgrwt>
</event>
<event>
12    1  0.2214165E-007  0.2620468E+04  0.7818608E-02  0.8361282E-01
          2   -1    0    0  501    0  0.00000000000E+00  0.00000000000E+00  0.18414280227E+04  0.18414280227E+04  0.00000000000E+00 0. -1.
         -2   -1    0    0    0  501 -0.00000000000E+00 -0.00000000000E+00 -0.93227295170E+03  0.93227295170E+03  0.00000000000E+00 0.  1.
         23    2    1    2    0    0  0.10469623331E+04  0.21796775960E+03  0.85964411119E+03  0.13753853563E+04  0.95167270377E+02 0.  0.
        254    2    1    2    0    0 -0.10469623331E+04 -0.21796775960E+03  0.49510959857E+02  0.13983156181E+04  0.89955275636E+03 0.  0.
        -24    2    4    4    0    0 -0.48390263384E+03 -0.46341397230E+02  0.46156671204E+03  0.67500945589E+03  0.79275795478E+02 0.  0.
         24    2    4    4    0    0 -0.56305969929E+03 -0.17162636237E+03 -0.41205575218E+03  0.72330616221E+03  0.83006193544E+02 0.  0.
         13    1    3    3    0    0  0.33578920682E+03  0.75254067105E+02  0.22120248816E+03  0.40908202942E+03  0.00000000000E+00 0.  1.
        -13    1    3    3    0    0  0.71117312631E+03  0.14271369249E+03  0.63844162303E+03  0.96630332693E+03  0.00000000000E+00 0. -1.
          4    1    6    6  502    0 -0.47454178769E+03 -0.17205834392E+03 -0.36619408781E+03  0.62361213260E+03  0.00000000000E+00 0. -1.
          1    1    5    5  503    0 -0.33190725533E+03  0.32870672621E+01  0.29415083090E+03  0.44350641740E+03  0.00000000000E+00 0. -1.
         -2    1    5    5    0  503 -0.15199537851E+03 -0.49628464492E+02  0.16741588114E+03  0.23150303850E+03  0.00000000000E+00 0.  1.
         -3    1    6    6    0  502 -0.88517911598E+02  0.43198155339E+00 -0.45861664371E+02  0.99694029614E+02  0.00000000000E+00 0.  1.
<mgrwt>
<rscale>  0 0.26204683E+04</rscale>
<asrwt>0</asrwt>
<pdfrwt beam="1">  1        2 0.28329662E+00 0.26204683E+04</pdfrwt>
<pdfrwt beam="2">  1       -2 0.14342661E+00 0.26204683E+04</pdfrwt>
<totfact> 0.24371105E+00</totfact>
</mgrwt>
</event>
<event>
12    1  0.2214165E-007  0.2375409E+04  0.7818608E-02  0.8448768E-01
         -2   -1    0    0    0  501 -0.00000000000E+00  0.00000000000E+00  0.65024276735E+03  0.65024276735E+03  0.00000000000E+00 0.  1.
          2   -1    0    0  501    0  0.00000000000E+00 -0.00000000000E+00 -0.21694089219E+04  0.21694089219E+04  0.00000000000E+00 0. -1.
         23    2    1    2    0    0 -0.63457874899E+03 -0.78497752258E+03 -0.53163999967E+03  0.11444269396E+04  0.90509840090E+02 0.  0.
        254    2    1    2    0    0  0.63457874899E+03  0.78497752258E+03 -0.98752615488E+03  0.16752247497E+04  0.90127141069E+03 0.  0.
        -24    2    4    4    0    0  0.69435485897E+03  0.91215921365E+03 -0.69997455884E+03  0.13454472748E+04  0.78108162496E+02 0.  0.
         24    2    4    4    0    0 -0.59776109985E+02 -0.12718169107E+03 -0.28755159603E+03  0.32977747486E+03  0.79491488073E+02 0.  0.
         13    1    3    3    0    0 -0.11325979383E+03 -0.11134923178E+03 -0.53407669805E+02  0.16756733426E+03  0.00000000000E+00 0.  1.
        -13    1    3    3    0    0 -0.52131895516E+03 -0.67362829080E+03 -0.47823232986E+03  0.97685960532E+03  0.00000000000E+00 0. -1.
          4    1    6    6  502    0 -0.42926954976E+02 -0.22080891970E+02 -0.50165783408E+02  0.69619645781E+02  0.00000000000E+00 0. -1.
          3    1    5    5  503    0  0.30935700029E+01 -0.10720367803E+01 -0.41875591027E+01  0.53155516609E+01  0.00000000000E+00 0. -1.
         -4    1    5    5    0  503  0.69126128897E+03  0.91323125043E+03 -0.69578699974E+03  0.13401317231E+04  0.00000000000E+00 0.  1.
         -3    1    6    6    0  502 -0.16849155008E+02 -0.10510079910E+03 -0.23738581263E+03  0.26015782908E+03  0.00000000000E+00 0.  1.
<mgrwt>
<rscale>  0 0.23754094E+04</rscale>
<asrwt>0</asrwt>
<pdfrwt beam="1">  1        2 0.33375522E+00 0.23754094E+04</pdfrwt>
<pdfrwt beam="2">  1       -2 0.10003735E+00 0.23754094E+04</pdfrwt>
<totfact> 0.39945937E+00</totfact>
</mgrwt>
</event>
<event>
12    1  0.2214165E-007  0.1458868E+04  0.7818608E-02  0.8912276E-01
          1   -1    0    0  501    0  0.00000000000E+00  0.00000000000E+00  0.15586524016E+04  0.15586524016E+04  0.00000000000E+00 0.  1.
         -1   -1    0    0    0  501 -0.00000000000E+00 -0.00000000000E+00 -0.34136786319E+03  0.34136786319E+03  0.00000000000E+00 0. -1.
         23    2    1    2    0    0 -0.14488012512E+03  0.35636927192E+03  0.85957161763E+02  0.40479725848E+03  0.92102541712E+02 0.  0.
        254    2    1    2    0    0  0.14488012512E+03 -0.35636927192E+03  0.11313273766E+04  0.14952230063E+04  0.89877744564E+03 0.  0.
        -24    2    4    4    0    0  0.51195846205E+03 -0.29763959289E+03  0.70410296381E+03  0.92334469569E+03  0.78189828650E+02 0.  0.
         24    2    4    4    0    0 -0.36707833692E+03 -0.58729679032E+02  0.42722441283E+03  0.57187831060E+03  0.79551383277E+02 0.  0.
         11    1    3    3    0    0 -0.55546358867E+02  0.56856927922E+02  0.39674812943E+02  0.88838049383E+02  0.00000000000E+00 0.  1.
        -11    1    3    3    0    0 -0.89333766258E+02  0.29951234400E+03  0.46282348820E+02  0.31595920910E+03  0.00000000000E+00 0. -1.
          2    1    6    6  502    0 -0.33484871922E+03 -0.76330531123E+02  0.38654046416E+03  0.51707208896E+03  0.00000000000E+00 0. -1.
          1    1    5    5  503    0  0.39495095852E+03 -0.24166056130E+03  0.49950780795E+03  0.68109774388E+03  0.00000000000E+00 0. -1.
         -2    1    5    5    0  503  0.11700750353E+03 -0.55979031592E+02  0.20459515586E+03  0.24224695181E+03  0.00000000000E+00 0.  1.
         -1    1    6    6    0  502 -0.32229617697E+02  0.17600852091E+02  0.40683948678E+02  0.54806221647E+02  0.00000000000E+00 0.  1.
<mgrwt>
<rscale>  0 0.14588678E+04</rscale>
<asrwt>0</asrwt>
<pdfrwt beam="1">  1        1 0.23979267E+00 0.14588678E+04</pdfrwt>
<pdfrwt beam="2">  1       -1 0.52518134E-01 0.14588678E+04</pdfrwt>
<totfact> 0.21124716E+01</totfact>
</mgrwt>
</event>
<event>
12    1  0.2214165E-007  0.1148946E+04  0.7818608E-02  0.9158756E-01
          2   -1    0    0  501    0  0.00000000000E+00  0.00000000000E+00  0.12039453924E+04  0.12039453924E+04  0.00000000000E+00 0. -1.
         -2   -1    0    0    0  501 -0.00000000000E+00 -0.00000000000E+00 -0.27411490303E+03  0.27411490303E+03  0.00000000000E+00 0.  1.
         23    2    1    2    0    0  0.23114255066E+02  0.10804119870E+03  0.40752757084E+03  0.43134092577E+03  0.88142520073E+02 0.  0.
        254    2    1    2    0    0 -0.23114255066E+02 -0.10804119870E+03  0.52230291848E+03  0.10467193696E+04  0.90034100799E+03 0.  0.
        -24    2    4    4    0    0 -0.40452645665E+03 -0.25757075712E+03  0.32699805457E+03  0.58612691225E+03  0.81441270367E+02 0.  0.
         24    2    4    4    0    0  0.38141220158E+03  0.14952955842E+03  0.19530486391E+03  0.46059245736E+03  0.78530666377E+02 0.  0.
         13    1    3    3    0    0  0.20528350065E+02  0.12936879370E+02  0.21727980666E+03  0.21863048823E+03  0.00000000000E+00 0. -1.
        -13    1    3    3    0    0  0.25859050014E+01  0.95104319334E+02  0.19024776419E+03  0.21271043754E+03  0.00000000000E+00 0.  1.
          2    1    6    6  502    0  0.26338195698E+03  0.66454628237E+02  0.14373979317E+03  0.30732295881E+03  0.00000000000E+00 0. -1.
          1    1    5    5  503    0 -0.34300575475E+03 -0.18076230179E+03  0.26898843410E+03  0.47189271579E+03  0.00000000000E+00 0. -1.
         -2    1    5    5    0  503 -0.61520701894E+02 -0.76808455337E+02  0.58009620473E+02  0.11423419646E+03  0.00000000000E+00 0.  1.
         -1    1    6    6    0  502  0.11803024460E+03  0.83074930180E+02  0.51565070741E+02  0.15326949855E+03  0.00000000000E+00 0.  1.
<mgrwt>
<rscale>  0 0.11489463E+04</rscale>
<asrwt>0</asrwt>
<pdfrwt beam="1">  1        2 0.18522236E+00 0.11489463E+04</pdfrwt>
<pdfrwt beam="2">  1       -2 0.42171524E-01 0.11489463E+04</pdfrwt>
<totfact> 0.99322177E+01</totfact>
</mgrwt>
</event>
<event>
12    1  0.2214165E-007  0.2131466E+04  0.7818608E-02  0.8547508E-01
          2   -1    0    0  501    0  0.00000000000E+00  0.00000000000E+00  0.16844163070E+04  0.16844163070E+04  0.00000000000E+00 0. -1.
         -2   -1    0    0    0  501 -0.00000000000E+00 -0.00000000000E+00 -0.67429096170E+03  0.67429096170E+03  0.00000000000E+00 0.  1.
         23    2    1    2    0    0  0.83496665442E+03 -0.19316028385E+03  0.22076004420E+03  0.88984892069E+03  0.92821847034E+02 0.  0.
        254    2    1    2    0    0 -0.83496665442E+03  0.19316028385E+03  0.78936530106E+03  0.14688583480E+04  0.89440877603E+03 0.  0.
        -24    2    4    4    0    0 -0.10099378737E+04  0.14469833626E+03  0.56274816021E+03  0.11678061281E+04  0.78571900557E+02 0.  0.
         24    2    4    4    0    0  0.17497121932E+03  0.48461947595E+02  0.22661714085E+03  0.30105221992E+03  0.79458307551E+02 0.  0.
         11    1    3    3    0    0  0.39566957848E+03 -0.80147455616E+02  0.15046325377E+03  0.43083317039E+03  0.00000000000E+00 0. -1.
        -11    1    3    3    0    0  0.43929707594E+03 -0.11301282823E+03  0.70296790427E+02  0.45901575030E+03  0.00000000000E+00 0.  1.
          2    1    6    6  502    0  0.14400994146E+03  0.40054086500E+02  0.12617318977E+03  0.19560896427E+03  0.00000000000E+00 0. -1.
          1    1    5    5  503    0 -0.60347058586E+03  0.92857276155E+02  0.37979926150E+03  0.71905959472E+03  0.00000000000E+00 0. -1.
         -2    1    5    5    0  503 -0.40646728788E+03  0.51841060101E+02  0.18294889872E+03  0.44874653333E+03  0.00000000000E+00 0.  1.
         -1    1    6    6    0  502  0.30961277857E+02  0.84078610954E+01  0.10044395108E+03  0.10544325565E+03  0.00000000000E+00 0.  1.
<mgrwt>
<rscale>  0 0.21314659E+04</rscale>
<asrwt>0</asrwt>
<pdfrwt beam="1">  1        2 0.25914097E+00 0.21314659E+04</pdfrwt>
<pdfrwt beam="2">  1       -2 0.10373707E+00 0.21314659E+04</pdfrwt>
<totfact> 0.69596886E+00</totfact>
</mgrwt>
</event>
<event>
12    1  0.2214165E-007  0.1310333E+04  0.7818608E-02  0.9021411E-01
          2   -1    0    0  501    0  0.00000000000E+00  0.00000000000E+00  0.27136577491E+04  0.27136577491E+04  0.00000000000E+00 0.  1.
         -2   -1    0    0    0  501 -0.00000000000E+00 -0.00000000000E+00 -0.15817883965E+03  0.15817883965E+03  0.00000000000E+00 0. -1.
         23    2    1    2    0    0 -0.21002036650E+03 -0.23447625711E+03  0.41450316273E+03  0.52789600265E+03  0.88168294822E+02 0.  0.
        254    2    1    2    0    0  0.21002036650E+03  0.23447625711E+03  0.21409757468E+04  0.23439405861E+04  0.90066234160E+03 0.  0.
        -24    2    4    4    0    0  0.70201483849E+02  0.54808123144E+03  0.16313598771E+04  0.17242643769E+04  0.80195439400E+02 0.  0.
         24    2    4    4    0    0  0.13981888266E+03 -0.31360497433E+03  0.50961586968E+03  0.61967620917E+03  0.79955423255E+02 0.  0.
         13    1    3    3    0    0 -0.99734194254E+02 -0.87632339432E+02  0.24153330066E+03  0.27561689307E+03  0.00000000000E+00 0.  1.
        -13    1    3    3    0    0 -0.11028617225E+03 -0.14684391768E+03  0.17296986207E+03  0.25227910958E+03  0.00000000000E+00 0. -1.
          2    1    6    6  502    0  0.10111476692E+03 -0.16443929313E+03  0.33622314525E+03  0.38769895617E+03  0.00000000000E+00 0. -1.
          1    1    5    5  503    0 -0.94076487201E+01  0.68868526587E+02  0.15081871633E+03  0.16606523719E+03  0.00000000000E+00 0. -1.
         -2    1    5    5    0  503  0.79609132569E+02  0.47921270485E+03  0.14805411607E+04  0.15581991398E+04  0.00000000000E+00 0.  1.
         -1    1    6    6    0  502  0.38704115739E+02 -0.14916568120E+03  0.17339272443E+03  0.23197725300E+03  0.00000000000E+00 0.  1.
<mgrwt>
<rscale>  0 0.13103331E+04</rscale>
<asrwt>0</asrwt>
<pdfrwt beam="1">  1        2 0.41748577E+00 0.13103331E+04</pdfrwt>
<pdfrwt beam="2">  1       -2 0.24335208E-01 0.13103331E+04</pdfrwt>
<totfact> 0.38727746E+01</totfact>
</mgrwt>
</event>
<event>
12    1  0.2214165E-007  0.1125020E+04  0.7818608E-02  0.9181143E-01
         -2   -1    0    0    0  501 -0.00000000000E+00  0.00000000000E+00  0.39598007255E+03  0.39598007255E+03  0.00000000000E+00 0. -1.
          2   -1    0    0  501    0  0.00000000000E+00 -0.00000000000E+00 -0.79907434932E+03  0.79907434932E+03  0.00000000000E+00 0.  1.
         23    2    1    2    0    0 -0.84969835705E+02 -0.36183852732E+02 -0.23688403940E+03  0.27097782390E+03  0.93732538328E+02 0.  0.
        254    2    1    2    0    0  0.84969835705E+02  0.36183852732E+02 -0.16621023737E+03  0.92407659797E+03  0.90430225685E+03 0.  0.
        -24    2    4    4    0    0  0.97620248914E+02  0.48510266099E+02  0.36313114925E+03  0.38843410457E+03  0.84462199382E+02 0.  0.
         24    2    4    4    0    0 -0.12650413209E+02 -0.12326413367E+02 -0.52934138662E+03  0.53564249340E+03  0.79991272784E+02 0.  0.
         13    1    3    3    0    0 -0.85636170569E+02 -0.56695424449E+02 -0.22483063963E+03  0.24717755031E+03  0.00000000000E+00 0.  1.
        -13    1    3    3    0    0  0.66633486427E+00  0.20511571718E+02 -0.12053399774E+02  0.23800273582E+02  0.00000000000E+00 0. -1.
          2    1    6    6  502    0 -0.36973522215E+02 -0.88321249718E+01 -0.12739304554E+03  0.13294373181E+03  0.00000000000E+00 0. -1.
          1    1    5    5  503    0  0.14236078658E+02 -0.58027224577E+01  0.41618167244E+01  0.15926651937E+02  0.00000000000E+00 0. -1.
         -2    1    5    5    0  503  0.83384170256E+02  0.54312988557E+02  0.35896933253E+03  0.37250745264E+03  0.00000000000E+00 0.  1.
         -1    1    6    6    0  502  0.24323109006E+02 -0.34942883954E+01 -0.40194834108E+03  0.40269876159E+03  0.00000000000E+00 0.  1.
<mgrwt>
<rscale>  0 0.11250200E+04</rscale>
<asrwt>0</asrwt>
<pdfrwt beam="1">  1        2 0.12293451E+00 0.11250200E+04</pdfrwt>
<pdfrwt beam="2">  1       -2 0.60920012E-01 0.11250200E+04</pdfrwt>
<totfact> 0.85799387E+01</totfact>
</mgrwt>
</event>
<event>
12    1  0.2214165E-007  0.1819453E+04  0.7818608E-02  0.8696022E-01
          1   -1    0    0  501    0  0.00000000000E+00  0.00000000000E+00  0.19680456929E+04  0.19680456929E+04  0.00000000000E+00 0. -1.
         -1   -1    0    0    0  501 -0.00000000000E+00 -0.00000000000E+00 -0.42052003254E+03  0.42052003254E+03  0.00000000000E+00 0.  1.
         23    2    1    2    0    0  0.10387688390E+03 -0.67516439796E+03  0.59401317513E+03  0.90974159781E+03  0.90226112007E+02 0.  0.
        254    2    1    2    0    0 -0.10387688390E+03  0.67516439796E+03  0.95351248523E+03  0.14788241276E+04  0.90060944345E+03 0.  0.
        -24    2    4    4    0    0 -0.98128370701E+01  0.13993710584E+02 -0.15929106001E+03  0.17890750615E+03  0.79637542978E+02 0.  0.
         24    2    4    4    0    0 -0.94064046833E+02  0.66117068738E+03  0.11128035452E+04  0.12999166215E+04  0.73869951343E+02 0.  0.
         13    1    3    3    0    0  0.12184504946E+01 -0.18503753154E+03  0.12240999076E+03  0.22186612752E+03  0.00000000000E+00 0. -1.
        -13    1    3    3    0    0  0.10265843341E+03 -0.49012686642E+03  0.47160318436E+03  0.68787547030E+03  0.00000000000E+00 0.  1.
          4    1    6    6  502    0  0.15488754640E+01  0.16630230955E+03  0.31580520782E+03  0.35691986000E+03  0.00000000000E+00 0. -1.
          1    1    5    5  503    0 -0.42817260463E+02  0.18044175056E+02 -0.74168745875E+02  0.87520928421E+02  0.00000000000E+00 0. -1.
         -2    1    5    5    0  503  0.33004423393E+02 -0.40504644727E+01 -0.85122314130E+02  0.91386577728E+02  0.00000000000E+00 0.  1.
         -3    1    6    6    0  502 -0.95612922297E+02  0.49486837783E+03  0.79699833742E+03  0.94299676146E+03  0.00000000000E+00 0.  1.
<mgrwt>
<rscale>  0 0.18194534E+04</rscale>
<asrwt>0</asrwt>
<pdfrwt beam="1">  1        1 0.30277626E+00 0.18194534E+04</pdfrwt>
<pdfrwt beam="2">  1       -1 0.64695391E-01 0.18194534E+04</pdfrwt>
<totfact> 0.71494829E+00</totfact>
</mgrwt>
</event>
<event>
12    1  0.2214165E-007  0.1486034E+04  0.7818608E-02  0.8893794E-01
          1   -1    0    0  501    0  0.00000000000E+00  0.00000000000E+00  0.13232765710E+04  0.13232765710E+04  0.00000000000E+00 0. -1.
         -1   -1    0    0    0  501 -0.00000000000E+00 -0.00000000000E+00 -0.41720244641E+03  0.41720244641E+03  0.00000000000E+00 0.  1.
         23    2    1    2    0    0  0.15625179407E+03  0.59220385765E+02  0.80623704575E+03  0.82841800071E+03  0.91304614922E+02 0.  0.
        254    2    1    2    0    0 -0.15625179407E+03 -0.59220385765E+02  0.99837078801E+02  0.91206101667E+03  0.89104779815E+03 0.  0.
        -24    2    4    4    0    0  0.26210670844E+03 -0.22008592932E+02 -0.23997440346E+03  0.36507078083E+03  0.80651447173E+02 0.  0.
         24    2    4    4    0    0 -0.41835850251E+03 -0.37211792833E+02  0.33981148226E+03  0.54699023584E+03  0.85544844845E+02 0.  0.
         13    1    3    3    0    0  0.96690249848E+02  0.77278318960E+02  0.61416101262E+03  0.62650993002E+03  0.00000000000E+00 0.  1.
        -13    1    3    3    0    0  0.59561544225E+02 -0.18057933195E+02  0.19207603314E+03  0.20190807069E+03  0.00000000000E+00 0. -1.
          2    1    6    6  502    0 -0.27782654589E+03 -0.38154431466E+02  0.27303615820E+03  0.39139761615E+03  0.00000000000E+00 0. -1.
          3    1    5    5  503    0  0.15352339596E+03  0.21419392350E+02 -0.10907633141E+03  0.18954120805E+03  0.00000000000E+00 0. -1.
         -4    1    5    5    0  503  0.10858331248E+03 -0.43427985282E+02 -0.13089807205E+03  0.17552957278E+03  0.00000000000E+00 0.  1.
         -1    1    6    6    0  502 -0.14053195662E+03  0.94263863350E+00  0.66775324058E+02  0.15559261969E+03  0.00000000000E+00 0.  1.
<mgrwt>
<rscale>  0 0.14860339E+04</rscale>
<asrwt>0</asrwt>
<pdfrwt beam="1">  1        1 0.20358101E+00 0.14860339E+04</pdfrwt>
<pdfrwt beam="2">  1       -1 0.64184993E-01 0.14860339E+04</pdfrwt>
<totfact> 0.20753138E+01</totfact>
</mgrwt>
</event>
<event>
12    1  0.2214165E-007  0.3181699E+04  0.7818608E-02  0.8193667E-01
          2   -1    0    0  501    0  0.00000000000E+00  0.00000000000E+00  0.17612684093E+04  0.17612684093E+04  0.00000000000E+00 0. -1.
         -2   -1    0    0    0  501 -0.00000000000E+00 -0.00000000000E+00 -0.14369205589E+04  0.14369205589E+04  0.00000000000E+00 0.  1.
         23    2    1    2    0    0 -0.86802673635E+03 -0.11660348698E+04  0.28882464169E+01  0.14564852906E+04  0.90737683924E+02 0.  0.
        254    2    1    2    0    0  0.86802673635E+03  0.11660348698E+04  0.32145960397E+03  0.17417036776E+04  0.90392902986E+03 0.  0.
        -24    2    4    4    0    0  0.79059991641E+03  0.49552528812E+03  0.46750558015E+03  0.10467359119E+04  0.80629168014E+02 0.  0.
         24    2    4    4    0    0  0.77426819941E+02  0.67050958164E+03 -0.14604597618E+03  0.69496776572E+03  0.77927894292E+02 0.  0.
         13    1    3    3    0    0 -0.68442143758E+03 -0.90174278447E+03 -0.33948167450E+02  0.11325746031E+04  0.00000000000E+00 0. -1.
        -13    1    3    3    0    0 -0.18360529878E+03 -0.26429208529E+03  0.36836413867E+02  0.32391068750E+03  0.00000000000E+00 0.  1.
          2    1    6    6  502    0  0.56774043144E+02  0.35866164727E+03 -0.11498172360E+03  0.38089666048E+03  0.00000000000E+00 0. -1.
          1    1    5    5  503    0  0.22885472103E+03  0.15963412462E+03  0.17865485889E+03  0.33132324954E+03  0.00000000000E+00 0. -1.
         -2    1    5    5    0  503  0.56174519538E+03  0.33589116351E+03  0.28885072126E+03  0.71541266233E+03  0.00000000000E+00 0.  1.
         -1    1    6    6    0  502  0.20652776797E+02  0.31184793437E+03 -0.31064252578E+02  0.31407110524E+03  0.00000000000E+00 0.  1.
<mgrwt>
<rscale>  0 0.31816994E+04</rscale>
<asrwt>0</asrwt>
<pdfrwt beam="1">  1        2 0.27096437E+00 0.31816994E+04</pdfrwt>
<pdfrwt beam="2">  1       -2 0.22106470E+00 0.31816994E+04</pdfrwt>
<totfact> 0.74415442E-01</totfact>
</mgrwt>
</event>
<event>
12    1  0.2671794E-007  0.2292146E+04  0.7818608E-02  0.8481024E-01
         -1   -1    0    0    0  501 -0.00000000000E+00  0.00000000000E+00  0.11842772612E+04  0.11842772612E+04  0.00000000000E+00 0.  1.
          1   -1    0    0  501    0  0.00000000000E+00 -0.00000000000E+00 -0.11091008382E+04  0.11091008382E+04  0.00000000000E+00 0. -1.
         23    2    1    2    0    0 -0.96155033870E+03 -0.82599798236E+02  0.79710734135E+02  0.97317563454E+03  0.96515459903E+02 0.  0.
        254    2    1    2    0    0  0.96155033870E+03  0.82599798236E+02 -0.45343111422E+01  0.13202024649E+04  0.90083972366E+03 0.  0.
        -24    2    4    4    0    0  0.25094159122E+03  0.11131400162E+03 -0.40839332556E+03  0.49854118230E+03  0.79973201336E+02 0.  0.
         24    2    4    4    0    0  0.71060874748E+03 -0.28714203387E+02  0.40385901441E+03  0.82166128256E+03  0.78967475947E+02 0.  0.
         13    1    3    3    0    0 -0.59839036059E+03 -0.44469226876E+01  0.52552538484E+02  0.60071005325E+03  0.00000000000E+00 0. -1.
        -13    1    3    3    0    0 -0.36315997811E+03 -0.78152875548E+02  0.27158195651E+02  0.37246558129E+03  0.00000000000E+00 0.  1.
          2    1    6    6  502    0  0.54407175749E+03 -0.53197178678E+02  0.32247898381E+03  0.63469418787E+03  0.00000000000E+00 0. -1.
          3    1    5    5  503    0  0.25586090893E+03  0.10905807901E+03 -0.38767194183E+03  0.47712472562E+03  0.00000000000E+00 0. -1.
         -4    1    5    5    0  503 -0.49193177024E+01  0.22559226126E+01 -0.20721383726E+02  0.21416456687E+02  0.00000000000E+00 0.  1.
         -1    1    6    6    0  502  0.16653698999E+03  0.24482975291E+02  0.81380030600E+02  0.18696709468E+03  0.00000000000E+00 0.  1.
<mgrwt>
<rscale>  0 0.22921456E+04</rscale>
<asrwt>0</asrwt>
<pdfrwt beam="1">  1        1 0.17063090E+00 0.22921456E+04</pdfrwt>
<pdfrwt beam="2">  1       -1 0.18219650E+00 0.22921456E+04</pdfrwt>
<totfact> 0.22656234E+00</totfact>
</mgrwt>
</event>
<event>
12    1  0.2214165E-007  0.1326529E+04  0.7818608E-02  0.9008788E-01
         -1   -1    0    0    0  501 -0.00000000000E+00  0.00000000000E+00  0.90107253488E+03  0.90107253488E+03  0.00000000000E+00 0.  1.
          1   -1    0    0  501    0  0.00000000000E+00 -0.00000000000E+00 -0.48821815028E+03  0.48821815028E+03  0.00000000000E+00 0. -1.
         23    2    1    2    0    0  0.23658401866E+03  0.25118021360E+03  0.14426964533E+03  0.38554998709E+03  0.93656630269E+02 0.  0.
        254    2    1    2    0    0 -0.23658401866E+03 -0.25118021360E+03  0.26858473928E+03  0.10037406981E+04  0.90348997183E+03 0.  0.
        -24    2    4    4    0    0 -0.19109568813E+03  0.10153841772E+03  0.51425499854E+03  0.56418071589E+03  0.83750011122E+02 0.  0.
         24    2    4    4    0    0 -0.45488330524E+02 -0.35271863132E+03 -0.24567025926E+03  0.43955998218E+03  0.79871650482E+02 0.  0.
         13    1    3    3    0    0  0.17151270827E+02  0.23506064496E+02 -0.13606580423E+02  0.32122269376E+02  0.00000000000E+00 0. -1.
        -13    1    3    3    0    0  0.21943274783E+03  0.22767414910E+03  0.15787622575E+03  0.35342771771E+03  0.00000000000E+00 0.  1.
          4    1    6    6  502    0 -0.68359551373E+02 -0.28184785496E+03 -0.19421474805E+03  0.34904241858E+03  0.00000000000E+00 0. -1.
          1    1    5    5  503    0 -0.92502404441E+02  0.64374631960E+02  0.36113507275E+03  0.37831115347E+03  0.00000000000E+00 0. -1.
         -2    1    5    5    0  503 -0.98593283693E+02  0.37163785764E+02  0.15311992579E+03  0.18586956242E+03  0.00000000000E+00 0.  1.
         -3    1    6    6    0  502  0.22871220848E+02 -0.70870776365E+02 -0.51455511209E+02  0.90517563596E+02  0.00000000000E+00 0.  1.
<mgrwt>
<rscale>  0 0.13265293E+04</rscale>
<asrwt>0</asrwt>
<pdfrwt beam="1">  1        1 0.75110485E-01 0.13265293E+04</pdfrwt>
<pdfrwt beam="2">  1       -1 0.13862654E+00 0.13265293E+04</pdfrwt>
<totfact> 0.19321872E+01</totfact>
</mgrwt>
</event>
<event>
12    1  0.2214165E-007  0.3953963E+04  0.7818608E-02  0.8013899E-01
          1   -1    0    0  501    0  0.00000000000E+00  0.00000000000E+00  0.30828169500E+04  0.30828169500E+04  0.00000000000E+00 0. -1.
         -1   -1    0    0    0  501 -0.00000000000E+00 -0.00000000000E+00 -0.12678197223E+04  0.12678197223E+04  0.00000000000E+00 0.  1.
         23    2    1    2    0    0  0.99676076964E+03  0.59887795930E+03 -0.75527086086E+03  0.13896213906E+04  0.91797025742E+02 0.  0.
        254    2    1    2    0    0 -0.99676076964E+03 -0.59887795930E+03  0.25702680886E+04  0.29610152816E+04  0.89952576895E+03 0.  0.
        -24    2    4    4    0    0 -0.58729779309E+03 -0.39522101768E+03  0.58421600270E+03  0.92143067423E+03  0.81288369467E+02 0.  0.
         24    2    4    4    0    0 -0.40946297655E+03 -0.20365694162E+03  0.19860520859E+04  0.20395846074E+04  0.79789748756E+02 0.  0.
         13    1    3    3    0    0  0.64712611377E+03  0.33700931389E+03 -0.47393285172E+03  0.87003438594E+03  0.00000000000E+00 0. -1.
        -13    1    3    3    0    0  0.34963465587E+03  0.26186864541E+03 -0.28133800914E+03  0.51958700467E+03  0.00000000000E+00 0.  1.
          2    1    6    6  502    0 -0.38118794929E+03 -0.17249504720E+03  0.18672183169E+04  0.19135211096E+04  0.00000000000E+00 0. -1.
          3    1    5    5  503    0 -0.43762254318E+03 -0.27365566783E+03  0.46511834803E+03  0.69479204983E+03  0.00000000000E+00 0. -1.
         -4    1    5    5    0  503 -0.14967524991E+03 -0.12156534985E+03  0.11909765467E+03  0.22663862440E+03  0.00000000000E+00 0.  1.
         -1    1    6    6    0  502 -0.28275027258E+02 -0.31161894421E+02  0.11883376897E+03  0.12606349780E+03  0.00000000000E+00 0.  1.
<mgrwt>
<rscale>  0 0.39539631E+04</rscale>
<asrwt>0</asrwt>
<pdfrwt beam="1">  1        1 0.47427953E+00 0.39539631E+04</pdfrwt>
<pdfrwt beam="2">  1       -1 0.19504919E+00 0.39539631E+04</pdfrwt>
<totfact> 0.66450022E-02</totfact>
</mgrwt>
</event>
<event>
12    1  0.2214165E-007  0.1414509E+04  0.7818608E-02  0.8943383E-01
         -2   -1    0    0    0  501 -0.00000000000E+00  0.00000000000E+00  0.23616233149E+03  0.23616233149E+03  0.00000000000E+00 0.  1.
          2   -1    0    0  501    0  0.00000000000E+00 -0.00000000000E+00 -0.21180714178E+04  0.21180714178E+04  0.00000000000E+00 0. -1.
         23    2    1    2    0    0  0.13485685600E+03 -0.38885221970E+03 -0.63688591496E+03  0.76406064364E+03  0.93662041995E+02 0.  0.
        254    2    1    2    0    0 -0.13485685600E+03  0.38885221970E+03 -0.12450231714E+04  0.15901731057E+04  0.89954176576E+03 0.  0.
        -24    2    4    4    0    0 -0.10159831639E+03  0.32201166930E+03 -0.13763375831E+04  0.14194790333E+04  0.81251772025E+02 0.  0.
         24    2    4    4    0    0 -0.33258539611E+02  0.66840550400E+02  0.13131441169E+03  0.17069407233E+03  0.79493408370E+02 0.  0.
         13    1    3    3    0    0  0.61767958923E+02 -0.26546951569E+03 -0.35271016124E+03  0.44575082989E+03  0.00000000000E+00 0.  1.
        -13    1    3    3    0    0  0.73088897078E+02 -0.12338270401E+03 -0.28417575372E+03  0.31830981375E+03  0.00000000000E+00 0. -1.
          4    1    6    6  502    0 -0.37433954512E+02  0.13744503503E+02  0.10283864675E+03  0.11029959017E+03  0.00000000000E+00 0. -1.
          1    1    5    5  503    0 -0.23355034912E+02  0.15958372955E+03 -0.52300502057E+03  0.54730857469E+03  0.00000000000E+00 0. -1.
         -2    1    5    5    0  503 -0.78243281479E+02  0.16242793975E+03 -0.85333256251E+03  0.87217045865E+03  0.00000000000E+00 0.  1.
         -3    1    6    6    0  502  0.41754149008E+01  0.53096046897E+02  0.28475764946E+02  0.60394482156E+02  0.00000000000E+00 0.  1.
<mgrwt>
<rscale>  0 0.14145087E+04</rscale>
<asrwt>0</asrwt>
<pdfrwt beam="1">  1        2 0.32585714E+00 0.14145087E+04</pdfrwt>
<pdfrwt beam="2">  1       -2 0.36332667E-01 0.14145087E+04</pdfrwt>
<totfact> 0.39838426E+01</totfact>
</mgrwt>
</event>
<event>
12    1  0.2214165E-007  0.1738824E+04  0.7818608E-02  0.8739526E-01
         -1   -1    0    0    0  501 -0.00000000000E+00  0.00000000000E+00  0.47383822978E+03  0.47383822978E+03  0.00000000000E+00 0.  1.
          1   -1    0    0  501    0  0.00000000000E+00 -0.00000000000E+00 -0.15952227196E+04  0.15952227196E+04  0.00000000000E+00 0. -1.
         23    2    1    2    0    0 -0.18599745154E+03  0.37415802685E+03 -0.97645197806E+03  0.10658349310E+04  0.89198394338E+02 0.  0.
        254    2    1    2    0    0  0.18599745154E+03 -0.37415802685E+03 -0.14493251175E+03  0.10032260184E+04  0.90048194320E+03 0.  0.
        -24    2    4    4    0    0  0.13629922431E+03 -0.66600367835E+03 -0.12534917364E+03  0.69583648614E+03  0.79609182837E+02 0.  0.
         24    2    4    4    0    0  0.49698227227E+02  0.29184565150E+03 -0.19583338112E+02  0.30738953227E+03  0.80380466065E+02 0.  0.
         11    1    3    3    0    0 -0.31509036015E+02  0.49853636153E+02 -0.23005380501E+03  0.23749306850E+03  0.00000000000E+00 0. -1.
        -11    1    3    3    0    0 -0.15448841552E+03  0.32430439069E+03 -0.74639817305E+03  0.82834186245E+03  0.00000000000E+00 0.  1.
          2    1    6    6  502    0  0.26572017801E+02  0.21118930504E+02  0.60244071794E+01  0.34472813020E+02  0.00000000000E+00 0. -1.
          1    1    5    5  503    0  0.62976052974E+02 -0.18398561422E+03 -0.62373039221E+02  0.20422312678E+03  0.00000000000E+00 0. -1.
         -2    1    5    5    0  503  0.73323171338E+02 -0.48201806413E+03 -0.62976134417E+02  0.49161335937E+03  0.00000000000E+00 0.  1.
         -1    1    6    6    0  502  0.23126209426E+02  0.27072672100E+03 -0.25607745291E+02  0.27291671925E+03  0.00000000000E+00 0.  1.
<mgrwt>
<rscale>  0 0.17388243E+04</rscale>
<asrwt>0</asrwt>
<pdfrwt beam="1">  1        1 0.24541888E+00 0.17388243E+04</pdfrwt>
<pdfrwt beam="2">  1       -1 0.72898189E-01 0.17388243E+04</pdfrwt>
<totfact> 0.10117083E+01</totfact>
</mgrwt>
</event>
<event>
12    1  0.2729087E-007  0.3191434E+04  0.7818608E-02  0.8191083E-01
          2   -1    0    0  501    0  0.00000000000E+00  0.00000000000E+00  0.12361756842E+04  0.12361756842E+04  0.00000000000E+00 0. -1.
         -2   -1    0    0    0  501 -0.00000000000E+00 -0.00000000000E+00 -0.20598302692E+04  0.20598302692E+04  0.00000000000E+00 0.  1.
         23    2    1    2    0    0  0.89475499024E+03  0.65699902859E+03  0.61215130959E+03  0.12709194657E+04  0.90955189187E+02 0.  0.
        254    2    1    2    0    0 -0.89475499024E+03 -0.65699902859E+03 -0.14358058946E+04  0.20250864877E+04  0.89844448868E+03 0.  0.
        -24    2    4    4    0    0 -0.86080028434E+03 -0.39715809724E+03 -0.55223160504E+03  0.10999873810E+04  0.79377635555E+02 0.  0.
         24    2    4    4    0    0 -0.33954705898E+02 -0.25984093135E+03 -0.88357428960E+03  0.92509910665E+03  0.80215959906E+02 0.  0.
         13    1    3    3    0    0  0.32868929410E+03  0.29654055627E+03  0.24475908723E+03  0.50584579108E+03  0.00000000000E+00 0. -1.
        -13    1    3    3    0    0  0.56606569614E+03  0.36045847232E+03  0.36739222236E+03  0.76507367467E+03  0.00000000000E+00 0.  1.
          4    1    6    6  502    0 -0.54306621375E+01 -0.17001957086E+03 -0.67698816808E+03  0.69803232468E+03  0.00000000000E+00 0. -1.
          3    1    5    5  503    0 -0.81368858829E+03 -0.38425221338E+03 -0.54066463708E+03  0.10497890893E+04  0.00000000000E+00 0. -1.
         -4    1    5    5    0  503 -0.47111696046E+02 -0.12905883861E+02 -0.11566967964E+02  0.50198291708E+02  0.00000000000E+00 0.  1.
         -3    1    6    6    0  502 -0.28524043761E+02 -0.89821360493E+02 -0.20658612152E+03  0.22706678198E+03  0.00000000000E+00 0.  1.
<mgrwt>
<rscale>  0 0.31914336E+04</rscale>
<asrwt>0</asrwt>
<pdfrwt beam="1">  1        2 0.19018088E+00 0.31914336E+04</pdfrwt>
<pdfrwt beam="2">  1       -2 0.31689696E+00 0.31914336E+04</pdfrwt>
<totfact> 0.37999597E-01</totfact>
</mgrwt>
</event>
<event>
12    1  0.2214165E-007  0.1719893E+04  0.7818608E-02  0.8750099E-01
          1   -1    0    0  501    0  0.00000000000E+00  0.00000000000E+00  0.20791017053E+04  0.20791017053E+04  0.00000000000E+00 0. -1.
         -1   -1    0    0    0  501 -0.00000000000E+00 -0.00000000000E+00 -0.35568642690E+03  0.35568642690E+03  0.00000000000E+00 0.  1.
         23    2    1    2    0    0  0.14763518545E+03  0.57922827199E+03  0.85752365959E+03  0.10489342349E+04  0.87262037785E+02 0.  0.
        254    2    1    2    0    0 -0.14763518545E+03 -0.57922827199E+03  0.86589161882E+03  0.13858538974E+04  0.90195409541E+03 0.  0.
        -24    2    4    4    0    0 -0.46942735847E+03 -0.36465122575E+03  0.77509373498E+03  0.98046600568E+03  0.84916011289E+02 0.  0.
         24    2    4    4    0    0  0.32179217302E+03 -0.21457704624E+03  0.90797883838E+02  0.40538789167E+03  0.80632348457E+02 0.  0.
         11    1    3    3    0    0  0.73038251855E+02  0.39788785724E+03  0.62849782441E+03  0.74743484563E+03  0.00000000000E+00 0. -1.
        -11    1    3    3    0    0  0.74596933594E+02  0.18134041475E+03  0.22902583518E+03  0.30149938922E+03  0.00000000000E+00 0.  1.
          4    1    6    6  502    0  0.11834083624E+03 -0.12583626597E+03  0.48631145551E+02  0.17945558691E+03  0.00000000000E+00 0. -1.
          3    1    5    5  503    0 -0.20226004160E+03 -0.10521953490E+03  0.30101143670E+03  0.37760847445E+03  0.00000000000E+00 0. -1.
         -4    1    5    5    0  503 -0.26716731687E+03 -0.25943169085E+03  0.47408229828E+03  0.60285753123E+03  0.00000000000E+00 0.  1.
         -3    1    6    6    0  502  0.20345133677E+03 -0.88740780275E+02  0.42166738287E+02  0.22593230476E+03  0.00000000000E+00 0.  1.
<mgrwt>
<rscale>  0 0.17198933E+04</rscale>
<asrwt>0</asrwt>
<pdfrwt beam="1">  1        1 0.31986179E+00 0.17198933E+04</pdfrwt>
<pdfrwt beam="2">  1       -1 0.54720990E-01 0.17198933E+04</pdfrwt>
<totfact> 0.84441245E+00</totfact>
</mgrwt>
</event>
<event>
12    1  0.2214165E-007  0.2485680E+04  0.7818608E-02  0.8408105E-01
          2   -1    0    0  501    0  0.00000000000E+00  0.00000000000E+00  0.24346688516E+04  0.24346688516E+04  0.00000000000E+00 0. -1.
         -2   -1    0    0    0  501 -0.00000000000E+00 -0.00000000000E+00 -0.63443980799E+03  0.63443980799E+03  0.00000000000E+00 0.  1.
         23    2    1    2    0    0  0.79287598364E+03 -0.53545513487E+03  0.13949084114E+04  0.16942415639E+04  0.96542600805E+02 0.  0.
        254    2    1    2    0    0 -0.79287598364E+03  0.53545513487E+03  0.40532063213E+03  0.13748670956E+04  0.90033893002E+03 0.  0.
        -24    2    4    4    0    0 -0.88752817732E+03  0.15375639513E+03  0.35146950166E+03  0.97021058911E+03  0.80190286388E+02 0.  0.
         24    2    4    4    0    0  0.94652193682E+02  0.38169873975E+03  0.53851130475E+02  0.40465650652E+03  0.78701831754E+02 0.  0.
         13    1    3    3    0    0  0.36861728042E+03 -0.20222829210E+03  0.56157277384E+03  0.70152616620E+03  0.00000000000E+00 0.  1.
        -13    1    3    3    0    0  0.42425870322E+03 -0.33322684277E+03  0.83333563761E+03  0.99271539774E+03  0.00000000000E+00 0. -1.
          2    1    6    6  502    0 -0.11281824460E+02  0.67748643588E+02 -0.16404536116E+01  0.68701159809E+02  0.00000000000E+00 0. -1.
          3    1    5    5  503    0 -0.59963268784E+01 -0.48899742039E+01  0.73958041658E+01  0.10703536939E+02  0.00000000000E+00 0. -1.
         -4    1    5    5    0  503 -0.88153185045E+03  0.15864636933E+03  0.34407369749E+03  0.95950705217E+03  0.00000000000E+00 0.  1.
         -1    1    6    6    0  502  0.10593401814E+03  0.31395009616E+03  0.55491584087E+02  0.33595534671E+03  0.00000000000E+00 0.  1.
<mgrwt>
<rscale>  0 0.24856797E+04</rscale>
<asrwt>0</asrwt>
<pdfrwt beam="1">  1        2 0.37456443E+00 0.24856797E+04</pdfrwt>
<pdfrwt beam="2">  1       -2 0.97606126E-01 0.24856797E+04</pdfrwt>
<totfact> 0.29651896E+00</totfact>
</mgrwt>
</event>
<event>
12    1  0.2214165E-007  0.1431214E+04  0.7818608E-02  0.8931529E-01
          2   -1    0    0  501    0  0.00000000000E+00  0.00000000000E+00  0.42358945667E+04  0.42358945667E+04  0.00000000000E+00 0. -1.
         -2   -1    0    0    0  501 -0.00000000000E+00 -0.00000000000E+00 -0.12089373644E+03  0.12089373644E+03  0.00000000000E+00 0.  1.
         23    2    1    2    0    0  0.35046160843E+03 -0.23947192249E+03  0.13373961228E+04  0.14061328930E+04  0.91712501514E+02 0.  0.
        254    2    1    2    0    0 -0.35046160843E+03  0.23947192249E+03  0.27776047075E+04  0.29506554102E+04  0.90061606564E+03 0.  0.
        -24    2    4    4    0    0  0.18281188819E+03  0.36733229423E+03  0.15186430594E+04  0.15751182534E+04  0.79797051387E+02 0.  0.
         24    2    4    4    0    0 -0.53327349662E+03 -0.12786037175E+03  0.12589616481E+04  0.13755371568E+04  0.79932105055E+02 0.  0.
         11    1    3    3    0    0  0.17822460760E+03 -0.15938285839E+03  0.63552205131E+03  0.67901044469E+03  0.00000000000E+00 0.  1.
        -11    1    3    3    0    0  0.17223700083E+03 -0.80089064101E+02  0.70187407149E+03  0.72712244833E+03  0.00000000000E+00 0. -1.
          4    1    6    6  502    0 -0.65957953037E+02 -0.22669644054E+01  0.10239222329E+03  0.12181854574E+03  0.00000000000E+00 0. -1.
          1    1    5    5  503    0  0.22854794302E+02  0.13018164976E+02  0.15204819156E+03  0.15430640557E+03  0.00000000000E+00 0. -1.
         -2    1    5    5    0  503  0.15995709389E+03  0.35431412926E+03  0.13665948678E+04  0.14208118478E+04  0.00000000000E+00 0.  1.
         -3    1    6    6    0  502 -0.46731554358E+03 -0.12559340734E+03  0.11565694248E+04  0.12537186111E+04  0.00000000000E+00 0.  1.
<mgrwt>
<rscale>  0 0.14312136E+04</rscale>
<asrwt>0</asrwt>
<pdfrwt beam="1">  1        2 0.65167597E+00 0.14312136E+04</pdfrwt>
<pdfrwt beam="2">  1       -2 0.18599040E-01 0.14312136E+04</pdfrwt>
<totfact> 0.52678382E+00</totfact>
</mgrwt>
</event>
<event>
12    1  0.2214165E-007  0.4570932E+04  0.7818608E-02  0.7898335E-01
          2   -1    0    0  501    0  0.00000000000E+00  0.00000000000E+00  0.33326122598E+04  0.33326122598E+04  0.00000000000E+00 0. -1.
         -2   -1    0    0    0  501 -0.00000000000E+00 -0.00000000000E+00 -0.15673456826E+04  0.15673456826E+04  0.00000000000E+00 0.  1.
         23    2    1    2    0    0  0.85729533224E+03  0.16670992655E+04  0.20742843739E+04  0.27973634023E+04  0.91712013484E+02 0.  0.
        254    2    1    2    0    0 -0.85729533224E+03 -0.16670992655E+04 -0.30901779663E+03  0.21025945400E+04  0.90068671220E+03 0.  0.
        -24    2    4    4    0    0 -0.52896863739E+03 -0.33291849162E+03  0.15688245740E+03  0.64927413311E+03  0.79386731105E+02 0.  0.
         24    2    4    4    0    0 -0.32832669484E+03 -0.13341807739E+04 -0.46590025403E+03  0.14533204069E+04  0.85090555388E+02 0.  0.
         13    1    3    3    0    0  0.29101492881E+03  0.64386631531E+03  0.74191887489E+03  0.10245472843E+04  0.00000000000E+00 0. -1.
        -13    1    3    3    0    0  0.56628040343E+03  0.10232329502E+04  0.13323654990E+04  0.17728161181E+04  0.00000000000E+00 0.  1.
          4    1    6    6  502    0 -0.32342720053E+03 -0.13088959030E+04 -0.44392958603E+03  0.14194671945E+04  0.00000000000E+00 0. -1.
          1    1    5    5  503    0 -0.48825535275E+03 -0.30203702612E+03  0.12073904272E+03  0.58668353571E+03  0.00000000000E+00 0. -1.
         -2    1    5    5    0  503 -0.40713284646E+02 -0.30881465508E+02  0.36143414683E+02  0.62590597405E+02  0.00000000000E+00 0.  1.
         -3    1    6    6    0  502 -0.48994943140E+01 -0.25284870849E+02 -0.21970667999E+02  0.33853212413E+02  0.00000000000E+00 0.  1.
<mgrwt>
<rscale>  0 0.45709323E+04</rscale>
<asrwt>0</asrwt>
<pdfrwt beam="1">  1        2 0.51270958E+00 0.45709323E+04</pdfrwt>
<pdfrwt beam="2">  1       -2 0.24113010E+00 0.45709323E+04</pdfrwt>
<totfact> 0.58086405E-02</totfact>
</mgrwt>
</event>
<event>
12    1  0.2214165E-007  0.1546829E+04  0.7818608E-02  0.8853896E-01
          4   -1    0    0  501    0  0.00000000000E+00  0.00000000000E+00  0.20116999569E+04  0.20116999569E+04  0.00000000000E+00 0. -1.
         -4   -1    0    0    0  501 -0.00000000000E+00 -0.00000000000E+00 -0.29734541544E+03  0.29734541544E+03  0.00000000000E+00 0.  1.
         23    2    1    2    0    0  0.41499620555E+03 -0.15821302281E+01  0.99083140252E+03  0.10794275102E+04  0.10579474401E+03 0.  0.
        254    2    1    2    0    0 -0.41499620555E+03  0.15821302281E+01  0.72352313897E+03  0.12296178621E+04  0.90346555025E+03 0.  0.
        -24    2    4    4    0    0  0.74759838955E+02 -0.92013146590E+02  0.70983009010E+03  0.72457159552E+03  0.84200876266E+02 0.  0.
         24    2    4    4    0    0 -0.48975604451E+03  0.93595276818E+02  0.13693048872E+02  0.50504626661E+03  0.79140210078E+02 0.  0.
         13    1    3    3    0    0  0.14192547680E+03  0.21769125275E+02  0.46198339262E+03  0.48378237963E+03  0.00000000000E+00 0. -1.
        -13    1    3    3    0    0  0.27307072876E+03 -0.23351255503E+02  0.52884800990E+03  0.59564513060E+03  0.00000000000E+00 0.  1.
          2    1    6    6  502    0 -0.24147731758E+03  0.92767079239E+01 -0.92984448298E+01  0.24183426823E+03  0.00000000000E+00 0. -1.
          3    1    5    5  503    0  0.24161523103E+02 -0.18831646587E+02  0.42654778624E+03  0.42764637734E+03  0.00000000000E+00 0. -1.
         -4    1    5    5    0  503  0.50598315852E+02 -0.73181500003E+02  0.28328230386E+03  0.29692521818E+03  0.00000000000E+00 0.  1.
         -1    1    6    6    0  502 -0.24827872693E+03  0.84318568894E+02  0.22991493702E+02  0.26321199838E+03  0.00000000000E+00 0.  1.
<mgrwt>
<rscale>  0 0.15468287E+04</rscale>
<asrwt>0</asrwt>
<pdfrwt beam="1">  1        4 0.30949229E+00 0.15468287E+04</pdfrwt>
<pdfrwt beam="2">  1       -4 0.45745450E-01 0.15468287E+04</pdfrwt>
<totfact> 0.24227927E-01</totfact>
</mgrwt>
</event>
<event>
12    1  0.2214165E-007  0.1720268E+04  0.7818608E-02  0.8749889E-01
         -1   -1    0    0    0  501 -0.00000000000E+00  0.00000000000E+00  0.38415271757E+03  0.38415271757E+03  0.00000000000E+00 0.  1.
          1   -1    0    0  501    0  0.00000000000E+00 -0.00000000000E+00 -0.19258754157E+04  0.19258754157E+04  0.00000000000E+00 0. -1.
         23    2    1    2    0    0 -0.36336747928E+03 -0.40074160069E+03 -0.97024705939E+03  0.11147303818E+04  0.92815474390E+02 0.  0.
        254    2    1    2    0    0  0.36336747928E+03  0.40074160069E+03 -0.57147563872E+03  0.11952977515E+04  0.89973471284E+03 0.  0.
        -24    2    4    4    0    0  0.85436077045E+02  0.64851965111E+03 -0.28199663979E+03  0.71698618328E+03  0.81670196619E+02 0.  0.
         24    2    4    4    0    0  0.27793140224E+03 -0.24777805042E+03 -0.28947899892E+03  0.47831156819E+03  0.79649474715E+02 0.  0.
         13    1    3    3    0    0 -0.24786236792E+03 -0.32214726111E+03 -0.76785520671E+03  0.86880160551E+03  0.00000000000E+00 0. -1.
        -13    1    3    3    0    0 -0.11550511137E+03 -0.78594339583E+02 -0.20239185269E+03  0.24592877627E+03  0.00000000000E+00 0.  1.
          4    1    6    6  502    0  0.23108486709E+03 -0.21729306929E+03 -0.20731988897E+03  0.37894330727E+03  0.00000000000E+00 0. -1.
          1    1    5    5  503    0  0.55488654402E+02  0.32747360242E+03 -0.18542579145E+03  0.38039541951E+03  0.00000000000E+00 0. -1.
         -2    1    5    5    0  503  0.29947422643E+02  0.32104604869E+03 -0.96570848343E+02  0.33659076376E+03  0.00000000000E+00 0.  1.
         -3    1    6    6    0  502  0.46846535153E+02 -0.30484981130E+02 -0.82159109953E+02  0.99368260922E+02  0.00000000000E+00 0.  1.
<mgrwt>
<rscale>  0 0.17202677E+04</rscale>
<asrwt>0</asrwt>
<pdfrwt beam="1">  1        1 0.29628853E+00 0.17202677E+04</pdfrwt>
<pdfrwt beam="2">  1       -1 0.59100417E-01 0.17202677E+04</pdfrwt>
<totfact> 0.92258970E+00</totfact>
</mgrwt>
</event>
<event>
12    1  0.2214165E-007  0.2070397E+04  0.7818608E-02  0.8574397E-01
         -2   -1    0    0    0  501 -0.00000000000E+00  0.00000000000E+00  0.15018759055E+04  0.15018759055E+04  0.00000000000E+00 0. -1.
          2   -1    0    0  501    0  0.00000000000E+00 -0.00000000000E+00 -0.71353168724E+03  0.71353168724E+03  0.00000000000E+00 0.  1.
         23    2    1    2    0    0  0.18421472858E+03 -0.49762591455E+03 -0.37147343353E+03  0.65439776729E+03  0.93152074387E+02 0.  0.
        254    2    1    2    0    0 -0.18421472858E+03  0.49762591455E+03  0.11598176518E+04  0.15610098255E+04  0.90000448482E+03 0.  0.
        -24    2    4    4    0    0  0.18433010644E+03  0.61514031723E+03  0.77549509229E+03  0.10099942736E+04  0.79502179661E+02 0.  0.
         24    2    4    4    0    0 -0.36854483502E+03 -0.11751440268E+03  0.38432255951E+03  0.55101555183E+03  0.79242528702E+02 0.  0.
         13    1    3    3    0    0  0.52979595590E+02 -0.24284829866E+03 -0.21033912843E+03  0.32561431582E+03  0.00000000000E+00 0.  1.
        -13    1    3    3    0    0  0.13123513299E+03 -0.25477761588E+03 -0.16113430510E+03  0.32878345148E+03  0.00000000000E+00 0. -1.
          2    1    6    6  502    0 -0.20626952145E+03 -0.39990163457E+02  0.24988114189E+03  0.32647651328E+03  0.00000000000E+00 0. -1.
          3    1    5    5  503    0  0.88878111964E+02  0.17130685384E+03  0.22345730426E+03  0.29526009514E+03  0.00000000000E+00 0. -1.
         -4    1    5    5    0  503  0.95451994474E+02  0.44383346339E+03  0.55203778803E+03  0.71473417848E+03  0.00000000000E+00 0.  1.
         -1    1    6    6    0  502 -0.16227531357E+03 -0.77524239223E+02  0.13444141762E+03  0.22453903855E+03  0.00000000000E+00 0.  1.
<mgrwt>
<rscale>  0 0.20703971E+04</rscale>
<asrwt>0</asrwt>
<pdfrwt beam="1">  1        2 0.10977411E+00 0.20703971E+04</pdfrwt>
<pdfrwt beam="2">  1       -2 0.23105783E+00 0.20703971E+04</pdfrwt>
<totfact> 0.31091327E+00</totfact>
</mgrwt>
</event>
<event>
12    1  0.2214165E-007  0.1298493E+04  0.7818608E-02  0.9030761E-01
          2   -1    0    0  501    0  0.00000000000E+00  0.00000000000E+00  0.79989899172E+03  0.79989899172E+03  0.00000000000E+00 0. -1.
         -2   -1    0    0    0  501 -0.00000000000E+00 -0.00000000000E+00 -0.52696787653E+03  0.52696787653E+03  0.00000000000E+00 0.  1.
         23    2    1    2    0    0  0.29135168429E+03  0.29923572379E+02 -0.75557045015E+02  0.31637394218E+03  0.92749016786E+02 0.  0.
        254    2    1    2    0    0 -0.29135168429E+03 -0.29923572379E+02  0.34848816020E+03  0.10104929261E+04  0.90214784360E+03 0.  0.
        -24    2    4    4    0    0 -0.39472614009E+03 -0.38713487513E+03  0.13800136266E+03  0.57563044646E+03  0.81387330614E+02 0.  0.
         24    2    4    4    0    0  0.10337445579E+03  0.35721130275E+03  0.21048679755E+03  0.43486247961E+03  0.80712398738E+02 0.  0.
         13    1    3    3    0    0  0.17719434575E+03  0.63091003573E+02 -0.52498099096E+02  0.19528021227E+03  0.00000000000E+00 0. -1.
        -13    1    3    3    0    0  0.11415733855E+03 -0.33167431194E+02 -0.23058945919E+02  0.12109372991E+03  0.00000000000E+00 0.  1.
          4    1    6    6  502    0  0.18865440488E+02  0.20951205538E+03  0.11625338725E+03  0.24034570152E+03  0.00000000000E+00 0. -1.
          3    1    5    5  503    0 -0.23807290648E+03 -0.28627909643E+03  0.84789700471E+02  0.38186872503E+03  0.00000000000E+00 0. -1.
         -4    1    5    5    0  503 -0.15665323361E+03 -0.10085577870E+03  0.53211662186E+02  0.19376172143E+03  0.00000000000E+00 0.  1.
         -3    1    6    6    0  502  0.84509015306E+02  0.14769924738E+03  0.94233410298E+02  0.19451677809E+03  0.00000000000E+00 0.  1.
<mgrwt>
<rscale>  0 0.12984931E+04</rscale>
<asrwt>0</asrwt>
<pdfrwt beam="1">  1        2 0.12306138E+00 0.12984931E+04</pdfrwt>
<pdfrwt beam="2">  1       -2 0.81071981E-01 0.12984931E+04</pdfrwt>
<totfact> 0.45322254E+01</totfact>
</mgrwt>
</event>
<event>
12    1  0.2214165E-007  0.1757962E+04  0.7818608E-02  0.8728980E-01
          2   -1    0    0  501    0  0.00000000000E+00  0.00000000000E+00  0.22815173906E+04  0.22815173906E+04  0.00000000000E+00 0.  1.
         -2   -1    0    0    0  501 -0.00000000000E+00 -0.00000000000E+00 -0.33863757159E+03  0.33863757159E+03  0.00000000000E+00 0. -1.
         23    2    1    2    0    0  0.33169140348E+03  0.50850849181E+03  0.10497415716E+04  0.12160575515E+04  0.90766337405E+02 0.  0.
        254    2    1    2    0    0 -0.33169140348E+03 -0.50850849181E+03  0.89313824739E+03  0.14040974107E+04  0.89732576935E+03 0.  0.
        -24    2    4    4    0    0  0.28305279223E+03 -0.15139803464E+03  0.12127510324E+03  0.35224862143E+03  0.79568791312E+02 0.  0.
         24    2    4    4    0    0 -0.61474419571E+03 -0.35711045717E+03  0.77186314415E+03  0.10518487892E+04  0.71936481450E+02 0.  0.
         11    1    3    3    0    0  0.10512418411E+03  0.15682366860E+03  0.41399978522E+03  0.45501711977E+03  0.00000000000E+00 0.  1.
        -11    1    3    3    0    0  0.22656721937E+03  0.35168482322E+03  0.63574178641E+03  0.76104043176E+03  0.00000000000E+00 0. -1.
          2    1    6    6  502    0 -0.39175758826E+03 -0.26482262257E+03  0.49483756175E+03  0.68444812945E+03  0.00000000000E+00 0. -1.
          3    1    5    5  503    0  0.26086244510E+03 -0.10989490240E+03  0.96497336640E+02  0.29906160037E+03  0.00000000000E+00 0. -1.
         -4    1    5    5    0  503  0.22190347130E+02 -0.41503132240E+02  0.24777766603E+02  0.53187021061E+02  0.00000000000E+00 0.  1.
         -1    1    6    6    0  502 -0.22298660745E+03 -0.92287834595E+02  0.27702558239E+03  0.36740065980E+03  0.00000000000E+00 0.  1.
<mgrwt>
<rscale>  0 0.17579619E+04</rscale>
<asrwt>0</asrwt>
<pdfrwt beam="1">  1        2 0.35100267E+00 0.17579619E+04</pdfrwt>
<pdfrwt beam="2">  1       -2 0.52098089E-01 0.17579619E+04</pdfrwt>
<totfact> 0.15310838E+01</totfact>
</mgrwt>
</event>
<event>
12    1  0.2214165E-007  0.1290880E+04  0.7818608E-02  0.9036829E-01
          1   -1    0    0  501    0  0.00000000000E+00  0.00000000000E+00  0.11262268115E+04  0.11262268115E+04  0.00000000000E+00 0. -1.
         -1   -1    0    0    0  501 -0.00000000000E+00 -0.00000000000E+00 -0.36990105334E+03  0.36990105334E+03  0.00000000000E+00 0.  1.
         23    2    1    2    0    0 -0.83844479872E+00 -0.32291173855E+03  0.19666189408E+03  0.38898323532E+03  0.91429551528E+02 0.  0.
        254    2    1    2    0    0  0.83844479872E+00  0.32291173855E+03  0.55966386410E+03  0.11071446295E+04  0.89903998580E+03 0.  0.
        -24    2    4    4    0    0 -0.30185774086E+03  0.43123248065E+03  0.10081892445E+03  0.54142884004E+03  0.76819172198E+02 0.  0.
         24    2    4    4    0    0  0.30269618566E+03 -0.10832074210E+03  0.45884493966E+03  0.56571578951E+03  0.78340997365E+02 0.  0.
         13    1    3    3    0    0  0.30212910464E+02 -0.60168773976E+02  0.17854059207E+02  0.69655356941E+02  0.00000000000E+00 0.  1.
        -13    1    3    3    0    0 -0.31051355263E+02 -0.26274296457E+03  0.17880783487E+03  0.31932787838E+03  0.00000000000E+00 0. -1.
          2    1    6    6  502    0  0.18786329681E+03 -0.50234317918E+02  0.21431507742E+03  0.28939083848E+03  0.00000000000E+00 0. -1.
          3    1    5    5  503    0 -0.15939709831E+03  0.16169306805E+03  0.39870098015E+02  0.23052485316E+03  0.00000000000E+00 0. -1.
         -4    1    5    5    0  503 -0.14246064255E+03  0.26953941259E+03  0.60948826432E+02  0.31090398688E+03  0.00000000000E+00 0.  1.
         -1    1    6    6    0  502  0.11483288884E+03 -0.58086424182E+02  0.24452986224E+03  0.27632495103E+03  0.00000000000E+00 0.  1.
<mgrwt>
<rscale>  0 0.12908795E+04</rscale>
<asrwt>0</asrwt>
<pdfrwt beam="1">  1        1 0.17326566E+00 0.12908795E+04</pdfrwt>
<pdfrwt beam="2">  1       -1 0.56907855E-01 0.12908795E+04</pdfrwt>
<totfact> 0.37237515E+01</totfact>
</mgrwt>
</event>
<event>
12    1  0.2214165E-007  0.2209967E+04  0.7818608E-02  0.8514291E-01
         -2   -1    0    0    0  501 -0.00000000000E+00  0.00000000000E+00  0.93959837274E+03  0.93959837274E+03  0.00000000000E+00 0.  1.
          2   -1    0    0  501    0  0.00000000000E+00 -0.00000000000E+00 -0.12994792816E+04  0.12994792816E+04  0.00000000000E+00 0. -1.
         23    2    1    2    0    0 -0.45448329542E+03  0.59094388367E+03 -0.69487904066E+03  0.10228746348E+04  0.87440825452E+02 0.  0.
        254    2    1    2    0    0  0.45448329542E+03 -0.59094388367E+03  0.33499813183E+03  0.12162030195E+04  0.90064215800E+03 0.  0.
        -24    2    4    4    0    0  0.14809558479E+03  0.90603356434E+02 -0.21274661946E+03  0.28596359143E+03  0.79829700606E+02 0.  0.
         24    2    4    4    0    0  0.30638771064E+03 -0.68154724010E+03  0.54774475129E+03  0.93023942804E+03  0.83312731291E+02 0.  0.
         11    1    3    3    0    0 -0.33564286260E+03  0.45412832857E+03 -0.57288305637E+03  0.80441510820E+03  0.00000000000E+00 0. -1.
        -11    1    3    3    0    0 -0.11884043282E+03  0.13681555510E+03 -0.12199598429E+03  0.21845952663E+03  0.00000000000E+00 0.  1.
          2    1    6    6  502    0  0.71527846005E+02 -0.17170598758E+03  0.93787625392E+02  0.20831538013E+03  0.00000000000E+00 0. -1.
          1    1    5    5  503    0  0.13293211622E+03  0.95134272869E+02 -0.21488427937E+03  0.26999394608E+03  0.00000000000E+00 0. -1.
         -2    1    5    5    0  503  0.15163468569E+02 -0.45309164353E+01  0.21376599086E+01  0.15969645352E+02  0.00000000000E+00 0.  1.
         -1    1    6    6    0  502  0.23485986463E+03 -0.50984125253E+03  0.45395712590E+03  0.72192404791E+03  0.00000000000E+00 0.  1.
<mgrwt>
<rscale>  0 0.22099671E+04</rscale>
<asrwt>0</asrwt>
<pdfrwt beam="1">  1        2 0.19991989E+00 0.22099671E+04</pdfrwt>
<pdfrwt beam="2">  1       -2 0.14455360E+00 0.22099671E+04</pdfrwt>
<totfact> 0.49917356E+00</totfact>
</mgrwt>
</event>
<event>
12    1  0.2214165E-007  0.1805124E+04  0.7818608E-02  0.8703580E-01
          2   -1    0    0  501    0  0.00000000000E+00  0.00000000000E+00  0.12806352457E+04  0.12806352457E+04  0.00000000000E+00 0.  1.
         -2   -1    0    0    0  501 -0.00000000000E+00 -0.00000000000E+00 -0.63610442983E+03  0.63610442983E+03  0.00000000000E+00 0. -1.
         23    2    1    2    0    0  0.19365614579E+03 -0.37546664212E+03  0.80125794832E+03  0.91041318755E+03  0.91432872489E+02 0.  0.
        254    2    1    2    0    0 -0.19365614579E+03  0.37546664212E+03 -0.15672713245E+03  0.10063264880E+04  0.89980648155E+03 0.  0.
        -24    2    4    4    0    0 -0.11117158107E+03  0.66445361577E+03 -0.14801664644E+03  0.69459271495E+03  0.81806992943E+02 0.  0.
         24    2    4    4    0    0 -0.82484564721E+02 -0.28898697366E+03 -0.87104860059E+01  0.31173377303E+03  0.82370494255E+02 0.  0.
         11    1    3    3    0    0  0.13979820284E+03 -0.33095712429E+03  0.70739577666E+03  0.79340086997E+03  0.00000000000E+00 0. -1.
        -11    1    3    3    0    0  0.53857942950E+02 -0.44509517827E+02  0.93862171664E+02  0.11701231758E+03  0.00000000000E+00 0.  1.
          4    1    6    6  502    0 -0.30594317927E+02 -0.23197686524E+03  0.13596789519E+01  0.23398958743E+03  0.00000000000E+00 0. -1.
          3    1    5    5  503    0 -0.10325033555E+03  0.39769981131E+03 -0.72386735378E+02  0.41721171025E+03  0.00000000000E+00 0. -1.
         -4    1    5    5    0  503 -0.79212455137E+01  0.26675380446E+03 -0.75629911064E+02  0.27738100471E+03  0.00000000000E+00 0.  1.
         -3    1    6    6    0  502 -0.51890246794E+02 -0.57010108415E+02 -0.10070164958E+02  0.77744185609E+02  0.00000000000E+00 0.  1.
<mgrwt>
<rscale>  0 0.18051235E+04</rscale>
<asrwt>0</asrwt>
<pdfrwt beam="1">  1        2 0.19702081E+00 0.18051235E+04</pdfrwt>
<pdfrwt beam="2">  1       -2 0.97862220E-01 0.18051235E+04</pdfrwt>
<totfact> 0.13921718E+01</totfact>
</mgrwt>
</event>
<event>
12    1  0.2214165E-007  0.3502089E+04  0.7818608E-02  0.8113295E-01
         -2   -1    0    0    0  501 -0.00000000000E+00  0.00000000000E+00  0.89478457079E+03  0.89478457079E+03  0.00000000000E+00 0.  1.
          2   -1    0    0  501    0  0.00000000000E+00 -0.00000000000E+00 -0.34266988777E+04  0.34266988777E+04  0.00000000000E+00 0. -1.
         23    2    1    2    0    0 -0.95623967290E+03  0.12273667387E+04 -0.56769991952E+03  0.16587262067E+04  0.90917583190E+02 0.  0.
        254    2    1    2    0    0  0.95623967290E+03 -0.12273667387E+04 -0.19642143873E+04  0.26627572417E+04  0.90073000703E+03 0.  0.
        -24    2    4    4    0    0  0.79311868455E+03 -0.73998368999E+03 -0.18248871531E+04  0.21243553931E+04  0.77843467159E+02 0.  0.
         24    2    4    4    0    0  0.16312098835E+03 -0.48738304873E+03 -0.13932723427E+03  0.53840184865E+03  0.79459293905E+02 0.  0.
         11    1    3    3    0    0 -0.88789613501E+02  0.88120785231E+02 -0.25911564275E+02  0.12775084117E+03  0.00000000000E+00 0.  1.
        -11    1    3    3    0    0 -0.86745005939E+03  0.11392459535E+04 -0.54178835525E+03  0.15309753656E+04  0.00000000000E+00 0. -1.
          2    1    6    6  502    0  0.28015304554E+02 -0.20207124330E+03 -0.64683754192E+02  0.21401316014E+03  0.00000000000E+00 0. -1.
          3    1    5    5  503    0  0.40295978025E+03 -0.32939011153E+03 -0.83723848022E+03  0.98582082694E+03  0.00000000000E+00 0. -1.
         -4    1    5    5    0  503  0.39015890430E+03 -0.41059357846E+03 -0.98764867286E+03  0.11385345661E+04  0.00000000000E+00 0.  1.
         -1    1    6    6    0  502  0.13510568379E+03 -0.28531180544E+03 -0.74643480074E+02  0.32438868851E+03  0.00000000000E+00 0.  1.
<mgrwt>
<rscale>  0 0.35020893E+04</rscale>
<asrwt>0</asrwt>
<pdfrwt beam="1">  1        2 0.52718444E+00 0.35020893E+04</pdfrwt>
<pdfrwt beam="2">  1       -2 0.13765917E+00 0.35020893E+04</pdfrwt>
<totfact> 0.28136382E-01</totfact>
</mgrwt>
</event>
<event>
12    1  0.2214165E-007  0.2133657E+04  0.7818608E-02  0.8546561E-01
         -1   -1    0    0    0  501 -0.00000000000E+00  0.00000000000E+00  0.92645882351E+03  0.92645882351E+03  0.00000000000E+00 0.  1.
          1   -1    0    0  501    0  0.00000000000E+00 -0.00000000000E+00 -0.12284656348E+04  0.12284656348E+04  0.00000000000E+00 0. -1.
         23    2    1    2    0    0  0.37059877814E+03  0.79168420232E+03 -0.11510136685E+03  0.88643898546E+03  0.91751946738E+02 0.  0.
        254    2    1    2    0    0 -0.37059877814E+03 -0.79168420232E+03 -0.18690544443E+03  0.12684854728E+04  0.90000801056E+03 0.  0.
        -24    2    4    4    0    0  0.22242990027E+03 -0.30676116730E+03  0.16586900327E+03  0.42130156712E+03  0.80031305859E+02 0.  0.
         24    2    4    4    0    0 -0.59302867841E+03 -0.48492303502E+03 -0.35277444770E+03  0.84718390571E+03  0.80233383553E+02 0.  0.
         13    1    3    3    0    0  0.23684241839E+03  0.42786506252E+03 -0.95754036869E+02  0.49832888583E+03  0.00000000000E+00 0. -1.
        -13    1    3    3    0    0  0.13375635975E+03  0.36381913981E+03 -0.19347329986E+02  0.38811009964E+03  0.00000000000E+00 0.  1.
          2    1    6    6  502    0 -0.25159917155E+03 -0.21813055216E+03 -0.19598865722E+03  0.38638663883E+03  0.00000000000E+00 0. -1.
          1    1    5    5  503    0  0.10323396329E+03 -0.17828160928E+03  0.12625754069E+03  0.24162481240E+03  0.00000000000E+00 0. -1.
         -2    1    5    5    0  503  0.11919593699E+03 -0.12847955801E+03  0.39611462579E+02  0.17967675473E+03  0.00000000000E+00 0.  1.
         -1    1    6    6    0  502 -0.34142950686E+03 -0.26679248286E+03 -0.15678579048E+03  0.46079726688E+03  0.00000000000E+00 0.  1.
<mgrwt>
<rscale>  0 0.21336568E+04</rscale>
<asrwt>0</asrwt>
<pdfrwt beam="1">  1        1 0.18899471E+00 0.21336568E+04</pdfrwt>
<pdfrwt beam="2">  1       -1 0.14253213E+00 0.21336568E+04</pdfrwt>
<totfact> 0.37354697E+00</totfact>
</mgrwt>
</event>
<event>
12    1  0.2214165E-007  0.2654077E+04  0.7818608E-02  0.8350061E-01
          1   -1    0    0  501    0  0.00000000000E+00  0.00000000000E+00  0.13402290656E+04  0.13402290656E+04  0.00000000000E+00 0. -1.
         -1   -1    0    0    0  501 -0.00000000000E+00 -0.00000000000E+00 -0.13139778532E+04  0.13139778532E+04  0.00000000000E+00 0.  1.
         23    2    1    2    0    0 -0.35409831091E+03  0.10468667368E+04 -0.37868775382E+03  0.11721930113E+04  0.96521823712E+02 0.  0.
        254    2    1    2    0    0  0.35409831091E+03 -0.10468667368E+04  0.40493896620E+03  0.14820139076E+04  0.90059651204E+03 0.  0.
        -24    2    4    4    0    0  0.24570824253E+03 -0.11947546660E+04  0.38446198155E+03  0.12813669020E+04  0.79239319969E+02 0.  0.
         24    2    4    4    0    0  0.10839006838E+03  0.14788792922E+03  0.20476984658E+02  0.20064700561E+03  0.78871207839E+02 0.  0.
         13    1    3    3    0    0 -0.10408446440E+03  0.37359447420E+03 -0.89856974397E+02  0.39809632343E+03  0.00000000000E+00 0.  1.
        -13    1    3    3    0    0 -0.25001384651E+03  0.67327226256E+03 -0.28883077942E+03  0.77409668784E+03  0.00000000000E+00 0. -1.
          4    1    6    6  502    0  0.68247693121E+02  0.35163519986E+02 -0.93108201200E+01  0.77336357074E+02  0.00000000000E+00 0. -1.
          1    1    5    5  503    0  0.72090953479E+02 -0.45911470332E+03  0.17970142153E+03  0.49827303487E+03  0.00000000000E+00 0. -1.
         -2    1    5    5    0  503  0.17361728905E+03 -0.73563996266E+03  0.20476056001E+03  0.78309386708E+03  0.00000000000E+00 0.  1.
         -3    1    6    6    0  502  0.40142375262E+02  0.11272440923E+03  0.29787804778E+02  0.12331064853E+03  0.00000000000E+00 0.  1.
<mgrwt>
<rscale>  0 0.26540771E+04</rscale>
<asrwt>0</asrwt>
<pdfrwt beam="1">  1        1 0.20618909E+00 0.26540771E+04</pdfrwt>
<pdfrwt beam="2">  1       -1 0.20215044E+00 0.26540771E+04</pdfrwt>
<totfact> 0.10797336E+00</totfact>
</mgrwt>
</event>
<event>
12    1  0.2214165E-007  0.1567524E+04  0.7818608E-02  0.8840751E-01
         -2   -1    0    0    0  501 -0.00000000000E+00  0.00000000000E+00  0.35017418073E+03  0.35017418073E+03  0.00000000000E+00 0. -1.
          2   -1    0    0  501    0  0.00000000000E+00 -0.00000000000E+00 -0.17542213433E+04  0.17542213433E+04  0.00000000000E+00 0.  1.
         23    2    1    2    0    0 -0.34600764557E+03  0.74280825499E+01  0.48019472861E+02  0.36087822762E+03  0.90281549573E+02 0.  0.
        254    2    1    2    0    0  0.34600764557E+03 -0.74280825499E+01 -0.14520666354E+04  0.17435172964E+04  0.90087656312E+03 0.  0.
        -24    2    4    4    0    0  0.37781062127E+03 -0.27934959834E+03 -0.31483204525E+03  0.57107775483E+03  0.78952654885E+02 0.  0.
         24    2    4    4    0    0 -0.31802975700E+02  0.27192151579E+03 -0.11372345902E+04  0.11724395416E+04  0.79744752560E+02 0.  0.
         13    1    3    3    0    0 -0.16664572161E+03 -0.41383513802E+02  0.26793542812E+02  0.17378517106E+03  0.00000000000E+00 0.  1.
        -13    1    3    3    0    0 -0.17936192396E+03  0.48811596352E+02  0.21225930049E+02  0.18709305656E+03  0.00000000000E+00 0. -1.
          2    1    6    6  502    0 -0.35474098198E+02  0.23639103900E+03 -0.10692380977E+04  0.10956318928E+04  0.00000000000E+00 0. -1.
          1    1    5    5  503    0  0.35932338545E+03 -0.24348398591E+03 -0.30185999290E+03  0.52869386419E+03  0.00000000000E+00 0. -1.
         -2    1    5    5    0  503  0.18487235821E+02 -0.35865612433E+02 -0.12972052346E+02  0.42383890637E+02  0.00000000000E+00 0.  1.
         -1    1    6    6    0  502  0.36711224981E+01  0.35530476786E+02 -0.67996492456E+02  0.76807648756E+02  0.00000000000E+00 0.  1.
<mgrwt>
<rscale>  0 0.15675242E+04</rscale>
<asrwt>0</asrwt>
<pdfrwt beam="1">  1        2 0.26988021E+00 0.15675242E+04</pdfrwt>
<pdfrwt beam="2">  1       -2 0.53872949E-01 0.15675242E+04</pdfrwt>
<totfact> 0.28542649E+01</totfact>
</mgrwt>
</event>
<event>
12    1  0.2214165E-007  0.2943511E+04  0.7818608E-02  0.8260048E-01
         -1   -1    0    0    0  501 -0.00000000000E+00  0.00000000000E+00  0.17523492550E+04  0.17523492550E+04  0.00000000000E+00 0.  1.
          1   -1    0    0  501    0  0.00000000000E+00 -0.00000000000E+00 -0.12360914074E+04  0.12360914074E+04  0.00000000000E+00 0. -1.
         23    2    1    2    0    0 -0.99399716942E+03  0.43493763963E+03  0.10199546270E+04  0.14918601082E+04  0.90210963850E+02 0.  0.
        254    2    1    2    0    0  0.99399716942E+03 -0.43493763963E+03 -0.50369677939E+03  0.14965805542E+04  0.89935631788E+03 0.  0.
        -24    2    4    4    0    0  0.30133401422E+03 -0.61056326273E+03 -0.18512243045E+03  0.71016085719E+03  0.80426630563E+02 0.  0.
         24    2    4    4    0    0  0.69266315521E+03  0.17562562310E+03 -0.31857434894E+03  0.78641969703E+03  0.79622346144E+02 0.  0.
         13    1    3    3    0    0 -0.66583038340E+03  0.26325980307E+03  0.71832853328E+03  0.10142148220E+04  0.00000000000E+00 0. -1.
        -13    1    3    3    0    0 -0.32816678602E+03  0.17167783656E+03  0.30162609376E+03  0.47764528622E+03  0.00000000000E+00 0.  1.
          4    1    6    6  502    0  0.53232205364E+03  0.16419418856E+03 -0.22810624306E+03  0.60196258893E+03  0.00000000000E+00 0. -1.
          3    1    5    5  503    0  0.26932779210E+03 -0.47301170683E+03 -0.15101658406E+03  0.56487480299E+03  0.00000000000E+00 0. -1.
         -4    1    5    5    0  503  0.32006222117E+02 -0.13755155591E+03 -0.34105846396E+02  0.14528605420E+03  0.00000000000E+00 0.  1.
         -3    1    6    6    0  502  0.16034110157E+03  0.11431434538E+02 -0.90468105879E+02  0.18445710810E+03  0.00000000000E+00 0.  1.
<mgrwt>
<rscale>  0 0.29435107E+04</rscale>
<asrwt>0</asrwt>
<pdfrwt beam="1">  1        1 0.19016791E+00 0.29435107E+04</pdfrwt>
<pdfrwt beam="2">  1       -1 0.26959219E+00 0.29435107E+04</pdfrwt>
<totfact> 0.44708982E-01</totfact>
</mgrwt>
</event>
<event>
12    1  0.2214165E-007  0.2133900E+04  0.7818608E-02  0.8546456E-01
         -2   -1    0    0    0  501 -0.00000000000E+00  0.00000000000E+00  0.85787557996E+03  0.85787557996E+03  0.00000000000E+00 0. -1.
          2   -1    0    0  501    0  0.00000000000E+00 -0.00000000000E+00 -0.13269781487E+04  0.13269781487E+04  0.00000000000E+00 0.  1.
         23    2    1    2    0    0 -0.36728233921E+03 -0.78399933914E+03 -0.31864927227E+03  0.92718203892E+03  0.92616921277E+02 0.  0.
        254    2    1    2    0    0  0.36728233921E+03  0.78399933914E+03 -0.15045329644E+03  0.12576716897E+04  0.89975030107E+03 0.  0.
        -24    2    4    4    0    0  0.18057988840E+03  0.87355264885E+03 -0.34750348843E+03  0.96075776052E+03  0.81200206491E+02 0.  0.
         24    2    4    4    0    0  0.18670245081E+03 -0.89553309710E+02  0.19705019198E+03  0.29691392920E+03  0.80321247358E+02 0.  0.
         11    1    3    3    0    0 -0.18573890517E+03 -0.49754196551E+03 -0.20952312825E+03  0.57091758566E+03  0.00000000000E+00 0. -1.
        -11    1    3    3    0    0 -0.18154343404E+03 -0.28645737362E+03 -0.10912614402E+03  0.35626445326E+03  0.00000000000E+00 0.  1.
          2    1    6    6  502    0  0.14715070757E+03 -0.74343830714E+02  0.19376492077E+03  0.25441143926E+03  0.00000000000E+00 0. -1.
          1    1    5    5  503    0  0.96206303425E+02  0.62952907984E+03 -0.23026101845E+03  0.67718730925E+03  0.00000000000E+00 0. -1.
         -2    1    5    5    0  503  0.84373584977E+02  0.24402356900E+03 -0.11724246997E+03  0.28357045128E+03  0.00000000000E+00 0.  1.
         -1    1    6    6    0  502  0.39551743239E+02 -0.15209478996E+02  0.32852712082E+01  0.42502489945E+02  0.00000000000E+00 0.  1.
<mgrwt>
<rscale>  0 0.21338999E+04</rscale>
<asrwt>0</asrwt>
<pdfrwt beam="1">  1        2 0.20415048E+00 0.21338999E+04</pdfrwt>
<pdfrwt beam="2">  1       -2 0.13198086E+00 0.21338999E+04</pdfrwt>
<totfact> 0.61250460E+00</totfact>
</mgrwt>
</event>
<event>
12    1  0.2214165E-007  0.2161159E+04  0.7818608E-02  0.8534771E-01
          1   -1    0    0  501    0  0.00000000000E+00  0.00000000000E+00  0.23101777400E+04  0.23101777400E+04  0.00000000000E+00 0. -1.
         -1   -1    0    0    0  501 -0.00000000000E+00 -0.00000000000E+00 -0.50543825947E+03  0.50543825947E+03  0.00000000000E+00 0.  1.
         23    2    1    2    0    0 -0.73335584654E+03  0.15892236312E+02  0.90746096764E+02  0.74502589038E+03  0.93623514334E+02 0.  0.
        254    2    1    2    0    0  0.73335584654E+03 -0.15892236312E+02  0.17139933838E+04  0.20705901091E+04  0.90083667744E+03 0.  0.
        -24    2    4    4    0    0  0.91473994198E+03 -0.10868350703E+03  0.15150076570E+04  0.17748132144E+04  0.78437740741E+02 0.  0.
         24    2    4    4    0    0 -0.18138409544E+03  0.92791270714E+02  0.19898572677E+03  0.29577689467E+03  0.79863896479E+02 0.  0.
         11    1    3    3    0    0 -0.12843492586E+03  0.38576046561E+02  0.13895215617E+02  0.13482106129E+03  0.00000000000E+00 0. -1.
        -11    1    3    3    0    0 -0.60492092068E+03 -0.22683810249E+02  0.76850881147E+02  0.61020482910E+03  0.00000000000E+00 0.  1.
          2    1    6    6  502    0 -0.92454649498E+00  0.26430670313E+02  0.27249179845E+02  0.37973055205E+02  0.00000000000E+00 0. -1.
          1    1    5    5  503    0  0.45946171424E+03 -0.85753995341E+02  0.81318905863E+03  0.93794203427E+03  0.00000000000E+00 0. -1.
         -2    1    5    5    0  503  0.45527822774E+03 -0.22929511686E+02  0.70181859838E+03  0.83687118017E+03  0.00000000000E+00 0.  1.
         -1    1    6    6    0  502 -0.18045954894E+03  0.66360600402E+02  0.17173654693E+03  0.25780383946E+03  0.00000000000E+00 0.  1.
<mgrwt>
<rscale>  0 0.21611591E+04</rscale>
<asrwt>0</asrwt>
<pdfrwt beam="1">  1        1 0.35541195E+00 0.21611591E+04</pdfrwt>
<pdfrwt beam="2">  1       -1 0.77759734E-01 0.21611591E+04</pdfrwt>
<totfact> 0.27759468E+00</totfact>
</mgrwt>
</event>
<event>
12    1  0.3438268E-007  0.2607729E+04  0.7818608E-02  0.8365581E-01
         -2   -1    0    0    0  501 -0.00000000000E+00  0.00000000000E+00  0.75519634402E+03  0.75519634402E+03  0.00000000000E+00 0.  1.
          2   -1    0    0  501    0  0.00000000000E+00 -0.00000000000E+00 -0.22511532604E+04  0.22511532604E+04  0.00000000000E+00 0. -1.
         23    2    1    2    0    0  0.10739457247E+04 -0.30601446984E+03 -0.35954785738E+03  0.11767969628E+04  0.92585930935E+02 0.  0.
        254    2    1    2    0    0 -0.10739457247E+04  0.30601446984E+03 -0.11364090590E+04  0.18295526416E+04  0.89935145733E+03 0.  0.
        -24    2    4    4    0    0 -0.53221846955E+03  0.60506136647E+03 -0.63878339651E+03  0.10315416241E+04  0.81719874989E+02 0.  0.
         24    2    4    4    0    0 -0.54172725511E+03 -0.29904689663E+03 -0.49762566248E+03  0.79801101756E+03  0.79327289547E+02 0.  0.
         13    1    3    3    0    0  0.23851177358E+03 -0.10778612329E+03 -0.75615233769E+02  0.27243967789E+03  0.00000000000E+00 0.  1.
        -13    1    3    3    0    0  0.83543395109E+03 -0.19822834654E+03 -0.28393262361E+03  0.90435728490E+03  0.00000000000E+00 0. -1.
          4    1    6    6  502    0 -0.34382089078E+03 -0.20145206120E+03 -0.27235848108E+03  0.48267471460E+03  0.00000000000E+00 0. -1.
          1    1    5    5  503    0 -0.29116854854E+03  0.31080708921E+03 -0.38634932155E+03  0.57501823329E+03  0.00000000000E+00 0. -1.
         -2    1    5    5    0  503 -0.24104992102E+03  0.29425427726E+03 -0.25243407496E+03  0.45652339076E+03  0.00000000000E+00 0.  1.
         -3    1    6    6    0  502 -0.19790636433E+03 -0.97594835438E+02 -0.22526718141E+03  0.31533630296E+03  0.00000000000E+00 0.  1.
<mgrwt>
<rscale>  0 0.26077291E+04</rscale>
<asrwt>0</asrwt>
<pdfrwt beam="1">  1        2 0.34633127E+00 0.26077291E+04</pdfrwt>
<pdfrwt beam="2">  1       -2 0.11618405E+00 0.26077291E+04</pdfrwt>
<totfact> 0.24559705E+00</totfact>
</mgrwt>
</event>
<event>
12    1  0.2214165E-007  0.1664284E+04  0.7818608E-02  0.8782001E-01
          1   -1    0    0  501    0  0.00000000000E+00  0.00000000000E+00  0.36310743624E+04  0.36310743624E+04  0.00000000000E+00 0. -1.
         -1   -1    0    0    0  501 -0.00000000000E+00 -0.00000000000E+00 -0.19070401756E+03  0.19070401756E+03  0.00000000000E+00 0.  1.
         23    2    1    2    0    0  0.47407540238E+03  0.29724235003E+03  0.82622980559E+03  0.10020822923E+04  0.91720919841E+02 0.  0.
        254    2    1    2    0    0 -0.47407540238E+03 -0.29724235003E+03  0.26141405392E+04  0.28196960876E+04  0.89657948110E+03 0.  0.
        -24    2    4    4    0    0 -0.72869762492E+03 -0.29297814742E+03  0.19103839150E+04  0.20671012387E+04  0.80649891570E+02 0.  0.
         24    2    4    4    0    0  0.25462222253E+03 -0.42642026029E+01  0.70375662424E+03  0.75259484891E+03  0.79214650255E+02 0.  0.
         13    1    3    3    0    0  0.19748864174E+03  0.10878868099E+03  0.41078050196E+03  0.46859082526E+03  0.00000000000E+00 0. -1.
        -13    1    3    3    0    0  0.27658676064E+03  0.18845366903E+03  0.41544930363E+03  0.53349146705E+03  0.00000000000E+00 0.  1.
          4    1    6    6  502    0  0.17614958556E+03 -0.17231549574E+02  0.37976628491E+03  0.41898452710E+03  0.00000000000E+00 0. -1.
          3    1    5    5  503    0 -0.64648178683E+03 -0.28624102436E+03  0.17073816552E+04  0.18479785554E+04  0.00000000000E+00 0. -1.
         -4    1    5    5    0  503 -0.82215838082E+02 -0.67371230601E+01  0.20300225979E+03  0.21912268330E+03  0.00000000000E+00 0.  1.
         -1    1    6    6    0  502  0.78472636972E+02  0.12967346971E+02  0.32399033933E+03  0.33361032181E+03  0.00000000000E+00 0.  1.
<mgrwt>
<rscale>  0 0.16642842E+04</rscale>
<asrwt>0</asrwt>
<pdfrwt beam="1">  1        1 0.55862677E+00 0.16642842E+04</pdfrwt>
<pdfrwt beam="2">  1       -1 0.29339082E-01 0.16642842E+04</pdfrwt>
<totfact> 0.20085272E+00</totfact>
</mgrwt>
</event>
<event>
12    1  0.2214165E-007  0.1648153E+04  0.7818608E-02  0.8791500E-01
         -2   -1    0    0    0  501 -0.00000000000E+00  0.00000000000E+00  0.96563425476E+03  0.96563425476E+03  0.00000000000E+00 0.  1.
          2   -1    0    0  501    0  0.00000000000E+00 -0.00000000000E+00 -0.70327084593E+03  0.70327084593E+03  0.00000000000E+00 0. -1.
         23    2    1    2    0    0 -0.15391608340E+03 -0.49157980337E+03  0.34012265908E+03  0.62408089796E+03  0.91938458617E+02 0.  0.
        254    2    1    2    0    0  0.15391608340E+03  0.49157980337E+03 -0.77759250250E+02  0.10448242027E+04  0.90568772200E+03 0.  0.
        -24    2    4    4    0    0  0.19494433922E+03  0.22095377172E+02 -0.41059321989E+03  0.46202030605E+03  0.79902877873E+02 0.  0.
         24    2    4    4    0    0 -0.41028255818E+02  0.46948442620E+03  0.33283396964E+03  0.58280389668E+03  0.82358887896E+02 0.  0.
         11    1    3    3    0    0 -0.10489437829E+03 -0.25034060203E+03  0.13248291957E+03  0.30203471920E+03  0.00000000000E+00 0. -1.
        -11    1    3    3    0    0 -0.49021705110E+02 -0.24123920134E+03  0.20763973951E+03  0.32204617876E+03  0.00000000000E+00 0.  1.
          4    1    6    6  502    0 -0.38179411922E+01  0.58216478476E+02  0.11267114979E+02  0.59419549991E+02  0.00000000000E+00 0. -1.
          3    1    5    5  503    0  0.66881460781E+02 -0.15812579086E+02 -0.79986060373E+02  0.10545585478E+03  0.00000000000E+00 0. -1.
         -4    1    5    5    0  503  0.12806287844E+03  0.37907956257E+02 -0.33060715952E+03  0.35656445127E+03  0.00000000000E+00 0.  1.
         -3    1    6    6    0  502 -0.37210314626E+02  0.41126794772E+03  0.32156685466E+03  0.52338434669E+03  0.00000000000E+00 0.  1.
<mgrwt>
<rscale>  0 0.16481534E+04</rscale>
<asrwt>0</asrwt>
<pdfrwt beam="1">  1        2 0.10819551E+00 0.16481534E+04</pdfrwt>
<pdfrwt beam="2">  1       -2 0.14855912E+00 0.16481534E+04</pdfrwt>
<totfact> 0.11955074E+01</totfact>
</mgrwt>
</event>
<event>
12    1  0.2214165E-007  0.1912176E+04  0.7818608E-02  0.8648819E-01
          2   -1    0    0  501    0  0.00000000000E+00  0.00000000000E+00  0.23961463690E+04  0.23961463690E+04  0.00000000000E+00 0.  1.
         -2   -1    0    0    0  501 -0.00000000000E+00 -0.00000000000E+00 -0.38148941096E+03  0.38148941096E+03  0.00000000000E+00 0. -1.
         23    2    1    2    0    0 -0.55967007630E+03  0.20733720505E+03  0.14262889344E+04  0.15487730520E+04  0.90435232653E+02 0.  0.
        254    2    1    2    0    0  0.55967007630E+03 -0.20733720505E+03  0.58836802364E+03  0.12288627280E+04  0.89872540967E+03 0.  0.
        -24    2    4    4    0    0  0.16085925812E+03 -0.32932616453E+03 -0.12592852449E+03  0.39780524239E+03  0.89775241686E+02 0.  0.
         24    2    4    4    0    0  0.39881081818E+03  0.12198895949E+03  0.71429654813E+03  0.83105748556E+03  0.80657366080E+02 0.  0.
         13    1    3    3    0    0 -0.38467926699E+03  0.17890470207E+03  0.94468139003E+03  0.10355713204E+04  0.00000000000E+00 0.  1.
        -13    1    3    3    0    0 -0.17499080931E+03  0.28432502978E+02  0.48160754433E+03  0.51320173161E+03  0.00000000000E+00 0. -1.
          2    1    6    6  502    0  0.47438889430E+01  0.49651876366E+01 -0.60493944280E-01  0.68674034458E+01  0.00000000000E+00 0. -1.
          1    1    5    5  503    0  0.25296951098E+01 -0.90219776389E+02 -0.37156039582E+02  0.97604194000E+02  0.00000000000E+00 0. -1.
         -2    1    5    5    0  503  0.15832956301E+03 -0.23910638815E+03 -0.88772484907E+02  0.30020104839E+03  0.00000000000E+00 0.  1.
         -1    1    6    6    0  502  0.39406692924E+03  0.11702377185E+03  0.71435704208E+03  0.82419008212E+03  0.00000000000E+00 0.  1.
<mgrwt>
<rscale>  0 0.19121762E+04</rscale>
<asrwt>0</asrwt>
<pdfrwt beam="1">  1        2 0.36863789E+00 0.19121762E+04</pdfrwt>
<pdfrwt beam="2">  1       -2 0.58690680E-01 0.19121762E+04</pdfrwt>
<totfact> 0.10150025E+01</totfact>
</mgrwt>
</event>
<event>
12    1  0.2214165E-007  0.3556994E+04  0.7818608E-02  0.8100414E-01
         -2   -1    0    0    0  501 -0.00000000000E+00  0.00000000000E+00  0.14428640771E+04  0.14428640771E+04  0.00000000000E+00 0.  1.
          2   -1    0    0  501    0  0.00000000000E+00 -0.00000000000E+00 -0.21922037703E+04  0.21922037703E+04  0.00000000000E+00 0. -1.
         23    2    1    2    0    0  0.94758776867E+03 -0.13370695423E+04 -0.63799443935E+03  0.17626564966E+04  0.11934605110E+03 0.  0.
        254    2    1    2    0    0 -0.94758776867E+03  0.13370695423E+04 -0.11134525384E+03  0.18724113508E+04  0.89880418367E+03 0.  0.
        -24    2    4    4    0    0 -0.33830723207E+03  0.95374531260E+03  0.27509832974E+03  0.10517486406E+04  0.80088747387E+02 0.  0.
         24    2    4    4    0    0 -0.60928053659E+03  0.38332422973E+03 -0.38644358358E+03  0.82066271014E+03  0.77384773414E+02 0.  0.
         11    1    3    3    0    0  0.71612652324E+03 -0.92162584381E+03 -0.43502138056E+03  0.12455821911E+04  0.00000000000E+00 0.  1.
        -11    1    3    3    0    0  0.23146124543E+03 -0.41544369852E+03 -0.20297305879E+03  0.51707430546E+03  0.00000000000E+00 0. -1.
          2    1    6    6  502    0 -0.51252225980E+03  0.30125007864E+03 -0.34410807253E+03  0.68690686577E+03  0.00000000000E+00 0. -1.
          1    1    5    5  503    0 -0.18235853681E+03  0.46126646012E+03  0.97542781785E+02  0.50550566511E+03  0.00000000000E+00 0. -1.
         -2    1    5    5    0  503 -0.15594869526E+03  0.49247885247E+03  0.17755554795E+03  0.54624297551E+03  0.00000000000E+00 0.  1.
         -1    1    6    6    0  502 -0.96758276795E+02  0.82074151096E+02 -0.42335511044E+02  0.13375584436E+03  0.00000000000E+00 0.  1.
<mgrwt>
<rscale>  0 0.35569943E+04</rscale>
<asrwt>0</asrwt>
<pdfrwt beam="1">  1        2 0.33726212E+00 0.35569943E+04</pdfrwt>
<pdfrwt beam="2">  1       -2 0.22197909E+00 0.35569943E+04</pdfrwt>
<totfact> 0.40969466E-01</totfact>
</mgrwt>
</event>
<event>
12    1  0.2214165E-007  0.1483097E+04  0.7818608E-02  0.8895772E-01
         -1   -1    0    0    0  501 -0.00000000000E+00  0.00000000000E+00  0.53796977987E+03  0.53796977987E+03  0.00000000000E+00 0.  1.
          1   -1    0    0  501    0  0.00000000000E+00 -0.00000000000E+00 -0.10221658636E+04  0.10221658636E+04  0.00000000000E+00 0. -1.
         23    2    1    2    0    0 -0.23561529277E+03 -0.30454833173E+03  0.11754373633E+03  0.41170831924E+03  0.86156587880E+02 0.  0.
        254    2    1    2    0    0  0.23561529277E+03  0.30454833173E+03 -0.60173982004E+03  0.11484273242E+04  0.89918310450E+03 0.  0.
        -24    2    4    4    0    0 -0.58362713960E+02  0.62393255601E+02 -0.72962303312E+03  0.73892293517E+03  0.79738378024E+02 0.  0.
         24    2    4    4    0    0  0.29397800673E+03  0.24215507612E+03  0.12788321308E+03  0.40950438904E+03  0.79231175157E+02 0.  0.
         13    1    3    3    0    0 -0.51442123601E+02 -0.89207717775E+02 -0.47507264991E+01  0.10308675178E+03  0.00000000000E+00 0.  1.
        -13    1    3    3    0    0 -0.18417316917E+03 -0.21534061395E+03  0.12229446283E+03  0.30862156746E+03  0.00000000000E+00 0. -1.
          2    1    6    6  502    0  0.15284061976E+02 -0.53273336847E+01  0.74047102699E+01  0.17799235064E+02  0.00000000000E+00 0. -1.
          1    1    5    5  503    0 -0.98009967507E+01 -0.92558541703E+01 -0.20489318815E+02  0.24526364574E+02  0.00000000000E+00 0. -1.
         -2    1    5    5    0  503 -0.48561717210E+02  0.71649109772E+02 -0.70913371430E+03  0.71439657059E+03  0.00000000000E+00 0.  1.
         -1    1    6    6    0  502  0.27869394476E+03  0.24748240981E+03  0.12047850281E+03  0.39170515397E+03  0.00000000000E+00 0.  1.
<mgrwt>
<rscale>  0 0.14830972E+04</rscale>
<asrwt>0</asrwt>
<pdfrwt beam="1">  1        1 0.15725629E+00 0.14830972E+04</pdfrwt>
<pdfrwt beam="2">  1       -1 0.82764581E-01 0.14830972E+04</pdfrwt>
<totfact> 0.20433041E+01</totfact>
</mgrwt>
</event>
<event>
12    1  0.2214165E-007  0.2312236E+04  0.7818608E-02  0.8473112E-01
          1   -1    0    0  501    0  0.00000000000E+00  0.00000000000E+00  0.25096803918E+04  0.25096803918E+04  0.00000000000E+00 0. -1.
         -1   -1    0    0    0  501 -0.00000000000E+00 -0.00000000000E+00 -0.53258125801E+03  0.53258125801E+03  0.00000000000E+00 0.  1.
         23    2    1    2    0    0  0.34871619805E+03  0.45757538850E+03 -0.20117488948E+03  0.61589568348E+03  0.88757725461E+02 0.  0.
        254    2    1    2    0    0 -0.34871619805E+03 -0.45757538850E+03  0.21782740232E+04  0.24263659663E+04  0.90077514352E+03 0.  0.
        -24    2    4    4    0    0  0.21711983666E+03 -0.27386662131E+03  0.34607105650E+03  0.49849492057E+03  0.81166864829E+02 0.  0.
         24    2    4    4    0    0 -0.56583603471E+03 -0.18370876719E+03  0.18322029667E+04  0.19278710457E+04  0.76155947528E+02 0.  0.
         11    1    3    3    0    0  0.27209429036E+03  0.30584035647E+03 -0.11439036348E+03  0.42503974137E+03  0.00000000000E+00 0. -1.
        -11    1    3    3    0    0  0.76621907689E+02  0.15173503203E+03 -0.86784526004E+02  0.19085594210E+03  0.00000000000E+00 0.  1.
          2    1    6    6  502    0 -0.48907187611E+03 -0.13000923759E+03  0.15393670812E+04  0.16204149816E+04  0.00000000000E+00 0. -1.
          3    1    5    5  503    0  0.17632584049E+03 -0.25227227309E+03  0.26955777670E+03  0.40913750350E+03  0.00000000000E+00 0. -1.
         -4    1    5    5    0  503  0.40793996170E+02 -0.21594348224E+02  0.76513279807E+02  0.89357417071E+02  0.00000000000E+00 0.  1.
         -1    1    6    6    0  502 -0.76764158592E+02 -0.53699529593E+02  0.29283588555E+03  0.30745606416E+03  0.00000000000E+00 0.  1.
<mgrwt>
<rscale>  0 0.23122359E+04</rscale>
<asrwt>0</asrwt>
<pdfrwt beam="1">  1        1 0.38610467E+00 0.23122359E+04</pdfrwt>
<pdfrwt beam="2">  1       -1 0.81935580E-01 0.23122359E+04</pdfrwt>
<totfact> 0.17848793E+00</totfact>
</mgrwt>
</event>
<event>
12    1  0.2214165E-007  0.2529324E+04  0.7818608E-02  0.8392613E-01
          2   -1    0    0  501    0  0.00000000000E+00  0.00000000000E+00  0.87883283894E+03  0.87883283894E+03  0.00000000000E+00 0. -1.
         -2   -1    0    0    0  501 -0.00000000000E+00 -0.00000000000E+00 -0.18198793593E+04  0.18198793593E+04  0.00000000000E+00 0.  1.
         23    2    1    2    0    0  0.60736129536E+03  0.69523753032E+03 -0.10558261594E+04  0.14054663224E+04  0.91234520253E+02 0.  0.
        254    2    1    2    0    0 -0.60736129536E+03 -0.69523753032E+03  0.11477963906E+03  0.12932458759E+04  0.89836939135E+03 0.  0.
        -24    2    4    4    0    0 -0.46488038345E+03 -0.90377409383E+03  0.13118268065E+03  0.10279941325E+04  0.81496362922E+02 0.  0.
         24    2    4    4    0    0 -0.14248091191E+03  0.20853656351E+03 -0.16403041597E+02  0.26525174339E+03  0.79379588167E+02 0.  0.
         11    1    3    3    0    0  0.44967710476E+03  0.45103973601E+03 -0.73349340520E+03  0.97142108145E+03  0.00000000000E+00 0.  1.
        -11    1    3    3    0    0  0.15768419060E+03  0.24419779431E+03 -0.32233275423E+03  0.43404524091E+03  0.00000000000E+00 0. -1.
          2    1    6    6  502    0 -0.41728681444E+02  0.12950535806E+03  0.70047925768E+00  0.13606399705E+03  0.00000000000E+00 0. -1.
          1    1    5    5  503    0 -0.13552043672E+03 -0.20125757720E+03  0.11293977844E+02  0.24289494660E+03  0.00000000000E+00 0. -1.
         -2    1    5    5    0  503 -0.32935994673E+03 -0.70251651663E+03  0.11988870281E+03  0.78509918590E+03  0.00000000000E+00 0.  1.
         -1    1    6    6    0  502 -0.10075223047E+03  0.79031205449E+02 -0.17103520855E+02  0.12918774634E+03  0.00000000000E+00 0.  1.
<mgrwt>
<rscale>  0 0.25293238E+04</rscale>
<asrwt>0</asrwt>
<pdfrwt beam="1">  1        2 0.13520505E+00 0.25293238E+04</pdfrwt>
<pdfrwt beam="2">  1       -2 0.27998144E+00 0.25293238E+04</pdfrwt>
<totfact> 0.11360864E+00</totfact>
</mgrwt>
</event>
<event>
12    1  0.2214165E-007  0.3421574E+04  0.7818608E-02  0.8132631E-01
          2   -1    0    0  501    0  0.00000000000E+00  0.00000000000E+00  0.36870942648E+04  0.36870942648E+04  0.00000000000E+00 0.  1.
         -2   -1    0    0    0  501 -0.00000000000E+00 -0.00000000000E+00 -0.79379391485E+03  0.79379391485E+03  0.00000000000E+00 0. -1.
         23    2    1    2    0    0 -0.13487023701E+04  0.84101493941E+03  0.12959833425E+04  0.20529709602E+04  0.93876131336E+02 0.  0.
        254    2    1    2    0    0  0.13487023701E+04 -0.84101493941E+03  0.15973170074E+04  0.24279172194E+04  0.90391160567E+03 0.  0.
        -24    2    4    4    0    0  0.62252726808E+03 -0.52362938540E+03  0.23634406335E+03  0.85095875936E+03  0.80897225545E+02 0.  0.
         24    2    4    4    0    0  0.72617510200E+03 -0.31738555401E+03  0.13609729441E+04  0.15769584601E+04  0.80540434848E+02 0.  0.
         11    1    3    3    0    0 -0.11172889948E+04  0.72205940177E+03  0.11182047597E+04  0.17378395674E+04  0.00000000000E+00 0.  1.
        -11    1    3    3    0    0 -0.23141337531E+03  0.11895553763E+03  0.17777858280E+03  0.31513139277E+03  0.00000000000E+00 0. -1.
          4    1    6    6  502    0  0.70461874225E+03 -0.31748217912E+03  0.13399301585E+04  0.15468339716E+04  0.00000000000E+00 0. -1.
          1    1    5    5  503    0  0.37974976747E+03 -0.36283185815E+03  0.13120717915E+03  0.54136140151E+03  0.00000000000E+00 0. -1.
         -2    1    5    5    0  503  0.24277750060E+03 -0.16079752725E+03  0.10513688420E+03  0.30959735785E+03  0.00000000000E+00 0.  1.
         -3    1    6    6    0  502  0.21556359745E+02  0.96625117184E-01  0.21042785563E+02  0.30124488479E+02  0.00000000000E+00 0.  1.
<mgrwt>
<rscale>  0 0.34215745E+04</rscale>
<asrwt>0</asrwt>
<pdfrwt beam="1">  1        2 0.56724526E+00 0.34215745E+04</pdfrwt>
<pdfrwt beam="2">  1       -2 0.12212214E+00 0.34215745E+04</pdfrwt>
<totfact> 0.25032870E-01</totfact>
</mgrwt>
</event>
<event>
12    1  0.2214165E-007  0.4020627E+04  0.7818608E-02  0.8000398E-01
         -2   -1    0    0    0  501 -0.00000000000E+00  0.00000000000E+00  0.15019006237E+04  0.15019006237E+04  0.00000000000E+00 0.  1.
          2   -1    0    0  501    0  0.00000000000E+00 -0.00000000000E+00 -0.26908300985E+04  0.26908300985E+04  0.00000000000E+00 0. -1.
         23    2    1    2    0    0 -0.76205536744E+03 -0.15884520681E+04 -0.13292184968E+04  0.22088179498E+04  0.90258338092E+02 0.  0.
        254    2    1    2    0    0  0.76205536744E+03  0.15884520681E+04  0.14028902195E+03  0.19839127724E+04  0.90128825752E+03 0.  0.
        -24    2    4    4    0    0  0.40687508287E+03  0.12415000741E+04 -0.26781528397E+03  0.13357598509E+04  0.75230219070E+02 0.  0.
         24    2    4    4    0    0  0.35518028458E+03  0.34695199397E+03  0.40810430592E+03  0.64815292150E+03  0.83811481730E+02 0.  0.
         11    1    3    3    0    0 -0.13985588038E+03 -0.30324984351E+03 -0.20913251062E+03  0.39402606749E+03  0.00000000000E+00 0.  1.
        -11    1    3    3    0    0 -0.62219948706E+03 -0.12852022246E+04 -0.11200859862E+04  0.18147918823E+04  0.00000000000E+00 0. -1.
          4    1    6    6  502    0  0.17990872695E+03  0.15834450870E+03  0.24839968261E+03  0.34517029969E+03  0.00000000000E+00 0. -1.
          3    1    5    5  503    0  0.17303057435E+03  0.42197360427E+03 -0.10764036456E+03  0.46860191041E+03  0.00000000000E+00 0. -1.
         -4    1    5    5    0  503  0.23384450852E+03  0.81952646983E+03 -0.16017491940E+03  0.86715794047E+03  0.00000000000E+00 0.  1.
         -3    1    6    6    0  502  0.17527155763E+03  0.18860748527E+03  0.15970462331E+03  0.30298262181E+03  0.00000000000E+00 0.  1.
<mgrwt>
<rscale>  0 0.40206265E+04</rscale>
<asrwt>0</asrwt>
<pdfrwt beam="1">  1        2 0.41397386E+00 0.40206265E+04</pdfrwt>
<pdfrwt beam="2">  1       -2 0.23106164E+00 0.40206265E+04</pdfrwt>
<totfact> 0.17829997E-01</totfact>
</mgrwt>
</event>
<event>
12    1  0.2214165E-007  0.1881774E+04  0.7818608E-02  0.8663982E-01
         -1   -1    0    0    0  501 -0.00000000000E+00  0.00000000000E+00  0.58374778368E+03  0.58374778368E+03  0.00000000000E+00 0.  1.
          1   -1    0    0  501    0  0.00000000000E+00 -0.00000000000E+00 -0.15165257076E+04  0.15165257076E+04  0.00000000000E+00 0. -1.
         23    2    1    2    0    0 -0.14732104102E+03 -0.66147867088E+03 -0.64225802962E+03  0.93762250809E+03  0.85924792074E+02 0.  0.
        254    2    1    2    0    0  0.14732104102E+03  0.66147867088E+03 -0.29051989425E+03  0.11626509831E+04  0.89894270034E+03 0.  0.
        -24    2    4    4    0    0 -0.34466169243E+02  0.25891056874E+03  0.30984195218E+03  0.41301107671E+03  0.79708937586E+02 0.  0.
         24    2    4    4    0    0  0.18178721026E+03  0.40256810215E+03 -0.60036184643E+03  0.74963990644E+03  0.80112271189E+02 0.  0.
         11    1    3    3    0    0 -0.22546148307E+01 -0.10045609645E+03 -0.64907077704E+02  0.11962206877E+03  0.00000000000E+00 0.  1.
        -11    1    3    3    0    0 -0.14506642619E+03 -0.56102257444E+03 -0.57735095192E+03  0.81800043931E+03  0.00000000000E+00 0. -1.
          4    1    6    6  502    0  0.16000507100E+03  0.38558830625E+03 -0.58286370914E+03  0.71694495472E+03  0.00000000000E+00 0. -1.
          3    1    5    5  503    0 -0.58667122385E+02  0.20102201142E+03  0.25223819321E+03  0.32783499880E+03  0.00000000000E+00 0. -1.
         -4    1    5    5    0  503  0.24200953142E+02  0.57888557318E+02  0.57603758971E+02  0.85176077915E+02  0.00000000000E+00 0.  1.
         -1    1    6    6    0  502  0.21782139257E+02  0.16979795900E+02 -0.17498137289E+02  0.32694951721E+02  0.00000000000E+00 0.  1.
<mgrwt>
<rscale>  0 0.18817742E+04</rscale>
<asrwt>0</asrwt>
<pdfrwt beam="1">  1        1 0.23331164E+00 0.18817742E+04</pdfrwt>
<pdfrwt beam="2">  1       -1 0.89807352E-01 0.18817742E+04</pdfrwt>
<totfact> 0.72457352E+00</totfact>
</mgrwt>
</event>
<event>
12    1  0.2214165E-007  0.1852279E+04  0.7818608E-02  0.8678981E-01
         -1   -1    0    0    0  501 -0.00000000000E+00  0.00000000000E+00  0.34023596967E+03  0.34023596967E+03  0.00000000000E+00 0.  1.
          1   -1    0    0  501    0  0.00000000000E+00 -0.00000000000E+00 -0.25209998323E+04  0.25209998323E+04  0.00000000000E+00 0. -1.
         23    2    1    2    0    0 -0.28839210377E+03 -0.49107017380E+03 -0.19459000333E+03  0.60817840630E+03  0.87725614193E+02 0.  0.
        254    2    1    2    0    0  0.28839210377E+03  0.49107017380E+03 -0.19861738593E+04  0.22530573957E+04  0.89836579837E+03 0.  0.
        -24    2    4    4    0    0 -0.23535203466E+03 -0.93485617609E+02 -0.38116451814E+03  0.46452375385E+03  0.79785882712E+02 0.  0.
         24    2    4    4    0    0  0.52374413843E+03  0.58455579141E+03 -0.16050093412E+04  0.17885336418E+04  0.82366297107E+02 0.  0.
         11    1    3    3    0    0 -0.45174136394E+02 -0.12142344006E+03 -0.75492710093E+02  0.14994500216E+03  0.00000000000E+00 0. -1.
        -11    1    3    3    0    0 -0.24321796737E+03 -0.36964673374E+03 -0.11909729324E+03  0.45823340414E+03  0.00000000000E+00 0.  1.
          4    1    6    6  502    0  0.20206977297E+03  0.26973713653E+03 -0.75156600246E+03  0.82367576875E+03  0.00000000000E+00 0. -1.
          3    1    5    5  503    0 -0.66253364283E+02 -0.39289937605E+02 -0.60384327205E+02  0.97874789644E+02  0.00000000000E+00 0. -1.
         -4    1    5    5    0  503 -0.16909867038E+03 -0.54195680004E+02 -0.32078019093E+03  0.36664896420E+03  0.00000000000E+00 0.  1.
         -3    1    6    6    0  502  0.32167436546E+03  0.31481865487E+03 -0.85344333872E+03  0.96485787309E+03  0.00000000000E+00 0.  1.
<mgrwt>
<rscale>  0 0.18522795E+04</rscale>
<asrwt>0</asrwt>
<pdfrwt beam="1">  1        1 0.38784612E+00 0.18522795E+04</pdfrwt>
<pdfrwt beam="2">  1       -1 0.52343996E-01 0.18522795E+04</pdfrwt>
<totfact> 0.45288462E+00</totfact>
</mgrwt>
</event>
<event>
12    1  0.2214165E-007  0.1631199E+04  0.7818608E-02  0.8801607E-01
         -2   -1    0    0    0  501 -0.00000000000E+00  0.00000000000E+00  0.57043130086E+03  0.57043130086E+03  0.00000000000E+00 0.  1.
          2   -1    0    0  501    0  0.00000000000E+00 -0.00000000000E+00 -0.11661399702E+04  0.11661399702E+04  0.00000000000E+00 0. -1.
         23    2    1    2    0    0 -0.38855083662E+02 -0.50786265392E+03 -0.46066364787E+03  0.69284094299E+03  0.91560816044E+02 0.  0.
        254    2    1    2    0    0  0.38855083662E+02  0.50786265392E+03 -0.13504502146E+03  0.10437303281E+04  0.90094486353E+03 0.  0.
        -24    2    4    4    0    0 -0.15707409909E+03 -0.93193985975E+02  0.23422402893E+03  0.30755884818E+03  0.79838322497E+02 0.  0.
         24    2    4    4    0    0  0.19592918275E+03  0.60105663990E+03 -0.36926905039E+03  0.73617147988E+03  0.77016148915E+02 0.  0.
         11    1    3    3    0    0 -0.37206909201E+02 -0.27828259660E+03 -0.19562375961E+03  0.34219031691E+03  0.00000000000E+00 0.  1.
        -11    1    3    3    0    0 -0.16481744610E+01 -0.22958005732E+03 -0.26503988826E+03  0.35065062608E+03  0.00000000000E+00 0. -1.
          4    1    6    6  502    0  0.42165766217E+02  0.56350740641E+02 -0.32031918100E+02  0.77326590438E+02  0.00000000000E+00 0. -1.
          1    1    5    5  503    0  0.88603145449E+01 -0.10598485801E+02  0.13277796819E+02  0.19160714065E+02  0.00000000000E+00 0. -1.
         -2    1    5    5    0  503 -0.16593441363E+03 -0.82595500174E+02  0.22094623212E+03  0.28839813412E+03  0.00000000000E+00 0.  1.
         -3    1    6    6    0  502  0.15376341653E+03  0.54470589926E+03 -0.33723713229E+03  0.65884488944E+03  0.00000000000E+00 0.  1.
<mgrwt>
<rscale>  0 0.16311992E+04</rscale>
<asrwt>0</asrwt>
<pdfrwt beam="1">  1        2 0.17940615E+00 0.16311992E+04</pdfrwt>
<pdfrwt beam="2">  1       -2 0.87758662E-01 0.16311992E+04</pdfrwt>
<totfact> 0.21271964E+01</totfact>
</mgrwt>
</event>
<event>
12    1  0.2214165E-007  0.2843984E+04  0.7818608E-02  0.8289742E-01
          1   -1    0    0  501    0  0.00000000000E+00  0.00000000000E+00  0.21214179453E+04  0.21214179453E+04  0.00000000000E+00 0. -1.
         -1   -1    0    0    0  501 -0.00000000000E+00 -0.00000000000E+00 -0.95316527464E+03  0.95316527464E+03  0.00000000000E+00 0.  1.
         23    2    1    2    0    0 -0.22209382742E+03 -0.10299673289E+04  0.13012921880E+04  0.16767332392E+04  0.88964207181E+02 0.  0.
        254    2    1    2    0    0  0.22209382742E+03  0.10299673289E+04 -0.13303951738E+03  0.13978499807E+04  0.90891511622E+03 0.  0.
        -24    2    4    4    0    0  0.22274109360E+03  0.64882877927E+03  0.35208857961E+03  0.77573636744E+03  0.84900908643E+02 0.  0.
         24    2    4    4    0    0 -0.64726617872E+00  0.38113854965E+03 -0.48512809699E+03  0.62211361324E+03  0.80056631880E+02 0.  0.
         11    1    3    3    0    0 -0.89051515160E+02 -0.62008692281E+03  0.76751025166E+03  0.99071184034E+03  0.00000000000E+00 0. -1.
        -11    1    3    3    0    0 -0.13304231226E+03 -0.40988040610E+03  0.53378193633E+03  0.68602139888E+03  0.00000000000E+00 0.  1.
          4    1    6    6  502    0  0.55133532059E+01  0.19424276668E+02 -0.47374306514E+01  0.20739885169E+02  0.00000000000E+00 0. -1.
          1    1    5    5  503    0  0.95560863870E+02  0.16863400705E+03  0.83830282439E+02  0.21117959961E+03  0.00000000000E+00 0. -1.
         -2    1    5    5    0  503  0.12718022973E+03  0.48019477221E+03  0.26825829717E+03  0.56455676783E+03  0.00000000000E+00 0.  1.
         -3    1    6    6    0  502 -0.61606193846E+01  0.36171427298E+03 -0.48039066634E+03  0.60137372807E+03  0.00000000000E+00 0.  1.
<mgrwt>
<rscale>  0 0.28439845E+04</rscale>
<asrwt>0</asrwt>
<pdfrwt beam="1">  1        1 0.32637199E+00 0.28439845E+04</pdfrwt>
<pdfrwt beam="2">  1       -1 0.14664081E+00 0.28439845E+04</pdfrwt>
<totfact> 0.78797253E-01</totfact>
</mgrwt>
</event>
<event>
12    1  0.2214165E-007  0.1449316E+04  0.7818608E-02  0.8918875E-01
          2   -1    0    0  501    0  0.00000000000E+00  0.00000000000E+00  0.43267415858E+03  0.43267415858E+03  0.00000000000E+00 0. -1.
         -2   -1    0    0    0  501 -0.00000000000E+00 -0.00000000000E+00 -0.12136822287E+04  0.12136822287E+04  0.00000000000E+00 0.  1.
         23    2    1    2    0    0  0.16417327422E+02  0.39380922964E+03 -0.45812713464E+03  0.61125840506E+03  0.91657668940E+02 0.  0.
        254    2    1    2    0    0 -0.16417327422E+02 -0.39380922964E+03 -0.32288093545E+03  0.10350979822E+04  0.90101081917E+03 0.  0.
        -24    2    4    4    0    0 -0.23190416407E+03  0.46623454429E+02  0.19522701672E+03  0.31712718798E+03  0.80639800856E+02 0.  0.
         24    2    4    4    0    0  0.21548683665E+03 -0.44043268406E+03 -0.51810795217E+03  0.71797079421E+03  0.81429019898E+02 0.  0.
         13    1    3    3    0    0 -0.10262754845E+02  0.34617859833E+03 -0.42141739078E+03  0.54547003890E+03  0.00000000000E+00 0. -1.
        -13    1    3    3    0    0  0.26680082267E+02  0.47630631308E+02 -0.36709743860E+02  0.65788366167E+02  0.00000000000E+00 0.  1.
          4    1    6    6  502    0  0.93760773253E+02 -0.19306646093E+03 -0.28601664465E+03  0.35759091425E+03  0.00000000000E+00 0. -1.
          1    1    5    5  503    0 -0.37299777292E+02  0.55582412520E+01  0.77031647091E+02  0.85767371916E+02  0.00000000000E+00 0. -1.
         -2    1    5    5    0  503 -0.19460438678E+03  0.41065213177E+02  0.11819536962E+03  0.23135981606E+03  0.00000000000E+00 0.  1.
         -1    1    6    6    0  502  0.12172606340E+03 -0.24736622313E+03 -0.23209130752E+03  0.36037987996E+03  0.00000000000E+00 0.  1.
<mgrwt>
<rscale>  0 0.14493156E+04</rscale>
<asrwt>0</asrwt>
<pdfrwt beam="1">  1        2 0.66565257E-01 0.14493156E+04</pdfrwt>
<pdfrwt beam="2">  1       -2 0.18672034E+00 0.14493156E+04</pdfrwt>
<totfact> 0.11493007E+01</totfact>
</mgrwt>
</event>
<event>
12    1  0.2214165E-007  0.1295700E+04  0.7818608E-02  0.9032982E-01
          2   -1    0    0  501    0  0.00000000000E+00  0.00000000000E+00  0.32581904122E+04  0.32581904122E+04  0.00000000000E+00 0.  1.
         -2   -1    0    0    0  501 -0.00000000000E+00 -0.00000000000E+00 -0.12881669765E+03  0.12881669765E+03  0.00000000000E+00 0. -1.
         23    2    1    2    0    0  0.28650912688E+03 -0.13636697501E+03  0.60292211092E+03  0.68641534408E+03  0.83471678357E+02 0.  0.
        254    2    1    2    0    0 -0.28650912688E+03  0.13636697501E+03  0.25264516037E+04  0.27005917658E+04  0.89975260393E+03 0.  0.
        -24    2    4    4    0    0  0.20347740470E+03  0.44832720937E+02  0.14282734912E+03  0.26419925652E+03  0.77385841089E+02 0.  0.
         24    2    4    4    0    0 -0.48998653158E+03  0.91534254074E+02  0.23836242545E+04  0.24363925093E+04  0.76671713824E+02 0.  0.
         13    1    3    3    0    0  0.21512802936E+02 -0.33871709139E+02  0.44860587793E+02  0.60187753798E+02  0.00000000000E+00 0.  1.
        -13    1    3    3    0    0  0.26499632394E+03 -0.10249526587E+03  0.55806152313E+03  0.62622759028E+03  0.00000000000E+00 0. -1.
          2    1    6    6  502    0 -0.30803016807E+03  0.81008691491E+02  0.13723853793E+04  0.14088600434E+04  0.00000000000E+00 0. -1.
          1    1    5    5  503    0  0.66298235609E+02 -0.18842350504E+02  0.28373438645E+02  0.74535509913E+02  0.00000000000E+00 0. -1.
         -2    1    5    5    0  503  0.13717916909E+03  0.63675071441E+02  0.11445391047E+03  0.18966374661E+03  0.00000000000E+00 0.  1.
         -1    1    6    6    0  502 -0.18195636350E+03  0.10525562583E+02  0.10112388752E+04  0.10275324659E+04  0.00000000000E+00 0.  1.
<mgrwt>
<rscale>  0 0.12956995E+04</rscale>
<asrwt>0</asrwt>
<pdfrwt beam="1">  1        2 0.50126000E+00 0.12956995E+04</pdfrwt>
<pdfrwt beam="2">  1       -2 0.19817956E-01 0.12956995E+04</pdfrwt>
<totfact> 0.25699526E+01</totfact>
</mgrwt>
</event>
<event>
12    1  0.2214165E-007  0.1512923E+04  0.7818608E-02  0.8875905E-01
          1   -1    0    0  501    0  0.00000000000E+00  0.00000000000E+00  0.88539551042E+03  0.88539551042E+03  0.00000000000E+00 0. -1.
         -1   -1    0    0    0  501 -0.00000000000E+00 -0.00000000000E+00 -0.64630305446E+03  0.64630305446E+03  0.00000000000E+00 0.  1.
         23    2    1    2    0    0 -0.10533701078E+03  0.47089207553E+03  0.43340981801E+02  0.49300997657E+03  0.91351867299E+02 0.  0.
        254    2    1    2    0    0  0.10533701078E+03 -0.47089207553E+03  0.19575147416E+03  0.10386885883E+04  0.89873250258E+03 0.  0.
        -24    2    4    4    0    0 -0.26672478751E+03 -0.56209547095E+03  0.14783326771E+03  0.64438402618E+03  0.79263279188E+02 0.  0.
         24    2    4    4    0    0  0.37206179829E+03  0.91203395415E+02  0.47918206447E+02  0.39430456212E+03  0.80199078003E+02 0.  0.
         11    1    3    3    0    0 -0.83573399834E+02  0.25855847138E+03  0.62118734596E+02  0.27873954415E+03  0.00000000000E+00 0. -1.
        -11    1    3    3    0    0 -0.21763610949E+02  0.21233360415E+03 -0.18777752795E+02  0.21427043242E+03  0.00000000000E+00 0.  1.
          4    1    6    6  502    0  0.31202008826E+03  0.10234995624E+03  0.54549735979E+02  0.33287793966E+03  0.00000000000E+00 0. -1.
          3    1    5    5  503    0 -0.23955196969E+03 -0.46744576289E+03  0.99130498526E+02  0.53452553088E+03  0.00000000000E+00 0. -1.
         -4    1    5    5    0  503 -0.27172817817E+02 -0.94649708057E+02  0.48702769188E+02  0.10985849530E+03  0.00000000000E+00 0.  1.
         -3    1    6    6    0  502  0.60041710037E+02 -0.11146560824E+02 -0.66315295321E+01  0.61426622456E+02  0.00000000000E+00 0.  1.
<mgrwt>
<rscale>  0 0.15129228E+04</rscale>
<asrwt>0</asrwt>
<pdfrwt beam="1">  1        1 0.13621469E+00 0.15129228E+04</pdfrwt>
<pdfrwt beam="2">  1       -1 0.99431240E-01 0.15129228E+04</pdfrwt>
<totfact> 0.17463061E+01</totfact>
</mgrwt>
</event>
<event>
12    1  0.2214165E-007  0.1521999E+04  0.7818608E-02  0.8869954E-01
         -2   -1    0    0    0  501 -0.00000000000E+00  0.00000000000E+00  0.42773098110E+03  0.42773098110E+03  0.00000000000E+00 0. -1.
          2   -1    0    0  501    0  0.00000000000E+00 -0.00000000000E+00 -0.13539360849E+04  0.13539360849E+04  0.00000000000E+00 0.  1.
         23    2    1    2    0    0 -0.33816394766E+03  0.53174035217E+02  0.11138440191E+03  0.37027099993E+03  0.86670611416E+02 0.  0.
        254    2    1    2    0    0  0.33816394766E+03 -0.53174035217E+02 -0.10375895057E+04  0.14113960660E+04  0.89345651232E+03 0.  0.
        -24    2    4    4    0    0 -0.10876284813E+03 -0.28540627377E+03 -0.77669984944E+03  0.83845191480E+03  0.80329689839E+02 0.  0.
         24    2    4    4    0    0  0.44692679579E+03  0.23223223855E+03 -0.26088965623E+03  0.57294415123E+03  0.80784988001E+02 0.  0.
         11    1    3    3    0    0 -0.28168820505E+03  0.42514805683E+02  0.12517557732E+03  0.31116664140E+03  0.00000000000E+00 0. -1.
        -11    1    3    3    0    0 -0.56475742610E+02  0.10659229534E+02 -0.13791175409E+02  0.59104358526E+02  0.00000000000E+00 0.  1.
          4    1    6    6  502    0  0.36777390970E+02  0.41283684917E+01 -0.22377701275E+01  0.37075969686E+02  0.00000000000E+00 0. -1.
          1    1    5    5  503    0  0.87352027609E+00  0.18806120223E+01  0.90032103522E+00  0.22606010744E+01  0.00000000000E+00 0. -1.
         -2    1    5    5    0  503 -0.10963636840E+03 -0.28728688579E+03 -0.77760017048E+03  0.83619131373E+03  0.00000000000E+00 0.  1.
         -1    1    6    6    0  502  0.41014940482E+03  0.22810387006E+03 -0.25865188610E+03  0.53586818154E+03  0.00000000000E+00 0.  1.
<mgrwt>
<rscale>  0 0.15219992E+04</rscale>
<asrwt>0</asrwt>
<pdfrwt beam="1">  1        2 0.20829786E+00 0.15219992E+04</pdfrwt>
<pdfrwt beam="2">  1       -2 0.65804766E-01 0.15219992E+04</pdfrwt>
<totfact> 0.31541691E+01</totfact>
</mgrwt>
</event>
<event>
12    1  0.2214165E-007  0.3293213E+04  0.7818608E-02  0.8164624E-01
         -2   -1    0    0    0  501 -0.00000000000E+00  0.00000000000E+00  0.18347281686E+04  0.18347281686E+04  0.00000000000E+00 0.  1.
          2   -1    0    0  501    0  0.00000000000E+00 -0.00000000000E+00 -0.14777739581E+04  0.14777739581E+04  0.00000000000E+00 0. -1.
         23    2    1    2    0    0  0.83830694996E+03  0.11830250274E+04 -0.30320206998E+03  0.14840643435E+04  0.90602000591E+02 0.  0.
        254    2    1    2    0    0 -0.83830694996E+03 -0.11830250274E+04  0.66015628051E+03  0.18284377832E+04  0.89725785293E+03 0.  0.
        -24    2    4    4    0    0  0.77848324182E+02 -0.54004379877E+03  0.56261036093E+02  0.55414815229E+03  0.78785813052E+02 0.  0.
         24    2    4    4    0    0 -0.91615527414E+03 -0.64298122866E+03  0.60389524442E+03  0.12742896310E+04  0.79744909533E+02 0.  0.
         11    1    3    3    0    0  0.25442636474E+03  0.41964782426E+03 -0.77344093682E+02  0.49680899781E+03  0.00000000000E+00 0.  1.
        -11    1    3    3    0    0  0.58388058522E+03  0.76337720316E+03 -0.22585797630E+03  0.98725534567E+03  0.00000000000E+00 0. -1.
          4    1    6    6  502    0 -0.50806669637E+03 -0.31055598126E+03  0.33512510143E+03  0.68329028902E+03  0.00000000000E+00 0. -1.
          1    1    5    5  503    0  0.16488190245E+02 -0.18292356940E+03 -0.17043945200E+02  0.18445429983E+03  0.00000000000E+00 0. -1.
         -2    1    5    5    0  503  0.61360133938E+02 -0.35712022937E+03  0.73304981293E+02  0.36969385246E+03  0.00000000000E+00 0.  1.
         -3    1    6    6    0  502 -0.40808857777E+03 -0.33242524739E+03  0.26877014299E+03  0.59099934194E+03  0.00000000000E+00 0.  1.
<mgrwt>
<rscale>  0 0.32932133E+04</rscale>
<asrwt>0</asrwt>
<pdfrwt beam="1">  1        2 0.22734984E+00 0.32932133E+04</pdfrwt>
<pdfrwt beam="2">  1       -2 0.28226587E+00 0.32932133E+04</pdfrwt>
<totfact> 0.44542565E-01</totfact>
</mgrwt>
</event>
<event>
12    1  0.2214165E-007  0.1611250E+04  0.7818608E-02  0.8813666E-01
          2   -1    0    0  501    0  0.00000000000E+00  0.00000000000E+00  0.67656264328E+03  0.67656264328E+03  0.00000000000E+00 0. -1.
         -2   -1    0    0    0  501 -0.00000000000E+00 -0.00000000000E+00 -0.95930763880E+03  0.95930763880E+03  0.00000000000E+00 0.  1.
         23    2    1    2    0    0 -0.81900143144E+02 -0.32846928895E+03  0.34069243899E+03  0.48853891101E+03  0.89438371831E+02 0.  0.
        254    2    1    2    0    0  0.81900143144E+02  0.32846928895E+03 -0.62343743450E+03  0.11473313711E+04  0.90171798977E+03 0.  0.
        -24    2    4    4    0    0 -0.30380420970E+03  0.27691366654E+03 -0.12933286655E+02  0.41917035028E+03  0.80983554524E+02 0.  0.
         24    2    4    4    0    0  0.38570435285E+03  0.51555622409E+02 -0.61050414785E+03  0.72816102079E+03  0.77957216742E+02 0.  0.
         11    1    3    3    0    0 -0.65156389402E+02 -0.10253663292E+03  0.14503183198E+03  0.18919130122E+03  0.00000000000E+00 0. -1.
        -11    1    3    3    0    0 -0.16743753743E+02 -0.22593265603E+03  0.19566060701E+03  0.29934760979E+03  0.00000000000E+00 0.  1.
          2    1    6    6  502    0  0.70155495054E+02  0.39722836894E+02 -0.13895208316E+03  0.16064675120E+03  0.00000000000E+00 0. -1.
          1    1    5    5  503    0 -0.61472330595E+02  0.67019553644E+02 -0.35862507882E+02  0.97757800052E+02  0.00000000000E+00 0. -1.
         -2    1    5    5    0  503 -0.24233187911E+03  0.20989411289E+03  0.22929221227E+02  0.32141255023E+03  0.00000000000E+00 0.  1.
         -1    1    6    6    0  502  0.31554885779E+03  0.11832785515E+02 -0.47155206469E+03  0.56751426958E+03  0.00000000000E+00 0.  1.
<mgrwt>
<rscale>  0 0.16112501E+04</rscale>
<asrwt>0</asrwt>
<pdfrwt beam="1">  1        2 0.10408656E+00 0.16112501E+04</pdfrwt>
<pdfrwt beam="2">  1       -2 0.14758579E+00 0.16112501E+04</pdfrwt>
<totfact> 0.12809960E+01</totfact>
</mgrwt>
</event>
<event>
12    1  0.2214165E-007  0.3047195E+04  0.7818608E-02  0.8230381E-01
         -1   -1    0    0    0  501 -0.00000000000E+00  0.00000000000E+00  0.18899673318E+04  0.18899673318E+04  0.00000000000E+00 0.  1.
          1   -1    0    0  501    0  0.00000000000E+00 -0.00000000000E+00 -0.12282480018E+04  0.12282480018E+04  0.00000000000E+00 0. -1.
         23    2    1    2    0    0 -0.39932808060E+03 -0.12877909143E+04 -0.37610417723E+02  0.13519011072E+04  0.91398604834E+02 0.  0.
        254    2    1    2    0    0  0.39932808060E+03  0.12877909143E+04  0.69932974774E+03  0.17663142264E+04  0.90162935589E+03 0.  0.
        -24    2    4    4    0    0  0.37570669089E+03  0.12602312022E+03 -0.68722062227E+01  0.40419629145E+03  0.79309964045E+02 0.  0.
         24    2    4    4    0    0  0.23621389710E+02  0.11617677941E+04  0.70620195396E+03  0.13621179350E+04  0.79885490002E+02 0.  0.
         11    1    3    3    0    0 -0.30654311843E+03 -0.90926524285E+03 -0.60865906885E+02  0.96147627321E+03  0.00000000000E+00 0.  1.
        -11    1    3    3    0    0 -0.92784962166E+02 -0.37852567150E+03  0.23255489162E+02  0.39042483395E+03  0.00000000000E+00 0. -1.
          2    1    6    6  502    0 -0.31083959594E+01  0.10001486028E+04  0.62384466039E+03  0.11787659013E+04  0.00000000000E+00 0. -1.
          1    1    5    5  503    0  0.21275107053E+03  0.31827538045E+02  0.89995393970E+01  0.21530676232E+03  0.00000000000E+00 0. -1.
         -2    1    5    5    0  503  0.16295562035E+03  0.94195582179E+02 -0.15871745620E+02  0.18888952913E+03  0.00000000000E+00 0.  1.
         -1    1    6    6    0  502  0.26729785669E+02  0.16161919132E+03  0.82357293571E+02  0.18335203366E+03  0.00000000000E+00 0.  1.
<mgrwt>
<rscale>  0 0.30471945E+04</rscale>
<asrwt>0</asrwt>
<pdfrwt beam="1">  1        1 0.18896123E+00 0.30471945E+04</pdfrwt>
<pdfrwt beam="2">  1       -1 0.29076421E+00 0.30471945E+04</pdfrwt>
<totfact> 0.32738411E-01</totfact>
</mgrwt>
</event>
<event>
12    1  0.2214165E-007  0.1915763E+04  0.7818608E-02  0.8647050E-01
          2   -1    0    0  501    0  0.00000000000E+00  0.00000000000E+00  0.73271464465E+03  0.73271464465E+03  0.00000000000E+00 0.  1.
         -2   -1    0    0    0  501 -0.00000000000E+00 -0.00000000000E+00 -0.12522436350E+04  0.12522436350E+04  0.00000000000E+00 0. -1.
         23    2    1    2    0    0  0.60898960740E+02 -0.51394027252E+03 -0.75473376139E+03  0.92065298601E+03  0.10067563222E+03 0.  0.
        254    2    1    2    0    0 -0.60898960740E+02  0.51394027252E+03  0.23520477107E+03  0.10643052936E+04  0.89976729577E+03 0.  0.
        -24    2    4    4    0    0 -0.16302750976E+03  0.38817908553E+03  0.55239478966E+03  0.69921923499E+03  0.80663272694E+02 0.  0.
         24    2    4    4    0    0  0.10212854902E+03  0.12576118700E+03 -0.31719001858E+03  0.36508605862E+03  0.80201032606E+02 0.  0.
         11    1    3    3    0    0  0.59487755307E+01 -0.34632683347E+03 -0.55461166943E+03  0.65388972111E+03  0.00000000000E+00 0. -1.
        -11    1    3    3    0    0  0.54950185209E+02 -0.16761343905E+03 -0.20012209196E+03  0.26676326489E+03  0.00000000000E+00 0.  1.
          4    1    6    6  502    0  0.98734233097E+02  0.11060163572E+03 -0.31653629263E+03  0.34953740166E+03  0.00000000000E+00 0. -1.
          1    1    5    5  503    0 -0.41248579627E+02  0.20137124731E+03  0.25627629028E+03  0.32852604391E+03  0.00000000000E+00 0. -1.
         -2    1    5    5    0  503 -0.12177893013E+03  0.18680783822E+03  0.29611849938E+03  0.37069319109E+03  0.00000000000E+00 0.  1.
         -3    1    6    6    0  502  0.33943159246E+01  0.15159551279E+02 -0.65372595146E+00  0.15548656958E+02  0.00000000000E+00 0.  1.
<mgrwt>
<rscale>  0 0.19157633E+04</rscale>
<asrwt>0</asrwt>
<pdfrwt beam="1">  1        2 0.11272533E+00 0.19157633E+04</pdfrwt>
<pdfrwt beam="2">  1       -2 0.19265286E+00 0.19157633E+04</pdfrwt>
<totfact> 0.53753569E+00</totfact>
</mgrwt>
</event>
<event>
12    1  0.2214165E-007  0.2479073E+04  0.7818608E-02  0.8410479E-01
          2   -1    0    0  501    0  0.00000000000E+00  0.00000000000E+00  0.17013929889E+04  0.17013929889E+04  0.00000000000E+00 0. -1.
         -2   -1    0    0    0  501 -0.00000000000E+00 -0.00000000000E+00 -0.90305461314E+03  0.90305461314E+03  0.00000000000E+00 0.  1.
         23    2    1    2    0    0 -0.58405869215E+03  0.89626932929E+03  0.24490700767E+03  0.11012484006E+04  0.91352783058E+02 0.  0.
        254    2    1    2    0    0  0.58405869215E+03 -0.89626932929E+03  0.55343136811E+03  0.15031992014E+04  0.89938773257E+03 0.  0.
        -24    2    4    4    0    0  0.69884991542E+03 -0.99976218506E+03  0.50455594329E+03  0.13226477857E+04  0.83095331918E+02 0.  0.
         24    2    4    4    0    0 -0.11479122327E+03  0.10349285578E+03  0.48875424817E+02  0.18055141572E+03  0.79512328807E+02 0.  0.
         11    1    3    3    0    0 -0.23615898621E+03  0.38903341429E+03  0.14812676211E+03  0.47860171527E+03  0.00000000000E+00 0. -1.
        -11    1    3    3    0    0 -0.34789970594E+03  0.50723591499E+03  0.96780245560E+02  0.62264668536E+03  0.00000000000E+00 0.  1.
          4    1    6    6  502    0 -0.63288763495E+02  0.10377532043E+03  0.26548986463E+02  0.12441717485E+03  0.00000000000E+00 0. -1.
          1    1    5    5  503    0  0.59698076252E+03 -0.82608295086E+03  0.44930076721E+03  0.11138537839E+04  0.00000000000E+00 0. -1.
         -2    1    5    5    0  503  0.10186915290E+03 -0.17367923420E+03  0.55255176083E+02  0.20879400180E+03  0.00000000000E+00 0.  1.
         -3    1    6    6    0  502 -0.51502459771E+02 -0.28246465432E+00  0.22326438354E+02  0.56134240872E+02  0.00000000000E+00 0.  1.
<mgrwt>
<rscale>  0 0.24790730E+04</rscale>
<asrwt>0</asrwt>
<pdfrwt beam="1">  1        2 0.26175277E+00 0.24790730E+04</pdfrwt>
<pdfrwt beam="2">  1       -2 0.13893148E+00 0.24790730E+04</pdfrwt>
<totfact> 0.32048584E+00</totfact>
</mgrwt>
</event>
<event>
12    1  0.2214165E-007  0.2112532E+04  0.7818608E-02  0.8555743E-01
          2   -1    0    0  501    0  0.00000000000E+00  0.00000000000E+00  0.71868058161E+03  0.71868058161E+03  0.00000000000E+00 0. -1.
         -2   -1    0    0    0  501 -0.00000000000E+00 -0.00000000000E+00 -0.15524256562E+04  0.15524256562E+04  0.00000000000E+00 0.  1.
         23    2    1    2    0    0 -0.55845905852E+03 -0.56139643380E+03 -0.71291548099E+03  0.10684226121E+04  0.78967835261E+02 0.  0.
        254    2    1    2    0    0  0.55845905852E+03  0.56139643380E+03 -0.12082959360E+03  0.12026836257E+04  0.89710960145E+03 0.  0.
        -24    2    4    4    0    0  0.10247071246E+03 -0.31506924797E+02 -0.38307382549E+03  0.40611190714E+03  0.81782590612E+02 0.  0.
         24    2    4    4    0    0  0.45598834606E+03  0.59290335860E+03  0.26224423188E+03  0.79657171860E+03  0.79339153902E+02 0.  0.
         13    1    3    3    0    0 -0.24839382749E+03 -0.29928551301E+03 -0.32423200970E+03  0.50635729278E+03  0.00000000000E+00 0.  1.
        -13    1    3    3    0    0 -0.31006523103E+03 -0.26211092078E+03 -0.38868347129E+03  0.56206531928E+03  0.00000000000E+00 0. -1.
          4    1    6    6  502    0  0.22813396699E+02  0.10337533224E+02  0.17131595654E+02  0.30344805679E+02  0.00000000000E+00 0. -1.
          1    1    5    5  503    0  0.83685063564E+01 -0.26676028233E+02 -0.31442508801E+02  0.42074621099E+02  0.00000000000E+00 0. -1.
         -2    1    5    5    0  503  0.94102206106E+02 -0.48308965641E+01 -0.35163131669E+03  0.36403728604E+03  0.00000000000E+00 0.  1.
         -3    1    6    6    0  502  0.43317494936E+03  0.58256582537E+03  0.24511263623E+03  0.76622691292E+03  0.00000000000E+00 0.  1.
<mgrwt>
<rscale>  0 0.21125323E+04</rscale>
<asrwt>0</asrwt>
<pdfrwt beam="1">  1        2 0.11056624E+00 0.21125323E+04</pdfrwt>
<pdfrwt beam="2">  1       -2 0.23883471E+00 0.21125323E+04</pdfrwt>
<totfact> 0.27463403E+00</totfact>
</mgrwt>
</event>
<event>
12    1  0.2214165E-007  0.1678844E+04  0.7818608E-02  0.8773523E-01
         -2   -1    0    0    0  501 -0.00000000000E+00  0.00000000000E+00  0.61633422339E+03  0.61633422339E+03  0.00000000000E+00 0.  1.
          2   -1    0    0  501    0  0.00000000000E+00 -0.00000000000E+00 -0.11432580326E+04  0.11432580326E+04  0.00000000000E+00 0. -1.
         23    2    1    2    0    0 -0.53387920573E+03 -0.22224235257E+03 -0.48005488324E+02  0.58736961706E+03  0.90993794050E+02 0.  0.
        254    2    1    2    0    0  0.53387920573E+03  0.22224235257E+03 -0.47891832087E+03  0.11722226389E+04  0.90018025279E+03 0.  0.
        -24    2    4    4    0    0  0.33388245774E+03 -0.74442611918E+02 -0.67158640315E+03  0.75803162675E+03  0.81021307069E+02 0.  0.
         24    2    4    4    0    0  0.19999674799E+03  0.29668496449E+03  0.19266808229E+03  0.41419101215E+03  0.80078319509E+02 0.  0.
         13    1    3    3    0    0 -0.17560338021E+03 -0.42291213583E+02  0.16131506813E+02  0.18134309858E+03  0.00000000000E+00 0.  1.
        -13    1    3    3    0    0 -0.35827582552E+03 -0.17995113899E+03 -0.64136995137E+02  0.40602651849E+03  0.00000000000E+00 0. -1.
          2    1    6    6  502    0  0.18776474598E+03  0.23536500964E+03  0.13828994020E+03  0.33132521056E+03  0.00000000000E+00 0. -1.
          1    1    5    5  503    0  0.31730117063E+03 -0.54404169235E+02 -0.64478062475E+03  0.72068155281E+03  0.00000000000E+00 0. -1.
         -2    1    5    5    0  503  0.16581287111E+02 -0.20038442683E+02 -0.26805778407E+02  0.37350073941E+02  0.00000000000E+00 0.  1.
         -1    1    6    6    0  502  0.12232002010E+02  0.61319954850E+02  0.54378142086E+02  0.82865801587E+02  0.00000000000E+00 0.  1.
<mgrwt>
<rscale>  0 0.16788437E+04</rscale>
<asrwt>0</asrwt>
<pdfrwt beam="1">  1        2 0.17588585E+00 0.16788437E+04</pdfrwt>
<pdfrwt beam="2">  1       -2 0.94820649E-01 0.16788437E+04</pdfrwt>
<totfact> 0.18290005E+01</totfact>
</mgrwt>
</event>
<event>
12    1  0.2214165E-007  0.2302423E+04  0.7818608E-02  0.8476966E-01
         -2   -1    0    0    0  501 -0.00000000000E+00  0.00000000000E+00  0.99046638048E+03  0.99046638048E+03  0.00000000000E+00 0. -1.
          2   -1    0    0  501    0  0.00000000000E+00 -0.00000000000E+00 -0.13380446341E+04  0.13380446341E+04  0.00000000000E+00 0.  1.
         23    2    1    2    0    0 -0.64559557740E+03  0.57634956870E+03  0.30215406808E+03  0.92129647083E+03  0.92291014772E+02 0.  0.
        254    2    1    2    0    0  0.64559557740E+03 -0.57634956870E+03 -0.64973232170E+03  0.14072145437E+04  0.89951554038E+03 0.  0.
        -24    2    4    4    0    0 -0.11211110117E+03 -0.43574937015E+03 -0.13320221154E+03  0.47607569349E+03  0.80366810159E+02 0.  0.
         24    2    4    4    0    0  0.75770667857E+03 -0.14060019854E+03 -0.51653011016E+03  0.93113885026E+03  0.79551097926E+02 0.  0.
         13    1    3    3    0    0 -0.11781795853E+03  0.14110749119E+03  0.92557358401E+02  0.20581365362E+03  0.00000000000E+00 0. -1.
        -13    1    3    3    0    0 -0.52777761887E+03  0.43524207750E+03  0.20959670967E+03  0.71548281720E+03  0.00000000000E+00 0.  1.
          2    1    6    6  502    0 -0.15219660974E+01 -0.10624684523E+01 -0.43602838439E+01  0.47389128725E+01  0.00000000000E+00 0. -1.
          3    1    5    5  503    0 -0.31336632891E+02 -0.71395418520E+02 -0.53218728324E+02  0.94400865415E+02  0.00000000000E+00 0. -1.
         -4    1    5    5    0  503 -0.80774468283E+02 -0.36435395163E+03 -0.79983483215E+02  0.38167482807E+03  0.00000000000E+00 0.  1.
         -1    1    6    6    0  502  0.75922864467E+03 -0.13953773009E+03 -0.51216982631E+03  0.92639993739E+03  0.00000000000E+00 0.  1.
<mgrwt>
<rscale>  0 0.23024233E+04</rscale>
<asrwt>0</asrwt>
<pdfrwt beam="1">  1        2 0.20585302E+00 0.23024233E+04</pdfrwt>
<pdfrwt beam="2">  1       -2 0.15237944E+00 0.23024233E+04</pdfrwt>
<totfact> 0.40922678E+00</totfact>
</mgrwt>
</event>
<event>
12    1  0.2214165E-007  0.1104768E+04  0.7818608E-02  0.9200557E-01
         -2   -1    0    0    0  501 -0.00000000000E+00  0.00000000000E+00  0.21588209120E+03  0.21588209120E+03  0.00000000000E+00 0.  1.
          2   -1    0    0  501    0  0.00000000000E+00 -0.00000000000E+00 -0.14134013814E+04  0.14134013814E+04  0.00000000000E+00 0. -1.
         23    2    1    2    0    0 -0.13151458743E+03 -0.10264507755E+03 -0.24735441216E+03  0.31203714484E+03  0.91383126932E+02 0.  0.
        254    2    1    2    0    0  0.13151458743E+03  0.10264507755E+03 -0.95016487808E+03  0.13172463278E+04  0.89693505557E+03 0.  0.
        -24    2    4    4    0    0 -0.17643125531E+03 -0.30437150278E+03 -0.21920387423E+03  0.42212103755E+03  0.79786166175E+02 0.  0.
         24    2    4    4    0    0  0.30794584274E+03  0.40701658033E+03 -0.73096100385E+03  0.89512529025E+03  0.80325322128E+02 0.  0.
         11    1    3    3    0    0 -0.11263663950E+03 -0.60294455744E+02 -0.22888322230E+03  0.26212585412E+03  0.00000000000E+00 0. -1.
        -11    1    3    3    0    0 -0.18877947930E+02 -0.42350621807E+02 -0.18471189870E+02  0.49911290714E+02  0.00000000000E+00 0.  1.
          2    1    6    6  502    0  0.30378001369E+02  0.14774029828E+02 -0.29409689945E+02  0.44788668067E+02  0.00000000000E+00 0. -1.
          3    1    5    5  503    0 -0.41221224825E+02 -0.23977649676E+02 -0.44136936377E+02  0.64978351878E+02  0.00000000000E+00 0. -1.
         -4    1    5    5    0  503 -0.13521003048E+03 -0.28039385310E+03 -0.17506693785E+03  0.35714268567E+03  0.00000000000E+00 0.  1.
         -1    1    6    6    0  502  0.27756784137E+03  0.39224255050E+03 -0.70155131390E+03  0.85033662218E+03  0.00000000000E+00 0.  1.
<mgrwt>
<rscale>  0 0.11047679E+04</rscale>
<asrwt>0</asrwt>
<pdfrwt beam="1">  1        2 0.21744636E+00 0.11047679E+04</pdfrwt>
<pdfrwt beam="2">  1       -2 0.33212630E-01 0.11047679E+04</pdfrwt>
<totfact> 0.11936871E+02</totfact>
</mgrwt>
</event>
<event>
12    1  0.2463694E-007  0.1847861E+04  0.7818608E-02  0.8681254E-01
          2   -1    0    0  501    0  0.00000000000E+00  0.00000000000E+00  0.15205853553E+04  0.15205853553E+04  0.00000000000E+00 0. -1.
         -2   -1    0    0    0  501 -0.00000000000E+00 -0.00000000000E+00 -0.56139400814E+03  0.56139400814E+03  0.00000000000E+00 0.  1.
         23    2    1    2    0    0 -0.55333003410E+03 -0.43209736387E+03  0.37364014078E+03  0.80066584191E+03  0.92609811025E+02 0.  0.
        254    2    1    2    0    0  0.55333003410E+03  0.43209736387E+03  0.58555120634E+03  0.12813135215E+04  0.89778163636E+03 0.  0.
        -24    2    4    4    0    0  0.54944428242E+03  0.62308027446E+03  0.65728818930E+03  0.10623362272E+04  0.80077762050E+02 0.  0.
         24    2    4    4    0    0  0.38857516756E+01 -0.19098291060E+03 -0.71736982967E+02  0.21897729425E+03  0.79468795557E+02 0.  0.
         13    1    3    3    0    0 -0.26722699424E+03 -0.26193536998E+03  0.17581131703E+03  0.41343684366E+03  0.00000000000E+00 0.  1.
        -13    1    3    3    0    0 -0.28610303986E+03 -0.17016199389E+03  0.19782882375E+03  0.38722899825E+03  0.00000000000E+00 0. -1.
          2    1    6    6  502    0 -0.12055710603E+02 -0.14943833257E+03 -0.85257719397E+02  0.17247038620E+03  0.00000000000E+00 0. -1.
          3    1    5    5  503    0  0.52040313767E+03  0.59266124642E+03  0.64398717493E+03  0.10182270180E+04  0.00000000000E+00 0. -1.
         -4    1    5    5    0  503  0.29041144756E+02  0.30419028041E+02  0.13301014369E+02  0.44109209230E+02  0.00000000000E+00 0.  1.
         -1    1    6    6    0  502  0.15941462278E+02 -0.41544578028E+02  0.13520736430E+02  0.46506908053E+02  0.00000000000E+00 0.  1.
<mgrwt>
<rscale>  0 0.18478609E+04</rscale>
<asrwt>0</asrwt>
<pdfrwt beam="1">  1        2 0.23393621E+00 0.18478609E+04</pdfrwt>
<pdfrwt beam="2">  1       -2 0.86368310E-01 0.18478609E+04</pdfrwt>
<totfact> 0.13503215E+01</totfact>
</mgrwt>
</event>
<event>
12    1  0.2214165E-007  0.4689551E+04  0.7818608E-02  0.7878267E-01
         -2   -1    0    0    0  501 -0.00000000000E+00  0.00000000000E+00  0.27289137894E+04  0.27289137894E+04  0.00000000000E+00 0.  1.
          2   -1    0    0  501    0  0.00000000000E+00 -0.00000000000E+00 -0.20147104430E+04  0.20147104430E+04  0.00000000000E+00 0. -1.
         23    2    1    2    0    0  0.40301211380E+03 -0.11268214896E+04 -0.15925421247E+04  0.19942203522E+04  0.92622680619E+02 0.  0.
        254    2    1    2    0    0 -0.40301211380E+03  0.11268214896E+04  0.23067454712E+04  0.27494038802E+04  0.89777591539E+03 0.  0.
        -24    2    4    4    0    0  0.24069454953E+03  0.28410904975E+03  0.96346685322E+03  0.10360706930E+04  0.80760667296E+02 0.  0.
         24    2    4    4    0    0 -0.64370666334E+03  0.84271243982E+03  0.13432786180E+04  0.17133331872E+04  0.81182756992E+02 0.  0.
         13    1    3    3    0    0  0.30233222910E+03 -0.73208675723E+03 -0.10152904407E+04  0.12876996839E+04  0.00000000000E+00 0.  1.
        -13    1    3    3    0    0  0.10067988470E+03 -0.39473473234E+03 -0.57725168400E+03  0.70652066833E+03  0.00000000000E+00 0. -1.
          2    1    6    6  502    0 -0.61661741171E+03  0.81602644413E+03  0.13150485432E+04  0.16659738476E+04  0.00000000000E+00 0. -1.
          3    1    5    5  503    0  0.19348651624E+03  0.26832543512E+03  0.82003891540E+03  0.88425075282E+03  0.00000000000E+00 0. -1.
         -4    1    5    5    0  503  0.47208033289E+02  0.15783614638E+02  0.14342793782E+03  0.15181994021E+03  0.00000000000E+00 0.  1.
         -1    1    6    6    0  502 -0.27089251626E+02  0.26685995687E+02  0.28230074751E+02  0.47359339521E+02  0.00000000000E+00 0.  1.
<mgrwt>
<rscale>  0 0.46895506E+04</rscale>
<asrwt>0</asrwt>
<pdfrwt beam="1">  1        2 0.30995545E+00 0.46895506E+04</pdfrwt>
<pdfrwt beam="2">  1       -2 0.41983289E+00 0.46895506E+04</pdfrwt>
<totfact> 0.26913757E-02</totfact>
</mgrwt>
</event>
<event>
12    1  0.2214165E-007  0.1317181E+04  0.7818608E-02  0.9016050E-01
         -1   -1    0    0    0  501 -0.00000000000E+00  0.00000000000E+00  0.17606428895E+03  0.17606428895E+03  0.00000000000E+00 0.  1.
          1   -1    0    0  501    0  0.00000000000E+00 -0.00000000000E+00 -0.24635416015E+04  0.24635416015E+04  0.00000000000E+00 0. -1.
         23    2    1    2    0    0  0.31462373739E+03 -0.39036654649E+02 -0.35346585326E+03  0.48410522186E+03  0.94381141519E+02 0.  0.
        254    2    1    2    0    0 -0.31462373739E+03  0.39036654649E+02 -0.19340114593E+04  0.21555006686E+04  0.89736884897E+03 0.  0.
        -24    2    4    4    0    0  0.27845150822E+03  0.30487719417E+02 -0.31373522068E+03  0.42814669707E+03  0.80094082509E+02 0.  0.
         24    2    4    4    0    0 -0.59307524561E+03  0.85489352319E+01 -0.16202762386E+04  0.17273539715E+04  0.81518846179E+02 0.  0.
         13    1    3    3    0    0  0.82661869774E+02 -0.27822367699E+02 -0.15837325895E+03  0.18080143254E+03  0.00000000000E+00 0. -1.
        -13    1    3    3    0    0  0.23196186761E+03 -0.11214286950E+02 -0.19509259431E+03  0.30330378932E+03  0.00000000000E+00 0.  1.
          2    1    6    6  502    0 -0.58917661722E+03  0.14882319263E+02 -0.15788392470E+04  0.16852548584E+04  0.00000000000E+00 0. -1.
          1    1    5    5  503    0  0.23527520996E+03  0.97988180605E+01 -0.21702713656E+03  0.32023619293E+03  0.00000000000E+00 0. -1.
         -2    1    5    5    0  503  0.43176298262E+02  0.20688901357E+02 -0.96708084117E+02  0.10791050414E+03  0.00000000000E+00 0.  1.
         -3    1    6    6    0  502 -0.38986283834E+01 -0.63333840312E+01 -0.41436991604E+02  0.42099113171E+02  0.00000000000E+00 0.  1.
<mgrwt>
<rscale>  0 0.13171814E+04</rscale>
<asrwt>0</asrwt>
<pdfrwt beam="1">  1        1 0.37900637E+00 0.13171814E+04</pdfrwt>
<pdfrwt beam="2">  1       -1 0.27086816E-01 0.13171814E+04</pdfrwt>
<totfact> 0.17256980E+01</totfact>
</mgrwt>
</event>
<event>
12    1  0.2214165E-007  0.1365591E+04  0.7818608E-02  0.8979109E-01
         -1   -1    0    0    0  501 -0.00000000000E+00  0.00000000000E+00  0.21354143721E+03  0.21354143721E+03  0.00000000000E+00 0.  1.
          1   -1    0    0  501    0  0.00000000000E+00 -0.00000000000E+00 -0.21832293434E+04  0.21832293434E+04  0.00000000000E+00 0. -1.
         23    2    1    2    0    0 -0.71352896158E+02  0.19196539275E+03 -0.75403673478E+01  0.22806467694E+03  0.10007343266E+03 0.  0.
        254    2    1    2    0    0  0.71352896158E+02 -0.19196539275E+03 -0.19621475388E+04  0.21687061037E+04  0.90073372985E+03 0.  0.
        -24    2    4    4    0    0 -0.15224405468E+03  0.23042872280E+03 -0.22271395183E+03  0.36305895068E+03  0.77036672074E+02 0.  0.
         24    2    4    4    0    0  0.22359695084E+03 -0.42239411555E+03 -0.17394335870E+04  0.18056471530E+04  0.79498756068E+02 0.  0.
         13    1    3    3    0    0 -0.19923662470E+01  0.20442190792E+02  0.32801320886E+02  0.38701154240E+02  0.00000000000E+00 0.  1.
        -13    1    3    3    0    0 -0.69360529911E+02  0.17152320195E+03 -0.40341688234E+02  0.18936352270E+03  0.00000000000E+00 0. -1.
          2    1    6    6  502    0  0.20977783416E+03 -0.35641331627E+03 -0.14106643227E+04  0.14700377625E+04  0.00000000000E+00 0. -1.
          3    1    5    5  503    0 -0.98524125606E+02  0.20443497476E+03 -0.17225612191E+03  0.28490846560E+03  0.00000000000E+00 0. -1.
         -4    1    5    5    0  503 -0.53719929079E+02  0.25993748039E+02 -0.50457829925E+02  0.78150485079E+02  0.00000000000E+00 0.  1.
         -1    1    6    6    0  502  0.13819116681E+02 -0.65980799284E+02 -0.32876926429E+03  0.33560939051E+03  0.00000000000E+00 0.  1.
<mgrwt>
<rscale>  0 0.13655913E+04</rscale>
<asrwt>0</asrwt>
<pdfrwt beam="1">  1        1 0.33588144E+00 0.13655913E+04</pdfrwt>
<pdfrwt beam="2">  1       -1 0.32852529E-01 0.13655913E+04</pdfrwt>
<totfact> 0.19037257E+01</totfact>
</mgrwt>
</event>
<event>
12    1  0.2214165E-007  0.1843364E+04  0.7818608E-02  0.8683573E-01
          2   -1    0    0  501    0  0.00000000000E+00  0.00000000000E+00  0.12042949084E+04  0.12042949084E+04  0.00000000000E+00 0. -1.
         -2   -1    0    0    0  501 -0.00000000000E+00 -0.00000000000E+00 -0.70539031463E+03  0.70539031463E+03  0.00000000000E+00 0.  1.
         23    2    1    2    0    0 -0.30762609216E+03 -0.61538733074E+03  0.76792740927E+02  0.69702905840E+03  0.81344967803E+02 0.  0.
        254    2    1    2    0    0  0.30762609216E+03  0.61538733074E+03  0.42211185281E+03  0.12126561646E+04  0.90499788831E+03 0.  0.
        -24    2    4    4    0    0 -0.21923544946E+03 -0.14316478702E+02  0.29807457519E+03  0.37847809015E+03  0.78281980598E+02 0.  0.
         24    2    4    4    0    0  0.52686154162E+03  0.62970380944E+03  0.12403727762E+03  0.83417807445E+03  0.79736077099E+02 0.  0.
         11    1    3    3    0    0 -0.23647711522E+02 -0.85123385968E+02 -0.11403256255E+02  0.89079960441E+02  0.00000000000E+00 0. -1.
        -11    1    3    3    0    0 -0.28397838064E+03 -0.53026394477E+03  0.88195997182E+02  0.60794909796E+03  0.00000000000E+00 0.  1.
          4    1    6    6  502    0  0.41878745490E+03  0.51186823821E+03  0.13070321835E+03  0.67414787469E+03  0.00000000000E+00 0. -1.
          3    1    5    5  503    0 -0.18146151136E+03 -0.34596903255E+01  0.18673003827E+03  0.26040037780E+03  0.00000000000E+00 0. -1.
         -2    1    5    5    0  503 -0.37773938097E+02 -0.10856788377E+02  0.11134453692E+03  0.11807771235E+03  0.00000000000E+00 0.  1.
         -3    1    6    6    0  502  0.10807408672E+03  0.11783557124E+03 -0.66659407281E+01  0.16003019976E+03  0.00000000000E+00 0.  1.
<mgrwt>
<rscale>  0 0.18433643E+04</rscale>
<asrwt>0</asrwt>
<pdfrwt beam="1">  1        2 0.18527614E+00 0.18433643E+04</pdfrwt>
<pdfrwt beam="2">  1       -2 0.10852159E+00 0.18433643E+04</pdfrwt>
<totfact> 0.12028448E+01</totfact>
</mgrwt>
</event>
<event>
12    1  0.2214165E-007  0.1648779E+04  0.7818608E-02  0.8791129E-01
         -1   -1    0    0    0  501 -0.00000000000E+00  0.00000000000E+00  0.81941401172E+03  0.81941401172E+03  0.00000000000E+00 0.  1.
          1   -1    0    0  501    0  0.00000000000E+00 -0.00000000000E+00 -0.82939526116E+03  0.82939526116E+03  0.00000000000E+00 0. -1.
         23    2    1    2    0    0 -0.24735954632E+03  0.51120925229E+03 -0.10228353840E+03  0.58356602478E+03  0.86981252378E+02 0.  0.
        254    2    1    2    0    0  0.24735954632E+03 -0.51120925229E+03  0.92302288961E+02  0.10652432481E+04  0.89649418308E+03 0.  0.
        -24    2    4    4    0    0 -0.13897818837E+03 -0.53741101703E+03  0.28041571351E+03  0.62700154865E+03  0.79827511320E+02 0.  0.
         24    2    4    4    0    0  0.38633773468E+03  0.26201764737E+02 -0.18811342455E+03  0.43824169945E+03  0.82010663479E+02 0.  0.
         13    1    3    3    0    0 -0.11480870910E+03  0.33263752374E+03 -0.54302821342E+02  0.35605836360E+03  0.00000000000E+00 0. -1.
        -13    1    3    3    0    0 -0.13255083721E+03  0.17857172855E+03 -0.47980717060E+02  0.22750766117E+03  0.00000000000E+00 0.  1.
          4    1    6    6  502    0  0.12821821198E+01  0.77957529548E+01 -0.12131787036E+02  0.14477500192E+02  0.00000000000E+00 0. -1.
          1    1    5    5  503    0 -0.69522175047E+02 -0.33738710674E+03  0.21199584744E+03  0.40448193031E+03  0.00000000000E+00 0. -1.
         -2    1    5    5    0  503 -0.69456013320E+02 -0.20002391029E+03  0.68419866076E+02  0.22251961834E+03  0.00000000000E+00 0.  1.
         -3    1    6    6    0  502  0.38505555256E+03  0.18406011782E+02 -0.17598163751E+03  0.42376419926E+03  0.00000000000E+00 0.  1.
<mgrwt>
<rscale>  0 0.16487791E+04</rscale>
<asrwt>0</asrwt>
<pdfrwt beam="1">  1        1 0.12759927E+00 0.16487791E+04</pdfrwt>
<pdfrwt beam="2">  1       -1 0.12606369E+00 0.16487791E+04</pdfrwt>
<totfact> 0.10921519E+01</totfact>
</mgrwt>
</event>
<event>
12    1  0.2214165E-007  0.2831235E+04  0.7818608E-02  0.8293636E-01
         -2   -1    0    0    0  501 -0.00000000000E+00  0.00000000000E+00  0.56941839734E+03  0.56941839734E+03  0.00000000000E+00 0.  1.
          2   -1    0    0  501    0  0.00000000000E+00 -0.00000000000E+00 -0.35193338322E+04  0.35193338322E+04  0.00000000000E+00 0. -1.
         23    2    1    2    0    0 -0.17216158844E+03  0.10423840647E+04 -0.31085779741E+03  0.11062747743E+04  0.10491498994E+03 0.  0.
        254    2    1    2    0    0  0.17216158844E+03 -0.10423840647E+04 -0.26390576375E+04  0.29824774552E+04  0.90240922326E+03 0.  0.
        -24    2    4    4    0    0 -0.24367405825E+03 -0.78828239231E+03 -0.11775279594E+04  0.14398522303E+04  0.76394851260E+02 0.  0.
         24    2    4    4    0    0  0.41583564669E+03 -0.25410167243E+03 -0.14615296781E+04  0.15426252249E+04  0.78336707329E+02 0.  0.
         11    1    3    3    0    0 -0.29861632527E+02  0.27062743788E+03 -0.12609882694E+03  0.30005306428E+03  0.00000000000E+00 0.  1.
        -11    1    3    3    0    0 -0.14229995592E+03  0.77175662686E+03 -0.18475897047E+03  0.80622171003E+03  0.00000000000E+00 0. -1.
          4    1    6    6  502    0  0.21324510489E+02 -0.28251404187E+02 -0.65567839964E+02  0.74511866328E+02  0.00000000000E+00 0. -1.
          1    1    5    5  503    0 -0.66576160904E+02 -0.21816270240E+03 -0.26834690650E+03  0.35218945490E+03  0.00000000000E+00 0. -1.
         -2    1    5    5    0  503 -0.17709789735E+03 -0.57011968991E+03 -0.90918105290E+03  0.10876627754E+04  0.00000000000E+00 0.  1.
         -3    1    6    6    0  502  0.39451113620E+03 -0.22585026824E+03 -0.13959618381E+04  0.14681133586E+04  0.00000000000E+00 0.  1.
<mgrwt>
<rscale>  0 0.28312354E+04</rscale>
<asrwt>0</asrwt>
<pdfrwt beam="1">  1        2 0.54143596E+00 0.28312354E+04</pdfrwt>
<pdfrwt beam="2">  1       -2 0.87602833E-01 0.28312354E+04</pdfrwt>
<totfact> 0.76889252E-01</totfact>
</mgrwt>
</event>
<event>
12    1  0.2214165E-007  0.1337088E+04  0.7818608E-02  0.9000660E-01
          2   -1    0    0  501    0  0.00000000000E+00  0.00000000000E+00  0.86387508309E+03  0.86387508309E+03  0.00000000000E+00 0.  1.
         -2   -1    0    0    0  501 -0.00000000000E+00 -0.00000000000E+00 -0.51737910379E+03  0.51737910379E+03  0.00000000000E+00 0. -1.
         23    2    1    2    0    0 -0.22201943407E+03  0.28134746617E+03  0.66918569399E+02  0.37592394556E+03  0.91606179313E+02 0.  0.
        254    2    1    2    0    0  0.22201943407E+03 -0.28134746617E+03  0.27957740990E+03  0.10053302413E+04  0.89670303901E+03 0.  0.
        -24    2    4    4    0    0  0.25098959954E+03 -0.14958065716E+03  0.58545382354E+03  0.65920557298E+03  0.80160188829E+02 0.  0.
         24    2    4    4    0    0 -0.28970165467E+02 -0.13176680901E+03 -0.30587641364E+03  0.34612466834E+03  0.89666845435E+02 0.  0.
         13    1    3    3    0    0 -0.73228754058E+00  0.45505725372E+02 -0.74904397624E+00  0.45517780630E+02  0.00000000000E+00 0. -1.
        -13    1    3    3    0    0 -0.22128714653E+03  0.23584174079E+03  0.67667613375E+02  0.33040616493E+03  0.00000000000E+00 0.  1.
          2    1    6    6  502    0 -0.51760271315E+02 -0.59711656560E+02 -0.20773446845E+03  0.22225709662E+03  0.00000000000E+00 0. -1.
          1    1    5    5  503    0  0.13246625923E+03 -0.10084203251E+03  0.25254304152E+03  0.30248043437E+03  0.00000000000E+00 0. -1.
         -2    1    5    5    0  503  0.11852334031E+03 -0.48738624653E+02  0.33291078202E+03  0.35672513861E+03  0.00000000000E+00 0.  1.
         -1    1    6    6    0  502  0.22790105848E+02 -0.72055152446E+02 -0.98141945195E+02  0.12386757173E+03  0.00000000000E+00 0.  1.
<mgrwt>
<rscale>  0 0.13370878E+04</rscale>
<asrwt>0</asrwt>
<pdfrwt beam="1">  1        2 0.13290386E+00 0.13370878E+04</pdfrwt>
<pdfrwt beam="2">  1       -2 0.79596785E-01 0.13370878E+04</pdfrwt>
<totfact> 0.42444493E+01</totfact>
</mgrwt>
</event>
<event>
12    1  0.2214165E-007  0.1707312E+04  0.7818608E-02  0.8757205E-01
          1   -1    0    0  501    0  0.00000000000E+00  0.00000000000E+00  0.16548840027E+04  0.16548840027E+04  0.00000000000E+00 0. -1.
         -1   -1    0    0    0  501 -0.00000000000E+00 -0.00000000000E+00 -0.44035036346E+03  0.44035036346E+03  0.00000000000E+00 0.  1.
         23    2    1    2    0    0  0.34954240033E+03 -0.36092217808E+03  0.11700291796E+02  0.51067070374E+03  0.90570207958E+02 0.  0.
        254    2    1    2    0    0 -0.34954240033E+03  0.36092217808E+03  0.12028333474E+04  0.15845636624E+04  0.90088247308E+03 0.  0.
        -24    2    4    4    0    0 -0.48066208933E+03  0.37754662390E+03  0.33056712244E+03  0.69871094989E+03  0.73108629568E+02 0.  0.
         24    2    4    4    0    0  0.13111968900E+03 -0.16624445828E+02  0.87226622498E+03  0.88585271252E+03  0.80111896658E+02 0.  0.
         13    1    3    3    0    0  0.25645391800E+03 -0.20239626790E+03  0.74752268553E+01  0.32678546530E+03  0.00000000000E+00 0.  1.
        -13    1    3    3    0    0  0.93088482333E+02 -0.15852591017E+03  0.42250649409E+01  0.18388523843E+03  0.00000000000E+00 0. -1.
          4    1    6    6  502    0  0.57482000207E+02 -0.25269477034E+02  0.61257091147E+03  0.61578068206E+03  0.00000000000E+00 0. -1.
          3    1    5    5  503    0 -0.16592155514E+03  0.17569634269E+03  0.13069808212E+03  0.27473834090E+03  0.00000000000E+00 0. -1.
         -4    1    5    5    0  503 -0.31474053420E+03  0.20185028121E+03  0.19986904032E+03  0.42397260899E+03  0.00000000000E+00 0.  1.
         -3    1    6    6    0  502  0.73637688797E+02  0.86450312061E+01  0.25969531351E+03  0.27007203046E+03  0.00000000000E+00 0.  1.
<mgrwt>
<rscale>  0 0.17073122E+04</rscale>
<asrwt>0</asrwt>
<pdfrwt beam="1">  1        1 0.25459754E+00 0.17073122E+04</pdfrwt>
<pdfrwt beam="2">  1       -1 0.67746211E-01 0.17073122E+04</pdfrwt>
<totfact> 0.10736028E+01</totfact>
</mgrwt>
</event>
<event>
12    1  0.2214165E-007  0.3635895E+04  0.7818608E-02  0.8082319E-01
         -1   -1    0    0    0  501 -0.00000000000E+00  0.00000000000E+00  0.15721661482E+04  0.15721661482E+04  0.00000000000E+00 0.  1.
          1   -1    0    0  501    0  0.00000000000E+00 -0.00000000000E+00 -0.21021525827E+04  0.21021525827E+04  0.00000000000E+00 0. -1.
         23    2    1    2    0    0 -0.16721838249E+04  0.27218247619E+03 -0.52995822453E+02  0.16974750793E+04  0.91274548754E+02 0.  0.
        254    2    1    2    0    0  0.16721838249E+04 -0.27218247619E+03 -0.47699061211E+03  0.19768436516E+04  0.90006040588E+03 0.  0.
        -24    2    4    4    0    0  0.42776767834E+03 -0.45478877226E+03 -0.12967355421E+01  0.62974883213E+03  0.82242908717E+02 0.  0.
         24    2    4    4    0    0  0.12444161465E+04  0.18260629607E+03 -0.47569387657E+03  0.13470948194E+04  0.80393925522E+02 0.  0.
         13    1    3    3    0    0 -0.12048016535E+04  0.17959417177E+03 -0.75754581836E+02  0.12204670612E+04  0.00000000000E+00 0. -1.
        -13    1    3    3    0    0 -0.46738217132E+03  0.92588304425E+02  0.22758759384E+02  0.47700801808E+03  0.00000000000E+00 0.  1.
          2    1    6    6  502    0  0.72633172734E+03  0.10461879939E+03 -0.23506627344E+03  0.77055760605E+03  0.00000000000E+00 0. -1.
          1    1    5    5  503    0  0.58485946269E+02 -0.61114423838E+02 -0.28591863144E+02  0.89292067677E+02  0.00000000000E+00 0. -1.
         -2    1    5    5    0  503  0.36928173207E+03 -0.39367434843E+03  0.27295127602E+02  0.54045676445E+03  0.00000000000E+00 0.  1.
         -1    1    6    6    0  502  0.51808441919E+03  0.77987496679E+02 -0.24062760313E+03  0.57653721340E+03  0.00000000000E+00 0.  1.
<mgrwt>
<rscale>  0 0.36358950E+04</rscale>
<asrwt>0</asrwt>
<pdfrwt beam="1">  1        1 0.32340809E+00 0.36358950E+04</pdfrwt>
<pdfrwt beam="2">  1       -1 0.24187171E+00 0.36358950E+04</pdfrwt>
<totfact> 0.16147524E-01</totfact>
</mgrwt>
</event>
<event>
12    1  0.2214165E-007  0.3064809E+04  0.7818608E-02  0.8225463E-01
         -1   -1    0    0    0  501 -0.00000000000E+00  0.00000000000E+00  0.30148086820E+04  0.30148086820E+04  0.00000000000E+00 0.  1.
          1   -1    0    0  501    0  0.00000000000E+00 -0.00000000000E+00 -0.77890959897E+03  0.77890959897E+03  0.00000000000E+00 0. -1.
         23    2    1    2    0    0 -0.11786815525E+04  0.23645880311E+03  0.13522658758E+03  0.12128832672E+04  0.87158603044E+02 0.  0.
        254    2    1    2    0    0  0.11786815525E+04 -0.23645880311E+03  0.21006724955E+04  0.25808350138E+04  0.89592492285E+03 0.  0.
        -24    2    4    4    0    0  0.43707597780E+02  0.40492375055E+02  0.89276932574E+03  0.89844500824E+03  0.81341116985E+02 0.  0.
         24    2    4    4    0    0  0.11349739547E+04 -0.27695117816E+03  0.12079031697E+04  0.16823900055E+04  0.80859324274E+02 0.  0.
         13    1    3    3    0    0 -0.84746565421E+03  0.19984120626E+03  0.12367980214E+03  0.87944939379E+03  0.00000000000E+00 0.  1.
        -13    1    3    3    0    0 -0.33121589829E+03  0.36617596851E+02  0.11546785439E+02  0.33343387340E+03  0.00000000000E+00 0. -1.
          4    1    6    6  502    0  0.10980598350E+04 -0.27062607782E+03  0.11870199596E+04  0.16395091521E+04  0.00000000000E+00 0. -1.
          1    1    5    5  503    0  0.15645787740E+02  0.62919653590E+02  0.55828350737E+03  0.56203571780E+03  0.00000000000E+00 0. -1.
         -2    1    5    5    0  503  0.28061810040E+02 -0.22427278535E+02  0.33448581836E+03  0.33640929044E+03  0.00000000000E+00 0.  1.
         -3    1    6    6    0  502  0.36914119685E+02 -0.63251003381E+01  0.20883210106E+02  0.42880853428E+02  0.00000000000E+00 0.  1.
<mgrwt>
<rscale>  0 0.30648089E+04</rscale>
<asrwt>0</asrwt>
<pdfrwt beam="1">  1        1 0.11983225E+00 0.30648089E+04</pdfrwt>
<pdfrwt beam="2">  1       -1 0.46381671E+00 0.30648089E+04</pdfrwt>
<totfact> 0.50716636E-02</totfact>
</mgrwt>
</event>
<event>
12    1  0.2214165E-007  0.2919838E+04  0.7818608E-02  0.8266999E-01
         -2   -1    0    0    0  501 -0.00000000000E+00  0.00000000000E+00  0.87492774972E+03  0.87492774972E+03  0.00000000000E+00 0.  1.
          2   -1    0    0  501    0  0.00000000000E+00 -0.00000000000E+00 -0.24360458884E+04  0.24360458884E+04  0.00000000000E+00 0. -1.
         23    2    1    2    0    0 -0.43979026144E+03 -0.89006416937E+03  0.27914156066E+03  0.10346270673E+04  0.83087050173E+02 0.  0.
        254    2    1    2    0    0  0.43979026144E+03  0.89006416937E+03 -0.18402596994E+04  0.22763465708E+04  0.89976010678E+03 0.  0.
        -24    2    4    4    0    0  0.62227312403E+03  0.83113416709E+03 -0.17751866603E+04  0.20579640514E+04  0.76944872592E+02 0.  0.
         24    2    4    4    0    0 -0.18248286259E+03  0.58930002276E+02 -0.65073039045E+02  0.21838251939E+03  0.81753801488E+02 0.  0.
         13    1    3    3    0    0 -0.29511704038E+03 -0.57283422286E+03  0.22050120561E+03  0.68106820222E+03  0.00000000000E+00 0.  1.
        -13    1    3    3    0    0 -0.14467322106E+03 -0.31722994651E+03  0.58640355047E+02  0.35355886510E+03  0.00000000000E+00 0. -1.
          2    1    6    6  502    0 -0.15574019589E+02  0.20333150562E+02 -0.36672466690E+02  0.44730939081E+02  0.00000000000E+00 0. -1.
          1    1    5    5  503    0  0.22611746340E+03  0.34396322712E+03 -0.64813854766E+03  0.76780426270E+03  0.00000000000E+00 0. -1.
         -2    1    5    5    0  503  0.39615566064E+03  0.48717093998E+03 -0.11270481127E+04  0.12901597887E+04  0.00000000000E+00 0.  1.
         -1    1    6    6    0  502 -0.16690884300E+03  0.38596851714E+02 -0.28400572355E+02  0.17365158031E+03  0.00000000000E+00 0.  1.
<mgrwt>
<rscale>  0 0.29198385E+04</rscale>
<asrwt>0</asrwt>
<pdfrwt beam="1">  1        2 0.37477629E+00 0.29198385E+04</pdfrwt>
<pdfrwt beam="2">  1       -2 0.13460427E+00 0.29198385E+04</pdfrwt>
<totfact> 0.12979586E+00</totfact>
</mgrwt>
</event>
<event>
12    1  0.2214165E-007  0.1953119E+04  0.7818608E-02  0.8628858E-01
          1   -1    0    0  501    0  0.00000000000E+00  0.00000000000E+00  0.13078947251E+04  0.13078947251E+04  0.00000000000E+00 0. -1.
         -1   -1    0    0    0  501 -0.00000000000E+00 -0.00000000000E+00 -0.72916271770E+03  0.72916271770E+03  0.00000000000E+00 0.  1.
         23    2    1    2    0    0 -0.29728382768E+03  0.22083826405E+03 -0.47037254587E+03  0.60576797120E+03  0.92505621202E+02 0.  0.
        254    2    1    2    0    0  0.29728382768E+03 -0.22083826405E+03  0.10491045532E+04  0.14312894716E+04  0.90045653683E+03 0.  0.
        -24    2    4    4    0    0  0.56625283251E+03 -0.29068218550E+03  0.90312429107E+03  0.11077286455E+04  0.79314964356E+02 0.  0.
         24    2    4    4    0    0 -0.26896900483E+03  0.69843921449E+02  0.14598026217E+03  0.32356082610E+03  0.78478483173E+02 0.  0.
         13    1    3    3    0    0 -0.10079264836E+03  0.11250797343E+03 -0.13704169920E+03  0.20395496897E+03  0.00000000000E+00 0. -1.
        -13    1    3    3    0    0 -0.19649117932E+03  0.10833029062E+03 -0.33333084667E+03  0.40181300223E+03  0.00000000000E+00 0.  1.
          2    1    6    6  502    0 -0.14519775785E+03  0.68029689242E+02  0.11070299963E+03  0.19484758564E+03  0.00000000000E+00 0. -1.
          1    1    5    5  503    0  0.49070033429E+03 -0.27245351635E+03  0.82240761895E+03  0.99567666858E+03  0.00000000000E+00 0. -1.
         -2    1    5    5    0  503  0.75552498220E+02 -0.18228669156E+02  0.80716672117E+02  0.11205197689E+03  0.00000000000E+00 0.  1.
         -1    1    6    6    0  502 -0.12377124698E+03  0.18142322073E+01  0.35277262542E+02  0.12871324046E+03  0.00000000000E+00 0.  1.
<mgrwt>
<rscale>  0 0.19531186E+04</rscale>
<asrwt>0</asrwt>
<pdfrwt beam="1">  1        1 0.20121457E+00 0.19531186E+04</pdfrwt>
<pdfrwt beam="2">  1       -1 0.11217888E+00 0.19531186E+04</pdfrwt>
<totfact> 0.60581109E+00</totfact>
</mgrwt>
</event>
<event>
12    1  0.2214165E-007  0.1631198E+04  0.7818608E-02  0.8801608E-01
         -1   -1    0    0    0  501 -0.00000000000E+00  0.00000000000E+00  0.47694363282E+03  0.47694363282E+03  0.00000000000E+00 0.  1.
          1   -1    0    0  501    0  0.00000000000E+00 -0.00000000000E+00 -0.13947174942E+04  0.13947174942E+04  0.00000000000E+00 0. -1.
         23    2    1    2    0    0  0.22530946557E+03  0.37673642788E+03 -0.72423730196E+03  0.85181666618E+03  0.91527437832E+02 0.  0.
        254    2    1    2    0    0 -0.22530946557E+03 -0.37673642788E+03 -0.19353655941E+03  0.10198444608E+04  0.89996201757E+03 0.  0.
        -24    2    4    4    0    0 -0.31702782747E+03 -0.51357945570E+03 -0.41101226526E+03  0.73473777015E+03  0.81473971174E+02 0.  0.
         24    2    4    4    0    0  0.91718361897E+02  0.13684302783E+03  0.21747570585E+03  0.28510669068E+03  0.82776024669E+02 0.  0.
         13    1    3    3    0    0  0.13673518081E+03  0.14084375415E+03 -0.32762998358E+03  0.38193569995E+03  0.00000000000E+00 0. -1.
        -13    1    3    3    0    0  0.88574284758E+02  0.23589267373E+03 -0.39660731838E+03  0.46988096624E+03  0.00000000000E+00 0.  1.
          2    1    6    6  502    0  0.71493212739E+02  0.80554435381E+02  0.19189421898E+03  0.22005382934E+03  0.00000000000E+00 0. -1.
          3    1    5    5  503    0 -0.30078741291E+03 -0.44782228384E+03 -0.38219988624E+03  0.66113131729E+03  0.00000000000E+00 0. -1.
         -4    1    5    5    0  503 -0.16240414556E+02 -0.65757171865E+02 -0.28812379019E+02  0.73606452851E+02  0.00000000000E+00 0.  1.
         -1    1    6    6    0  502  0.20225149159E+02  0.56288592446E+02  0.25581486866E+02  0.65052861338E+02  0.00000000000E+00 0.  1.
<mgrwt>
<rscale>  0 0.16311979E+04</rscale>
<asrwt>0</asrwt>
<pdfrwt beam="1">  1        1 0.21457192E+00 0.16311979E+04</pdfrwt>
<pdfrwt beam="2">  1       -1 0.73375943E-01 0.16311979E+04</pdfrwt>
<totfact> 0.13879759E+01</totfact>
</mgrwt>
</event>
<event>
12    1  0.2214165E-007  0.3979236E+04  0.7818608E-02  0.8008748E-01
          2   -1    0    0  501    0  0.00000000000E+00  0.00000000000E+00  0.44646452792E+04  0.44646452792E+04  0.00000000000E+00 0. -1.
         -2   -1    0    0    0  501 -0.00000000000E+00 -0.00000000000E+00 -0.88665063509E+03  0.88665063509E+03  0.00000000000E+00 0.  1.
         23    2    1    2    0    0 -0.56735340617E+03 -0.12211106928E+04 -0.78780582174E+02  0.13517034406E+04  0.88851559811E+02 0.  0.
        254    2    1    2    0    0  0.56735340617E+03  0.12211106928E+04  0.36567752263E+04  0.39995924737E+04  0.90096264546E+03 0.  0.
        -24    2    4    4    0    0  0.58508287106E+03  0.25298936961E+03  0.12860365844E+04  0.14372835517E+04  0.74621205559E+02 0.  0.
         24    2    4    4    0    0 -0.17729464889E+02  0.96812132317E+03  0.23707386419E+04  0.25623089220E+04  0.86325393034E+02 0.  0.
         13    1    3    3    0    0 -0.24480227013E+03 -0.63152037077E+03 -0.45011715615E+02  0.67880202173E+03  0.00000000000E+00 0.  1.
        -13    1    3    3    0    0 -0.32255113604E+03 -0.58959032201E+03 -0.33768866559E+02  0.67290141888E+03  0.00000000000E+00 0. -1.
          2    1    6    6  502    0 -0.19941379746E+02  0.61539327636E+02  0.18647115943E+03  0.19737335375E+03  0.00000000000E+00 0. -1.
          1    1    5    5  503    0  0.39090055648E+03  0.18890198961E+03  0.80554886942E+03  0.91509354044E+03  0.00000000000E+00 0. -1.
         -2    1    5    5    0  503  0.19418231458E+03  0.64087380003E+02  0.48048771500E+03  0.52219001124E+03  0.00000000000E+00 0.  1.
         -1    1    6    6    0  502  0.22119148569E+01  0.90658199554E+03  0.21842674824E+04  0.23649355683E+04  0.00000000000E+00 0.  1.
<mgrwt>
<rscale>  0 0.39792364E+04</rscale>
<asrwt>0</asrwt>
<pdfrwt beam="1">  1        2 0.68686849E+00 0.39792364E+04</pdfrwt>
<pdfrwt beam="2">  1       -2 0.13640779E+00 0.39792364E+04</pdfrwt>
<totfact> 0.40165788E-02</totfact>
</mgrwt>
</event>
<event>
12    1  0.2214165E-007  0.1131370E+04  0.7818608E-02  0.9175145E-01
          2   -1    0    0  501    0  0.00000000000E+00  0.00000000000E+00  0.18001675297E+04  0.18001675297E+04  0.00000000000E+00 0.  1.
         -2   -1    0    0    0  501 -0.00000000000E+00 -0.00000000000E+00 -0.17776100377E+03  0.17776100377E+03  0.00000000000E+00 0. -1.
         23    2    1    2    0    0 -0.13562794354E+03 -0.30907491905E+02  0.51192496361E+03  0.54155557781E+03  0.10892687166E+03 0.  0.
        254    2    1    2    0    0  0.13562794354E+03  0.30907491905E+02  0.11104815623E+04  0.14363729557E+04  0.90035979218E+03 0.  0.
        -24    2    4    4    0    0 -0.56296868195E+01  0.46570956103E+02 -0.14402889380E+03  0.17133652413E+03  0.80070811949E+02 0.  0.
         24    2    4    4    0    0  0.14125763036E+03 -0.15663464198E+02  0.12545104561E+04  0.12650364315E+04  0.79508655735E+02 0.  0.
         13    1    3    3    0    0 -0.13521216208E+02  0.19896046644E+01 -0.57995269385E+00  0.13679113992E+02  0.00000000000E+00 0. -1.
        -13    1    3    3    0    0 -0.12210672733E+03 -0.32897096570E+02  0.51250491630E+03  0.52787646382E+03  0.00000000000E+00 0.  1.
          4    1    6    6  502    0  0.12621685945E+03 -0.40207567007E+02  0.95448798275E+03  0.96363616229E+03  0.00000000000E+00 0. -1.
          3    1    5    5  503    0 -0.22099463612E+02 -0.10284811141E+02 -0.13154853889E+02  0.27698624749E+02  0.00000000000E+00 0. -1.
         -4    1    5    5    0  503  0.16469776792E+02  0.56855767245E+02 -0.13087403991E+03  0.14363789938E+03  0.00000000000E+00 0.  1.
         -3    1    6    6    0  502  0.15040770915E+02  0.24544102809E+02  0.30002247338E+03  0.30140026925E+03  0.00000000000E+00 0.  1.
<mgrwt>
<rscale>  0 0.11313701E+04</rscale>
<asrwt>0</asrwt>
<pdfrwt beam="1">  1        2 0.27694884E+00 0.11313701E+04</pdfrwt>
<pdfrwt beam="2">  1       -2 0.27347848E-01 0.11313701E+04</pdfrwt>
<totfact> 0.10413277E+02</totfact>
</mgrwt>
</event>
<event>
12    1  0.2214165E-007  0.2164273E+04  0.7818608E-02  0.8533447E-01
         -1   -1    0    0    0  501 -0.00000000000E+00  0.00000000000E+00  0.61177729178E+03  0.61177729178E+03  0.00000000000E+00 0.  1.
          1   -1    0    0  501    0  0.00000000000E+00 -0.00000000000E+00 -0.19141269518E+04  0.19141269518E+04  0.00000000000E+00 0. -1.
         23    2    1    2    0    0  0.61692940118E+03  0.62416356736E+03 -0.35264313180E+03  0.95025219237E+03  0.91869504338E+02 0.  0.
        254    2    1    2    0    0 -0.61692940118E+03 -0.62416356736E+03 -0.94970652820E+03  0.15756520512E+04  0.90030819826E+03 0.  0.
        -24    2    4    4    0    0 -0.80986951417E+02 -0.16254558309E+03  0.16154632601E+03  0.25607901398E+03  0.80618193175E+02 0.  0.
         24    2    4    4    0    0 -0.53594244976E+03 -0.46161798427E+03 -0.11112528542E+04  0.13195730372E+04  0.77875680883E+02 0.  0.
         13    1    3    3    0    0  0.52062029311E+03  0.50109644151E+03 -0.25647908517E+03  0.76676244980E+03  0.00000000000E+00 0.  1.
        -13    1    3    3    0    0  0.96309108069E+02  0.12306712585E+03 -0.96164046634E+02  0.18348974256E+03  0.00000000000E+00 0. -1.
          4    1    6    6  502    0 -0.24971993456E+03 -0.16436693525E+03 -0.46701498697E+03  0.55450837070E+03  0.00000000000E+00 0. -1.
          3    1    5    5  503    0 -0.71912544428E+01 -0.43097893061E+02  0.22700802722E+01  0.43752666104E+02  0.00000000000E+00 0. -1.
         -4    1    5    5    0  503 -0.73795696975E+02 -0.11944769003E+03  0.15927624574E+03  0.21232634788E+03  0.00000000000E+00 0.  1.
         -3    1    6    6    0  502 -0.28622251520E+03 -0.29725104902E+03 -0.64423786724E+03  0.76506466651E+03  0.00000000000E+00 0.  1.
<mgrwt>
<rscale>  0 0.21642730E+04</rscale>
<asrwt>0</asrwt>
<pdfrwt beam="1">  1        1 0.29448106E+00 0.21642730E+04</pdfrwt>
<pdfrwt beam="2">  1       -1 0.94119585E-01 0.21642730E+04</pdfrwt>
<totfact> 0.34073902E+00</totfact>
</mgrwt>
</event>
<event>
12    1  0.2214165E-007  0.1665635E+04  0.7818608E-02  0.8781210E-01
          1   -1    0    0  501    0  0.00000000000E+00  0.00000000000E+00  0.89435519305E+03  0.89435519305E+03  0.00000000000E+00 0. -1.
         -1   -1    0    0    0  501 -0.00000000000E+00 -0.00000000000E+00 -0.77551444196E+03  0.77551444196E+03  0.00000000000E+00 0.  1.
         23    2    1    2    0    0  0.19485250546E+03 -0.55114602575E+03  0.54242084205E+02  0.59393552416E+03  0.89931988674E+02 0.  0.
        254    2    1    2    0    0 -0.19485250546E+03  0.55114602575E+03  0.64598666890E+02  0.10759341108E+04  0.90096158771E+03 0.  0.
        -24    2    4    4    0    0  0.25233884436E+02  0.10087320038E+02 -0.34678877043E+03  0.35675138480E+03  0.79187096898E+02 0.  0.
         24    2    4    4    0    0 -0.22008638989E+03  0.54105870571E+03  0.41138743732E+03  0.71918272604E+03  0.82471981981E+02 0.  0.
         11    1    3    3    0    0  0.67333938424E+02 -0.21124218099E+03 -0.22576265938E+02  0.22286050811E+03  0.00000000000E+00 0.  1.
        -11    1    3    3    0    0  0.12751856703E+03 -0.33990384476E+03  0.76818350143E+02  0.37107501605E+03  0.00000000000E+00 0. -1.
          4    1    6    6  502    0 -0.20395653064E+03  0.47099736945E+03  0.38856118137E+03  0.64375195540E+03  0.00000000000E+00 0. -1.
          3    1    5    5  503    0  0.28950565380E+02 -0.19265701334E+02 -0.29550903625E+03  0.29754813559E+03  0.00000000000E+00 0. -1.
         -4    1    5    5    0  503 -0.37166809442E+01  0.29353021371E+02 -0.51279734176E+02  0.59203249218E+02  0.00000000000E+00 0.  1.
         -3    1    6    6    0  502 -0.16129859248E+02  0.70061336260E+02  0.22826255947E+02  0.75430770634E+02  0.00000000000E+00 0.  1.
<mgrwt>
<rscale>  0 0.16656355E+04</rscale>
<asrwt>0</asrwt>
<pdfrwt beam="1">  1        1 0.13759311E+00 0.16656355E+04</pdfrwt>
<pdfrwt beam="2">  1       -1 0.11930991E+00 0.16656355E+04</pdfrwt>
<totfact> 0.11023710E+01</totfact>
</mgrwt>
</event>
<event>
12    1  0.2214165E-007  0.2185248E+04  0.7818608E-02  0.8524593E-01
         -1   -1    0    0    0  501 -0.00000000000E+00  0.00000000000E+00  0.70088312320E+03  0.70088312320E+03  0.00000000000E+00 0.  1.
          1   -1    0    0  501    0  0.00000000000E+00 -0.00000000000E+00 -0.17033185475E+04  0.17033185475E+04  0.00000000000E+00 0. -1.
         23    2    1    2    0    0  0.82552503893E+03 -0.75620419930E+01 -0.82182995215E+03  0.11673137540E+04  0.75287153911E+02 0.  0.
        254    2    1    2    0    0 -0.82552503893E+03  0.75620419930E+01 -0.18060547214E+03  0.12368879167E+04  0.90317473813E+03 0.  0.
        -24    2    4    4    0    0 -0.26791241271E+03 -0.40875475950E+03 -0.20420892900E+03  0.53596150328E+03  0.81828674813E+02 0.  0.
         24    2    4    4    0    0 -0.55761262622E+03  0.41631680149E+03  0.23603456850E+02  0.70092641344E+03  0.80555532196E+02 0.  0.
         13    1    3    3    0    0  0.31403762021E+03 -0.32955190660E+01 -0.26196850228E+03  0.40897186155E+03  0.00000000000E+00 0. -1.
        -13    1    3    3    0    0  0.51148741872E+03 -0.42665229269E+01 -0.55986144987E+03  0.75834189241E+03  0.00000000000E+00 0.  1.
          4    1    6    6  502    0 -0.99362636580E+02  0.40930953045E+02 -0.75943833125E+01  0.10773092000E+03  0.00000000000E+00 0. -1.
          1    1    5    5  503    0 -0.13409583006E+01  0.39566033498E+01 -0.11120624876E+01  0.43231426310E+01  0.00000000000E+00 0. -1.
         -4    1    5    5    0  503 -0.26657145441E+03 -0.41271136285E+03 -0.20309686651E+03  0.53163836065E+03  0.00000000000E+00 0.  1.
         -3    1    6    6    0  502 -0.45824998964E+03  0.37538584845E+03  0.31197840163E+02  0.59319549345E+03  0.00000000000E+00 0.  1.
<mgrwt>
<rscale>  0 0.21852480E+04</rscale>
<asrwt>0</asrwt>
<pdfrwt beam="1">  1        1 0.26204901E+00 0.21852480E+04</pdfrwt>
<pdfrwt beam="2">  1       -1 0.10782817E+00 0.21852480E+04</pdfrwt>
<totfact> 0.34620642E+00</totfact>
</mgrwt>
</event>
<event>
12    1  0.2214165E-007  0.1885764E+04  0.7818608E-02  0.8661975E-01
          1   -1    0    0  501    0  0.00000000000E+00  0.00000000000E+00  0.22564493959E+04  0.22564493959E+04  0.00000000000E+00 0. -1.
         -1   -1    0    0    0  501 -0.00000000000E+00 -0.00000000000E+00 -0.39399345599E+03  0.39399345599E+03  0.00000000000E+00 0.  1.
         23    2    1    2    0    0 -0.31484067824E+03  0.65319134989E+03  0.74402125976E+03  0.10428077956E+04  0.89982616563E+02 0.  0.
        254    2    1    2    0    0  0.31484067824E+03 -0.65319134989E+03  0.11184346802E+04  0.16076350563E+04  0.89878292613E+03 0.  0.
        -24    2    4    4    0    0  0.55239510936E+03 -0.68034813213E+03  0.72247945562E+03  0.11384868177E+04  0.78496704316E+02 0.  0.
         24    2    4    4    0    0 -0.23755443112E+03  0.27156782242E+02  0.39595522454E+03  0.46914823861E+03  0.78421498227E+02 0.  0.
         11    1    3    3    0    0 -0.22433419202E+03  0.52536602075E+03  0.61979618880E+03  0.84290129975E+03  0.00000000000E+00 0. -1.
        -11    1    3    3    0    0 -0.90506486214E+02  0.12782532914E+03  0.12422507097E+03  0.19990649582E+03  0.00000000000E+00 0.  1.
          4    1    6    6  502    0 -0.32619915624E+02  0.33244951067E+02  0.70370856462E+02  0.84388050730E+02  0.00000000000E+00 0. -1.
          1    1    5    5  503    0  0.34141135699E+03 -0.45002073629E+03  0.42233745438E+03  0.70530086002E+03  0.00000000000E+00 0. -1.
         -2    1    5    5    0  503  0.21098375237E+03 -0.23032739584E+03  0.30014200124E+03  0.43318595770E+03  0.00000000000E+00 0.  1.
         -3    1    6    6    0  502 -0.20493451550E+03 -0.60881688247E+01  0.32558436808E+03  0.38476018788E+03  0.00000000000E+00 0.  1.
<mgrwt>
<rscale>  0 0.18857638E+04</rscale>
<asrwt>0</asrwt>
<pdfrwt beam="1">  1        1 0.34714606E+00 0.18857638E+04</pdfrwt>
<pdfrwt beam="2">  1       -1 0.60614379E-01 0.18857638E+04</pdfrwt>
<totfact> 0.51557758E+00</totfact>
</mgrwt>
</event>
<event>
12    1  0.2214165E-007  0.1440176E+04  0.7818608E-02  0.8925240E-01
         -2   -1    0    0    0  501 -0.00000000000E+00  0.00000000000E+00  0.33652486786E+03  0.33652486786E+03  0.00000000000E+00 0.  1.
          2   -1    0    0  501    0  0.00000000000E+00 -0.00000000000E+00 -0.15408277473E+04  0.15408277473E+04  0.00000000000E+00 0. -1.
         23    2    1    2    0    0 -0.17775412217E+03  0.38046555460E+03 -0.50837876090E+03  0.66563544468E+03  0.90945118043E+02 0.  0.
        254    2    1    2    0    0  0.17775412217E+03 -0.38046555460E+03 -0.69592411849E+03  0.12117171704E+04  0.89866431788E+03 0.  0.
        -24    2    4    4    0    0 -0.17064183843E+03 -0.31400100173E+03  0.61675551709E+02  0.37132051809E+03  0.79748275023E+02 0.  0.
         24    2    4    4    0    0  0.34839596061E+03 -0.66464552870E+02 -0.75759967020E+03  0.84039665234E+03  0.80696907105E+02 0.  0.
         13    1    3    3    0    0 -0.16795180414E+03  0.28985929401E+03 -0.36216986687E+03  0.49334899545E+03  0.00000000000E+00 0.  1.
        -13    1    3    3    0    0 -0.98023180308E+01  0.90606260584E+02 -0.14620889403E+03  0.17228644923E+03  0.00000000000E+00 0. -1.
          4    1    6    6  502    0  0.31646865186E+03 -0.41992817366E+02 -0.62474649102E+03  0.70158676039E+03  0.00000000000E+00 0. -1.
          3    1    5    5  503    0 -0.97485450676E+02 -0.25213148790E+03  0.43430097890E+02  0.27378800866E+03  0.00000000000E+00 0. -1.
         -4    1    5    5    0  503 -0.73156387757E+02 -0.61869513825E+02  0.18245453819E+02  0.97532509429E+02  0.00000000000E+00 0.  1.
         -3    1    6    6    0  502  0.31927308746E+02 -0.24471735504E+02 -0.13285317918E+03  0.13880989194E+03  0.00000000000E+00 0.  1.
<mgrwt>
<rscale>  0 0.14401762E+04</rscale>
<asrwt>0</asrwt>
<pdfrwt beam="1">  1        2 0.23705042E+00 0.14401762E+04</pdfrwt>
<pdfrwt beam="2">  1       -2 0.51773057E-01 0.14401762E+04</pdfrwt>
<totfact> 0.41154689E+01</totfact>
</mgrwt>
</event>
<event>
12    1  0.2214165E-007  0.1702555E+04  0.7818608E-02  0.8759908E-01
         -2   -1    0    0    0  501 -0.00000000000E+00  0.00000000000E+00  0.68209018521E+03  0.68209018521E+03  0.00000000000E+00 0.  1.
          2   -1    0    0  501    0  0.00000000000E+00 -0.00000000000E+00 -0.10624305295E+04  0.10624305295E+04  0.00000000000E+00 0. -1.
         23    2    1    2    0    0  0.10421460543E+03  0.59592743328E+03 -0.61393506755E+02  0.61412719212E+03  0.85981717280E+02 0.  0.
        254    2    1    2    0    0 -0.10421460543E+03 -0.59592743328E+03 -0.31894683755E+03  0.11303935226E+04  0.90004013304E+03 0.  0.
        -24    2    4    4    0    0  0.10357095578E+03  0.11392112441E+03  0.16746095210E+03  0.24160896817E+03  0.81404898818E+02 0.  0.
         24    2    4    4    0    0 -0.20778556122E+03 -0.70984855769E+03 -0.48640778966E+03  0.88878455445E+03  0.79281978406E+02 0.  0.
         13    1    3    3    0    0 -0.64704308870E+01  0.11124755732E+03  0.99400538503E+01  0.11187801463E+03  0.00000000000E+00 0.  1.
        -13    1    3    3    0    0  0.11068503632E+03  0.48467987595E+03 -0.71333560605E+02  0.50224917749E+03  0.00000000000E+00 0. -1.
          4    1    6    6  502    0 -0.50937616463E+02 -0.29605317046E+03 -0.21876844452E+03  0.37162044189E+03  0.00000000000E+00 0. -1.
          1    1    5    5  503    0  0.49846560144E+02  0.22595930789E+01  0.55132469609E+02  0.74359764149E+02  0.00000000000E+00 0. -1.
         -2    1    5    5    0  503  0.53724395638E+02  0.11166153133E+03  0.11232848249E+03  0.16724920402E+03  0.00000000000E+00 0.  1.
         -3    1    6    6    0  502 -0.15684794475E+03 -0.41379538723E+03 -0.26763934513E+03  0.51716411256E+03  0.00000000000E+00 0.  1.
<mgrwt>
<rscale>  0 0.17025551E+04</rscale>
<asrwt>0</asrwt>
<pdfrwt beam="1">  1        2 0.16345085E+00 0.17025551E+04</pdfrwt>
<pdfrwt beam="2">  1       -2 0.10493695E+00 0.17025551E+04</pdfrwt>
<totfact> 0.16104330E+01</totfact>
</mgrwt>
</event>
<event>
12    1  0.2214165E-007  0.1792001E+04  0.7818608E-02  0.8710565E-01
          1   -1    0    0  501    0  0.00000000000E+00  0.00000000000E+00  0.64595968860E+03  0.64595968860E+03  0.00000000000E+00 0. -1.
         -1   -1    0    0    0  501 -0.00000000000E+00 -0.00000000000E+00 -0.12428278236E+04  0.12428278236E+04  0.00000000000E+00 0.  1.
         23    2    1    2    0    0  0.32917057069E+03  0.56396288426E+03 -0.84251686527E+02  0.66466409557E+03  0.90953910454E+02 0.  0.
        254    2    1    2    0    0 -0.32917057069E+03 -0.56396288426E+03 -0.51261644843E+03  0.12241234166E+04  0.89960831276E+03 0.  0.
        -24    2    4    4    0    0  0.18029522337E+03 -0.16250524449E+03  0.14838561493E+03  0.29540544085E+03  0.79572367726E+02 0.  0.
         24    2    4    4    0    0 -0.50946579406E+03 -0.40145763977E+03 -0.66100206336E+03  0.92871797573E+03  0.69783370821E+02 0.  0.
         11    1    3    3    0    0  0.18907987031E+03  0.32756717383E+03 -0.93913264300E+02  0.38970649461E+03  0.00000000000E+00 0.  1.
        -11    1    3    3    0    0  0.14009070038E+03  0.23639571043E+03  0.96615777729E+01  0.27495760096E+03  0.00000000000E+00 0. -1.
          4    1    6    6  502    0 -0.21933798744E+03 -0.20342316689E+03 -0.33997695717E+03  0.45285148666E+03  0.00000000000E+00 0. -1.
          1    1    5    5  503    0  0.25428527127E+01 -0.25652317220E+02  0.36595003752E+02  0.44762727556E+02  0.00000000000E+00 0. -1.
         -2    1    5    5    0  503  0.17775237066E+03 -0.13685292727E+03  0.11179061117E+03  0.25064271329E+03  0.00000000000E+00 0.  1.
         -3    1    6    6    0  502 -0.29012780662E+03 -0.19803447288E+03 -0.32102510618E+03  0.47586648908E+03  0.00000000000E+00 0.  1.
<mgrwt>
<rscale>  0 0.17920008E+04</rscale>
<asrwt>0</asrwt>
<pdfrwt beam="1">  1        1 0.99378414E-01 0.17920008E+04</pdfrwt>
<pdfrwt beam="2">  1       -1 0.19120428E+00 0.17920008E+04</pdfrwt>
<totfact> 0.50292231E+00</totfact>
</mgrwt>
</event>
<event>
12    1  0.2214165E-007  0.1174770E+04  0.7818608E-02  0.9135231E-01
          2   -1    0    0  501    0  0.00000000000E+00  0.00000000000E+00  0.16248274263E+04  0.16248274263E+04  0.00000000000E+00 0. -1.
         -2   -1    0    0    0  501 -0.00000000000E+00 -0.00000000000E+00 -0.21234343177E+03  0.21234343177E+03  0.00000000000E+00 0.  1.
         23    2    1    2    0    0  0.10159413627E+03  0.20763290575E+03  0.25753431412E+03  0.35807355181E+03  0.91978005405E+02 0.  0.
        254    2    1    2    0    0 -0.10159413627E+03 -0.20763290575E+03  0.11549496804E+04  0.14790973062E+04  0.89464366371E+03 0.  0.
        -24    2    4    4    0    0 -0.24662295231E+03  0.26752329183E+03  0.26481250227E+03  0.45689827378E+03  0.78985941423E+02 0.  0.
         24    2    4    4    0    0  0.14502881604E+03 -0.47515619759E+03  0.89013717811E+03  0.10221990325E+04  0.75762104681E+02 0.  0.
         13    1    3    3    0    0  0.56419562633E+02  0.12752908645E+03  0.87119953252E+02  0.16442846831E+03  0.00000000000E+00 0.  1.
        -13    1    3    3    0    0  0.45174573639E+02  0.80103819307E+02  0.17041436087E+03  0.19364508349E+03  0.00000000000E+00 0. -1.
          2    1    6    6  502    0  0.11789737407E+03 -0.28223964222E+03  0.58580713379E+03  0.66085475292E+03  0.00000000000E+00 0. -1.
          3    1    5    5  503    0 -0.19191971435E+03  0.21375272405E+03  0.24529847767E+03  0.37774958232E+03  0.00000000000E+00 0. -1.
         -4    1    5    5    0  503 -0.54703237964E+02  0.53770567782E+02  0.19514024595E+02  0.79148691456E+02  0.00000000000E+00 0.  1.
         -3    1    6    6    0  502  0.27131441972E+02 -0.19291655536E+03  0.30433004432E+03  0.36134427954E+03  0.00000000000E+00 0.  1.
<mgrwt>
<rscale>  0 0.11747705E+04</rscale>
<asrwt>0</asrwt>
<pdfrwt beam="1">  1        2 0.24997344E+00 0.11747705E+04</pdfrwt>
<pdfrwt beam="2">  1       -2 0.32668221E-01 0.11747705E+04</pdfrwt>
<totfact> 0.93220306E+01</totfact>
</mgrwt>
</event>
<event>
12    1  0.2340418E-007  0.2114206E+04  0.7818608E-02  0.8555011E-01
         -1   -1    0    0    0  501 -0.00000000000E+00  0.00000000000E+00  0.49920325373E+03  0.49920325373E+03  0.00000000000E+00 0.  1.
          1   -1    0    0  501    0  0.00000000000E+00 -0.00000000000E+00 -0.22385013974E+04  0.22385013974E+04  0.00000000000E+00 0. -1.
         23    2    1    2    0    0 -0.41058864309E+03 -0.75585096843E+03 -0.75035555519E+03  0.11452724721E+04  0.93390876619E+02 0.  0.
        254    2    1    2    0    0  0.41058864309E+03  0.75585096843E+03 -0.98894258845E+03  0.15924321790E+04  0.90439984583E+03 0.  0.
        -24    2    4    4    0    0  0.31308178083E+03  0.28777828993E+03  0.59955958667E+02  0.43714104359E+03  0.81615129556E+02 0.  0.
         24    2    4    4    0    0  0.97506862259E+02  0.46807267850E+03 -0.10488985471E+04  0.11552911354E+04  0.76875385203E+02 0.  0.
         11    1    3    3    0    0 -0.12848171810E+03 -0.25553583752E+03 -0.30786488934E+03  0.42022244850E+03  0.00000000000E+00 0. -1.
        -11    1    3    3    0    0 -0.28210692499E+03 -0.50031513091E+03 -0.44249066585E+03  0.72505002359E+03  0.00000000000E+00 0.  1.
          4    1    6    6  502    0  0.65685866249E+01  0.28144452920E+01 -0.39152055828E+02  0.39798880740E+02  0.00000000000E+00 0. -1.
          3    1    5    5  503    0  0.58310481374E+02  0.10075898934E+03  0.64069899670E+01  0.11659131911E+03  0.00000000000E+00 0. -1.
         -4    1    5    5    0  503  0.25477129945E+03  0.18701930059E+03  0.53548968700E+02  0.32054972448E+03  0.00000000000E+00 0.  1.
         -3    1    6    6    0  502  0.90938275634E+02  0.46525823321E+03 -0.10097464913E+04  0.11154922547E+04  0.00000000000E+00 0.  1.
<mgrwt>
<rscale>  0 0.21142064E+04</rscale>
<asrwt>0</asrwt>
<pdfrwt beam="1">  1        1 0.34438483E+00 0.21142064E+04</pdfrwt>
<pdfrwt beam="2">  1       -1 0.76800500E-01 0.21142064E+04</pdfrwt>
<totfact> 0.32036424E+00</totfact>
</mgrwt>
</event>
<event>
12    1  0.2214165E-007  0.2125134E+04  0.7818608E-02  0.8550252E-01
         -1   -1    0    0    0  501 -0.00000000000E+00  0.00000000000E+00  0.88342874773E+03  0.88342874773E+03  0.00000000000E+00 0. -1.
          1   -1    0    0  501    0  0.00000000000E+00 -0.00000000000E+00 -0.12780296977E+04  0.12780296977E+04  0.00000000000E+00 0.  1.
         23    2    1    2    0    0  0.46400555817E+03  0.67207064027E+03  0.13929013554E+03  0.83292097402E+03  0.85880752090E+02 0.  0.
        254    2    1    2    0    0 -0.46400555817E+03 -0.67207064027E+03 -0.53389108550E+03  0.13285374714E+04  0.90166070017E+03 0.  0.
        -24    2    4    4    0    0  0.11109784254E+03  0.15393045754E+03 -0.64168032642E+02  0.21498542154E+03  0.77870910384E+02 0.  0.
         24    2    4    4    0    0 -0.57510340071E+03 -0.82600109781E+03 -0.46972305286E+03  0.11135520499E+04  0.79603305647E+02 0.  0.
         11    1    3    3    0    0  0.23956039834E+03  0.27202758314E+03  0.63692296687E+02  0.36802839442E+03  0.00000000000E+00 0.  1.
        -11    1    3    3    0    0  0.22444515983E+03  0.40004305712E+03  0.75597838857E+02  0.46489257960E+03  0.00000000000E+00 0. -1.
          2    1    6    6  502    0 -0.18347954100E+03 -0.23610338376E+03 -0.17616815076E+03  0.34705153383E+03  0.00000000000E+00 0. -1.
          1    1    5    5  503    0  0.99435571459E+02  0.73567282991E+02 -0.33135453571E+02  0.12805286518E+03  0.00000000000E+00 0. -1.
         -2    1    5    5    0  503  0.11662271085E+02  0.80363174553E+02 -0.31032579071E+02  0.86932556357E+02  0.00000000000E+00 0.  1.
         -3    1    6    6    0  502 -0.39162385972E+03 -0.58989771405E+03 -0.29355490210E+03  0.76650051604E+03  0.00000000000E+00 0.  1.
<mgrwt>
<rscale>  0 0.21251336E+04</rscale>
<asrwt>0</asrwt>
<pdfrwt beam="1">  1        1 0.19661995E+00 0.21251336E+04</pdfrwt>
<pdfrwt beam="2">  1       -1 0.13591211E+00 0.21251336E+04</pdfrwt>
<totfact> 0.38973169E+00</totfact>
</mgrwt>
</event>
<event>
12    1  0.2214165E-007  0.1655631E+04  0.7818608E-02  0.8787082E-01
          1   -1    0    0  501    0  0.00000000000E+00  0.00000000000E+00  0.56565419604E+03  0.56565419604E+03  0.00000000000E+00 0. -1.
         -1   -1    0    0    0  501 -0.00000000000E+00 -0.00000000000E+00 -0.12114794762E+04  0.12114794762E+04  0.00000000000E+00 0.  1.
         23    2    1    2    0    0 -0.34416996218E+03 -0.29391616356E+03 -0.61437494661E+03  0.76859203763E+03  0.91855708656E+02 0.  0.
        254    2    1    2    0    0  0.34416996218E+03  0.29391616356E+03 -0.31450333570E+02  0.10085416346E+04  0.90073715992E+03 0.  0.
        -24    2    4    4    0    0 -0.14222575887E+03 -0.41155143295E+02 -0.30696266442E+03  0.35198942332E+03  0.88025930695E+02 0.  0.
         24    2    4    4    0    0  0.48639572106E+03  0.33507130685E+03  0.27551233085E+03  0.65655221133E+03  0.79373695961E+02 0.  0.
         11    1    3    3    0    0 -0.28388123395E+03 -0.24916713871E+03 -0.44747969390E+03  0.58558594113E+03  0.00000000000E+00 0. -1.
        -11    1    3    3    0    0 -0.60288728237E+02 -0.44749024851E+02 -0.16689525271E+03  0.18300609650E+03  0.00000000000E+00 0.  1.
          2    1    6    6  502    0  0.25484071091E+03  0.18119058679E+03  0.10235029866E+03  0.32901276619E+03  0.00000000000E+00 0. -1.
          3    1    5    5  503    0  0.55570566000E+01  0.12110833706E+02 -0.12628420562E+02  0.18358381655E+02  0.00000000000E+00 0. -1.
         -4    1    5    5    0  503 -0.14778281547E+03 -0.53265977001E+02 -0.29433424385E+03  0.33363104166E+03  0.00000000000E+00 0.  1.
         -1    1    6    6    0  502  0.23155501015E+03  0.15388072006E+03  0.17316203218E+03  0.32753944514E+03  0.00000000000E+00 0.  1.
<mgrwt>
<rscale>  0 0.16556309E+04</rscale>
<asrwt>0</asrwt>
<pdfrwt beam="1">  1        1 0.87023723E-01 0.16556309E+04</pdfrwt>
<pdfrwt beam="2">  1       -1 0.18638146E+00 0.16556309E+04</pdfrwt>
<totfact> 0.66707626E+00</totfact>
</mgrwt>
</event>
<event>
12    1  0.2214165E-007  0.1713143E+04  0.7818608E-02  0.8753904E-01
         -2   -1    0    0    0  501 -0.00000000000E+00  0.00000000000E+00  0.18769248361E+03  0.18769248361E+03  0.00000000000E+00 0.  1.
          2   -1    0    0  501    0  0.00000000000E+00 -0.00000000000E+00 -0.39091332476E+04  0.39091332476E+04  0.00000000000E+00 0. -1.
         23    2    1    2    0    0 -0.57480664514E+03 -0.15522142816E+03 -0.95702792905E+03  0.11302504985E+04  0.84067599675E+02 0.  0.
        254    2    1    2    0    0  0.57480664514E+03  0.15522142816E+03 -0.27644128349E+04  0.29665752327E+04  0.89671284051E+03 0.  0.
        -24    2    4    4    0    0  0.20929788290E+03 -0.36873882900E+03 -0.10571228676E+04  0.11419339379E+04  0.82039219551E+02 0.  0.
         24    2    4    4    0    0  0.36550876224E+03  0.52396025716E+03 -0.17072899673E+04  0.18246412948E+04  0.79660628823E+02 0.  0.
         11    1    3    3    0    0 -0.44564849256E+03 -0.83161483300E+02 -0.72844283984E+03  0.85799031588E+03  0.00000000000E+00 0. -1.
        -11    1    3    3    0    0 -0.12915815257E+03 -0.72059944858E+02 -0.22858508921E+03  0.27226018262E+03  0.00000000000E+00 0.  1.
          4    1    6    6  502    0  0.28495232301E+03  0.45136417430E+03 -0.13684333299E+04  0.14688557529E+04  0.00000000000E+00 0. -1.
          3    1    5    5  503    0  0.16752541622E+03 -0.34570769051E+03 -0.93955719471E+03  0.10150597492E+04  0.00000000000E+00 0. -1.
         -4    1    5    5    0  503  0.41772466683E+02 -0.23031138489E+02 -0.11756567289E+03  0.12687418868E+03  0.00000000000E+00 0.  1.
         -3    1    6    6    0  502  0.80556439228E+02  0.72596082863E+02 -0.33885663734E+03  0.35578554189E+03  0.00000000000E+00 0.  1.
<mgrwt>
<rscale>  0 0.17131432E+04</rscale>
<asrwt>0</asrwt>
<pdfrwt beam="1">  1        2 0.60140509E+00 0.17131432E+04</pdfrwt>
<pdfrwt beam="2">  1       -2 0.28875768E-01 0.17131432E+04</pdfrwt>
<totfact> 0.42977075E+00</totfact>
</mgrwt>
</event>
<event>
12    1  0.2214165E-007  0.2447983E+04  0.7818608E-02  0.8421755E-01
          1   -1    0    0  501    0  0.00000000000E+00  0.00000000000E+00  0.53759632175E+03  0.53759632175E+03  0.00000000000E+00 0. -1.
         -1   -1    0    0    0  501 -0.00000000000E+00 -0.00000000000E+00 -0.27867665163E+04  0.27867665163E+04  0.00000000000E+00 0.  1.
         23    2    1    2    0    0  0.92893063830E+03 -0.30208460155E+03 -0.15211532294E+04  0.18100708414E+04  0.91005860002E+02 0.  0.
        254    2    1    2    0    0 -0.92893063830E+03  0.30208460155E+03 -0.72801696518E+03  0.15142919966E+04  0.89939107851E+03 0.  0.
        -24    2    4    4    0    0 -0.51856942093E+03  0.36456141610E+03 -0.86013086830E+03  0.10714074050E+04  0.79179836661E+02 0.  0.
         24    2    4    4    0    0 -0.41036121737E+03 -0.62476814554E+02  0.13211390312E+03  0.44288459156E+03  0.79956219030E+02 0.  0.
         11    1    3    3    0    0  0.52611631733E+03 -0.12837403489E+03 -0.87704756301E+03  0.10307718952E+04  0.00000000000E+00 0.  1.
        -11    1    3    3    0    0  0.40281432097E+03 -0.17371056665E+03 -0.64410566636E+03  0.77929894622E+03  0.00000000000E+00 0. -1.
          4    1    6    6  502    0 -0.27168926807E+03 -0.55377078028E+02  0.50544797318E+02  0.28184473685E+03  0.00000000000E+00 0. -1.
          3    1    5    5  503    0 -0.39032017310E+02  0.24201029325E+02 -0.10269419910E+03  0.11249571870E+03  0.00000000000E+00 0. -1.
         -4    1    5    5    0  503 -0.47953740362E+03  0.34036038678E+03 -0.75743666920E+03  0.95891168634E+03  0.00000000000E+00 0.  1.
         -3    1    6    6    0  502 -0.13867194930E+03 -0.70997365268E+01  0.81569105806E+02  0.16103985471E+03  0.00000000000E+00 0.  1.
<mgrwt>
<rscale>  0 0.24479832E+04</rscale>
<asrwt>0</asrwt>
<pdfrwt beam="1">  1        1 0.82707128E-01 0.24479832E+04</pdfrwt>
<pdfrwt beam="2">  1       -1 0.42873330E+00 0.24479832E+04</pdfrwt>
<totfact> 0.16220727E-01</totfact>
</mgrwt>
</event>
<event>
12    1  0.2214165E-007  0.3687068E+04  0.7818608E-02  0.8070834E-01
         -2   -1    0    0    0  501 -0.00000000000E+00  0.00000000000E+00  0.13390895102E+04  0.13390895102E+04  0.00000000000E+00 0.  1.
          2   -1    0    0  501    0  0.00000000000E+00 -0.00000000000E+00 -0.25380066923E+04  0.25380066923E+04  0.00000000000E+00 0. -1.
         23    2    1    2    0    0 -0.13094259541E+04  0.10649192520E+04 -0.97274372465E+03  0.19504178750E+04  0.96177912316E+02 0.  0.
        254    2    1    2    0    0  0.13094259541E+04 -0.10649192520E+04 -0.22617345742E+03  0.19266783274E+04  0.90126888438E+03 0.  0.
        -24    2    4    4    0    0  0.68715443849E+03 -0.60294425303E+03 -0.56349485613E+03  0.10775940546E+04  0.89216024746E+02 0.  0.
         24    2    4    4    0    0  0.62227151565E+03 -0.46197499895E+03  0.33732139871E+03  0.84908427281E+03  0.80719498653E+02 0.  0.
         11    1    3    3    0    0 -0.92557102505E+03  0.70062013232E+03 -0.68974288997E+03  0.13502946147E+04  0.00000000000E+00 0. -1.
        -11    1    3    3    0    0 -0.38385492909E+03  0.36429911966E+03 -0.28300083468E+03  0.60012326034E+03  0.00000000000E+00 0.  1.
          4    1    6    6  502    0  0.50520056456E+03 -0.33469853431E+03  0.27150821615E+03  0.66405378602E+03  0.00000000000E+00 0. -1.
          1    1    5    5  503    0  0.39103244287E+03 -0.38100961971E+03 -0.29655661143E+03  0.62130550092E+03  0.00000000000E+00 0. -1.
         -2    1    5    5    0  503  0.29612199562E+03 -0.22193463332E+03 -0.26693824471E+03  0.45628855371E+03  0.00000000000E+00 0.  1.
         -3    1    6    6    0  502  0.11707095109E+03 -0.12727646464E+03  0.65813182563E+02  0.18503048678E+03  0.00000000000E+00 0.  1.
<mgrwt>
<rscale>  0 0.36870683E+04</rscale>
<asrwt>0</asrwt>
<pdfrwt beam="1">  1        2 0.39046257E+00 0.36870683E+04</pdfrwt>
<pdfrwt beam="2">  1       -2 0.20601377E+00 0.36870683E+04</pdfrwt>
<totfact> 0.32527777E-01</totfact>
</mgrwt>
</event>
<event>
12    1  0.2214165E-007  0.3280794E+04  0.7818608E-02  0.8167799E-01
         -2   -1    0    0    0  501 -0.00000000000E+00  0.00000000000E+00  0.11310799668E+04  0.11310799668E+04  0.00000000000E+00 0.  1.
          2   -1    0    0  501    0  0.00000000000E+00 -0.00000000000E+00 -0.23790564793E+04  0.23790564793E+04  0.00000000000E+00 0. -1.
         23    2    1    2    0    0 -0.42623610934E+03 -0.14340005265E+04 -0.31526324633E+03  0.15314242027E+04  0.88512390756E+02 0.  0.
        254    2    1    2    0    0  0.42623610934E+03  0.14340005265E+04 -0.93271326615E+03  0.19787122434E+04  0.89850619049E+03 0.  0.
        -24    2    4    4    0    0 -0.10436709395E+03  0.72780492766E+03 -0.78651093303E+03  0.10793327688E+04  0.75942577290E+02 0.  0.
         24    2    4    4    0    0  0.53060320329E+03  0.70619559881E+03 -0.14620233313E+03  0.89937947454E+03  0.85184117675E+02 0.  0.
         13    1    3    3    0    0 -0.29476154560E+03 -0.89216889714E+03 -0.23053115868E+03  0.96746799684E+03  0.00000000000E+00 0. -1.
        -13    1    3    3    0    0 -0.13147456374E+03 -0.54183162933E+03 -0.84732087642E+02  0.56395620586E+03  0.00000000000E+00 0.  1.
          2    1    6    6  502    0  0.78885654255E+02  0.13395182231E+03  0.17769951385E+01  0.15546444886E+03  0.00000000000E+00 0. -1.
          3    1    5    5  503    0 -0.28109091182E+02  0.73241937582E+02 -0.62330282615E+02  0.10019763749E+03  0.00000000000E+00 0. -1.
         -4    1    5    5    0  503 -0.76258002763E+02  0.65456299008E+03 -0.72418065041E+03  0.97913513133E+03  0.00000000000E+00 0.  1.
         -1    1    6    6    0  502  0.45171754903E+03  0.57224377649E+03 -0.14797932826E+03  0.74391502568E+03  0.00000000000E+00 0.  1.
<mgrwt>
<rscale>  0 0.32807945E+04</rscale>
<asrwt>0</asrwt>
<pdfrwt beam="1">  1        2 0.36600869E+00 0.32807945E+04</pdfrwt>
<pdfrwt beam="2">  1       -2 0.17401230E+00 0.32807945E+04</pdfrwt>
<totfact> 0.68248220E-01</totfact>
</mgrwt>
</event>
<event>
12    1  0.2214165E-007  0.2061072E+04  0.7818608E-02  0.8578588E-01
          2   -1    0    0  501    0  0.00000000000E+00  0.00000000000E+00  0.16071881965E+04  0.16071881965E+04  0.00000000000E+00 0. -1.
         -2   -1    0    0    0  501 -0.00000000000E+00 -0.00000000000E+00 -0.66078427962E+03  0.66078427962E+03  0.00000000000E+00 0.  1.
         23    2    1    2    0    0 -0.51197006694E+03  0.21604931514E+03  0.10638182218E+04  0.12035515403E+04  0.89646221203E+02 0.  0.
        254    2    1    2    0    0  0.51197006694E+03 -0.21604931514E+03 -0.11741430499E+03  0.10644209358E+04  0.90023061132E+03 0.  0.
        -24    2    4    4    0    0  0.67074280633E+02  0.32744082537E+03 -0.98505448925E+02  0.35729511286E+03  0.78993803340E+02 0.  0.
         24    2    4    4    0    0  0.44489578631E+03 -0.54349014051E+03 -0.18908856064E+02  0.70712582295E+03  0.79721961425E+02 0.  0.
         13    1    3    3    0    0 -0.35617137572E+03  0.19289098804E+03  0.74764519211E+03  0.85031659718E+03  0.00000000000E+00 0.  1.
        -13    1    3    3    0    0 -0.15579869122E+03  0.23158327097E+02  0.31617302972E+03  0.35323494310E+03  0.00000000000E+00 0. -1.
          2    1    6    6  502    0  0.39983510454E+03 -0.44987432804E+03 -0.21067481640E+01  0.60187993839E+03  0.00000000000E+00 0. -1.
          1    1    5    5  503    0  0.19713273144E+02  0.24045230952E+03 -0.91409765018E+02  0.25799548723E+03  0.00000000000E+00 0. -1.
         -2    1    5    5    0  503  0.47361007489E+02  0.86988515852E+02 -0.70956839065E+01  0.99299625632E+02  0.00000000000E+00 0.  1.
         -1    1    6    6    0  502  0.45060681774E+02 -0.93615812470E+02 -0.16802107900E+02  0.10524588456E+03  0.00000000000E+00 0.  1.
<mgrwt>
<rscale>  0 0.20610722E+04</rscale>
<asrwt>0</asrwt>
<pdfrwt beam="1">  1        2 0.24725972E+00 0.20610722E+04</pdfrwt>
<pdfrwt beam="2">  1       -2 0.10165912E+00 0.20610722E+04</pdfrwt>
<totfact> 0.81137357E+00</totfact>
</mgrwt>
</event>
<event>
12    1  0.2214165E-007  0.2967156E+04  0.7818608E-02  0.8253172E-01
          1   -1    0    0  501    0  0.00000000000E+00  0.00000000000E+00  0.27627866778E+04  0.27627866778E+04  0.00000000000E+00 0. -1.
         -1   -1    0    0    0  501 -0.00000000000E+00 -0.00000000000E+00 -0.79666092501E+03  0.79666092501E+03  0.00000000000E+00 0.  1.
         23    2    1    2    0    0  0.10183340845E+04  0.85940243465E+03  0.11299159608E+04  0.17495049363E+04  0.92090126209E+02 0.  0.
        254    2    1    2    0    0 -0.10183340845E+04 -0.85940243465E+03  0.83620979200E+03  0.18099426665E+04  0.89502446198E+03 0.  0.
        -24    2    4    4    0    0  0.10395546134E+03 -0.32892525296E+03  0.25578283977E+03  0.43690105889E+03  0.80368614308E+02 0.  0.
         24    2    4    4    0    0 -0.11222895458E+04 -0.53047718168E+03  0.58042695223E+03  0.13730416076E+04  0.86069416419E+02 0.  0.
         13    1    3    3    0    0  0.81936035782E+03  0.68952774943E+03  0.95438058340E+03  0.14344483996E+04  0.00000000000E+00 0.  1.
        -13    1    3    3    0    0  0.19897372665E+03  0.16987468521E+03  0.17553537736E+03  0.31505653663E+03  0.00000000000E+00 0. -1.
          2    1    6    6  502    0 -0.20690958703E+03 -0.65933534160E+02  0.84616475538E+02  0.23306384547E+03  0.00000000000E+00 0. -1.
          1    1    5    5  503    0 -0.91832744306E+01 -0.82887265341E+02  0.60693370234E+02  0.10314221481E+03  0.00000000000E+00 0. -1.
         -2    1    5    5    0  503  0.11313873577E+03 -0.24603798762E+03  0.19508946953E+03  0.33375884409E+03  0.00000000000E+00 0.  1.
         -1    1    6    6    0  502 -0.91537995878E+03 -0.46454364752E+03  0.49581047670E+03  0.11399777621E+04  0.00000000000E+00 0.  1.
<mgrwt>
<rscale>  0 0.29671563E+04</rscale>
<asrwt>0</asrwt>
<pdfrwt beam="1">  1        1 0.42504410E+00 0.29671563E+04</pdfrwt>
<pdfrwt beam="2">  1       -1 0.12256322E+00 0.29671563E+04</pdfrwt>
<totfact> 0.44401671E-01</totfact>
</mgrwt>
</event>
<event>
12    1  0.2214165E-007  0.1396723E+04  0.7818608E-02  0.8956194E-01
         -2   -1    0    0    0  501 -0.00000000000E+00  0.00000000000E+00  0.26922310388E+04  0.26922310388E+04  0.00000000000E+00 0.  1.
          2   -1    0    0  501    0  0.00000000000E+00 -0.00000000000E+00 -0.18115408951E+03  0.18115408951E+03  0.00000000000E+00 0. -1.
         23    2    1    2    0    0 -0.27321140654E+01  0.22293761588E+03  0.53048807017E+02  0.24649664843E+03  0.90762198853E+02 0.  0.
        254    2    1    2    0    0  0.27321140654E+01 -0.22293761588E+03  0.24580281422E+04  0.26268884799E+04  0.89940652239E+03 0.  0.
        -24    2    4    4    0    0 -0.35937714971E+03  0.47178767891E+02  0.17062433681E+04  0.17461686590E+04  0.80378994600E+02 0.  0.
         24    2    4    4    0    0  0.36210926378E+03 -0.27011638377E+03  0.75178477415E+03  0.88071982082E+03  0.80006727484E+02 0.  0.
         13    1    3    3    0    0  0.29469603259E+01  0.18629196020E+03  0.77806048378E+02  0.20190879172E+03  0.00000000000E+00 0.  1.
        -13    1    3    3    0    0 -0.56790743914E+01  0.36645655677E+02 -0.24757241361E+02  0.44587856707E+02  0.00000000000E+00 0. -1.
          4    1    6    6  502    0  0.26251537281E+03 -0.18410067053E+03  0.46097146337E+03  0.56151764700E+03  0.00000000000E+00 0. -1.
          1    1    5    5  503    0 -0.36089224179E+03  0.40885083720E+02  0.16469400307E+04  0.16865130491E+04  0.00000000000E+00 0. -1.
         -2    1    5    5    0  503  0.15150920737E+01  0.62936841704E+01  0.59303337432E+02  0.59655609921E+02  0.00000000000E+00 0.  1.
         -3    1    6    6    0  502  0.99593890964E+02 -0.86015713236E+02  0.29081331078E+03  0.31920217382E+03  0.00000000000E+00 0.  1.
<mgrwt>
<rscale>  0 0.13967228E+04</rscale>
<asrwt>0</asrwt>
<pdfrwt beam="1">  1        2 0.27869862E-01 0.13967228E+04</pdfrwt>
<pdfrwt beam="2">  1       -2 0.41418936E+00 0.13967228E+04</pdfrwt>
<totfact> 0.11432778E+00</totfact>
</mgrwt>
</event>
<event>
12    1  0.2214165E-007  0.1864246E+04  0.7818608E-02  0.8672861E-01
          1   -1    0    0  501    0  0.00000000000E+00  0.00000000000E+00  0.11798104869E+04  0.11798104869E+04  0.00000000000E+00 0. -1.
         -1   -1    0    0    0  501 -0.00000000000E+00 -0.00000000000E+00 -0.73643424766E+03  0.73643424766E+03  0.00000000000E+00 0.  1.
         23    2    1    2    0    0 -0.44947511042E+03  0.52541949409E+03  0.42598428078E+01  0.69890303042E+03  0.10175352581E+03 0.  0.
        254    2    1    2    0    0  0.44947511042E+03 -0.52541949409E+03  0.43911639646E+03  0.12173417042E+04  0.90055765803E+03 0.  0.
        -24    2    4    4    0    0  0.56007047532E+03 -0.64455139621E+03  0.53531514112E+03  0.10112412633E+04  0.83193464986E+02 0.  0.
         24    2    4    4    0    0 -0.11059536491E+03  0.11913190213E+03 -0.96198744662E+02  0.20610044086E+03  0.82458767921E+02 0.  0.
         11    1    3    3    0    0 -0.12282995423E+03  0.15753490225E+03  0.46562952155E+02  0.20511594671E+03  0.00000000000E+00 0. -1.
        -11    1    3    3    0    0 -0.32664515619E+03  0.36788459184E+03 -0.42303109347E+02  0.49378708371E+03  0.00000000000E+00 0.  1.
          4    1    6    6  502    0  0.20409038495E+01 -0.20157377923E+01 -0.26404059635E+02  0.26559421164E+02  0.00000000000E+00 0. -1.
          1    1    5    5  503    0  0.82045742235E+02 -0.14430992345E+03  0.10147531820E+03  0.19456129633E+03  0.00000000000E+00 0. -1.
         -2    1    5    5    0  503  0.47802473309E+03 -0.50024147277E+03  0.43383982292E+03  0.81667996698E+03  0.00000000000E+00 0.  1.
         -3    1    6    6    0  502 -0.11263626875E+03  0.12114763992E+03 -0.69794685027E+02  0.17954101970E+03  0.00000000000E+00 0.  1.
<mgrwt>
<rscale>  0 0.18642455E+04</rscale>
<asrwt>0</asrwt>
<pdfrwt beam="1">  1        1 0.18150931E+00 0.18642455E+04</pdfrwt>
<pdfrwt beam="2">  1       -1 0.11329758E+00 0.18642455E+04</pdfrwt>
<totfact> 0.73823668E+00</totfact>
</mgrwt>
</event>
<event>
12    1  0.2214165E-007  0.1734624E+04  0.7818608E-02  0.8741860E-01
          1   -1    0    0  501    0  0.00000000000E+00  0.00000000000E+00  0.33753746326E+03  0.33753746326E+03  0.00000000000E+00 0. -1.
         -1   -1    0    0    0  501 -0.00000000000E+00 -0.00000000000E+00 -0.22285828513E+04  0.22285828513E+04  0.00000000000E+00 0.  1.
         23    2    1    2    0    0  0.23687687291E+03  0.55877940444E+03 -0.93681526329E+03  0.11198524203E+04  0.90008499508E+02 0.  0.
        254    2    1    2    0    0 -0.23687687291E+03 -0.55877940444E+03 -0.95423012475E+03  0.14462678942E+04  0.90154900876E+03 0.  0.
        -24    2    4    4    0    0  0.26391613167E+03 -0.50602697784E+03 -0.54354816827E+03  0.79209468298E+03  0.79084440480E+02 0.  0.
         24    2    4    4    0    0 -0.50079300458E+03 -0.52752426605E+02 -0.41068195648E+03  0.65417321126E+03  0.75541174174E+02 0.  0.
         11    1    3    3    0    0  0.10987888640E+03  0.30131287600E+03 -0.57018106585E+03  0.65419360038E+03  0.00000000000E+00 0.  1.
        -11    1    3    3    0    0  0.12699798651E+03  0.25746652844E+03 -0.36663419744E+03  0.46565881993E+03  0.00000000000E+00 0. -1.
          4    1    6    6  502    0 -0.31412670162E+03 -0.66140160242E+02 -0.27935855336E+03  0.42554824262E+03  0.00000000000E+00 0. -1.
          3    1    5    5  503    0  0.53782729738E+02 -0.17602720038E+03 -0.15374227199E+03  0.23982252499E+03  0.00000000000E+00 0. -1.
         -4    1    5    5    0  503  0.21013340194E+03 -0.32999977745E+03 -0.38980589627E+03  0.55227215800E+03  0.00000000000E+00 0.  1.
         -3    1    6    6    0  502 -0.18666630297E+03  0.13387733637E+02 -0.13132340312E+03  0.22862496863E+03  0.00000000000E+00 0.  1.
<mgrwt>
<rscale>  0 0.17346241E+04</rscale>
<asrwt>0</asrwt>
<pdfrwt beam="1">  1        1 0.51928841E-01 0.17346241E+04</pdfrwt>
<pdfrwt beam="2">  1       -1 0.34285890E+00 0.17346241E+04</pdfrwt>
<totfact> 0.12382254E+00</totfact>
</mgrwt>
</event>
<event>
12    1  0.2214165E-007  0.2818804E+04  0.7818608E-02  0.8297454E-01
          1   -1    0    0  501    0  0.00000000000E+00  0.00000000000E+00  0.17237685232E+04  0.17237685232E+04  0.00000000000E+00 0. -1.
         -1   -1    0    0    0  501 -0.00000000000E+00 -0.00000000000E+00 -0.11523668748E+04  0.11523668748E+04  0.00000000000E+00 0.  1.
         23    2    1    2    0    0  0.24068682156E+03  0.12245287817E+04  0.45757843183E+03  0.13352871067E+04  0.12732930790E+03 0.  0.
        254    2    1    2    0    0 -0.24068682156E+03 -0.12245287817E+04  0.11382321661E+03  0.15408482913E+04  0.89658064273E+03 0.  0.
        -24    2    4    4    0    0 -0.51193997301E+03 -0.64051137088E+03  0.28294184388E+03  0.87051361709E+03  0.73488218957E+02 0.  0.
         24    2    4    4    0    0  0.27125315146E+03 -0.58401741081E+03 -0.16911862726E+03  0.67033467422E+03  0.78056755373E+02 0.  0.
         11    1    3    3    0    0  0.74657133742E+02  0.70646113827E+03  0.26292431090E+03  0.75748941957E+03  0.00000000000E+00 0. -1.
        -11    1    3    3    0    0  0.16602968781E+03  0.51806764343E+03  0.19465412092E+03  0.57779768708E+03  0.00000000000E+00 0.  1.
          2    1    6    6  502    0  0.65441779180E+02 -0.13627936483E+03 -0.61228275485E+01  0.15130162180E+03  0.00000000000E+00 0. -1.
          1    1    5    5  503    0 -0.25182945303E+02 -0.44250602267E+02  0.14272715494E+01  0.50934601590E+02  0.00000000000E+00 0. -1.
         -2    1    5    5    0  503 -0.48675702771E+03 -0.59626076862E+03  0.28151457233E+03  0.81957901550E+03  0.00000000000E+00 0.  1.
         -1    1    6    6    0  502  0.20581137228E+03 -0.44773804598E+03 -0.16299579972E+03  0.51903305242E+03  0.00000000000E+00 0.  1.
<mgrwt>
<rscale>  0 0.28188038E+04</rscale>
<asrwt>0</asrwt>
<pdfrwt beam="1">  1        1 0.26519516E+00 0.28188038E+04</pdfrwt>
<pdfrwt beam="2">  1       -1 0.17728721E+00 0.28188038E+04</pdfrwt>
<totfact> 0.86396522E-01</totfact>
</mgrwt>
</event>
<event>
12    1  0.2214165E-007  0.4156532E+04  0.7818608E-02  0.7973693E-01
          2   -1    0    0  501    0  0.00000000000E+00  0.00000000000E+00  0.26220072824E+04  0.26220072824E+04  0.00000000000E+00 0. -1.
         -2   -1    0    0    0  501 -0.00000000000E+00 -0.00000000000E+00 -0.16472838667E+04  0.16472838667E+04  0.00000000000E+00 0.  1.
         23    2    1    2    0    0 -0.10840805770E+04 -0.69662902844E+03 -0.10788841213E+04  0.16832144748E+04  0.93259423923E+02 0.  0.
        254    2    1    2    0    0  0.10840805770E+04  0.69662902844E+03  0.20536075371E+04  0.25860766744E+04  0.89998108237E+03 0.  0.
        -24    2    4    4    0    0  0.94790546039E+03  0.67338144680E+03  0.10468918563E+04  0.15666483188E+04  0.80231298533E+02 0.  0.
         24    2    4    4    0    0  0.13617511658E+03  0.23247581644E+02  0.10067156808E+04  0.10194283556E+04  0.81692091141E+02 0.  0.
         13    1    3    3    0    0 -0.36586937081E+03 -0.24909234996E+03 -0.31569081255E+03  0.54366173714E+03  0.00000000000E+00 0. -1.
        -13    1    3    3    0    0 -0.71821120616E+03 -0.44753667848E+03 -0.76319330879E+03  0.11395527376E+04  0.00000000000E+00 0.  1.
          2    1    6    6  502    0  0.22693154117E+02  0.74019034835E+01  0.45257576149E+02  0.51166547840E+02  0.00000000000E+00 0. -1.
          3    1    5    5  503    0  0.11570495723E+03  0.59742102714E+02  0.14145272587E+03  0.19226447831E+03  0.00000000000E+00 0. -1.
         -4    1    5    5    0  503  0.83220050316E+03  0.61363934409E+03  0.90543913045E+03  0.13743838405E+04  0.00000000000E+00 0.  1.
         -1    1    6    6    0  502  0.11348196246E+03  0.15845678160E+02  0.96145810463E+03  0.96826180771E+03  0.00000000000E+00 0.  1.
<mgrwt>
<rscale>  0 0.41565324E+04</rscale>
<asrwt>0</asrwt>
<pdfrwt beam="1">  1        2 0.40338574E+00 0.41565324E+04</pdfrwt>
<pdfrwt beam="2">  1       -2 0.25342829E+00 0.41565324E+04</pdfrwt>
<totfact> 0.14084982E-01</totfact>
</mgrwt>
</event>
<event>
12    1  0.2214165E-007  0.1802324E+04  0.7818608E-02  0.8705065E-01
          3   -1    0    0  501    0  0.00000000000E+00  0.00000000000E+00  0.69352173156E+03  0.69352173156E+03  0.00000000000E+00 0. -1.
         -3   -1    0    0    0  501 -0.00000000000E+00 -0.00000000000E+00 -0.11709696993E+04  0.11709696993E+04  0.00000000000E+00 0.  1.
         23    2    1    2    0    0  0.28622407868E+03 -0.53103345817E+03  0.12911663607E+03  0.62367692756E+03  0.91548060328E+02 0.  0.
        254    2    1    2    0    0 -0.28622407868E+03  0.53103345817E+03 -0.60656460379E+03  0.12408145033E+04  0.89876540659E+03 0.  0.
        -24    2    4    4    0    0 -0.22789378497E+03 -0.17071379321E+03 -0.41020366896E+03  0.50557857863E+03  0.79144631669E+02 0.  0.
         24    2    4    4    0    0 -0.58330293709E+02  0.70174725138E+03 -0.19636093483E+03  0.73523592465E+03  0.78502357895E+02 0.  0.
         13    1    3    3    0    0  0.38197358241E+02 -0.23231857152E+02  0.14803290088E+02  0.47094530052E+02  0.00000000000E+00 0. -1.
        -13    1    3    3    0    0  0.24802672043E+03 -0.50780160102E+03  0.11431334598E+03  0.57658239751E+03  0.00000000000E+00 0.  1.
          2    1    6    6  502    0 -0.18000516805E+02  0.30072315648E+03 -0.12381356322E+03  0.32571188785E+03  0.00000000000E+00 0. -1.
          1    1    5    5  503    0 -0.21040847290E+03 -0.16165011783E+03 -0.33236490441E+03  0.42528686289E+03  0.00000000000E+00 0. -1.
         -2    1    5    5    0  503 -0.17485312065E+02 -0.90636753742E+01 -0.77838764553E+02  0.80291715740E+02  0.00000000000E+00 0.  1.
         -1    1    6    6    0  502 -0.40329776904E+02  0.40102409489E+03 -0.72547371601E+02  0.40952403680E+03  0.00000000000E+00 0.  1.
<mgrwt>
<rscale>  0 0.18023240E+04</rscale>
<asrwt>0</asrwt>
<pdfrwt beam="1">  1        3 0.10669565E+00 0.18023240E+04</pdfrwt>
<pdfrwt beam="2">  1       -3 0.18014918E+00 0.18023240E+04</pdfrwt>
<totfact> 0.36558721E-01</totfact>
</mgrwt>
</event>
<event>
12    1  0.2214165E-007  0.1500406E+04  0.7818608E-02  0.8884183E-01
          1   -1    0    0  501    0  0.00000000000E+00  0.00000000000E+00  0.13733155770E+04  0.13733155770E+04  0.00000000000E+00 0. -1.
         -1   -1    0    0    0  501 -0.00000000000E+00 -0.00000000000E+00 -0.40981418911E+03  0.40981418911E+03  0.00000000000E+00 0.  1.
         23    2    1    2    0    0  0.11953542982E+03  0.43015560740E+03  0.50754803263E+03  0.68493657209E+03  0.11050129772E+03 0.  0.
        254    2    1    2    0    0 -0.11953542982E+03 -0.43015560740E+03  0.45595335526E+03  0.10981931940E+04  0.89376297957E+03 0.  0.
        -24    2    4    4    0    0 -0.16160369087E+03 -0.68193762003E+03  0.21421340305E+03  0.73725782553E+03  0.80666280140E+02 0.  0.
         24    2    4    4    0    0  0.42068261049E+02  0.25178201263E+03  0.24173995221E+03  0.36093536848E+03  0.81683629045E+02 0.  0.
         11    1    3    3    0    0  0.12009819340E+02  0.22241624701E+03  0.20690026508E+03  0.30400812881E+03  0.00000000000E+00 0.  1.
        -11    1    3    3    0    0  0.10752561048E+03  0.20773936039E+03  0.30064776755E+03  0.38092844327E+03  0.00000000000E+00 0. -1.
          2    1    6    6  502    0 -0.15453555476E+02  0.95410135536E+01  0.24567955732E+02  0.30552050100E+02  0.00000000000E+00 0. -1.
          1    1    5    5  503    0  0.85644372877E+01 -0.43674494125E+02  0.19573192120E+02  0.48620169404E+02  0.00000000000E+00 0. -1.
         -2    1    5    5    0  503 -0.17016812816E+03 -0.63826312590E+03  0.19464021093E+03  0.68863765613E+03  0.00000000000E+00 0.  1.
         -1    1    6    6    0  502  0.57521816525E+02  0.24224099907E+03  0.21717199648E+03  0.33038331838E+03  0.00000000000E+00 0.  1.
<mgrwt>
<rscale>  0 0.15004056E+04</rscale>
<asrwt>0</asrwt>
<pdfrwt beam="1">  1        1 0.21127932E+00 0.15004056E+04</pdfrwt>
<pdfrwt beam="2">  1       -1 0.63048337E-01 0.15004056E+04</pdfrwt>
<totfact> 0.19800552E+01</totfact>
</mgrwt>
</event>
<event>
12    1  0.2214165E-007  0.2325694E+04  0.7818608E-02  0.8467859E-01
         -1   -1    0    0    0  501 -0.00000000000E+00  0.00000000000E+00  0.14156896344E+04  0.14156896344E+04  0.00000000000E+00 0.  1.
          1   -1    0    0  501    0  0.00000000000E+00 -0.00000000000E+00 -0.95516182861E+03  0.95516182861E+03  0.00000000000E+00 0. -1.
         23    2    1    2    0    0 -0.88191156698E+03  0.44188354927E+03  0.20393394612E+03  0.10111465673E+04  0.88313323681E+02 0.  0.
        254    2    1    2    0    0  0.88191156698E+03 -0.44188354927E+03  0.25659385971E+03  0.13597048957E+04  0.89995994994E+03 0.  0.
        -24    2    4    4    0    0  0.14937928619E+03 -0.39392601055E+01 -0.29528915196E+03  0.34001295751E+03  0.77996404384E+02 0.  0.
         24    2    4    4    0    0  0.73253228080E+03 -0.43794428916E+03  0.55188301167E+03  0.10196919382E+04  0.82450272606E+02 0.  0.
         13    1    3    3    0    0 -0.29298196731E+03  0.12451294997E+03  0.29050087698E+02  0.31966516150E+03  0.00000000000E+00 0. -1.
        -13    1    3    3    0    0 -0.58892959967E+03  0.31737059930E+03  0.17488385842E+03  0.69148140583E+03  0.00000000000E+00 0.  1.
          4    1    6    6  502    0  0.71134965012E+02 -0.29337176282E+02  0.26520013173E+02  0.81388968897E+02  0.00000000000E+00 0. -1.
          3    1    5    5  503    0  0.43969756529E+02 -0.57513159003E+01 -0.27401999401E+02  0.52127600127E+02  0.00000000000E+00 0. -1.
         -4    1    5    5    0  503  0.10540952966E+03  0.18120557949E+01 -0.26788715256E+03  0.28788535738E+03  0.00000000000E+00 0.  1.
         -3    1    6    6    0  502  0.66139731579E+03 -0.40860711288E+03  0.52536299850E+03  0.93830296931E+03  0.00000000000E+00 0.  1.
<mgrwt>
<rscale>  0 0.23256936E+04</rscale>
<asrwt>0</asrwt>
<pdfrwt beam="1">  1        1 0.14694797E+00 0.23256936E+04</pdfrwt>
<pdfrwt beam="2">  1       -1 0.21779840E+00 0.23256936E+04</pdfrwt>
<totfact> 0.16858630E+00</totfact>
</mgrwt>
</event>
<event>
12    1  0.2214165E-007  0.1984141E+04  0.7818608E-02  0.8614071E-01
         -2   -1    0    0    0  501 -0.00000000000E+00  0.00000000000E+00  0.10321931682E+04  0.10321931682E+04  0.00000000000E+00 0.  1.
          2   -1    0    0  501    0  0.00000000000E+00 -0.00000000000E+00 -0.95350769923E+03  0.95350769923E+03  0.00000000000E+00 0. -1.
         23    2    1    2    0    0 -0.75660950730E+03  0.73656163833E+02 -0.15933913946E+03  0.78195016184E+03  0.90409718681E+02 0.  0.
        254    2    1    2    0    0  0.75660950730E+03 -0.73656163833E+02  0.23802460846E+03  0.12037507056E+04  0.90248372287E+03 0.  0.
        -24    2    4    4    0    0 -0.11841563612E+03  0.10364840570E+01  0.28687104638E+03  0.32033511787E+03  0.79348933895E+02 0.  0.
         24    2    4    4    0    0  0.87502514342E+03 -0.74692647890E+02 -0.48846437916E+02  0.88341558776E+03  0.82396194842E+02 0.  0.
         13    1    3    3    0    0 -0.27362548998E+03 -0.87984388239E+01 -0.82962478947E+02  0.28606134693E+03  0.00000000000E+00 0. -1.
        -13    1    3    3    0    0 -0.48298401732E+03  0.82454602657E+02 -0.76376660511E+02  0.49588881492E+03  0.00000000000E+00 0.  1.
          2    1    6    6  502    0  0.53154143343E+03 -0.14498873394E+02 -0.34121495566E+01  0.53175008749E+03  0.00000000000E+00 0. -1.
          1    1    5    5  503    0 -0.82603847583E+02  0.45794737208E+01  0.26636309493E+03  0.27891515834E+03  0.00000000000E+00 0. -1.
         -2    1    5    5    0  503 -0.35811788538E+02 -0.35429896638E+01  0.20507951454E+02  0.41419959523E+02  0.00000000000E+00 0.  1.
         -1    1    6    6    0  502  0.34348370999E+03 -0.60193774495E+02 -0.45434288359E+02  0.35166550026E+03  0.00000000000E+00 0.  1.
<mgrwt>
<rscale>  0 0.19841413E+04</rscale>
<asrwt>0</asrwt>
<pdfrwt beam="1">  1        2 0.14669349E+00 0.19841413E+04</pdfrwt>
<pdfrwt beam="2">  1       -2 0.15879895E+00 0.19841413E+04</pdfrwt>
<totfact> 0.64578707E+00</totfact>
</mgrwt>
</event>
<event>
12    1  0.2214165E-007  0.1640241E+04  0.7818608E-02  0.8796201E-01
         -2   -1    0    0    0  501 -0.00000000000E+00  0.00000000000E+00  0.48299890304E+03  0.48299890304E+03  0.00000000000E+00 0. -1.
          2   -1    0    0  501    0  0.00000000000E+00 -0.00000000000E+00 -0.13925455260E+04  0.13925455260E+04  0.00000000000E+00 0.  1.
         23    2    1    2    0    0  0.10319413440E+03 -0.54981598646E+03 -0.20186052792E+03  0.60163370709E+03  0.90932922694E+02 0.  0.
        254    2    1    2    0    0 -0.10319413440E+03  0.54981598646E+03 -0.70768609504E+03  0.12739107220E+04  0.89949000554E+03 0.  0.
        -24    2    4    4    0    0 -0.24107973672E+03  0.75139532611E+03 -0.60462793226E+03  0.99733849211E+03  0.79967217150E+02 0.  0.
         24    2    4    4    0    0  0.13788560232E+03 -0.20157933965E+03 -0.10305816278E+03  0.27657222985E+03  0.78895778775E+02 0.  0.
         13    1    3    3    0    0  0.50440077961E+02 -0.45616327392E+03 -0.15547286584E+03  0.48456263367E+03  0.00000000000E+00 0. -1.
        -13    1    3    3    0    0  0.52754056444E+02 -0.93652712535E+02 -0.46387662086E+02  0.11707107341E+03  0.00000000000E+00 0.  1.
          4    1    6    6  502    0  0.26691932975E+02 -0.25366550765E+02  0.11776978561E+02  0.38660294977E+02  0.00000000000E+00 0. -1.
          3    1    5    5  503    0 -0.38120232889E+02  0.23621381022E+03 -0.19211014329E+03  0.30684918682E+03  0.00000000000E+00 0. -1.
         -2    1    5    5    0  503 -0.20295950383E+03  0.51518151588E+03 -0.41251778897E+03  0.69048930529E+03  0.00000000000E+00 0.  1.
         -3    1    6    6    0  502  0.11119366934E+03 -0.17621278888E+03 -0.11483514134E+03  0.23791193487E+03  0.00000000000E+00 0.  1.
<mgrwt>
<rscale>  0 0.16402414E+04</rscale>
<asrwt>0</asrwt>
<pdfrwt beam="1">  1        2 0.21423777E+00 0.16402414E+04</pdfrwt>
<pdfrwt beam="2">  1       -2 0.74307524E-01 0.16402414E+04</pdfrwt>
<totfact> 0.22771652E+01</totfact>
</mgrwt>
</event>
<event>
12    1  0.2214165E-007  0.2090154E+04  0.7818608E-02  0.8565593E-01
         -1   -1    0    0    0  501 -0.00000000000E+00  0.00000000000E+00  0.49722805981E+03  0.49722805981E+03  0.00000000000E+00 0.  1.
          1   -1    0    0  501    0  0.00000000000E+00 -0.00000000000E+00 -0.21965502067E+04  0.21965502067E+04  0.00000000000E+00 0. -1.
         23    2    1    2    0    0 -0.48290005984E+03 -0.69362435183E+03 -0.76300492165E+03  0.11425471715E+04  0.94500366576E+02 0.  0.
        254    2    1    2    0    0  0.48290005984E+03  0.69362435183E+03 -0.93631722529E+03  0.15512310951E+04  0.90295113643E+03 0.  0.
        -24    2    4    4    0    0  0.51076441571E+03  0.86737429226E+03 -0.90363124810E+03  0.13549547234E+04  0.78322530349E+02 0.  0.
         24    2    4    4    0    0 -0.27864355867E+02 -0.17374994042E+03 -0.32685977186E+02  0.19627637168E+03  0.80564116388E+02 0.  0.
         11    1    3    3    0    0 -0.28762091654E+03 -0.36123172186E+03 -0.36648400440E+03  0.58951223396E+03  0.00000000000E+00 0. -1.
        -11    1    3    3    0    0 -0.19527914330E+03 -0.33239262997E+03 -0.39652091726E+03  0.55303493750E+03  0.00000000000E+00 0.  1.
          2    1    6    6  502    0 -0.36900272631E+02 -0.10749011594E+03 -0.54359169814E+02  0.12597886525E+03  0.00000000000E+00 0. -1.
          1    1    5    5  503    0  0.50751526055E+03  0.86317841297E+03 -0.88767407526E+03  0.13381382500E+04  0.00000000000E+00 0. -1.
         -2    1    5    5    0  503  0.32491551569E+01  0.41958792858E+01 -0.15957172841E+02  0.16816473391E+02  0.00000000000E+00 0.  1.
         -1    1    6    6    0  502  0.90359167642E+01 -0.66259824479E+02  0.21673192628E+02  0.70297506431E+02  0.00000000000E+00 0.  1.
<mgrwt>
<rscale>  0 0.20901544E+04</rscale>
<asrwt>0</asrwt>
<pdfrwt beam="1">  1        1 0.33793080E+00 0.20901544E+04</pdfrwt>
<pdfrwt beam="2">  1       -1 0.76496624E-01 0.20901544E+04</pdfrwt>
<totfact> 0.34579835E+00</totfact>
</mgrwt>
</event>
<event>
12    1  0.2214165E-007  0.1265723E+04  0.7818608E-02  0.9057198E-01
          1   -1    0    0  501    0  0.00000000000E+00  0.00000000000E+00  0.94518049138E+03  0.94518049138E+03  0.00000000000E+00 0. -1.
         -1   -1    0    0    0  501 -0.00000000000E+00 -0.00000000000E+00 -0.42374298710E+03  0.42374298710E+03  0.00000000000E+00 0.  1.
         23    2    1    2    0    0 -0.16157034457E+03  0.18653883782E+03 -0.57085424049E+02  0.26959621091E+03  0.92312821630E+02 0.  0.
        254    2    1    2    0    0  0.16157034457E+03 -0.18653883782E+03  0.57852292832E+03  0.10993272676E+04  0.90162627977E+03 0.  0.
        -24    2    4    4    0    0  0.24179907345E+02 -0.70768137019E+02 -0.23631896914E+03  0.26112177346E+03  0.82128729826E+02 0.  0.
         24    2    4    4    0    0  0.13739043722E+03 -0.11577070081E+03  0.81484189746E+03  0.83820549412E+03  0.79637586037E+02 0.  0.
         11    1    3    3    0    0 -0.64798324739E+02  0.15174659976E+02 -0.10744869644E+02  0.67413243640E+02  0.00000000000E+00 0.  1.
        -11    1    3    3    0    0 -0.96772019829E+02  0.17136417785E+03 -0.46340554405E+02  0.20218296727E+03  0.00000000000E+00 0. -1.
          4    1    6    6  502    0  0.55815439941E+02 -0.53952145517E+02  0.52744088906E+03  0.53312295842E+03  0.00000000000E+00 0. -1.
          3    1    5    5  503    0  0.28929958134E+02  0.59793760576E+00 -0.25741049705E+02  0.38728563708E+02  0.00000000000E+00 0. -1.
         -4    1    5    5    0  503 -0.47500507882E+01 -0.71366074624E+02 -0.21057791943E+03  0.22239320975E+03  0.00000000000E+00 0.  1.
         -1    1    6    6    0  502  0.81574997281E+02 -0.61818555289E+02  0.28740100840E+03  0.30508253570E+03  0.00000000000E+00 0.  1.
<mgrwt>
<rscale>  0 0.12657229E+04</rscale>
<asrwt>0</asrwt>
<pdfrwt beam="1">  1        1 0.14541238E+00 0.12657229E+04</pdfrwt>
<pdfrwt beam="2">  1       -1 0.65191229E-01 0.12657229E+04</pdfrwt>
<totfact> 0.39299783E+01</totfact>
</mgrwt>
</event>
<event>
12    1  0.2214165E-007  0.2190976E+04  0.7818608E-02  0.8522194E-01
         -1   -1    0    0    0  501 -0.00000000000E+00  0.00000000000E+00  0.42532537637E+03  0.42532537637E+03  0.00000000000E+00 0.  1.
          1   -1    0    0  501    0  0.00000000000E+00 -0.00000000000E+00 -0.28215898758E+04  0.28215898758E+04  0.00000000000E+00 0. -1.
         23    2    1    2    0    0  0.55076956390E+03 -0.28207757218E+03 -0.19830284076E+04  0.20793178499E+04  0.90808515899E+02 0.  0.
        254    2    1    2    0    0 -0.55076956390E+03  0.28207757218E+03 -0.41323609184E+03  0.11675974022E+04  0.89978039367E+03 0.  0.
        -24    2    4    4    0    0 -0.75721269740E+03  0.36846045021E+02 -0.28237950968E+03  0.81246663277E+03  0.75067581156E+02 0.  0.
         24    2    4    4    0    0  0.20644313350E+03  0.24523152716E+03 -0.13085658216E+03  0.35513076945E+03  0.78975623031E+02 0.  0.
         11    1    3    3    0    0  0.46099027069E+03 -0.22575886883E+03 -0.17412305928E+04  0.18153134919E+04  0.00000000000E+00 0.  1.
        -11    1    3    3    0    0  0.89779293217E+02 -0.56318703354E+02 -0.24179781474E+03  0.26400435801E+03  0.00000000000E+00 0. -1.
          4    1    6    6  502    0  0.40143660718E+02  0.10337196019E+03 -0.33485165245E+02  0.11583838716E+03  0.00000000000E+00 0. -1.
          1    1    5    5  503    0 -0.28814768409E+03 -0.11494184051E+02 -0.13508437251E+03  0.31844778506E+03  0.00000000000E+00 0. -1.
         -2    1    5    5    0  503 -0.46906501331E+03  0.48340229072E+02 -0.14729513716E+03  0.49401884771E+03  0.00000000000E+00 0.  1.
         -3    1    6    6    0  502  0.16629947278E+03  0.14185956698E+03 -0.97371416919E+02  0.23929238229E+03  0.00000000000E+00 0.  1.
<mgrwt>
<rscale>  0 0.21909758E+04</rscale>
<asrwt>0</asrwt>
<pdfrwt beam="1">  1        1 0.43409076E+00 0.21909758E+04</pdfrwt>
<pdfrwt beam="2">  1       -1 0.65434672E-01 0.21909758E+04</pdfrwt>
<totfact> 0.17384714E+00</totfact>
</mgrwt>
</event>
<event>
12    1  0.2214165E-007  0.1288259E+04  0.7818608E-02  0.9038928E-01
          2   -1    0    0  501    0  0.00000000000E+00  0.00000000000E+00  0.75693205918E+03  0.75693205918E+03  0.00000000000E+00 0. -1.
         -2   -1    0    0    0  501 -0.00000000000E+00 -0.00000000000E+00 -0.54813784696E+03  0.54813784696E+03  0.00000000000E+00 0.  1.
         23    2    1    2    0    0 -0.12185712842E+03  0.24896808900E+03 -0.11893896793E+03  0.31447846430E+03  0.88971665897E+02 0.  0.
        254    2    1    2    0    0  0.12185712842E+03 -0.24896808900E+03  0.32773318014E+03  0.99059144184E+03  0.89276430159E+03 0.  0.
        -24    2    4    4    0    0 -0.27788904038E+03 -0.35962588686E+03  0.82926914042E+01  0.46125244707E+03  0.78306793655E+02 0.  0.
         24    2    4    4    0    0  0.39974616880E+03  0.11065779786E+03  0.31944048874E+03  0.52933899477E+03  0.78201009213E+02 0.  0.
         11    1    3    3    0    0 -0.54887504228E+02  0.10713225762E+03 -0.99990794136E+02  0.15648679706E+03  0.00000000000E+00 0.  1.
        -11    1    3    3    0    0 -0.66969624194E+02  0.14183583138E+03 -0.18948173793E+02  0.15799166724E+03  0.00000000000E+00 0. -1.
          2    1    6    6  502    0  0.38427106690E+03  0.12116965831E+03  0.31005044138E+03  0.50840693853E+03  0.00000000000E+00 0. -1.
          1    1    5    5  503    0 -0.20174321241E+03 -0.30712314195E+03 -0.68946429137E+01  0.36752208665E+03  0.00000000000E+00 0. -1.
         -2    1    5    5    0  503 -0.76145827972E+02 -0.52502744909E+02  0.15187334318E+02  0.93730360419E+02  0.00000000000E+00 0.  1.
         -1    1    6    6    0  502  0.15475101907E+02 -0.10511860447E+02  0.93900473598E+01  0.20932056241E+02  0.00000000000E+00 0.  1.
<mgrwt>
<rscale>  0 0.12882595E+04</rscale>
<asrwt>0</asrwt>
<pdfrwt beam="1">  1        2 0.11645109E+00 0.12882595E+04</pdfrwt>
<pdfrwt beam="2">  1       -2 0.84328899E-01 0.12882595E+04</pdfrwt>
<totfact> 0.44612813E+01</totfact>
</mgrwt>
</event>
<event>
12    1  0.2214165E-007  0.2418592E+04  0.7818608E-02  0.8432576E-01
          2   -1    0    0  501    0  0.00000000000E+00  0.00000000000E+00  0.76756703456E+03  0.76756703456E+03  0.00000000000E+00 0. -1.
         -2   -1    0    0    0  501 -0.00000000000E+00 -0.00000000000E+00 -0.19052366788E+04  0.19052366788E+04  0.00000000000E+00 0.  1.
         23    2    1    2    0    0 -0.52832791878E+03  0.89393678224E+03 -0.42224276805E+03  0.11246914261E+04  0.91588691557E+02 0.  0.
        254    2    1    2    0    0  0.52832791878E+03 -0.89393678224E+03 -0.71542687615E+03  0.15481122872E+04  0.89808834656E+03 0.  0.
        -24    2    4    4    0    0  0.12553639209E+03  0.15649320275E+03 -0.65010916634E+01  0.21591308071E+03  0.79540467587E+02 0.  0.
         24    2    4    4    0    0  0.40279152669E+03 -0.10504299850E+04 -0.70892578448E+03  0.13321992065E+04  0.80838051053E+02 0.  0.
         11    1    3    3    0    0 -0.46025981994E+03  0.80918214274E+03 -0.35189993676E+03  0.99521274483E+03  0.00000000000E+00 0. -1.
        -11    1    3    3    0    0 -0.68068098833E+02  0.84754639509E+02 -0.70342831281E+02  0.12947868129E+03  0.00000000000E+00 0.  1.
          2    1    6    6  502    0  0.25825053334E+03 -0.57714095121E+03 -0.37342853619E+03  0.73432546406E+03  0.00000000000E+00 0. -1.
          1    1    5    5  503    0  0.57265084451E+02  0.12726282298E+03  0.97383729323E+01  0.13989264426E+03  0.00000000000E+00 0. -1.
         -2    1    5    5    0  503  0.68271307635E+02  0.29230379764E+02 -0.16239464596E+02  0.76020436448E+02  0.00000000000E+00 0.  1.
         -3    1    6    6    0  502  0.14454099335E+03 -0.47328903379E+03 -0.33549724829E+03  0.59787374242E+03  0.00000000000E+00 0.  1.
<mgrwt>
<rscale>  0 0.24185920E+04</rscale>
<asrwt>0</asrwt>
<pdfrwt beam="1">  1        2 0.11808724E+00 0.24185920E+04</pdfrwt>
<pdfrwt beam="2">  1       -2 0.29311333E+00 0.24185920E+04</pdfrwt>
<totfact> 0.11442727E+00</totfact>
</mgrwt>
</event>
<event>
12    1  0.2214165E-007  0.1722138E+04  0.7818608E-02  0.8748838E-01
          2   -1    0    0  501    0  0.00000000000E+00  0.00000000000E+00  0.26750587076E+04  0.26750587076E+04  0.00000000000E+00 0. -1.
         -2   -1    0    0    0  501 -0.00000000000E+00 -0.00000000000E+00 -0.27716773086E+03  0.27716773086E+03  0.00000000000E+00 0.  1.
         23    2    1    2    0    0 -0.98927119299E+02 -0.51177842126E+03  0.29388897661E+03  0.60518746864E+03  0.90429056312E+02 0.  0.
        254    2    1    2    0    0  0.98927119299E+02  0.51177842126E+03  0.21040020001E+04  0.23470389698E+04  0.90003543370E+03 0.  0.
        -24    2    4    4    0    0  0.39191902854E+03 -0.47018438332E+02  0.87723185706E+03  0.96527698922E+03  0.80079188243E+02 0.  0.
         24    2    4    4    0    0 -0.29299190924E+03  0.55879685959E+03  0.12267701431E+04  0.13817619806E+04  0.78759113520E+02 0.  0.
         11    1    3    3    0    0 -0.10092829428E+03 -0.40999574459E+03  0.20208220498E+03  0.46810281856E+03  0.00000000000E+00 0.  1.
        -11    1    3    3    0    0  0.20011749850E+01 -0.10178267666E+03  0.91806771633E+02  0.13708465008E+03  0.00000000000E+00 0. -1.
          2    1    6    6  502    0 -0.14979721959E+03  0.23691650165E+03  0.47496432624E+03  0.55150679683E+03  0.00000000000E+00 0. -1.
          3    1    5    5  503    0  0.14873283249E+03 -0.16679165092E+01  0.41765279251E+03  0.44334872561E+03  0.00000000000E+00 0. -1.
         -4    1    5    5    0  503  0.24318619605E+03 -0.45350521823E+02  0.45957906455E+03  0.52192826361E+03  0.00000000000E+00 0.  1.
         -1    1    6    6    0  502 -0.14319468965E+03  0.32188035794E+03  0.75180581682E+03  0.83025518377E+03  0.00000000000E+00 0.  1.
<mgrwt>
<rscale>  0 0.17221381E+04</rscale>
<asrwt>0</asrwt>
<pdfrwt beam="1">  1        2 0.41154748E+00 0.17221381E+04</pdfrwt>
<pdfrwt beam="2">  1       -2 0.42641191E-01 0.17221381E+04</pdfrwt>
<totfact> 0.13641508E+01</totfact>
</mgrwt>
</event>
<event>
12    1  0.2214165E-007  0.1456669E+04  0.7818608E-02  0.8913790E-01
         -2   -1    0    0    0  501 -0.00000000000E+00  0.00000000000E+00  0.27884378423E+03  0.27884378423E+03  0.00000000000E+00 0.  1.
          2   -1    0    0  501    0  0.00000000000E+00 -0.00000000000E+00 -0.19023948331E+04  0.19023948331E+04  0.00000000000E+00 0. -1.
         23    2    1    2    0    0 -0.29389301519E+03 -0.18810619157E+03 -0.90522981835E+02  0.37180000075E+03  0.91015309856E+02 0.  0.
        254    2    1    2    0    0  0.29389301519E+03  0.18810619157E+03 -0.15330280670E+04  0.18094386165E+04  0.89562046045E+03 0.  0.
        -24    2    4    4    0    0 -0.19537841145E+02  0.18090154950E+03 -0.14653694308E+04  0.14791912226E+04  0.87132120830E+02 0.  0.
         24    2    4    4    0    0  0.31343085634E+03  0.72046420692E+01 -0.67658636227E+02  0.33024739397E+03  0.78707316030E+02 0.  0.
         13    1    3    3    0    0 -0.23288432989E+03 -0.11861857173E+03 -0.97781753642E+02  0.27904613957E+03  0.00000000000E+00 0.  1.
        -13    1    3    3    0    0 -0.61008685307E+02 -0.69487619845E+02  0.72587718076E+01  0.92753861174E+02  0.00000000000E+00 0. -1.
          2    1    6    6  502    0  0.15961490352E+03 -0.29896508057E+02 -0.55259159052E+02  0.17153510801E+03  0.00000000000E+00 0. -1.
          1    1    5    5  503    0 -0.29792209755E+02  0.12871887492E+02 -0.29429025661E+03  0.29607434266E+03  0.00000000000E+00 0. -1.
         -2    1    5    5    0  503  0.10254368610E+02  0.16802966201E+03 -0.11710791742E+04  0.11831168799E+04  0.00000000000E+00 0.  1.
         -1    1    6    6    0  502  0.15381595282E+03  0.37101150126E+02 -0.12399477174E+02  0.15871228596E+03  0.00000000000E+00 0.  1.
<mgrwt>
<rscale>  0 0.14566688E+04</rscale>
<asrwt>0</asrwt>
<pdfrwt beam="1">  1        2 0.29267613E+00 0.14566688E+04</pdfrwt>
<pdfrwt beam="2">  1       -2 0.42899043E-01 0.14566688E+04</pdfrwt>
<totfact> 0.37809967E+01</totfact>
</mgrwt>
</event>
<event>
12    1  0.2214165E-007  0.1628829E+04  0.7818608E-02  0.8803030E-01
          2   -1    0    0  501    0  0.00000000000E+00  0.00000000000E+00  0.14281167985E+04  0.14281167985E+04  0.00000000000E+00 0. -1.
         -2   -1    0    0    0  501 -0.00000000000E+00 -0.00000000000E+00 -0.46443743454E+03  0.46443743454E+03  0.00000000000E+00 0.  1.
         23    2    1    2    0    0 -0.53650462427E+03 -0.43169736728E+02  0.15243260416E+03  0.56706204939E+03  0.92859199912E+02 0.  0.
        254    2    1    2    0    0  0.53650462427E+03  0.43169736728E+02  0.81124675980E+03  0.13254921836E+04  0.89950396641E+03 0.  0.
        -24    2    4    4    0    0  0.10029308165E+03  0.13761992268E+03  0.85010243289E+03  0.87080434502E+03  0.81413239481E+02 0.  0.
         24    2    4    4    0    0  0.43621154263E+03 -0.94450185956E+02 -0.38855673092E+02  0.45468783862E+03  0.77652557673E+02 0.  0.
         11    1    3    3    0    0 -0.47357286024E+03 -0.35720908341E+02  0.10122149068E+03  0.48558524219E+03  0.00000000000E+00 0.  1.
        -11    1    3    3    0    0 -0.62931764030E+02 -0.74488283875E+01  0.51211113478E+02  0.81476807203E+02  0.00000000000E+00 0. -1.
          4    1    6    6  502    0  0.57143204943E+02 -0.63228823573E+01  0.20443248316E+02  0.61018448966E+02  0.00000000000E+00 0. -1.
          3    1    5    5  503    0  0.58469820905E+02  0.12898958420E+03  0.56280016612E+03  0.58034563819E+03  0.00000000000E+00 0. -1.
         -4    1    5    5    0  503  0.41823260744E+02  0.86303384854E+01  0.28730226677E+03  0.29045870683E+03  0.00000000000E+00 0.  1.
         -3    1    6    6    0  502  0.37906833768E+03 -0.88127303598E+02 -0.59298921408E+02  0.39366938966E+03  0.00000000000E+00 0.  1.
<mgrwt>
<rscale>  0 0.16288289E+04</rscale>
<asrwt>0</asrwt>
<pdfrwt beam="1">  1        2 0.21971027E+00 0.16288289E+04</pdfrwt>
<pdfrwt beam="2">  1       -2 0.71451914E-01 0.16288289E+04</pdfrwt>
<totfact> 0.23710845E+01</totfact>
</mgrwt>
</event>
<event>
12    1  0.2214165E-007  0.2055375E+04  0.7818608E-02  0.8581160E-01
         -1   -1    0    0    0  501 -0.00000000000E+00  0.00000000000E+00  0.49364270916E+03  0.49364270916E+03  0.00000000000E+00 0.  1.
          1   -1    0    0  501    0  0.00000000000E+00 -0.00000000000E+00 -0.21394856067E+04  0.21394856067E+04  0.00000000000E+00 0. -1.
         23    2    1    2    0    0  0.17913128550E+03 -0.80380687324E+03 -0.77310678097E+03  0.11329495617E+04  0.87676151602E+02 0.  0.
        254    2    1    2    0    0 -0.17913128550E+03  0.80380687324E+03 -0.87273611656E+03  0.15001787542E+04  0.90037462120E+03 0.  0.
        -24    2    4    4    0    0 -0.17966051875E+03 -0.85079314124E+02  0.47434149834E+02  0.21819381212E+03  0.76433954420E+02 0.  0.
         24    2    4    4    0    0  0.52923324824E+00  0.88888618736E+03 -0.92017026639E+03  0.12819849421E+04  0.81566772567E+02 0.  0.
         11    1    3    3    0    0  0.11659345664E+03 -0.40209213724E+03 -0.34425100765E+03  0.54201556918E+03  0.00000000000E+00 0.  1.
        -11    1    3    3    0    0  0.62537828866E+02 -0.40171473600E+03 -0.42885577331E+03  0.59093399247E+03  0.00000000000E+00 0. -1.
          2    1    6    6  502    0  0.33923445534E+02  0.48782707753E+03 -0.47200541454E+03  0.67964341318E+03  0.00000000000E+00 0. -1.
          3    1    5    5  503    0 -0.12036664514E+03 -0.79292898539E+02  0.35159615692E+01  0.14417993968E+03  0.00000000000E+00 0. -1.
         -4    1    5    5    0  503 -0.59293873608E+02 -0.57864155857E+01  0.43918188265E+02  0.74013872438E+02  0.00000000000E+00 0.  1.
         -1    1    6    6    0  502 -0.33394212286E+02  0.40105910983E+03 -0.44816485185E+03  0.60234152889E+03  0.00000000000E+00 0.  1.
<mgrwt>
<rscale>  0 0.20553749E+04</rscale>
<asrwt>0</asrwt>
<pdfrwt beam="1">  1        1 0.32915163E+00 0.20553749E+04</pdfrwt>
<pdfrwt beam="2">  1       -1 0.75945032E-01 0.20553749E+04</pdfrwt>
<totfact> 0.38515294E+00</totfact>
</mgrwt>
</event>
<event>
12    1  0.2214165E-007  0.2038670E+04  0.7818608E-02  0.8588751E-01
         -2   -1    0    0    0  501 -0.00000000000E+00  0.00000000000E+00  0.55934887867E+03  0.55934887867E+03  0.00000000000E+00 0.  1.
          2   -1    0    0  501    0  0.00000000000E+00 -0.00000000000E+00 -0.18575958736E+04  0.18575958736E+04  0.00000000000E+00 0. -1.
         23    2    1    2    0    0 -0.79951007958E+03 -0.16085561725E+03 -0.58246502991E+03  0.10062529937E+04  0.90491321917E+02 0.  0.
        254    2    1    2    0    0  0.79951007958E+03  0.16085561725E+03 -0.71578196502E+03  0.14106917586E+04  0.90145244982E+03 0.  0.
        -24    2    4    4    0    0  0.22672303627E+03 -0.31594643896E+03 -0.48433401093E+03  0.62627513878E+03  0.80097614505E+02 0.  0.
         24    2    4    4    0    0  0.57278704330E+03  0.47680205620E+03 -0.23144795410E+03  0.78441661978E+03  0.79473770253E+02 0.  0.
         11    1    3    3    0    0 -0.42951461773E+03 -0.49214314155E+02 -0.27478080264E+03  0.51225906050E+03  0.00000000000E+00 0.  1.
        -11    1    3    3    0    0 -0.36999546185E+03 -0.11164130309E+03 -0.30768422727E+03  0.49399393321E+03  0.00000000000E+00 0. -1.
          4    1    6    6  502    0  0.42338376853E+03  0.37931876541E+03 -0.14760273287E+03  0.58730154775E+03  0.00000000000E+00 0. -1.
          3    1    5    5  503    0  0.19096719020E+03 -0.29968795660E+03 -0.45459760203E+03  0.57700980827E+03  0.00000000000E+00 0. -1.
         -4    1    5    5    0  503  0.35755846068E+02 -0.16258482360E+02 -0.29736408894E+02  0.49265330513E+02  0.00000000000E+00 0.  1.
         -3    1    6    6    0  502  0.14940327478E+03  0.97483290797E+02 -0.83845221228E+02  0.19711507203E+03  0.00000000000E+00 0.  1.
<mgrwt>
<rscale>  0 0.20386703E+04</rscale>
<asrwt>0</asrwt>
<pdfrwt beam="1">  1        2 0.28578398E+00 0.20386703E+04</pdfrwt>
<pdfrwt beam="2">  1       -2 0.86053674E-01 0.20386703E+04</pdfrwt>
<totfact> 0.86971224E+00</totfact>
</mgrwt>
</event>
<event>
12    1  0.2214165E-007  0.1445560E+04  0.7818608E-02  0.8921484E-01
          1   -1    0    0  501    0  0.00000000000E+00  0.00000000000E+00  0.18693699096E+04  0.18693699096E+04  0.00000000000E+00 0.  1.
         -1   -1    0    0    0  501 -0.00000000000E+00 -0.00000000000E+00 -0.27945836003E+03  0.27945836003E+03  0.00000000000E+00 0. -1.
         23    2    1    2    0    0 -0.42720661618E+03 -0.69504466506E+02  0.41648468645E+03  0.60695163340E+03  0.87146012353E+02 0.  0.
        254    2    1    2    0    0  0.42720661618E+03  0.69504466506E+02  0.11734268631E+04  0.15418766362E+04  0.90172977907E+03 0.  0.
        -24    2    4    4    0    0  0.34404697790E+03  0.45547101995E+03  0.84275235080E+03  0.10207139884E+04  0.76179710871E+02 0.  0.
         24    2    4    4    0    0  0.83159638287E+02 -0.38596655344E+03  0.33067451227E+03  0.52116264778E+03  0.79869684814E+02 0.  0.
         11    1    3    3    0    0 -0.33775082890E+03 -0.18319328347E+02  0.32681124161E+03  0.47033690888E+03  0.00000000000E+00 0. -1.
        -11    1    3    3    0    0 -0.89455787288E+02 -0.51185138159E+02  0.89673444840E+02  0.13661472453E+03  0.00000000000E+00 0.  1.
          2    1    6    6  502    0  0.28810150108E+02 -0.26973326245E+02  0.26908763686E+02  0.47766794335E+02  0.00000000000E+00 0. -1.
          3    1    5    5  503    0  0.87486780807E+02  0.74864073358E+02  0.20213068794E+03  0.23262712934E+03  0.00000000000E+00 0. -1.
         -4    1    5    5    0  503  0.25656019709E+03  0.38060694659E+03  0.64062166286E+03  0.78808685908E+03  0.00000000000E+00 0.  1.
         -1    1    6    6    0  502  0.54349488179E+02 -0.35899322720E+03  0.30376574859E+03  0.47339585344E+03  0.00000000000E+00 0.  1.
<mgrwt>
<rscale>  0 0.14455602E+04</rscale>
<asrwt>0</asrwt>
<pdfrwt beam="1">  1        1 0.28759536E+00 0.14455602E+04</pdfrwt>
<pdfrwt beam="2">  1       -1 0.42993595E-01 0.14455602E+04</pdfrwt>
<totfact> 0.18941614E+01</totfact>
</mgrwt>
</event>
<event>
12    1  0.2214165E-007  0.2710458E+04  0.7818608E-02  0.8331620E-01
         -2   -1    0    0    0  501 -0.00000000000E+00  0.00000000000E+00  0.76465120698E+03  0.76465120698E+03  0.00000000000E+00 0.  1.
          2   -1    0    0  501    0  0.00000000000E+00 -0.00000000000E+00 -0.24019396571E+04  0.24019396571E+04  0.00000000000E+00 0. -1.
         23    2    1    2    0    0  0.16446417624E+03 -0.54041174953E+03 -0.19724834557E+04  0.20537248542E+04  0.89450932322E+02 0.  0.
        254    2    1    2    0    0 -0.16446417624E+03  0.54041174953E+03  0.33519500560E+03  0.11128660099E+04  0.89834388735E+03 0.  0.
        -24    2    4    4    0    0 -0.37906465520E+03  0.55260649468E+03 -0.36505111611E+02  0.67589273881E+03  0.80214839083E+02 0.  0.
         24    2    4    4    0    0  0.21460047896E+03 -0.12194745152E+02  0.37170011721E+03  0.43697327110E+03  0.81133132213E+02 0.  0.
         13    1    3    3    0    0  0.13292113510E+03 -0.30494865253E+03 -0.12276801570E+04  0.12719513657E+04  0.00000000000E+00 0. -1.
        -13    1    3    3    0    0  0.31543041136E+02 -0.23546309700E+03 -0.74480329872E+03  0.78177348847E+03  0.00000000000E+00 0.  1.
          2    1    6    6  502    0  0.20425029173E+03 -0.32557646176E+02  0.33122417167E+03  0.39049665030E+03  0.00000000000E+00 0. -1.
          3    1    5    5  503    0 -0.28414993601E+03  0.43199010979E+03  0.42794236912E+01  0.51708312151E+03  0.00000000000E+00 0. -1.
         -4    1    5    5    0  503 -0.94914719195E+02  0.12061638490E+03 -0.40784535302E+02  0.15880961729E+03  0.00000000000E+00 0.  1.
         -1    1    6    6    0  502  0.10350187234E+02  0.20362901024E+02  0.40475945541E+02  0.46476620804E+02  0.00000000000E+00 0.  1.
<mgrwt>
<rscale>  0 0.27104583E+04</rscale>
<asrwt>0</asrwt>
<pdfrwt beam="1">  1        2 0.36952917E+00 0.27104583E+04</pdfrwt>
<pdfrwt beam="2">  1       -2 0.11763865E+00 0.27104583E+04</pdfrwt>
<totfact> 0.19383646E+00</totfact>
</mgrwt>
</event>
<event>
12    1  0.2214165E-007  0.5867587E+04  0.7818608E-02  0.7707040E-01
          1   -1    0    0  501    0  0.00000000000E+00  0.00000000000E+00  0.38507251520E+04  0.38507251520E+04  0.00000000000E+00 0. -1.
         -1   -1    0    0    0  501 -0.00000000000E+00 -0.00000000000E+00 -0.22352011880E+04  0.22352011880E+04  0.00000000000E+00 0.  1.
         23    2    1    2    0    0  0.27099293202E+04 -0.85107101225E+03  0.40582708027E+03  0.28707447814E+04  0.91875962955E+02 0.  0.
        254    2    1    2    0    0 -0.27099293202E+04  0.85107101225E+03  0.12096968838E+04  0.32151815585E+04  0.89776785142E+03 0.  0.
        -24    2    4    4    0    0 -0.69656949530E+02 -0.91978185579E+02 -0.40438729314E+02  0.14441972788E+03  0.76874506387E+02 0.  0.
         24    2    4    4    0    0 -0.26402723707E+04  0.94304919783E+03  0.12501356131E+04  0.30707618306E+04  0.79744519208E+02 0.  0.
         11    1    3    3    0    0  0.10493664132E+04 -0.37539381145E+03  0.14905734958E+03  0.11244147261E+04  0.00000000000E+00 0. -1.
        -11    1    3    3    0    0  0.16605629070E+04 -0.47567720080E+03  0.25676973069E+03  0.17463300553E+04  0.00000000000E+00 0.  1.
          2    1    6    6  502    0 -0.44918685593E+03  0.17348267723E+03  0.18490790764E+03  0.51580617013E+03  0.00000000000E+00 0. -1.
          1    1    5    5  503    0 -0.82871072928E+01  0.11930100208E+02  0.51584752993E+01  0.15414710691E+02  0.00000000000E+00 0. -1.
         -2    1    5    5    0  503 -0.61369842237E+02 -0.10390828579E+03 -0.45597204613E+02  0.12900501719E+03  0.00000000000E+00 0.  1.
         -1    1    6    6    0  502 -0.21910855148E+04  0.76956652060E+03  0.10652277054E+04  0.25549556605E+04  0.00000000000E+00 0.  1.
<mgrwt>
<rscale>  0 0.58675874E+04</rscale>
<asrwt>0</asrwt>
<pdfrwt beam="1">  1        1 0.59241925E+00 0.58675874E+04</pdfrwt>
<pdfrwt beam="2">  1       -1 0.34387711E+00 0.58675874E+04</pdfrwt>
<totfact> 0.14825538E-03</totfact>
</mgrwt>
</event>
<event>
12    1  0.2214165E-007  0.1551653E+04  0.7818608E-02  0.8850813E-01
         -2   -1    0    0    0  501 -0.00000000000E+00  0.00000000000E+00  0.31633857312E+03  0.31633857312E+03  0.00000000000E+00 0.  1.
          2   -1    0    0  501    0  0.00000000000E+00 -0.00000000000E+00 -0.19027298374E+04  0.19027298374E+04  0.00000000000E+00 0. -1.
         23    2    1    2    0    0 -0.33684025504E+03  0.34305209315E+03 -0.28929775231E+03  0.56828775219E+03  0.90064886457E+02 0.  0.
        254    2    1    2    0    0  0.33684025504E+03 -0.34305209315E+03 -0.12970935119E+04  0.16507806583E+04  0.90082135135E+03 0.  0.
        -24    2    4    4    0    0  0.25945640109E+02  0.29492994889E+03 -0.35441234455E+03  0.46817798099E+03  0.76978314605E+02 0.  0.
         24    2    4    4    0    0  0.31089461493E+03 -0.63798204204E+03 -0.94268116739E+03  0.11826026773E+04  0.78897157462E+02 0.  0.
         11    1    3    3    0    0 -0.13915018264E+03  0.17260063390E+03 -0.17886217613E+03  0.28486036966E+03  0.00000000000E+00 0. -1.
        -11    1    3    3    0    0 -0.19769007240E+03  0.17045145925E+03 -0.11043557618E+03  0.28342738254E+03  0.00000000000E+00 0.  1.
          2    1    6    6  502    0  0.19075287798E+03 -0.32341607103E+03 -0.45419021461E+03  0.58929904676E+03  0.00000000000E+00 0. -1.
          3    1    5    5  503    0 -0.17542543916E+02  0.20772075283E+03 -0.24081439169E+03  0.31850780720E+03  0.00000000000E+00 0. -1.
         -4    1    5    5    0  503  0.43488184025E+02  0.87209196061E+02 -0.11359795287E+03  0.14967017379E+03  0.00000000000E+00 0.  1.
         -1    1    6    6    0  502  0.12014173695E+03 -0.31456597101E+03 -0.48849095278E+03  0.59330363055E+03  0.00000000000E+00 0.  1.
<mgrwt>
<rscale>  0 0.15516531E+04</rscale>
<asrwt>0</asrwt>
<pdfrwt beam="1">  1        2 0.29272767E+00 0.15516531E+04</pdfrwt>
<pdfrwt beam="2">  1       -2 0.48667473E-01 0.15516531E+04</pdfrwt>
<totfact> 0.29122642E+01</totfact>
</mgrwt>
</event>
<event>
12    1  0.2252481E-007  0.2467641E+04  0.7818608E-02  0.8414605E-01
          1   -1    0    0  501    0  0.00000000000E+00  0.00000000000E+00  0.23098990953E+04  0.23098990953E+04  0.00000000000E+00 0.  1.
         -1   -1    0    0    0  501 -0.00000000000E+00 -0.00000000000E+00 -0.65903878356E+03  0.65903878356E+03  0.00000000000E+00 0. -1.
         23    2    1    2    0    0 -0.49102285775E+03  0.91011767949E+03  0.39762490640E+03  0.11116434640E+04  0.90708254810E+02 0.  0.
        254    2    1    2    0    0  0.49102285775E+03 -0.91011767949E+03  0.12532354054E+04  0.18572944149E+04  0.89973658643E+03 0.  0.
        -24    2    4    4    0    0 -0.12255136189E+03 -0.13859975740E+03 -0.62943724445E+02  0.21101006972E+03  0.79590250826E+02 0.  0.
         24    2    4    4    0    0  0.61357421964E+03 -0.77151792209E+03  0.13161791298E+04  0.16462843452E+04  0.78812538818E+02 0.  0.
         13    1    3    3    0    0 -0.24757073351E+03  0.36940494899E+03  0.15490508699E+03  0.47090006413E+03  0.00000000000E+00 0. -1.
        -13    1    3    3    0    0 -0.24345212424E+03  0.54071273050E+03  0.24271981941E+03  0.64074339985E+03  0.00000000000E+00 0.  1.
          4    1    6    6  502    0  0.45363526209E+03 -0.59200067602E+03  0.94176645393E+03  0.12013216910E+04  0.00000000000E+00 0. -1.
          1    1    5    5  503    0 -0.12025890055E+03 -0.12149429727E+03 -0.78191023365E+02  0.18798112556E+03  0.00000000000E+00 0. -1.
         -2    1    5    5    0  503 -0.22924613395E+01 -0.17105460128E+02  0.15247298920E+02  0.23028944169E+02  0.00000000000E+00 0.  1.
         -1    1    6    6    0  502  0.15993895755E+03 -0.17951724607E+03  0.37441267588E+03  0.44496265421E+03  0.00000000000E+00 0.  1.
<mgrwt>
<rscale>  0 0.24676411E+04</rscale>
<asrwt>0</asrwt>
<pdfrwt beam="1">  1        1 0.35536909E+00 0.24676411E+04</pdfrwt>
<pdfrwt beam="2">  1       -1 0.10139058E+00 0.24676411E+04</pdfrwt>
<totfact> 0.15067782E+00</totfact>
</mgrwt>
</event>
<event>
12    1  0.2214165E-007  0.3283876E+04  0.7818608E-02  0.8167010E-01
          2   -1    0    0  501    0  0.00000000000E+00  0.00000000000E+00  0.19982556857E+04  0.19982556857E+04  0.00000000000E+00 0.  1.
         -2   -1    0    0    0  501 -0.00000000000E+00 -0.00000000000E+00 -0.13491565599E+04  0.13491565599E+04  0.00000000000E+00 0. -1.
         23    2    1    2    0    0  0.80202185935E+03 -0.94328395785E+03  0.11938469593E+04  0.17227550689E+04  0.97932513117E+02 0.  0.
        254    2    1    2    0    0 -0.80202185935E+03  0.94328395785E+03 -0.54474783342E+03  0.16246571768E+04  0.89985390590E+03 0.  0.
        -24    2    4    4    0    0 -0.52523740463E+03  0.94006026346E+03 -0.70996858424E+03  0.12924298721E+04  0.82048482572E+02 0.  0.
         24    2    4    4    0    0 -0.27678445471E+03  0.32236943925E+01  0.16522075082E+03  0.33222730467E+03  0.80355826744E+02 0.  0.
         13    1    3    3    0    0  0.54856742632E+03 -0.61952168950E+03  0.73677908284E+03  0.11079606319E+04  0.00000000000E+00 0. -1.
        -13    1    3    3    0    0  0.25345443303E+03 -0.32376226835E+03  0.45706787643E+03  0.61479443694E+03  0.00000000000E+00 0.  1.
          4    1    6    6  502    0 -0.16026412953E+03  0.90921831438E+01  0.49691844739E+02  0.16803731265E+03  0.00000000000E+00 0. -1.
          3    1    5    5  503    0 -0.31460835784E+02  0.93659892897E+02 -0.47675296435E+02  0.10970366273E+03  0.00000000000E+00 0. -1.
         -4    1    5    5    0  503 -0.49377656885E+03  0.84640037056E+03 -0.66229328780E+03  0.11827262094E+04  0.00000000000E+00 0.  1.
         -3    1    6    6    0  502 -0.11652032518E+03 -0.58684887513E+01  0.11552890608E+03  0.16418999202E+03  0.00000000000E+00 0.  1.
<mgrwt>
<rscale>  0 0.32838756E+04</rscale>
<asrwt>0</asrwt>
<pdfrwt beam="1">  1        2 0.30742395E+00 0.32838756E+04</pdfrwt>
<pdfrwt beam="2">  1       -2 0.20756255E+00 0.32838756E+04</pdfrwt>
<totfact> 0.66494522E-01</totfact>
</mgrwt>
</event>
<event>
12    1  0.2214165E-007  0.2957933E+04  0.7818608E-02  0.8255846E-01
         -1   -1    0    0    0  501 -0.00000000000E+00  0.00000000000E+00  0.79661935461E+03  0.79661935461E+03  0.00000000000E+00 0.  1.
          1   -1    0    0  501    0  0.00000000000E+00 -0.00000000000E+00 -0.27457812876E+04  0.27457812876E+04  0.00000000000E+00 0. -1.
         23    2    1    2    0    0 -0.22462209954E+03 -0.98304299085E+03 -0.19434450072E+04  0.21913394580E+04  0.90341101728E+02 0.  0.
        254    2    1    2    0    0  0.22462209954E+03  0.98304299085E+03 -0.57169258044E+01  0.13510611842E+04  0.89916907802E+03 0.  0.
        -24    2    4    4    0    0 -0.16148646290E+03  0.22711571828E+02 -0.22647026425E+03  0.28966805425E+03  0.77621568298E+02 0.  0.
         24    2    4    4    0    0  0.38610856244E+03  0.96033141902E+03  0.22075333845E+03  0.10613931300E+04  0.80666496262E+02 0.  0.
         13    1    3    3    0    0 -0.21489140981E+03 -0.96646897228E+03 -0.19250762274E+04  0.21647538136E+04  0.00000000000E+00 0. -1.
        -13    1    3    3    0    0 -0.97306897278E+01 -0.16574018572E+02 -0.18368779838E+02  0.26585644377E+02  0.00000000000E+00 0.  1.
          2    1    6    6  502    0  0.38193026345E+03  0.92473241253E+03  0.20108377249E+03  0.10205074446E+04  0.00000000000E+00 0. -1.
          3    1    5    5  503    0 -0.15891574187E+03  0.98914642927E+01 -0.22616252647E+03  0.27658912209E+03  0.00000000000E+00 0. -1.
         -4    1    5    5    0  503 -0.25707210302E+01  0.12820107535E+02 -0.30773778553E+00  0.13078932157E+02  0.00000000000E+00 0.  1.
         -1    1    6    6    0  502  0.41782989908E+01  0.35599006492E+02  0.19669565953E+02  0.40885685398E+02  0.00000000000E+00 0.  1.
<mgrwt>
<rscale>  0 0.29579334E+04</rscale>
<asrwt>0</asrwt>
<pdfrwt beam="1">  1        1 0.42242790E+00 0.29579334E+04</pdfrwt>
<pdfrwt beam="2">  1       -1 0.12255682E+00 0.29579334E+04</pdfrwt>
<totfact> 0.45696117E-01</totfact>
</mgrwt>
</event>
<event>
12    1  0.2214165E-007  0.1394526E+04  0.7818608E-02  0.8957790E-01
          2   -1    0    0  501    0  0.00000000000E+00  0.00000000000E+00  0.18069988509E+04  0.18069988509E+04  0.00000000000E+00 0. -1.
         -2   -1    0    0    0  501 -0.00000000000E+00 -0.00000000000E+00 -0.26905152739E+03  0.26905152739E+03  0.00000000000E+00 0.  1.
         23    2    1    2    0    0  0.20171906860E+03 -0.18813123182E+02 -0.63182989746E+02  0.23019610534E+03  0.89183184960E+02 0.  0.
        254    2    1    2    0    0 -0.20171906860E+03  0.18813123182E+02  0.16011303132E+04  0.18458542729E+04  0.89583212751E+03 0.  0.
        -24    2    4    4    0    0 -0.45690086607E+02  0.82561221255E+02 -0.85668117134E+02  0.14883157410E+03  0.76862682016E+02 0.  0.
         24    2    4    4    0    0 -0.15602898200E+03 -0.63748098072E+02  0.16867984304E+04  0.16970226988E+04  0.78665318990E+02 0.  0.
         11    1    3    3    0    0  0.14437843594E+03 -0.19204222743E+02 -0.85238446298E+02  0.16875878544E+03  0.00000000000E+00 0.  1.
        -11    1    3    3    0    0  0.57340632666E+02  0.39109956024E+00  0.22055456553E+02  0.61437319905E+02  0.00000000000E+00 0. -1.
          4    1    6    6  502    0 -0.14081981110E+03 -0.75705424826E+02  0.16060795453E+04  0.16140176692E+04  0.00000000000E+00 0. -1.
          3    1    5    5  503    0 -0.34902957416E+02  0.83907862010E+02 -0.97143351355E+02  0.13302472122E+03  0.00000000000E+00 0. -1.
         -4    1    5    5    0  503 -0.10787129191E+02 -0.13466407555E+01  0.11475234221E+02  0.15806852879E+02  0.00000000000E+00 0.  1.
         -1    1    6    6    0  502 -0.15209170898E+02  0.11957326753E+02  0.80718885042E+02  0.83005029636E+02  0.00000000000E+00 0.  1.
<mgrwt>
<rscale>  0 0.13945262E+04</rscale>
<asrwt>0</asrwt>
<pdfrwt beam="1">  1        2 0.27799982E+00 0.13945262E+04</pdfrwt>
<pdfrwt beam="2">  1       -2 0.41392544E-01 0.13945262E+04</pdfrwt>
<totfact> 0.46044898E+01</totfact>
</mgrwt>
</event>
<event>
12    1  0.2214165E-007  0.1939481E+04  0.7818608E-02  0.8635450E-01
          2   -1    0    0  501    0  0.00000000000E+00  0.00000000000E+00  0.22986425729E+04  0.22986425729E+04  0.00000000000E+00 0.  1.
         -2   -1    0    0    0  501 -0.00000000000E+00 -0.00000000000E+00 -0.40910959705E+03  0.40910959705E+03  0.00000000000E+00 0. -1.
         23    2    1    2    0    0  0.72384165369E+03 -0.21311720820E+03  0.80878260972E+03  0.11097770160E+04  0.90055713248E+02 0.  0.
        254    2    1    2    0    0 -0.72384165369E+03  0.21311720820E+03  0.10807503661E+04  0.15979751539E+04  0.90340331777E+03 0.  0.
        -24    2    4    4    0    0 -0.92014947111E+03  0.10724225625E+03  0.78154443615E+03  0.12148212691E+04  0.82480661673E+02 0.  0.
         24    2    4    4    0    0  0.19630781741E+03  0.10587495195E+03  0.29920592997E+03  0.38315388477E+03  0.86812707920E+02 0.  0.
         13    1    3    3    0    0  0.60051769656E+03 -0.17180600567E+03  0.71517774627E+03  0.94953568455E+03  0.00000000000E+00 0.  1.
        -13    1    3    3    0    0  0.12332395713E+03 -0.41311202525E+02  0.93604863454E+02  0.16024133149E+03  0.00000000000E+00 0. -1.
          2    1    6    6  502    0  0.61291856295E+02  0.46634790604E+01  0.38260262384E+02  0.72403641917E+02  0.00000000000E+00 0. -1.
          3    1    5    5  503    0 -0.61133937211E+03  0.92835091131E+02  0.56271225174E+03  0.83606175627E+03  0.00000000000E+00 0. -1.
         -4    1    5    5    0  503 -0.30881009899E+03  0.14407165118E+02  0.21883218441E+03  0.37875951285E+03  0.00000000000E+00 0.  1.
         -1    1    6    6    0  502  0.13501596112E+03  0.10121147289E+03  0.26094566759E+03  0.31075024285E+03  0.00000000000E+00 0.  1.
<mgrwt>
<rscale>  0 0.19394811E+04</rscale>
<asrwt>0</asrwt>
<pdfrwt beam="1">  1        2 0.35363731E+00 0.19394811E+04</pdfrwt>
<pdfrwt beam="2">  1       -2 0.62939939E-01 0.19394811E+04</pdfrwt>
<totfact> 0.99213915E+00</totfact>
</mgrwt>
</event>
<event>
12    1  0.2214165E-007  0.1622015E+04  0.7818608E-02  0.8807137E-01
          1   -1    0    0  501    0  0.00000000000E+00  0.00000000000E+00  0.44890108498E+04  0.44890108498E+04  0.00000000000E+00 0. -1.
         -1   -1    0    0    0  501 -0.00000000000E+00 -0.00000000000E+00 -0.14652065941E+03  0.14652065941E+03  0.00000000000E+00 0.  1.
         23    2    1    2    0    0  0.22365741698E+02 -0.23748693128E+03  0.72475450709E+02  0.26522624667E+03  0.90509679252E+02 0.  0.
        254    2    1    2    0    0 -0.22365741698E+02  0.23748693128E+03  0.42700147397E+04  0.43703052625E+04  0.89980105680E+03 0.  0.
        -24    2    4    4    0    0  0.25056779170E+03  0.48428707152E+03  0.26547224843E+04  0.27114964301E+04  0.85692685472E+02 0.  0.
         24    2    4    4    0    0 -0.27293353340E+03 -0.24680014024E+03  0.16152922554E+04  0.16588088324E+04  0.84110933713E+02 0.  0.
         13    1    3    3    0    0  0.35172275384E+00 -0.56554598628E+02 -0.21073475168E+02  0.60354268205E+02  0.00000000000E+00 0.  1.
        -13    1    3    3    0    0  0.22014018944E+02 -0.18093233265E+03  0.93548925876E+02  0.20487197847E+03  0.00000000000E+00 0. -1.
          4    1    6    6  502    0 -0.15515272779E+03 -0.89445200638E+02  0.68917976077E+03  0.71206850479E+03  0.00000000000E+00 0. -1.
          1    1    5    5  503    0  0.11741717549E+03  0.20119059443E+03  0.13373516058E+04  0.13574880353E+04  0.00000000000E+00 0. -1.
         -2    1    5    5    0  503  0.13315061621E+03  0.28309647709E+03  0.13173708784E+04  0.13540083948E+04  0.00000000000E+00 0.  1.
         -3    1    6    6    0  502 -0.11778080560E+03 -0.15735493960E+03  0.92611249464E+03  0.94674032761E+03  0.00000000000E+00 0.  1.
<mgrwt>
<rscale>  0 0.16220146E+04</rscale>
<asrwt>0</asrwt>
<pdfrwt beam="1">  1        1 0.69061695E+00 0.16220146E+04</pdfrwt>
<pdfrwt beam="2">  1       -1 0.22541643E-01 0.16220146E+04</pdfrwt>
<totfact> 0.54247552E-01</totfact>
</mgrwt>
</event>
<event>
12    1  0.2214165E-007  0.1744906E+04  0.7818608E-02  0.8736159E-01
          2   -1    0    0  501    0  0.00000000000E+00  0.00000000000E+00  0.97489127727E+03  0.97489127727E+03  0.00000000000E+00 0. -1.
         -2   -1    0    0    0  501 -0.00000000000E+00 -0.00000000000E+00 -0.78077829749E+03  0.78077829749E+03  0.00000000000E+00 0.  1.
         23    2    1    2    0    0 -0.11830071139E+03  0.46800050568E+03  0.48916672726E+03  0.69336876868E+03  0.91959940695E+02 0.  0.
        254    2    1    2    0    0  0.11830071139E+03 -0.46800050568E+03 -0.29505374748E+03  0.10623008061E+04  0.89911442935E+03 0.  0.
        -24    2    4    4    0    0 -0.23110882282E+03 -0.39270907958E+03 -0.46798918528E+03  0.65811604351E+03  0.80443396341E+02 0.  0.
         24    2    4    4    0    0  0.34940953421E+03 -0.75291426103E+02  0.17293543781E+03  0.40418476257E+03  0.75517118592E+02 0.  0.
         11    1    3    3    0    0 -0.52459736316E+02  0.18773202389E+03  0.26245207375E+03  0.32691960440E+03  0.00000000000E+00 0. -1.
        -11    1    3    3    0    0 -0.65840975079E+02  0.28026848179E+03  0.22671465351E+03  0.36644916428E+03  0.00000000000E+00 0.  1.
          2    1    6    6  502    0  0.13734449769E+03 -0.47046131294E+02  0.10689130452E+03  0.18028477611E+03  0.00000000000E+00 0. -1.
          1    1    5    5  503    0 -0.74658459583E+02 -0.18112804305E+03 -0.24113298968E+03  0.31068693613E+03  0.00000000000E+00 0. -1.
         -2    1    5    5    0  503 -0.15645036324E+03 -0.21158103653E+03 -0.22685619560E+03  0.34742910739E+03  0.00000000000E+00 0.  1.
         -1    1    6    6    0  502  0.21206503652E+03 -0.28245294808E+02  0.66044133286E+02  0.22389998646E+03  0.00000000000E+00 0.  1.
<mgrwt>
<rscale>  0 0.17449057E+04</rscale>
<asrwt>0</asrwt>
<pdfrwt beam="1">  1        2 0.14998327E+00 0.17449057E+04</pdfrwt>
<pdfrwt beam="2">  1       -2 0.12011974E+00 0.17449057E+04</pdfrwt>
<totfact> 0.13133992E+01</totfact>
</mgrwt>
</event>
<event>
12    1  0.2214165E-007  0.1841038E+04  0.7818608E-02  0.8684775E-01
          1   -1    0    0  501    0  0.00000000000E+00  0.00000000000E+00  0.63458962077E+03  0.63458962077E+03  0.00000000000E+00 0. -1.
         -1   -1    0    0    0  501 -0.00000000000E+00 -0.00000000000E+00 -0.13352811272E+04  0.13352811272E+04  0.00000000000E+00 0.  1.
         23    2    1    2    0    0  0.69211282182E+03 -0.46831796132E+02 -0.19909807037E+03  0.72759664415E+03  0.92430837364E+02 0.  0.
        254    2    1    2    0    0 -0.69211282182E+03  0.46831796132E+02 -0.50159343611E+03  0.12422741039E+04  0.90024196676E+03 0.  0.
        -24    2    4    4    0    0 -0.57241422766E+03  0.43313346200E+03 -0.28450623090E+03  0.77631936742E+03  0.80407219021E+02 0.  0.
         24    2    4    4    0    0 -0.11969859416E+03 -0.38630166587E+03 -0.21708720521E+03  0.46595473644E+03  0.80188722699E+02 0.  0.
         11    1    3    3    0    0  0.18277860700E+03  0.12514121265E+02 -0.86498114395E+02  0.20259947237E+03  0.00000000000E+00 0.  1.
        -11    1    3    3    0    0  0.50933421482E+03 -0.59345917396E+02 -0.11259995597E+03  0.52499717178E+03  0.00000000000E+00 0. -1.
          4    1    6    6  502    0 -0.99732152828E+02 -0.37753063232E+03 -0.20612218892E+03  0.44154528353E+03  0.00000000000E+00 0. -1.
          3    1    5    5  503    0 -0.51955163281E+03  0.40329979867E+03 -0.28185749648E+03  0.71556151034E+03  0.00000000000E+00 0. -1.
         -4    1    5    5    0  503 -0.52862594850E+02  0.29833663338E+02 -0.26487344198E+01  0.60757857076E+02  0.00000000000E+00 0.  1.
         -3    1    6    6    0  502 -0.19966441333E+02 -0.87710335554E+01 -0.10965016296E+02  0.24409452912E+02  0.00000000000E+00 0.  1.
<mgrwt>
<rscale>  0 0.18410383E+04</rscale>
<asrwt>0</asrwt>
<pdfrwt beam="1">  1        1 0.97629173E-01 0.18410383E+04</pdfrwt>
<pdfrwt beam="2">  1       -1 0.20542786E+00 0.18410383E+04</pdfrwt>
<totfact> 0.40976666E+00</totfact>
</mgrwt>
</event>
<event>
12    1  0.2214165E-007  0.2125910E+04  0.7818608E-02  0.8549915E-01
         -1   -1    0    0    0  501 -0.00000000000E+00  0.00000000000E+00  0.30444703487E+03  0.30444703487E+03  0.00000000000E+00 0.  1.
          1   -1    0    0  501    0  0.00000000000E+00 -0.00000000000E+00 -0.37112304960E+04  0.37112304960E+04  0.00000000000E+00 0. -1.
         23    2    1    2    0    0  0.12456401056E+03  0.46294366202E+03 -0.27732347113E+04  0.28158693514E+04  0.91958757967E+02 0.  0.
        254    2    1    2    0    0 -0.12456401056E+03 -0.46294366202E+03 -0.63354874982E+03  0.11998081795E+04  0.89906764052E+03 0.  0.
        -24    2    4    4    0    0  0.97670362861E+02  0.14700508217E+03 -0.49471993488E+03  0.53114286062E+03  0.78834830180E+02 0.  0.
         24    2    4    4    0    0 -0.22223437342E+03 -0.60994874419E+03 -0.13882881494E+03  0.66866531887E+03  0.80089209835E+02 0.  0.
         13    1    3    3    0    0  0.11512201214E+03  0.29391056586E+03 -0.19531656862E+04  0.19785076942E+04  0.00000000000E+00 0. -1.
        -13    1    3    3    0    0  0.94419984229E+01  0.16903309615E+03 -0.82006902511E+03  0.83736165716E+03  0.00000000000E+00 0.  1.
          2    1    6    6  502    0 -0.20761490040E+03 -0.58733726495E+03 -0.11664604104E+03  0.63377859585E+03  0.00000000000E+00 0. -1.
          3    1    5    5  503    0  0.77667358900E+02  0.13864469840E+03 -0.47811732664E+03  0.50383603391E+03  0.00000000000E+00 0. -1.
         -4    1    5    5    0  503  0.20003003961E+02  0.83603837708E+01 -0.16602608236E+02  0.27306826701E+02  0.00000000000E+00 0.  1.
         -1    1    6    6    0  502 -0.14619473022E+02 -0.22611479237E+02 -0.22182773907E+02  0.34886723018E+02  0.00000000000E+00 0.  1.
<mgrwt>
<rscale>  0 0.21259098E+04</rscale>
<asrwt>0</asrwt>
<pdfrwt beam="1">  1        1 0.57095855E+00 0.21259098E+04</pdfrwt>
<pdfrwt beam="2">  1       -1 0.46838004E-01 0.21259098E+04</pdfrwt>
<totfact> 0.70728403E-01</totfact>
</mgrwt>
</event>
<event>
12    1  0.2214165E-007  0.2548051E+04  0.7818608E-02  0.8386064E-01
          2   -1    0    0  501    0  0.00000000000E+00  0.00000000000E+00  0.27871290192E+04  0.27871290192E+04  0.00000000000E+00 0. -1.
         -2   -1    0    0    0  501 -0.00000000000E+00 -0.00000000000E+00 -0.58237023516E+03  0.58237023516E+03  0.00000000000E+00 0.  1.
         23    2    1    2    0    0 -0.10272600036E+04  0.26463004864E+03  0.52121784815E+03  0.11854209422E+04  0.90898774855E+02 0.  0.
        254    2    1    2    0    0  0.10272600036E+04 -0.26463004864E+03  0.16835409359E+04  0.21840783122E+04  0.90033094649E+03 0.  0.
        -24    2    4    4    0    0  0.65222893693E+03 -0.59375480452E+03  0.10924559254E+04  0.14064100578E+04  0.81129204050E+02 0.  0.
         24    2    4    4    0    0  0.37503106669E+03  0.32912475588E+03  0.59108501049E+03  0.77766825435E+03  0.80093809268E+02 0.  0.
         13    1    3    3    0    0 -0.48135405123E+03  0.10732546015E+03  0.28949022601E+03  0.57186105654E+03  0.00000000000E+00 0. -1.
        -13    1    3    3    0    0 -0.54590595239E+03  0.15730458848E+03  0.23172762214E+03  0.61355988565E+03  0.00000000000E+00 0.  1.
          4    1    6    6  502    0  0.23220009335E+03  0.15340442585E+03  0.30679182812E+03  0.41421133136E+03  0.00000000000E+00 0. -1.
          3    1    5    5  503    0  0.84682200047E+02 -0.60782634483E+02  0.16880388452E+03  0.19839444319E+03  0.00000000000E+00 0. -1.
         -4    1    5    5    0  503  0.56754673689E+03 -0.53297217003E+03  0.92365204087E+03  0.12080156146E+04  0.00000000000E+00 0.  1.
         -3    1    6    6    0  502  0.14283097334E+03  0.17572033003E+03  0.28429318236E+03  0.36345692299E+03  0.00000000000E+00 0.  1.
<mgrwt>
<rscale>  0 0.25480510E+04</rscale>
<asrwt>0</asrwt>
<pdfrwt beam="1">  1        2 0.42878907E+00 0.25480510E+04</pdfrwt>
<pdfrwt beam="2">  1       -2 0.89595422E-01 0.25480510E+04</pdfrwt>
<totfact> 0.22330387E+00</totfact>
</mgrwt>
</event>
<event>
12    1  0.2214165E-007  0.2191225E+04  0.7818608E-02  0.8522089E-01
          2   -1    0    0  501    0  0.00000000000E+00  0.00000000000E+00  0.16738115368E+04  0.16738115368E+04  0.00000000000E+00 0. -1.
         -2   -1    0    0    0  501 -0.00000000000E+00 -0.00000000000E+00 -0.71714587446E+03  0.71714587446E+03  0.00000000000E+00 0.  1.
         23    2    1    2    0    0  0.76016743730E+03  0.18598334865E+03  0.90126435674E+03  0.11970237560E+04  0.90244628169E+02 0.  0.
        254    2    1    2    0    0 -0.76016743730E+03 -0.18598334865E+03  0.55401305583E+02  0.11939336553E+04  0.89997996079E+03 0.  0.
        -24    2    4    4    0    0  0.17113735335E+02 -0.37752186632E+03 -0.15630469542E+02  0.38629255811E+03  0.78498339989E+02 0.  0.
         24    2    4    4    0    0 -0.77728117263E+03  0.19153851767E+03  0.71031775125E+02  0.80764109717E+03  0.79909972309E+02 0.  0.
         13    1    3    3    0    0  0.37129956003E+03  0.55169078206E+02  0.47452883926E+03  0.60504926225E+03  0.00000000000E+00 0. -1.
        -13    1    3    3    0    0  0.38886787727E+03  0.13081427045E+03  0.42673551749E+03  0.59197449371E+03  0.00000000000E+00 0.  1.
          4    1    6    6  502    0 -0.73686545235E+03  0.18604960339E+03  0.84534873127E+02  0.76467724862E+03  0.00000000000E+00 0. -1.
          3    1    5    5  503    0 -0.60412555883E+01 -0.21928602338E+03  0.26369084392E+02  0.22094837730E+03  0.00000000000E+00 0. -1.
         -2    1    5    5    0  503  0.23154990924E+02 -0.15823584294E+03 -0.41999553933E+02  0.16534418081E+03  0.00000000000E+00 0.  1.
         -3    1    6    6    0  502 -0.40415720287E+02  0.54889142783E+01 -0.13503098001E+02  0.42963848547E+02  0.00000000000E+00 0.  1.
<mgrwt>
<rscale>  0 0.21912253E+04</rscale>
<asrwt>0</asrwt>
<pdfrwt beam="1">  1        2 0.25750947E+00 0.21912253E+04</pdfrwt>
<pdfrwt beam="2">  1       -2 0.11033014E+00 0.21912253E+04</pdfrwt>
<totfact> 0.60514591E+00</totfact>
</mgrwt>
</event>
<event>
12    1  0.2214165E-007  0.2615294E+04  0.7818608E-02  0.8363025E-01
          2   -1    0    0  501    0  0.00000000000E+00  0.00000000000E+00  0.23938237299E+04  0.23938237299E+04  0.00000000000E+00 0.  1.
         -2   -1    0    0    0  501 -0.00000000000E+00 -0.00000000000E+00 -0.71431330259E+03  0.71431330259E+03  0.00000000000E+00 0. -1.
         23    2    1    2    0    0  0.83434960556E+03 -0.55791420482E+03  0.14111185282E+04  0.17341175994E+04  0.92199911623E+02 0.  0.
        254    2    1    2    0    0 -0.83434960556E+03  0.55791420482E+03  0.26839189908E+03  0.13740194330E+04  0.89915942228E+03 0.  0.
        -24    2    4    4    0    0 -0.60356569988E+03  0.61887112323E+02 -0.20588113864E+03  0.64565017094E+03  0.79721585851E+02 0.  0.
         24    2    4    4    0    0 -0.23078390568E+03  0.49602709250E+03  0.47427303772E+03  0.72836926211E+03  0.79263989703E+02 0.  0.
         13    1    3    3    0    0  0.71005590060E+03 -0.44896974712E+03  0.11309501425E+04  0.14088298125E+04  0.00000000000E+00 0.  1.
        -13    1    3    3    0    0  0.12429370496E+03 -0.10894445770E+03  0.28016838569E+03  0.32528778689E+03  0.00000000000E+00 0. -1.
          2    1    6    6  502    0 -0.45665874753E+02  0.14302184086E+03  0.17071350629E+03  0.22734053820E+03  0.00000000000E+00 0. -1.
          3    1    5    5  503    0 -0.55588943800E+03  0.78278722542E+02 -0.18485927605E+03  0.59102756080E+03  0.00000000000E+00 0. -1.
         -4    1    5    5    0  503 -0.47676261876E+02 -0.16391610218E+02 -0.21021862585E+02  0.54622610141E+02  0.00000000000E+00 0.  1.
         -1    1    6    6    0  502 -0.18511803093E+03  0.35300525163E+03  0.30355953143E+03  0.50102872390E+03  0.00000000000E+00 0.  1.
<mgrwt>
<rscale>  0 0.26152936E+04</rscale>
<asrwt>0</asrwt>
<pdfrwt beam="1">  1        2 0.36828057E+00 0.26152936E+04</pdfrwt>
<pdfrwt beam="2">  1       -2 0.10989436E+00 0.26152936E+04</pdfrwt>
<totfact> 0.23313988E+00</totfact>
</mgrwt>
</event>
<event>
12    1  0.2214165E-007  0.2985301E+04  0.7818608E-02  0.8247941E-01
          1   -1    0    0  501    0  0.00000000000E+00  0.00000000000E+00  0.11884352032E+04  0.11884352032E+04  0.00000000000E+00 0. -1.
         -1   -1    0    0    0  501 -0.00000000000E+00 -0.00000000000E+00 -0.18747382897E+04  0.18747382897E+04  0.00000000000E+00 0.  1.
         23    2    1    2    0    0 -0.12514399838E+04  0.27128393954E+03 -0.76843599226E+03  0.14961116016E+04  0.90327412856E+02 0.  0.
        254    2    1    2    0    0  0.12514399838E+04 -0.27128393954E+03  0.82132905808E+02  0.15670618913E+04  0.89957776098E+03 0.  0.
        -24    2    4    4    0    0  0.27773149463E+03 -0.38269894322E+03 -0.23497441701E+03  0.53402395292E+03  0.79845735026E+02 0.  0.
         24    2    4    4    0    0  0.97370848914E+03  0.11141500367E+03  0.31710732281E+03  0.10330379383E+04  0.78030782564E+02 0.  0.
         11    1    3    3    0    0 -0.46259306716E+03  0.12489863605E+03 -0.24513511960E+03  0.53822229788E+03  0.00000000000E+00 0. -1.
        -11    1    3    3    0    0 -0.78884691660E+03  0.14638530349E+03 -0.52330087267E+03  0.95788930375E+03  0.00000000000E+00 0.  1.
          4    1    6    6  502    0  0.29638940936E+03  0.20965274708E+02  0.61252830100E+02  0.30337787315E+03  0.00000000000E+00 0. -1.
          3    1    5    5  503    0  0.84127003706E+02 -0.13465774954E+03 -0.39573595890E+02  0.16363413995E+03  0.00000000000E+00 0. -1.
         -4    1    5    5    0  503  0.19360449092E+03 -0.24804119367E+03 -0.19540082112E+03  0.37038981297E+03  0.00000000000E+00 0.  1.
         -3    1    6    6    0  502  0.67731907978E+03  0.90449728966E+02  0.25585449271E+03  0.72966006520E+03  0.00000000000E+00 0.  1.
<mgrwt>
<rscale>  0 0.29853006E+04</rscale>
<asrwt>0</asrwt>
<pdfrwt beam="1">  1        1 0.18283618E+00 0.29853006E+04</pdfrwt>
<pdfrwt beam="2">  1       -1 0.28842128E+00 0.29853006E+04</pdfrwt>
<totfact> 0.36444577E-01</totfact>
</mgrwt>
</event>
<event>
12    1  0.2214165E-007  0.1968650E+04  0.7818608E-02  0.8621420E-01
         -1   -1    0    0    0  501 -0.00000000000E+00  0.00000000000E+00  0.90836134670E+03  0.90836134670E+03  0.00000000000E+00 0.  1.
          1   -1    0    0  501    0  0.00000000000E+00 -0.00000000000E+00 -0.10666410878E+04  0.10666410878E+04  0.00000000000E+00 0. -1.
         23    2    1    2    0    0 -0.48923903106E+03  0.47141760687E+03 -0.43616910845E+03  0.81281911403E+03  0.94032076372E+02 0.  0.
        254    2    1    2    0    0  0.48923903106E+03 -0.47141760687E+03  0.27788936731E+03  0.11621833205E+04  0.90103173107E+03 0.  0.
        -24    2    4    4    0    0  0.34275875942E+03  0.21229251613E+03  0.18716420703E+03  0.45162729812E+03  0.79906798495E+02 0.  0.
         24    2    4    4    0    0  0.14648027165E+03 -0.68371012300E+03  0.90725160279E+02  0.71055602238E+03  0.87993204045E+02 0.  0.
         13    1    3    3    0    0 -0.12906129341E+03  0.18564930534E+03 -0.14507163094E+03  0.26864150858E+03  0.00000000000E+00 0.  1.
        -13    1    3    3    0    0 -0.36017773765E+03  0.28576830153E+03 -0.29109747750E+03  0.54417760545E+03  0.00000000000E+00 0. -1.
          2    1    6    6  502    0  0.46150203793E+02 -0.11803766883E+03 -0.10625953714E+02  0.12718350312E+03  0.00000000000E+00 0. -1.
          3    1    5    5  503    0  0.74470650205E+02  0.56118347531E+02  0.81079990034E+02  0.12356824615E+03  0.00000000000E+00 0. -1.
         -4    1    5    5    0  503  0.26828810921E+03  0.15617416860E+03  0.10608421700E+03  0.32805905197E+03  0.00000000000E+00 0.  1.
         -3    1    6    6    0  502  0.10033006785E+03 -0.56567245417E+03  0.10135111399E+03  0.58337251927E+03  0.00000000000E+00 0.  1.
<mgrwt>
<rscale>  0 0.19686498E+04</rscale>
<asrwt>0</asrwt>
<pdfrwt beam="1">  1        1 0.16409863E+00 0.19686498E+04</pdfrwt>
<pdfrwt beam="2">  1       -1 0.13974790E+00 0.19686498E+04</pdfrwt>
<totfact> 0.52650686E+00</totfact>
</mgrwt>
</event>
<event>
12    1  0.2214165E-007  0.1771668E+04  0.7818608E-02  0.8721513E-01
         -2   -1    0    0    0  501 -0.00000000000E+00  0.00000000000E+00  0.12245452367E+04  0.12245452367E+04  0.00000000000E+00 0.  1.
          2   -1    0    0  501    0  0.00000000000E+00 -0.00000000000E+00 -0.64081060499E+03  0.64081060499E+03  0.00000000000E+00 0. -1.
         23    2    1    2    0    0 -0.33766861956E+02  0.43901606054E+03  0.72606009688E+03  0.85390618379E+03  0.90095527390E+02 0.  0.
        254    2    1    2    0    0  0.33766861956E+02 -0.43901606054E+03 -0.14232546520E+03  0.10114496579E+04  0.89938788628E+03 0.  0.
        -24    2    4    4    0    0 -0.70486928698E+02 -0.11990329419E+03  0.36453203050E+03  0.39808025388E+03  0.78987848390E+02 0.  0.
         24    2    4    4    0    0  0.10425379065E+03 -0.31911276635E+03 -0.50685749570E+03  0.61336940399E+03  0.81336918360E+02 0.  0.
         11    1    3    3    0    0  0.88760385038E+01  0.15354089282E+03  0.32738726910E+03  0.36171261216E+03  0.00000000000E+00 0.  1.
        -11    1    3    3    0    0 -0.42642900460E+02  0.28547516771E+03  0.39867282778E+03  0.49219357163E+03  0.00000000000E+00 0. -1.
          4    1    6    6  502    0  0.11198231337E+03 -0.31136259960E+03 -0.50234835379E+03  0.60153185742E+03  0.00000000000E+00 0. -1.
          3    1    5    5  503    0 -0.64999958374E+02 -0.13138039931E+03  0.34398772895E+03  0.37391624942E+03  0.00000000000E+00 0. -1.
         -4    1    5    5    0  503 -0.54869703242E+01  0.11477105123E+02  0.20544301557E+02  0.24164004465E+02  0.00000000000E+00 0.  1.
         -3    1    6    6    0  502 -0.77285227122E+01 -0.77501667534E+01 -0.45091419103E+01  0.11837546570E+02  0.00000000000E+00 0.  1.
<mgrwt>
<rscale>  0 0.17716677E+04</rscale>
<asrwt>0</asrwt>
<pdfrwt beam="1">  1        2 0.98586247E-01 0.17716677E+04</pdfrwt>
<pdfrwt beam="2">  1       -2 0.18839157E+00 0.17716677E+04</pdfrwt>
<totfact> 0.68750961E+00</totfact>
</mgrwt>
</event>
<event>
12    1  0.2214165E-007  0.1869947E+04  0.7818608E-02  0.8669962E-01
         -2   -1    0    0    0  501 -0.00000000000E+00  0.00000000000E+00  0.12423581838E+04  0.12423581838E+04  0.00000000000E+00 0.  1.
          2   -1    0    0  501    0  0.00000000000E+00 -0.00000000000E+00 -0.70364186417E+03  0.70364186417E+03  0.00000000000E+00 0. -1.
         23    2    1    2    0    0 -0.54925177287E+03 -0.17218681787E+03 -0.23428205824E+03  0.62781390312E+03  0.89086496678E+02 0.  0.
        254    2    1    2    0    0  0.54925177287E+03  0.17218681787E+03  0.77299837790E+03  0.13181861449E+04  0.89931218720E+03 0.  0.
        -24    2    4    4    0    0  0.49818028011E+01  0.27144532706E+03  0.70003132021E+03  0.75477544202E+03  0.77037229046E+02 0.  0.
         24    2    4    4    0    0  0.54426997007E+03 -0.99258509188E+02  0.72967057694E+02  0.56341070285E+03  0.77623299451E+02 0.  0.
         11    1    3    3    0    0 -0.21511237279E+03 -0.64090358494E+02 -0.45217114658E+02  0.22896614256E+03  0.00000000000E+00 0.  1.
        -11    1    3    3    0    0 -0.33413940008E+03 -0.10809645938E+03 -0.18906494359E+03  0.39884776057E+03  0.00000000000E+00 0. -1.
          4    1    6    6  502    0  0.41118776211E+03 -0.44045347848E+02  0.69131207691E+02  0.41927853780E+03  0.00000000000E+00 0. -1.
          3    1    5    5  503    0 -0.35619700258E+02  0.14332948565E+03  0.37769844732E+03  0.40554681802E+03  0.00000000000E+00 0. -1.
         -4    1    5    5    0  503  0.40601503059E+02  0.12811584141E+03  0.32233287289E+03  0.34922862399E+03  0.00000000000E+00 0.  1.
         -3    1    6    6    0  502  0.13308220795E+03 -0.55213161340E+02  0.38358500037E+01  0.14413216506E+03  0.00000000000E+00 0.  1.
<mgrwt>
<rscale>  0 0.18699468E+04</rscale>
<asrwt>0</asrwt>
<pdfrwt beam="1">  1        2 0.10825259E+00 0.18699468E+04</pdfrwt>
<pdfrwt beam="2">  1       -2 0.19113203E+00 0.18699468E+04</pdfrwt>
<totfact> 0.58163750E+00</totfact>
</mgrwt>
</event>
<event>
12    1  0.2523708E-007  0.2827582E+04  0.7818608E-02  0.8294756E-01
          2   -1    0    0  501    0  0.00000000000E+00  0.00000000000E+00  0.24945890613E+04  0.24945890613E+04  0.00000000000E+00 0.  1.
         -2   -1    0    0    0  501 -0.00000000000E+00 -0.00000000000E+00 -0.80125618534E+03  0.80125618534E+03  0.00000000000E+00 0. -1.
         23    2    1    2    0    0  0.63516902086E+03  0.95884846548E+03  0.13858091846E+04  0.18031856942E+04  0.90451571694E+02 0.  0.
        254    2    1    2    0    0 -0.63516902086E+03 -0.95884846548E+03  0.30752369138E+03  0.14926595525E+04  0.90035085049E+03 0.  0.
        -24    2    4    4    0    0 -0.54778244286E+03 -0.99495422641E+03  0.51567886191E+03  0.12499286165E+04  0.79983375526E+02 0.  0.
         24    2    4    4    0    0 -0.87386578000E+02  0.36105760931E+02 -0.20815517053E+03  0.24273093596E+03  0.81545645300E+02 0.  0.
         11    1    3    3    0    0  0.47540650477E+03  0.69076626405E+03  0.94981783662E+03  0.12670135355E+04  0.00000000000E+00 0. -1.
        -11    1    3    3    0    0  0.15976251610E+03  0.26808220143E+03  0.43599134798E+03  0.53617215872E+03  0.00000000000E+00 0.  1.
          2    1    6    6  502    0 -0.39804786155E+02  0.24154914274E+02 -0.18051037994E+03  0.18641855635E+03  0.00000000000E+00 0. -1.
          3    1    5    5  503    0 -0.51009372888E+03 -0.91798818674E+03  0.49862020752E+03  0.11625489386E+04  0.00000000000E+00 0. -1.
         -4    1    5    5    0  503 -0.37688713982E+02 -0.76966039666E+02  0.17058654388E+02  0.87379677917E+02  0.00000000000E+00 0.  1.
         -1    1    6    6    0  502 -0.47581791844E+02  0.11950846657E+02 -0.27644790588E+02  0.56312379612E+02  0.00000000000E+00 0.  1.
<mgrwt>
<rscale>  0 0.28275819E+04</rscale>
<asrwt>0</asrwt>
<pdfrwt beam="1">  1        2 0.38378293E+00 0.28275819E+04</pdfrwt>
<pdfrwt beam="2">  1       -2 0.12327018E+00 0.28275819E+04</pdfrwt>
<totfact> 0.15112181E+00</totfact>
</mgrwt>
</event>
<event>
12    1  0.2214165E-007  0.1645341E+04  0.7818608E-02  0.8793168E-01
          2   -1    0    0  501    0  0.00000000000E+00  0.00000000000E+00  0.16716730627E+04  0.16716730627E+04  0.00000000000E+00 0.  1.
         -2   -1    0    0    0  501 -0.00000000000E+00 -0.00000000000E+00 -0.40485578167E+03  0.40485578167E+03  0.00000000000E+00 0. -1.
         23    2    1    2    0    0  0.46847409874E+03  0.32255769135E+03  0.40139338409E+03  0.70202511964E+03  0.90615530552E+02 0.  0.
        254    2    1    2    0    0 -0.46847409874E+03 -0.32255769135E+03  0.86542389695E+03  0.13745037247E+04  0.90376463888E+03 0.  0.
        -24    2    4    4    0    0 -0.18905996349E+03 -0.19388037932E+03  0.99289564685E+03  0.10323375147E+04  0.80905546856E+02 0.  0.
         24    2    4    4    0    0 -0.27941413525E+03 -0.12867731203E+03 -0.12747174989E+03  0.34216621002E+03  0.78730925598E+02 0.  0.
         11    1    3    3    0    0  0.66247713604E+02  0.41042444761E+02  0.96747939231E+02  0.12423125845E+03  0.00000000000E+00 0.  1.
        -11    1    3    3    0    0  0.40222638514E+03  0.28151524659E+03  0.30464544486E+03  0.57779386120E+03  0.00000000000E+00 0. -1.
          2    1    6    6  502    0 -0.19855555797E+02 -0.71993731116E+00 -0.31574319010E+02  0.37305482529E+02  0.00000000000E+00 0. -1.
          3    1    5    5  503    0 -0.46183337396E+01  0.24333026396E+01  0.89159137512E+02  0.89311823239E+02  0.00000000000E+00 0. -1.
         -4    1    5    5    0  503 -0.18444162975E+03 -0.19631368196E+03  0.90373650933E+03  0.94302569149E+03  0.00000000000E+00 0.  1.
         -1    1    6    6    0  502 -0.25955857946E+03 -0.12795737472E+03 -0.95897430885E+02  0.30486072749E+03  0.00000000000E+00 0.  1.
<mgrwt>
<rscale>  0 0.16453407E+04</rscale>
<asrwt>0</asrwt>
<pdfrwt beam="1">  1        2 0.25718047E+00 0.16453407E+04</pdfrwt>
<pdfrwt beam="2">  1       -2 0.62285506E-01 0.16453407E+04</pdfrwt>
<totfact> 0.23244585E+01</totfact>
</mgrwt>
</event>
<event>
12    1  0.2214165E-007  0.2438520E+04  0.7818608E-02  0.8425222E-01
         -3   -1    0    0    0  501 -0.00000000000E+00  0.00000000000E+00  0.14191660764E+04  0.14191660764E+04  0.00000000000E+00 0.  1.
          3   -1    0    0  501    0  0.00000000000E+00 -0.00000000000E+00 -0.10475126348E+04  0.10475126348E+04  0.00000000000E+00 0. -1.
         23    2    1    2    0    0  0.51091761413E+03  0.47831066009E+03  0.95293288279E+03  0.11857352718E+04  0.89828501356E+02 0.  0.
        254    2    1    2    0    0 -0.51091761413E+03 -0.47831066009E+03 -0.58127944114E+03  0.12809434395E+04  0.90172745906E+03 0.  0.
        -24    2    4    4    0    0 -0.35625727003E+03  0.21589315514E+03 -0.25212248413E+03  0.49321523458E+03  0.78526579748E+02 0.  0.
         24    2    4    4    0    0 -0.15466034409E+03 -0.69420381522E+03 -0.32915695701E+03  0.78772820488E+03  0.79578032875E+02 0.  0.
         11    1    3    3    0    0  0.44924117164E+03  0.44139252677E+03  0.81283622098E+03  0.10282741440E+04  0.00000000000E+00 0. -1.
        -11    1    3    3    0    0  0.61676442485E+02  0.36918133321E+02  0.14009666181E+03  0.15746112783E+03  0.00000000000E+00 0.  1.
          4    1    6    6  502    0 -0.67497195362E+02 -0.38939921503E+03 -0.22077466050E+03  0.45269092189E+03  0.00000000000E+00 0. -1.
          3    1    5    5  503    0 -0.49000645411E+02  0.33266207988E+02 -0.71160923302E+02  0.92582832371E+02  0.00000000000E+00 0. -1.
         -4    1    5    5    0  503 -0.30725662462E+03  0.18262694715E+03 -0.18096156083E+03  0.40063240221E+03  0.00000000000E+00 0.  1.
         -3    1    6    6    0  502 -0.87163148733E+02 -0.30480460019E+03 -0.10838229651E+03  0.33503728299E+03  0.00000000000E+00 0.  1.
<mgrwt>
<rscale>  0 0.24385195E+04</rscale>
<asrwt>0</asrwt>
<pdfrwt beam="1">  1        3 0.16115579E+00 0.24385195E+04</pdfrwt>
<pdfrwt beam="2">  1       -3 0.21833324E+00 0.24385195E+04</pdfrwt>
<totfact> 0.70531225E-02</totfact>
</mgrwt>
</event>
<event>
12    1  0.2214165E-007  0.4313802E+04  0.7818608E-02  0.7944071E-01
          2   -1    0    0  501    0  0.00000000000E+00  0.00000000000E+00  0.22563311060E+04  0.22563311060E+04  0.00000000000E+00 0. -1.
         -2   -1    0    0    0  501 -0.00000000000E+00 -0.00000000000E+00 -0.20618529150E+04  0.20618529150E+04  0.00000000000E+00 0.  1.
         23    2    1    2    0    0  0.31906898683E+03 -0.20289349006E+04  0.28372924830E+03  0.20751464803E+04  0.85725020363E+02 0.  0.
        254    2    1    2    0    0 -0.31906898683E+03  0.20289349006E+04 -0.89251057295E+02  0.22430375406E+04  0.89714536610E+03 0.  0.
        -24    2    4    4    0    0 -0.55667089277E+03  0.15296190462E+04 -0.27837462588E+03  0.16533895160E+04  0.81163723356E+02 0.  0.
         24    2    4    4    0    0  0.23760190593E+03  0.49931585441E+03  0.18912356859E+03  0.58964802456E+03  0.78396941877E+02 0.  0.
         13    1    3    3    0    0  0.98356008349E+01 -0.23868939007E+02 -0.38234621031E+01  0.26097589075E+02  0.00000000000E+00 0.  1.
        -13    1    3    3    0    0  0.30923338600E+03 -0.20050659616E+04  0.28755271041E+03  0.20490488913E+04  0.00000000000E+00 0. -1.
          4    1    6    6  502    0  0.10122364019E+03  0.13055151583E+03  0.50293017347E+02  0.17268268938E+03  0.00000000000E+00 0. -1.
          3    1    5    5  503    0 -0.43921526098E+03  0.12611343116E+04 -0.20270839118E+03  0.13507259119E+04  0.00000000000E+00 0. -1.
         -4    1    5    5    0  503 -0.11745563178E+03  0.26848473466E+03 -0.75666234699E+02  0.30266360412E+03  0.00000000000E+00 0.  1.
         -1    1    6    6    0  502  0.13637826575E+03  0.36876433859E+03  0.13883055124E+03  0.41696533518E+03  0.00000000000E+00 0.  1.
<mgrwt>
<rscale>  0 0.43138024E+04</rscale>
<asrwt>0</asrwt>
<pdfrwt beam="1">  1        2 0.34712786E+00 0.43138024E+04</pdfrwt>
<pdfrwt beam="2">  1       -2 0.31720814E+00 0.43138024E+04</pdfrwt>
<totfact> 0.91971443E-02</totfact>
</mgrwt>
</event>
<event>
12    1  0.2214165E-007  0.1215004E+04  0.7818608E-02  0.9099824E-01
          2   -1    0    0  501    0  0.00000000000E+00  0.00000000000E+00  0.78010298732E+03  0.78010298732E+03  0.00000000000E+00 0. -1.
         -2   -1    0    0    0  501 -0.00000000000E+00 -0.00000000000E+00 -0.47308980919E+03  0.47308980919E+03  0.00000000000E+00 0.  1.
         23    2    1    2    0    0 -0.18294933598E+01 -0.22812679710E+03  0.20522700356E+03  0.31995437887E+03  0.90595248043E+02 0.  0.
        254    2    1    2    0    0  0.18294933598E+01  0.22812679710E+03  0.10178617458E+03  0.93323841764E+03  0.89918203731E+03 0.  0.
        -24    2    4    4    0    0 -0.53846660379E+02  0.32500405644E+03  0.44734556031E+03  0.56127975000E+03  0.79936273938E+02 0.  0.
         24    2    4    4    0    0  0.55676153739E+02 -0.96877259342E+02 -0.34555938574E+03  0.37195866764E+03  0.80354986693E+02 0.  0.
         11    1    3    3    0    0 -0.41344268481E+01 -0.20385321470E+02 -0.79672092221E+01  0.22274003672E+02  0.00000000000E+00 0.  1.
        -11    1    3    3    0    0  0.23049334883E+01 -0.20774147563E+03  0.21319421278E+03  0.29768037520E+03  0.00000000000E+00 0. -1.
          2    1    6    6  502    0  0.14853794899E+02 -0.89920910813E+02 -0.27958255407E+03  0.29406259531E+03  0.00000000000E+00 0. -1.
          1    1    5    5  503    0 -0.62365229067E+02  0.29702069408E+03  0.43280929388E+03  0.52861573887E+03  0.00000000000E+00 0. -1.
         -2    1    5    5    0  503  0.85185686874E+01  0.27983362359E+02  0.14536266431E+02  0.32664011131E+02  0.00000000000E+00 0.  1.
         -3    1    6    6    0  502  0.40822358840E+02 -0.69563485294E+01 -0.65976831671E+02  0.77896072324E+02  0.00000000000E+00 0.  1.
<mgrwt>
<rscale>  0 0.12150042E+04</rscale>
<asrwt>0</asrwt>
<pdfrwt beam="1">  1        2 0.12001584E+00 0.12150042E+04</pdfrwt>
<pdfrwt beam="2">  1       -2 0.72783048E-01 0.12150042E+04</pdfrwt>
<totfact> 0.59939549E+01</totfact>
</mgrwt>
</event>
<event>
12    1  0.2214165E-007  0.1637891E+04  0.7818608E-02  0.8797602E-01
          2   -1    0    0  501    0  0.00000000000E+00  0.00000000000E+00  0.74853575321E+03  0.74853575321E+03  0.00000000000E+00 0. -1.
         -2   -1    0    0    0  501 -0.00000000000E+00 -0.00000000000E+00 -0.89597810142E+03  0.89597810142E+03  0.00000000000E+00 0.  1.
         23    2    1    2    0    0 -0.35577222091E+03 -0.31030614850E+03  0.26426539636E+03  0.54794969692E+03  0.86884358074E+02 0.  0.
        254    2    1    2    0    0  0.35577222091E+03  0.31030614850E+03 -0.41170774457E+03  0.10965641577E+04  0.90004772433E+03 0.  0.
        -24    2    4    4    0    0  0.10063145317E+02  0.36863027610E+03 -0.58587548497E+03  0.69685528823E+03  0.79797628352E+02 0.  0.
         24    2    4    4    0    0  0.34570907559E+03 -0.58324127600E+02  0.17416774040E+03  0.39970886948E+03  0.80723662839E+02 0.  0.
         11    1    3    3    0    0 -0.83575871999E+02 -0.58285545013E+02  0.98240676619E+02  0.14153925844E+03  0.00000000000E+00 0. -1.
        -11    1    3    3    0    0 -0.27219634891E+03 -0.25202060349E+03  0.16602471975E+03  0.40641043848E+03  0.00000000000E+00 0.  1.
          2    1    6    6  502    0  0.34724050179E+03 -0.49626321301E+02  0.17170800089E+03  0.39054113154E+03  0.00000000000E+00 0. -1.
          3    1    5    5  503    0  0.33285220257E+02  0.32533671356E+03 -0.52635234648E+03  0.61967626687E+03  0.00000000000E+00 0. -1.
         -4    1    5    5    0  503 -0.23222074940E+02  0.43293562539E+02 -0.59523138491E+02  0.77179021357E+02  0.00000000000E+00 0.  1.
         -1    1    6    6    0  502 -0.15314262028E+01 -0.86978062987E+01  0.24597395080E+01  0.91677379474E+01  0.00000000000E+00 0.  1.
<mgrwt>
<rscale>  0 0.16378909E+04</rscale>
<asrwt>0</asrwt>
<pdfrwt beam="1">  1        2 0.11515935E+00 0.16378909E+04</pdfrwt>
<pdfrwt beam="2">  1       -2 0.13784278E+00 0.16378909E+04</pdfrwt>
<totfact> 0.13436856E+01</totfact>
</mgrwt>
</event>
<event>
12    1  0.2214165E-007  0.2295496E+04  0.7818608E-02  0.8479699E-01
          2   -1    0    0  501    0  0.00000000000E+00  0.00000000000E+00  0.14717646935E+04  0.14717646935E+04  0.00000000000E+00 0. -1.
         -2   -1    0    0    0  501 -0.00000000000E+00 -0.00000000000E+00 -0.89506537138E+03  0.89506537138E+03  0.00000000000E+00 0.  1.
         23    2    1    2    0    0  0.74318287543E+03 -0.59362538854E+03  0.43934470063E+03  0.10517435610E+04  0.91808844862E+02 0.  0.
        254    2    1    2    0    0 -0.74318287543E+03  0.59362538854E+03  0.13735462150E+03  0.13150865038E+04  0.89770503636E+03 0.  0.
        -24    2    4    4    0    0 -0.10529121665E+03  0.44417328439E+03 -0.27284541791E+03  0.53796252378E+03  0.81135122146E+02 0.  0.
         24    2    4    4    0    0 -0.63789165878E+03  0.14945210415E+03  0.41020003942E+03  0.77712398007E+03  0.80099365075E+02 0.  0.
         13    1    3    3    0    0  0.12917680085E+03 -0.73154205773E+02  0.43120072191E+02  0.15458824122E+03  0.00000000000E+00 0.  1.
        -13    1    3    3    0    0  0.61400607458E+03 -0.52047118276E+03  0.39622462844E+03  0.89715531982E+03  0.00000000000E+00 0. -1.
          4    1    6    6  502    0 -0.12906555642E+03  0.64105204017E+02  0.89945198157E+02  0.16987505322E+03  0.00000000000E+00 0. -1.
          1    1    5    5  503    0  0.12645445720E+01 -0.31511880137E+01 -0.27037237562E+00  0.34061943711E+01  0.00000000000E+00 0. -1.
         -2    1    5    5    0  503 -0.10655576122E+03  0.44732447240E+03 -0.27257504554E+03  0.53455632941E+03  0.00000000000E+00 0.  1.
         -3    1    6    6    0  502 -0.50882610236E+03  0.85346900133E+02  0.32025484126E+03  0.60724892685E+03  0.00000000000E+00 0.  1.
<mgrwt>
<rscale>  0 0.22954961E+04</rscale>
<asrwt>0</asrwt>
<pdfrwt beam="1">  1        2 0.22642534E+00 0.22954961E+04</pdfrwt>
<pdfrwt beam="2">  1       -2 0.13770236E+00 0.22954961E+04</pdfrwt>
<totfact> 0.44789436E+00</totfact>
</mgrwt>
</event>
<event>
12    1  0.2214165E-007  0.2120707E+04  0.7818608E-02  0.8552176E-01
          1   -1    0    0  501    0  0.00000000000E+00  0.00000000000E+00  0.11170458510E+04  0.11170458510E+04  0.00000000000E+00 0. -1.
         -1   -1    0    0    0  501 -0.00000000000E+00 -0.00000000000E+00 -0.10065381143E+04  0.10065381143E+04  0.00000000000E+00 0.  1.
         23    2    1    2    0    0 -0.51897103376E+03 -0.67207139024E+03  0.21144473429E+03  0.88095345312E+03  0.10178027045E+03 0.  0.
        254    2    1    2    0    0  0.51897103376E+03  0.67207139024E+03 -0.10093699757E+03  0.12426305121E+04  0.90162709846E+03 0.  0.
        -24    2    4    4    0    0 -0.23052424520E+01 -0.28002763696E+02 -0.32810459075E+03  0.33715938433E+03  0.72348870466E+02 0.  0.
         24    2    4    4    0    0  0.52127627621E+03  0.70007415393E+03  0.22716759318E+03  0.90547112777E+03  0.80250051038E+02 0.  0.
         13    1    3    3    0    0 -0.47812278208E+03 -0.56328112321E+03  0.18840737387E+03  0.76248564382E+03  0.00000000000E+00 0. -1.
        -13    1    3    3    0    0 -0.40848251683E+02 -0.10879026703E+03  0.23037360418E+02  0.11846780930E+03  0.00000000000E+00 0.  1.
          4    1    6    6  502    0  0.21692441634E+03  0.26600382926E+03  0.52090430765E+02  0.34717092701E+03  0.00000000000E+00 0. -1.
          1    1    5    5  503    0  0.14991228222E+02 -0.21305884719E+02 -0.35845151916E+02  0.44311991189E+02  0.00000000000E+00 0. -1.
         -2    1    5    5    0  503 -0.17296470674E+02 -0.66968789771E+01 -0.29225943883E+03  0.29284739314E+03  0.00000000000E+00 0.  1.
         -3    1    6    6    0  502  0.30435185987E+03  0.43407032467E+03  0.17507716241E+03  0.55830020076E+03  0.00000000000E+00 0.  1.
<mgrwt>
<rscale>  0 0.21207067E+04</rscale>
<asrwt>0</asrwt>
<pdfrwt beam="1">  1        1 0.17185321E+00 0.21207067E+04</pdfrwt>
<pdfrwt beam="2">  1       -1 0.15485202E+00 0.21207067E+04</pdfrwt>
<totfact> 0.36161476E+00</totfact>
</mgrwt>
</event>
<event>
12    1  0.2214165E-007  0.2427413E+04  0.7818608E-02  0.8429311E-01
          1   -1    0    0  501    0  0.00000000000E+00  0.00000000000E+00  0.11550695395E+04  0.11550695395E+04  0.00000000000E+00 0. -1.
         -1   -1    0    0    0  501 -0.00000000000E+00 -0.00000000000E+00 -0.12753198129E+04  0.12753198129E+04  0.00000000000E+00 0.  1.
         23    2    1    2    0    0 -0.83529817933E+03 -0.56502345707E+03  0.22101291649E+03  0.10365407807E+04  0.92712056227E+02 0.  0.
        254    2    1    2    0    0  0.83529817933E+03  0.56502345707E+03 -0.34126318988E+03  0.13938485717E+04  0.89965477862E+03 0.  0.
        -24    2    4    4    0    0  0.80179551673E+03  0.16852719501E+03  0.57591550601E+02  0.82527701199E+03  0.80547462513E+02 0.  0.
         24    2    4    4    0    0  0.33502662601E+02  0.39649626206E+03 -0.39885474048E+03  0.56857155973E+03  0.76529734763E+02 0.  0.
         11    1    3    3    0    0 -0.40401975846E+03 -0.30968140726E+03  0.14740782221E+03  0.52996566425E+03  0.00000000000E+00 0.  1.
        -11    1    3    3    0    0 -0.43127842087E+03 -0.25534204981E+03  0.73605094275E+02  0.50657511645E+03  0.00000000000E+00 0. -1.
          2    1    6    6  502    0  0.56282483783E+01  0.22109882696E+03 -0.27069412395E+03  0.34955926136E+03  0.00000000000E+00 0. -1.
          3    1    5    5  503    0  0.41603664139E+03  0.11657222396E+03  0.18462726690E+01  0.43206362853E+03  0.00000000000E+00 0. -1.
         -4    1    5    5    0  503  0.38575887535E+03  0.51954971047E+02  0.55745277932E+02  0.39321338347E+03  0.00000000000E+00 0.  1.
         -1    1    6    6    0  502  0.27874414222E+02  0.17539743510E+03 -0.12816061653E+03  0.21901229837E+03  0.00000000000E+00 0.  1.
<mgrwt>
<rscale>  0 0.24274127E+04</rscale>
<asrwt>0</asrwt>
<pdfrwt beam="1">  1        1 0.17770301E+00 0.24274127E+04</pdfrwt>
<pdfrwt beam="2">  1       -1 0.19620305E+00 0.24274127E+04</pdfrwt>
<totfact> 0.16485807E+00</totfact>
</mgrwt>
</event>
<event>
12    1  0.3312686E-007  0.2043537E+04  0.7818608E-02  0.8586532E-01
          2   -1    0    0  501    0  0.00000000000E+00  0.00000000000E+00  0.13944249082E+04  0.13944249082E+04  0.00000000000E+00 0. -1.
         -2   -1    0    0    0  501 -0.00000000000E+00 -0.00000000000E+00 -0.74870387950E+03  0.74870387950E+03  0.00000000000E+00 0.  1.
         23    2    1    2    0    0 -0.53675322025E+03  0.54029840116E+03 -0.59182244639E+02  0.76924715698E+03  0.90621568647E+02 0.  0.
        254    2    1    2    0    0  0.53675322025E+03 -0.54029840116E+03  0.70490327336E+03  0.13738816307E+04  0.90035311336E+03 0.  0.
        -24    2    4    4    0    0  0.19357442212E+03 -0.65178845186E+03  0.14029972652E+03  0.69900221900E+03  0.81368581325E+02 0.  0.
         24    2    4    4    0    0  0.34317879813E+03  0.11149005070E+03  0.56460354684E+03  0.67487941173E+03  0.80519167836E+02 0.  0.
         13    1    3    3    0    0 -0.96707563890E+02  0.13817030849E+03 -0.37347056779E+02  0.17273734313E+03  0.00000000000E+00 0.  1.
        -13    1    3    3    0    0 -0.44004565636E+03  0.40212809267E+03 -0.21835187860E+02  0.59650981385E+03  0.00000000000E+00 0. -1.
          4    1    6    6  502    0  0.61572380566E+02  0.30591861966E+02  0.59390343086E+02  0.90852809087E+02  0.00000000000E+00 0. -1.
          1    1    5    5  503    0  0.18322324408E+02 -0.53228542625E+02  0.35548125025E+02  0.66578183473E+02  0.00000000000E+00 0. -1.
         -2    1    5    5    0  503  0.17525209771E+03 -0.59855990924E+03  0.10475160149E+03  0.63242403553E+03  0.00000000000E+00 0.  1.
         -3    1    6    6    0  502  0.28160641756E+03  0.80898188735E+02  0.50521320375E+03  0.58402660265E+03  0.00000000000E+00 0.  1.
<mgrwt>
<rscale>  0 0.20435375E+04</rscale>
<asrwt>0</asrwt>
<pdfrwt beam="1">  1        2 0.21452691E+00 0.20435375E+04</pdfrwt>
<pdfrwt beam="2">  1       -2 0.11518521E+00 0.20435375E+04</pdfrwt>
<totfact> 0.79278888E+00</totfact>
</mgrwt>
</event>
<event>
12    1  0.2214165E-007  0.1027837E+04  0.7818608E-02  0.9278529E-01
         -2   -1    0    0    0  501 -0.00000000000E+00  0.00000000000E+00  0.13023578086E+03  0.13023578086E+03  0.00000000000E+00 0.  1.
          2   -1    0    0  501    0  0.00000000000E+00 -0.00000000000E+00 -0.20279563286E+04  0.20279563286E+04  0.00000000000E+00 0. -1.
         23    2    1    2    0    0 -0.58525930397E+02  0.16697923503E+02 -0.34597611577E+03  0.36278849559E+03  0.90619615238E+02 0.  0.
        254    2    1    2    0    0  0.58525930397E+02 -0.16697923503E+02 -0.15517444319E+04  0.17954036138E+04  0.90103232428E+03 0.  0.
        -24    2    4    4    0    0 -0.26785883060E+03  0.31673989241E+03 -0.60929237782E+03  0.74137642259E+03  0.79556808224E+02 0.  0.
         24    2    4    4    0    0  0.32638476099E+03 -0.33343781591E+03 -0.94245205411E+03  0.10540271913E+04  0.71060933796E+02 0.  0.
         11    1    3    3    0    0 -0.36653876023E+01 -0.32151610561E+02 -0.15112816026E+03  0.15455381571E+03  0.00000000000E+00 0. -1.
        -11    1    3    3    0    0 -0.54860542794E+02  0.48849534064E+02 -0.19484795551E+03  0.20823467987E+03  0.00000000000E+00 0.  1.
          4    1    6    6  502    0  0.43065132985E+01  0.24825958998E+01 -0.22733426267E+02  0.23270539509E+02  0.00000000000E+00 0. -1.
          3    1    5    5  503    0 -0.27152723452E+02  0.13357203774E+02 -0.80007660102E+02  0.85538944104E+02  0.00000000000E+00 0. -1.
         -4    1    5    5    0  503 -0.24070610715E+03  0.30338268863E+03 -0.52928471772E+03  0.65583747849E+03  0.00000000000E+00 0.  1.
         -3    1    6    6    0  502  0.32207824770E+03 -0.33592041181E+03 -0.91971862784E+03  0.10307566517E+04  0.00000000000E+00 0.  1.
<mgrwt>
<rscale>  0 0.10278375E+04</rscale>
<asrwt>0</asrwt>
<pdfrwt beam="1">  1        2 0.31199327E+00 0.10278375E+04</pdfrwt>
<pdfrwt beam="2">  1       -2 0.20036275E-01 0.10278375E+04</pdfrwt>
<totfact> 0.13740257E+02</totfact>
</mgrwt>
</event>
<event>
12    1  0.2214165E-007  0.1832727E+04  0.7818608E-02  0.8689087E-01
          2   -1    0    0  501    0  0.00000000000E+00  0.00000000000E+00  0.90493755060E+03  0.90493755060E+03  0.00000000000E+00 0. -1.
         -2   -1    0    0    0  501 -0.00000000000E+00 -0.00000000000E+00 -0.92793357312E+03  0.92793357312E+03  0.00000000000E+00 0.  1.
         23    2    1    2    0    0 -0.56622879544E+03  0.18918383548E+03 -0.35933887129E+03  0.70178839909E+03  0.83528200478E+02 0.  0.
        254    2    1    2    0    0  0.56622879544E+03 -0.18918383548E+03  0.33634284877E+03  0.11310827246E+04  0.89989779734E+03 0.  0.
        -24    2    4    4    0    0  0.20255679488E+03 -0.20783416849E+03 -0.27960878147E+03  0.41108640577E+03  0.81158274906E+02 0.  0.
         24    2    4    4    0    0  0.36367200056E+03  0.18650333011E+02  0.61595163024E+03  0.71999631887E+03  0.79957047700E+02 0.  0.
         13    1    3    3    0    0 -0.53344094352E+03  0.19698840671E+03 -0.34529112456E+03  0.66527410389E+03  0.00000000000E+00 0.  1.
        -13    1    3    3    0    0 -0.32787851925E+02 -0.78045712260E+01 -0.14047746727E+02  0.36514295201E+02  0.00000000000E+00 0. -1.
          2    1    6    6  502    0  0.15591884913E+03 -0.24115912260E+02  0.21878537670E+03  0.26973932934E+03  0.00000000000E+00 0. -1.
          1    1    5    5  503    0  0.14780553442E+03 -0.16758839716E+03 -0.25441708744E+03  0.33861541792E+03  0.00000000000E+00 0. -1.
         -2    1    5    5    0  503  0.54751260463E+02 -0.40245771326E+02 -0.25191694031E+02  0.72470987851E+02  0.00000000000E+00 0.  1.
         -1    1    6    6    0  502  0.20775315143E+03  0.42766245270E+02  0.39716625354E+03  0.45025698953E+03  0.00000000000E+00 0.  1.
<mgrwt>
<rscale>  0 0.18327269E+04</rscale>
<asrwt>0</asrwt>
<pdfrwt beam="1">  1        2 0.13922116E+00 0.18327269E+04</pdfrwt>
<pdfrwt beam="2">  1       -2 0.14275901E+00 0.18327269E+04</pdfrwt>
<totfact> 0.93501012E+00</totfact>
</mgrwt>
</event>
<event>
12    1  0.2214165E-007  0.1639012E+04  0.7818608E-02  0.8796933E-01
          2   -1    0    0  501    0  0.00000000000E+00  0.00000000000E+00  0.38456137253E+04  0.38456137253E+04  0.00000000000E+00 0.  1.
         -2   -1    0    0    0  501 -0.00000000000E+00 -0.00000000000E+00 -0.17463799393E+03  0.17463799393E+03  0.00000000000E+00 0. -1.
         23    2    1    2    0    0 -0.52734499245E+03  0.19501094815E+03  0.14503533887E+04  0.15586349533E+04  0.98468038034E+02 0.  0.
        254    2    1    2    0    0  0.52734499245E+03 -0.19501094815E+03  0.22206223427E+04  0.24616167659E+04  0.90126106242E+03 0.  0.
        -24    2    4    4    0    0  0.23206962799E+03 -0.32398811156E+03  0.28350977077E+03  0.49624165436E+03  0.83984407648E+02 0.  0.
         24    2    4    4    0    0  0.29527536446E+03  0.12897716341E+03  0.19371125719E+04  0.19653751116E+04  0.80446028361E+02 0.  0.
         13    1    3    3    0    0 -0.18023588249E+03  0.11060736905E+03  0.60545277623E+03  0.64132053427E+03  0.00000000000E+00 0.  1.
        -13    1    3    3    0    0 -0.34710910997E+03  0.84403579098E+02  0.84490061252E+03  0.91731441906E+03  0.00000000000E+00 0. -1.
          2    1    6    6  502    0  0.31097812962E+02  0.41974202525E+02  0.23972523449E+03  0.24535096433E+03  0.00000000000E+00 0. -1.
          3    1    5    5  503    0  0.57618614934E+02 -0.49496779780E+02  0.22497014589E+02  0.79220904191E+02  0.00000000000E+00 0. -1.
         -4    1    5    5    0  503  0.17445101306E+03 -0.27449133178E+03  0.26101275618E+03  0.41702075017E+03  0.00000000000E+00 0.  1.
         -1    1    6    6    0  502  0.26417755150E+03  0.87002960889E+02  0.16973873374E+04  0.17200241473E+04  0.00000000000E+00 0.  1.
<mgrwt>
<rscale>  0 0.16390122E+04</rscale>
<asrwt>0</asrwt>
<pdfrwt beam="1">  1        2 0.59163282E+00 0.16390122E+04</pdfrwt>
<pdfrwt beam="2">  1       -2 0.26867387E-01 0.16390122E+04</pdfrwt>
<totfact> 0.55389805E+00</totfact>
</mgrwt>
</event>
<event>
12    1  0.2214165E-007  0.2438329E+04  0.7818608E-02  0.8425291E-01
          2   -1    0    0  501    0  0.00000000000E+00  0.00000000000E+00  0.29660119387E+04  0.29660119387E+04  0.00000000000E+00 0. -1.
         -2   -1    0    0    0  501 -0.00000000000E+00 -0.00000000000E+00 -0.50113171020E+03  0.50113171020E+03  0.00000000000E+00 0.  1.
         23    2    1    2    0    0  0.48278066795E+03 -0.65020947989E+03  0.11324131382E+03  0.82304395540E+03  0.93424923220E+02 0.  0.
        254    2    1    2    0    0 -0.48278066795E+03  0.65020947989E+03  0.23516389147E+04  0.26440996935E+04  0.89733386374E+03 0.  0.
        -24    2    4    4    0    0 -0.32332427621E+03  0.12563181517E+03  0.18887330712E+04  0.19220747526E+04  0.82078010656E+02 0.  0.
         24    2    4    4    0    0 -0.15945639174E+03  0.52457766472E+03  0.46290584345E+03  0.72202494085E+03  0.80188079674E+02 0.  0.
         11    1    3    3    0    0  0.20045630138E+03 -0.34596152346E+03  0.44083351951E+02  0.40226290706E+03  0.00000000000E+00 0. -1.
        -11    1    3    3    0    0  0.28232436657E+03 -0.30424795643E+03  0.69157961864E+02  0.42078104834E+03  0.00000000000E+00 0.  1.
          4    1    6    6  502    0  0.50506213146E+01  0.69468509313E+02  0.69055681915E+02  0.98081954337E+02  0.00000000000E+00 0. -1.
          1    1    5    5  503    0 -0.92601291959E+02  0.73757497365E+02  0.71828510600E+03  0.72797572844E+03  0.00000000000E+00 0. -1.
         -2    1    5    5    0  503 -0.23072298425E+03  0.51874317800E+02  0.11704479652E+04  0.11940990242E+04  0.00000000000E+00 0.  1.
         -3    1    6    6    0  502 -0.16450701306E+03  0.45510915541E+03  0.39385016154E+03  0.62394298652E+03  0.00000000000E+00 0.  1.
<mgrwt>
<rscale>  0 0.24383295E+04</rscale>
<asrwt>0</asrwt>
<pdfrwt beam="1">  1        2 0.45630952E+00 0.24383295E+04</pdfrwt>
<pdfrwt beam="2">  1       -2 0.77097188E-01 0.24383295E+04</pdfrwt>
<totfact> 0.24621286E+00</totfact>
</mgrwt>
</event>
<event>
12    1  0.2214165E-007  0.1772243E+04  0.7818608E-02  0.8721201E-01
         -1   -1    0    0    0  501 -0.00000000000E+00  0.00000000000E+00  0.30657690877E+03  0.30657690877E+03  0.00000000000E+00 0.  1.
          1   -1    0    0  501    0  0.00000000000E+00 -0.00000000000E+00 -0.25612209079E+04  0.25612209079E+04  0.00000000000E+00 0. -1.
         23    2    1    2    0    0 -0.50524487228E+03  0.16377207281E+03 -0.22226011556E+03  0.58309403484E+03  0.92224843189E+02 0.  0.
        254    2    1    2    0    0  0.50524487228E+03 -0.16377207281E+03 -0.20323838836E+04  0.22847037818E+04  0.89843945131E+03 0.  0.
        -24    2    4    4    0    0 -0.11859039768E+03 -0.11510316977E+03 -0.30807682661E+02  0.18599653930E+03  0.79581261661E+02 0.  0.
         24    2    4    4    0    0  0.62383526997E+03 -0.48668903038E+02 -0.20015762009E+04  0.20987072425E+04  0.82010338277E+02 0.  0.
         13    1    3    3    0    0 -0.31818361362E+03  0.55831607978E+02 -0.13737600747E+03  0.35104151871E+03  0.00000000000E+00 0. -1.
        -13    1    3    3    0    0 -0.18706125866E+03  0.10794046483E+03 -0.84884108086E+02  0.23205251613E+03  0.00000000000E+00 0.  1.
          2    1    6    6  502    0  0.32834315118E+03 -0.58800556534E+02 -0.11408570696E+04  0.11886217160E+04  0.00000000000E+00 0. -1.
          1    1    5    5  503    0 -0.11044044266E+03 -0.76465660547E+02  0.24784615294E+01  0.13435114957E+03  0.00000000000E+00 0. -1.
         -4    1    5    5    0  503 -0.81499550203E+01 -0.38637509222E+02 -0.33286144190E+02  0.51645389734E+02  0.00000000000E+00 0.  1.
         -1    1    6    6    0  502  0.29549211878E+03  0.10131653496E+02 -0.86071913128E+03  0.91008552654E+03  0.00000000000E+00 0.  1.
<mgrwt>
<rscale>  0 0.17722429E+04</rscale>
<asrwt>0</asrwt>
<pdfrwt beam="1">  1        1 0.39403400E+00 0.17722429E+04</pdfrwt>
<pdfrwt beam="2">  1       -1 0.47165677E-01 0.17722429E+04</pdfrwt>
<totfact> 0.52156100E+00</totfact>
</mgrwt>
</event>
<event>
12    1  0.2214165E-007  0.1592424E+04  0.7818608E-02  0.8825215E-01
         -2   -1    0    0    0  501 -0.00000000000E+00  0.00000000000E+00  0.16172747333E+03  0.16172747333E+03  0.00000000000E+00 0.  1.
          2   -1    0    0  501    0  0.00000000000E+00 -0.00000000000E+00 -0.39198901503E+04  0.39198901503E+04  0.00000000000E+00 0. -1.
         23    2    1    2    0    0 -0.19645722971E+03  0.43573242211E+03 -0.19094075582E+04  0.19704112951E+04  0.90693230515E+02 0.  0.
        254    2    1    2    0    0  0.19645722971E+03 -0.43573242211E+03 -0.18487551188E+04  0.21112063285E+04  0.90046570473E+03 0.  0.
        -24    2    4    4    0    0  0.51066435058E+02 -0.22180224930E+03 -0.18238545651E+04  0.18397463812E+04  0.80107765072E+02 0.  0.
         24    2    4    4    0    0  0.14539079465E+03 -0.21393017281E+03 -0.24900553735E+02  0.27145994730E+03  0.78523011923E+02 0.  0.
         13    1    3    3    0    0 -0.16695940647E+03  0.26617625126E+03 -0.12599632813E+04  0.12985502341E+04  0.00000000000E+00 0. -1.
        -13    1    3    3    0    0 -0.29497823238E+02  0.16955617085E+03 -0.64944427681E+03  0.67186106104E+03  0.00000000000E+00 0.  1.
          2    1    6    6  502    0  0.10592433716E+03 -0.98201326661E+02 -0.35461917694E+02  0.14873134628E+03  0.00000000000E+00 0. -1.
          1    1    5    5  503    0 -0.11595131652E+02 -0.11368497101E+03 -0.99149307189E+03  0.99805672751E+03  0.00000000000E+00 0. -1.
         -2    1    5    5    0  503  0.62661566710E+02 -0.10811727829E+03 -0.83236149318E+03  0.84168965370E+03  0.00000000000E+00 0.  1.
         -1    1    6    6    0  502  0.39466457493E+02 -0.11572884615E+03  0.10561363959E+02  0.12272860101E+03  0.00000000000E+00 0.  1.
<mgrwt>
<rscale>  0 0.15924245E+04</rscale>
<asrwt>0</asrwt>
<pdfrwt beam="1">  1        2 0.60306001E+00 0.15924245E+04</pdfrwt>
<pdfrwt beam="2">  1       -2 0.24881150E-01 0.15924245E+04</pdfrwt>
<totfact> 0.56107287E+00</totfact>
</mgrwt>
</event>
<event>
12    1  0.2214165E-007  0.2981644E+04  0.7818608E-02  0.8248992E-01
          2   -1    0    0  501    0  0.00000000000E+00  0.00000000000E+00  0.10653956838E+04  0.10653956838E+04  0.00000000000E+00 0. -1.
         -2   -1    0    0    0  501 -0.00000000000E+00 -0.00000000000E+00 -0.20861261584E+04  0.20861261584E+04  0.00000000000E+00 0.  1.
         23    2    1    2    0    0  0.80104779971E+03  0.10913227492E+04 -0.43425197859E+03  0.14234347259E+04  0.70204826425E+02 0.  0.
        254    2    1    2    0    0 -0.80104779971E+03 -0.10913227492E+04 -0.58647849597E+03  0.17280871162E+04  0.89981394443E+03 0.  0.
        -24    2    4    4    0    0 -0.63259292736E+03 -0.36395233724E+03 -0.64173711736E+03  0.97499110309E+03  0.78396478097E+02 0.  0.
         24    2    4    4    0    0 -0.16845487236E+03 -0.72737041200E+03  0.55258621394E+02  0.75309601314E+03  0.81580202808E+02 0.  0.
         13    1    3    3    0    0  0.12580161566E+03  0.19983968845E+03 -0.54253704681E+02  0.24229199750E+03  0.00000000000E+00 0. -1.
        -13    1    3    3    0    0  0.67524618405E+03  0.89148306079E+03 -0.37999827391E+03  0.11811427284E+04  0.00000000000E+00 0.  1.
          4    1    6    6  502    0 -0.89306344573E+02 -0.25548792921E+03  0.46027551690E+02  0.27453276793E+03  0.00000000000E+00 0. -1.
          3    1    5    5  503    0 -0.46684181179E+03 -0.24724211605E+03 -0.42294700987E+03  0.67672307064E+03  0.00000000000E+00 0. -1.
         -4    1    5    5    0  503 -0.16575111557E+03 -0.11671022119E+03 -0.21879010750E+03  0.29826803245E+03  0.00000000000E+00 0.  1.
         -3    1    6    6    0  502 -0.79148527784E+02 -0.47188248279E+03  0.92310697032E+01  0.47856324520E+03  0.00000000000E+00 0.  1.
<mgrwt>
<rscale>  0 0.29816437E+04</rscale>
<asrwt>0</asrwt>
<pdfrwt beam="1">  1        2 0.16390703E+00 0.29816437E+04</pdfrwt>
<pdfrwt beam="2">  1       -2 0.32094248E+00 0.29816437E+04</pdfrwt>
<totfact> 0.46361916E-01</totfact>
</mgrwt>
</event>
<event>
12    1  0.2214165E-007  0.1762296E+04  0.7818608E-02  0.8726611E-01
          1   -1    0    0  501    0  0.00000000000E+00  0.00000000000E+00  0.86263689467E+03  0.86263689467E+03  0.00000000000E+00 0. -1.
         -1   -1    0    0    0  501 -0.00000000000E+00 -0.00000000000E+00 -0.90005683971E+03  0.90005683971E+03  0.00000000000E+00 0.  1.
         23    2    1    2    0    0  0.63157660302E+03  0.52404781622E+02 -0.15381485250E+03  0.65858963659E+03  0.91902306628E+02 0.  0.
        254    2    1    2    0    0 -0.63157660302E+03 -0.52404781622E+02  0.11639490746E+03  0.11041040978E+04  0.89658397133E+03 0.  0.
        -24    2    4    4    0    0 -0.24100298825E+03  0.39034474592E+03  0.19190881419E+03  0.50337783964E+03  0.78158783690E+02 0.  0.
         24    2    4    4    0    0 -0.39057361476E+03 -0.44274952754E+03 -0.75513906723E+02  0.60072625814E+03  0.81208339662E+02 0.  0.
         11    1    3    3    0    0  0.47917072937E+03  0.15929636816E+02 -0.14804907287E+03  0.50177372309E+03  0.00000000000E+00 0.  1.
        -11    1    3    3    0    0  0.15240587365E+03  0.36475144806E+02 -0.57657796306E+01  0.15681591350E+03  0.00000000000E+00 0. -1.
          2    1    6    6  502    0 -0.64283748574E+02 -0.63442272781E+02  0.17006225428E+02  0.91905027119E+02  0.00000000000E+00 0. -1.
          3    1    5    5  503    0 -0.17945211267E+03  0.25648955452E+03  0.95376508882E+02  0.32724093688E+03  0.00000000000E+00 0. -1.
         -4    1    5    5    0  503 -0.61550875579E+02  0.13385519139E+03  0.96532305304E+02  0.17613690276E+03  0.00000000000E+00 0.  1.
         -1    1    6    6    0  502 -0.32628986619E+03 -0.37930725476E+03 -0.92520132151E+02  0.50882123103E+03  0.00000000000E+00 0.  1.
<mgrwt>
<rscale>  0 0.17622965E+04</rscale>
<asrwt>0</asrwt>
<pdfrwt beam="1">  1        1 0.13271337E+00 0.17622965E+04</pdfrwt>
<pdfrwt beam="2">  1       -1 0.13847028E+00 0.17622965E+04</pdfrwt>
<totfact> 0.79815181E+00</totfact>
</mgrwt>
</event>
<event>
12    1  0.2214165E-007  0.2716047E+04  0.7818608E-02  0.8329817E-01
          1   -1    0    0  501    0  0.00000000000E+00  0.00000000000E+00  0.16811361442E+04  0.16811361442E+04  0.00000000000E+00 0. -1.
         -1   -1    0    0    0  501 -0.00000000000E+00 -0.00000000000E+00 -0.10970126838E+04  0.10970126838E+04  0.00000000000E+00 0.  1.
         23    2    1    2    0    0  0.75500837202E+03  0.66131100263E+03  0.94613991120E+03  0.13825919706E+04  0.94920711651E+02 0.  0.
        254    2    1    2    0    0 -0.75500837202E+03 -0.66131100263E+03 -0.36201645077E+03  0.13955568574E+04  0.89952940334E+03 0.  0.
        -24    2    4    4    0    0 -0.30385827262E+02 -0.60689742532E+03 -0.22030876133E+03  0.65083210636E+03  0.76149175898E+02 0.  0.
         24    2    4    4    0    0 -0.72462254476E+03 -0.54413577311E+02 -0.14170768945E+03  0.74472475100E+03  0.80592901313E+02 0.  0.
         11    1    3    3    0    0  0.26782312385E+03  0.27419241271E+03  0.31297431193E+03  0.49483696788E+03  0.00000000000E+00 0.  1.
        -11    1    3    3    0    0  0.48718524817E+03  0.38711858992E+03  0.63316559927E+03  0.88775500269E+03  0.00000000000E+00 0. -1.
          2    1    6    6  502    0 -0.35577839924E+03  0.13678739689E+02 -0.69308657592E+02  0.36272450607E+03  0.00000000000E+00 0. -1.
          1    1    5    5  503    0 -0.29274259036E+02 -0.76389891004E+02 -0.33351578629E+02  0.88344357413E+02  0.00000000000E+00 0. -1.
         -2    1    5    5    0  503 -0.11115682257E+01 -0.53050753432E+03 -0.18695718270E+03  0.56248774895E+03  0.00000000000E+00 0.  1.
         -1    1    6    6    0  502 -0.36884414552E+03 -0.68092317000E+02 -0.72399031856E+02  0.38200024493E+03  0.00000000000E+00 0.  1.
<mgrwt>
<rscale>  0 0.27160469E+04</rscale>
<asrwt>0</asrwt>
<pdfrwt beam="1">  1        1 0.25863633E+00 0.27160469E+04</pdfrwt>
<pdfrwt beam="2">  1       -1 0.16877118E+00 0.27160469E+04</pdfrwt>
<totfact> 0.10756108E+00</totfact>
</mgrwt>
</event>
<event>
12    1  0.2214165E-007  0.3105226E+04  0.7818608E-02  0.8214305E-01
          1   -1    0    0  501    0  0.00000000000E+00  0.00000000000E+00  0.22812980231E+04  0.22812980231E+04  0.00000000000E+00 0. -1.
         -1   -1    0    0    0  501 -0.00000000000E+00 -0.00000000000E+00 -0.10566822007E+04  0.10566822007E+04  0.00000000000E+00 0.  1.
         23    2    1    2    0    0 -0.12216526898E+04  0.72481245677E+03  0.55051000031E+03  0.15257547406E+04  0.84130114200E+02 0.  0.
        254    2    1    2    0    0  0.12216526898E+04 -0.72481245677E+03  0.67410582207E+03  0.18122254833E+04  0.90108498536E+03 0.  0.
        -24    2    4    4    0    0 -0.33836756878E+02 -0.94067014705E+02  0.34429981789E+03  0.36692598338E+03  0.78094707288E+02 0.  0.
         24    2    4    4    0    0  0.12554894467E+04 -0.63074544207E+03  0.32980600417E+03  0.14452994999E+04  0.77621392379E+02 0.  0.
         13    1    3    3    0    0 -0.85855621362E+03  0.53018554101E+03  0.42676303131E+03  0.10956012800E+04  0.00000000000E+00 0. -1.
        -13    1    3    3    0    0 -0.36309647617E+03  0.19462691576E+03  0.12374696899E+03  0.43015346062E+03  0.00000000000E+00 0.  1.
          2    1    6    6  502    0  0.51267793961E+03 -0.22175211001E+03  0.10999700783E+03  0.56930836090E+03  0.00000000000E+00 0. -1.
          3    1    5    5  503    0  0.23373275257E+02 -0.29334559605E+02  0.71016964806E+02  0.80313359248E+02  0.00000000000E+00 0. -1.
         -4    1    5    5    0  503 -0.57210032135E+02 -0.64732455100E+02  0.27328285309E+03  0.28661262413E+03  0.00000000000E+00 0.  1.
         -1    1    6    6    0  502  0.74281150706E+03 -0.40899333206E+03  0.21980899634E+03  0.87599113898E+03  0.00000000000E+00 0.  1.
<mgrwt>
<rscale>  0 0.31052259E+04</rscale>
<asrwt>0</asrwt>
<pdfrwt beam="1">  1        1 0.35096892E+00 0.31052259E+04</pdfrwt>
<pdfrwt beam="2">  1       -1 0.16256649E+00 0.31052259E+04</pdfrwt>
<totfact> 0.45178651E-01</totfact>
</mgrwt>
</event>
<event>
12    1  0.2214165E-007  0.3997251E+04  0.7818608E-02  0.8005101E-01
          2   -1    0    0  501    0  0.00000000000E+00  0.00000000000E+00  0.33108747408E+04  0.33108747408E+04  0.00000000000E+00 0.  1.
         -2   -1    0    0    0  501 -0.00000000000E+00 -0.00000000000E+00 -0.12064796803E+04  0.12064796803E+04  0.00000000000E+00 0. -1.
         23    2    1    2    0    0  0.78069816935E+03  0.14091505608E+04  0.21307820136E+04  0.26728183456E+04  0.92363329738E+02 0.  0.
        254    2    1    2    0    0 -0.78069816935E+03 -0.14091505608E+04 -0.26386953093E+02  0.18445360754E+04  0.89801009315E+03 0.  0.
        -24    2    4    4    0    0 -0.75575851536E+03 -0.11768359642E+04 -0.34342150967E+03  0.14427819599E+04  0.86992129195E+02 0.  0.
         24    2    4    4    0    0 -0.24939653994E+02 -0.23231459669E+03  0.31703455658E+03  0.40175411547E+03  0.79393961061E+02 0.  0.
         11    1    3    3    0    0  0.29103685122E+03  0.61858997923E+03  0.89233987274E+03  0.11241114089E+04  0.00000000000E+00 0. -1.
        -11    1    3    3    0    0  0.48966131812E+03  0.79056058161E+03  0.12384421408E+04  0.15487069367E+04  0.00000000000E+00 0.  1.
          2    1    6    6  502    0  0.11757894894E+02 -0.60906086706E+02  0.13745335887E+03  0.15080194082E+03  0.00000000000E+00 0. -1.
          1    1    5    5  503    0 -0.46425544663E+03 -0.79596267175E+03 -0.21343257105E+03  0.94585578020E+03  0.00000000000E+00 0. -1.
         -2    1    5    5    0  503 -0.29150306872E+03 -0.38087329240E+03 -0.12998893862E+03  0.49692617973E+03  0.00000000000E+00 0.  1.
         -1    1    6    6    0  502 -0.36697548888E+02 -0.17140850999E+03  0.17958119771E+03  0.25095217465E+03  0.00000000000E+00 0.  1.
<mgrwt>
<rscale>  0 0.39972506E+04</rscale>
<asrwt>0</asrwt>
<pdfrwt beam="1">  1        2 0.50936534E+00 0.39972506E+04</pdfrwt>
<pdfrwt beam="2">  1       -2 0.18561226E+00 0.39972506E+04</pdfrwt>
<totfact> 0.14324836E-01</totfact>
</mgrwt>
</event>
<event>
12    1  0.2214165E-007  0.3492992E+04  0.7818608E-02  0.8115453E-01
          1   -1    0    0  501    0  0.00000000000E+00  0.00000000000E+00  0.30374591230E+04  0.30374591230E+04  0.00000000000E+00 0. -1.
         -1   -1    0    0    0  501 -0.00000000000E+00 -0.00000000000E+00 -0.10042104003E+04  0.10042104003E+04  0.00000000000E+00 0.  1.
         23    2    1    2    0    0 -0.88875135270E+03 -0.13611994351E+04  0.10756940149E+04  0.19513111625E+04  0.88061173035E+02 0.  0.
        254    2    1    2    0    0  0.88875135270E+03  0.13611994351E+04  0.95755470777E+03  0.20903583608E+04  0.89996899342E+03 0.  0.
        -24    2    4    4    0    0  0.83509210326E+03  0.47142385301E+03  0.46460196882E+03  0.10685698977E+04  0.79795781658E+02 0.  0.
         24    2    4    4    0    0  0.53659249441E+02  0.88977558213E+03  0.49295273895E+03  0.10217884631E+04  0.80432324821E+02 0.  0.
         13    1    3    3    0    0 -0.57263118359E+02 -0.13087648967E+03  0.85197302674E+02  0.16633189909E+03  0.00000000000E+00 0.  1.
        -13    1    3    3    0    0 -0.83148823434E+03 -0.12303229455E+04  0.99049671220E+03  0.17849792634E+04  0.00000000000E+00 0. -1.
          4    1    6    6  502    0 -0.11115483793E+02  0.27639996549E+03  0.12469009333E+03  0.30342728005E+03  0.00000000000E+00 0. -1.
          3    1    5    5  503    0  0.72649384383E+02  0.16732373578E+02  0.35512428385E+02  0.82577466337E+02  0.00000000000E+00 0. -1.
         -4    1    5    5    0  503  0.76244271887E+03  0.45469147943E+03  0.42908954044E+03  0.98599243138E+03  0.00000000000E+00 0.  1.
         -3    1    6    6    0  502  0.64774733234E+02  0.61337561664E+03  0.36826264562E+03  0.71836118305E+03  0.00000000000E+00 0.  1.
<mgrwt>
<rscale>  0 0.34929919E+04</rscale>
<asrwt>0</asrwt>
<pdfrwt beam="1">  1        1 0.46730140E+00 0.34929919E+04</pdfrwt>
<pdfrwt beam="2">  1       -1 0.15449391E+00 0.34929919E+04</pdfrwt>
<totfact> 0.14738436E-01</totfact>
</mgrwt>
</event>
<event>
12    1  0.2214165E-007  0.2450305E+04  0.7818608E-02  0.8420907E-01
          1   -1    0    0  501    0  0.00000000000E+00  0.00000000000E+00  0.21489151628E+04  0.21489151628E+04  0.00000000000E+00 0. -1.
         -1   -1    0    0    0  501 -0.00000000000E+00 -0.00000000000E+00 -0.69849125753E+03  0.69849125753E+03  0.00000000000E+00 0.  1.
         23    2    1    2    0    0 -0.77754045216E+03  0.65499456579E+03  0.28416101627E+03  0.10596098075E+04  0.91860900270E+02 0.  0.
        254    2    1    2    0    0  0.77754045216E+03 -0.65499456579E+03  0.11662628890E+04  0.17877966129E+04  0.89580163360E+03 0.  0.
        -24    2    4    4    0    0  0.51991109606E+03 -0.34494626243E+03  0.89750471905E+02  0.63552558806E+03  0.80883583650E+02 0.  0.
         24    2    4    4    0    0  0.25762935610E+03 -0.31004830336E+03  0.10765124171E+04  0.11522710248E+04  0.79666146395E+02 0.  0.
         11    1    3    3    0    0 -0.28303185310E+03  0.29180917139E+03  0.13284996393E+03  0.42767830819E+03  0.00000000000E+00 0.  1.
        -11    1    3    3    0    0 -0.49450859906E+03  0.36318539439E+03  0.15131105234E+03  0.63193149929E+03  0.00000000000E+00 0. -1.
          4    1    6    6  502    0  0.36551221393E+02 -0.67917197228E+02  0.13739944388E+03  0.15756695289E+03  0.00000000000E+00 0. -1.
          3    1    5    5  503    0  0.38834093467E+03 -0.22390051893E+03  0.40527189166E+02  0.45009174285E+03  0.00000000000E+00 0. -1.
         -4    1    5    5    0  503  0.13157016139E+03 -0.12104574350E+03  0.49223282738E+02  0.18543384521E+03  0.00000000000E+00 0.  1.
         -1    1    6    6    0  502  0.22107813470E+03 -0.24213110613E+03  0.93911297324E+03  0.99470407193E+03  0.00000000000E+00 0.  1.
<mgrwt>
<rscale>  0 0.24503048E+04</rscale>
<asrwt>0</asrwt>
<pdfrwt beam="1">  1        1 0.33060233E+00 0.24503048E+04</pdfrwt>
<pdfrwt beam="2">  1       -1 0.10746019E+00 0.24503048E+04</pdfrwt>
<totfact> 0.16979285E+00</totfact>
</mgrwt>
</event>
<event>
12    1  0.2214165E-007  0.1295210E+04  0.7818608E-02  0.9033372E-01
         -1   -1    0    0    0  501 -0.00000000000E+00  0.00000000000E+00  0.39390536066E+03  0.39390536066E+03  0.00000000000E+00 0.  1.
          1   -1    0    0  501    0  0.00000000000E+00 -0.00000000000E+00 -0.10647033113E+04  0.10647033113E+04  0.00000000000E+00 0. -1.
         23    2    1    2    0    0  0.20500469085E+03 -0.25281407514E+03 -0.14172398281E+03  0.36477173208E+03  0.83850160181E+02 0.  0.
        254    2    1    2    0    0 -0.20500469085E+03  0.25281407514E+03 -0.52907396785E+03  0.10938369399E+04  0.90034332770E+03 0.  0.
        -24    2    4    4    0    0 -0.34497696437E+03  0.46065407918E+03 -0.10028666180E+03  0.59074454219E+03  0.87808957275E+02 0.  0.
         24    2    4    4    0    0  0.13997227352E+03 -0.20784000404E+03 -0.42878730605E+03  0.50309239769E+03  0.80334937329E+02 0.  0.
         11    1    3    3    0    0  0.15897614662E+03 -0.24037420168E+03 -0.11666988584E+03  0.31091000995E+03  0.00000000000E+00 0. -1.
        -11    1    3    3    0    0  0.46028544231E+02 -0.12439873461E+02 -0.25054096968E+02  0.53861722128E+02  0.00000000000E+00 0.  1.
          4    1    6    6  502    0  0.32440044711E+02 -0.72424849115E+02 -0.20817808363E+03  0.22279100021E+03  0.00000000000E+00 0. -1.
          3    1    5    5  503    0 -0.12881809507E+03  0.12217180642E+03 -0.32314304778E+01  0.17756827994E+03  0.00000000000E+00 0. -1.
         -4    1    5    5    0  503 -0.21615886931E+03  0.33848227276E+03 -0.97055231321E+02  0.41317626224E+03  0.00000000000E+00 0.  1.
         -3    1    6    6    0  502  0.10753222881E+03 -0.13541515493E+03 -0.22060922242E+03  0.28030139748E+03  0.00000000000E+00 0.  1.
<mgrwt>
<rscale>  0 0.12952102E+04</rscale>
<asrwt>0</asrwt>
<pdfrwt beam="1">  1        1 0.16380051E+00 0.12952102E+04</pdfrwt>
<pdfrwt beam="2">  1       -1 0.60600826E-01 0.12952102E+04</pdfrwt>
<totfact> 0.36599870E+01</totfact>
</mgrwt>
</event>
<event>
12    1  0.2214165E-007  0.3201764E+04  0.7818608E-02  0.8188351E-01
          2   -1    0    0  501    0  0.00000000000E+00  0.00000000000E+00  0.29706674327E+04  0.29706674327E+04  0.00000000000E+00 0. -1.
         -2   -1    0    0    0  501 -0.00000000000E+00 -0.00000000000E+00 -0.86270958495E+03  0.86270958495E+03  0.00000000000E+00 0.  1.
         23    2    1    2    0    0 -0.12213874658E+04 -0.26338048818E+03  0.38828187623E+02  0.12541861004E+04  0.10158013123E+03 0.  0.
        254    2    1    2    0    0  0.12213874658E+04  0.26338048818E+03  0.20691296601E+04  0.25791909172E+04  0.89987310985E+03 0.  0.
        -24    2    4    4    0    0  0.13032678850E+04  0.70768518646E+02  0.18445019954E+04  0.22609957029E+04  0.79991214542E+02 0.  0.
         24    2    4    4    0    0 -0.81880419120E+02  0.19261196953E+03  0.22462766470E+03  0.31819521429E+03  0.83587276548E+02 0.  0.
         11    1    3    3    0    0 -0.87015051705E+03 -0.19574114109E+03  0.72941456515E+02  0.89487260139E+03  0.00000000000E+00 0.  1.
        -11    1    3    3    0    0 -0.35123694879E+03 -0.67639347094E+02 -0.34113268891E+02  0.35931349903E+03  0.00000000000E+00 0. -1.
          4    1    6    6  502    0  0.32469542945E+01  0.83973181096E+02  0.11219692175E+03  0.14017912507E+03  0.00000000000E+00 0. -1.
          3    1    5    5  503    0  0.34354254337E+03 -0.15217482495E+02  0.46838739384E+03  0.58106781152E+03  0.00000000000E+00 0. -1.
         -4    1    5    5    0  503  0.95972534159E+03  0.85986001140E+02  0.13761146016E+04  0.16799278914E+04  0.00000000000E+00 0.  1.
         -3    1    6    6    0  502 -0.85127373415E+02  0.10863878844E+03  0.11243074295E+03  0.17801608921E+03  0.00000000000E+00 0.  1.
<mgrwt>
<rscale>  0 0.32017641E+04</rscale>
<asrwt>0</asrwt>
<pdfrwt beam="1">  1        2 0.45702575E+00 0.32017641E+04</pdfrwt>
<pdfrwt beam="2">  1       -2 0.13272455E+00 0.32017641E+04</pdfrwt>
<totfact> 0.62961856E-01</totfact>
</mgrwt>
</event>
<event>
12    1  0.2214165E-007  0.1943986E+04  0.7818608E-02  0.8633266E-01
         -2   -1    0    0    0  501 -0.00000000000E+00  0.00000000000E+00  0.10997917278E+04  0.10997917278E+04  0.00000000000E+00 0. -1.
          2   -1    0    0  501    0  0.00000000000E+00 -0.00000000000E+00 -0.85904466521E+03  0.85904466521E+03  0.00000000000E+00 0.  1.
         23    2    1    2    0    0 -0.70112736490E+03 -0.20551804662E+03  0.30423868959E+03  0.79632478436E+03  0.88060959854E+02 0.  0.
        254    2    1    2    0    0  0.70112736490E+03  0.20551804662E+03 -0.63491627034E+02  0.11625116086E+04  0.90198935922E+03 0.  0.
        -24    2    4    4    0    0  0.90500695965E+03  0.10015050259E+03 -0.77313088224E+02  0.91646863371E+03  0.69783398907E+02 0.  0.
         24    2    4    4    0    0 -0.20387959475E+03  0.10536754402E+03  0.13821461189E+02  0.24604297490E+03  0.87617944625E+02 0.  0.
         13    1    3    3    0    0 -0.28859626766E+03 -0.10184311145E+03  0.84138707025E+02  0.31739430852E+03  0.00000000000E+00 0.  1.
        -13    1    3    3    0    0 -0.41253109724E+03 -0.10367493516E+03  0.22009998256E+03  0.47893047584E+03  0.00000000000E+00 0. -1.
          2    1    6    6  502    0 -0.20265433326E+03  0.93692104800E+02 -0.56164852082E+01  0.22333502680E+03  0.00000000000E+00 0. -1.
          1    1    5    5  503    0  0.46578032850E+03  0.54555362032E+02 -0.49404020028E+01  0.46899041517E+03  0.00000000000E+00 0. -1.
         -2    1    5    5    0  503  0.43922663115E+03  0.45595140562E+02 -0.72372686221E+02  0.44747821854E+03  0.00000000000E+00 0.  1.
         -1    1    6    6    0  502 -0.12252614915E+01  0.11675439221E+02  0.19437946398E+02  0.22707948099E+02  0.00000000000E+00 0.  1.
<mgrwt>
<rscale>  0 0.19439858E+04</rscale>
<asrwt>0</asrwt>
<pdfrwt beam="1">  1        2 0.13216072E+00 0.19439858E+04</pdfrwt>
<pdfrwt beam="2">  1       -2 0.16919873E+00 0.19439858E+04</pdfrwt>
<totfact> 0.63021168E+00</totfact>
</mgrwt>
</event>
<event>
12    1  0.2214165E-007  0.2229891E+04  0.7818608E-02  0.8506089E-01
          1   -1    0    0  501    0  0.00000000000E+00  0.00000000000E+00  0.10642238537E+04  0.10642238537E+04  0.00000000000E+00 0. -1.
         -1   -1    0    0    0  501 -0.00000000000E+00 -0.00000000000E+00 -0.11680849600E+04  0.11680849600E+04  0.00000000000E+00 0.  1.
         23    2    1    2    0    0  0.88492231863E+03 -0.27492142457E+03 -0.13049653235E+03  0.94027561718E+03  0.91758332577E+02 0.  0.
        254    2    1    2    0    0 -0.88492231863E+03  0.27492142457E+03  0.26635425975E+02  0.12920331965E+04  0.89998390837E+03 0.  0.
        -24    2    4    4    0    0 -0.98325172488E+03  0.23619662464E+03 -0.19594270310E+03  0.10330420731E+04  0.78800900619E+02 0.  0.
         24    2    4    4    0    0  0.98329406250E+02  0.38724799932E+02  0.22257812907E+03  0.25899112343E+03  0.79794086313E+02 0.  0.
         11    1    3    3    0    0  0.31508568195E+03 -0.88478533099E+02 -0.28952030526E+01  0.32728553282E+03  0.00000000000E+00 0. -1.
        -11    1    3    3    0    0  0.56983663668E+03 -0.18644289147E+03 -0.12760132929E+03  0.61299008436E+03  0.00000000000E+00 0.  1.
          2    1    6    6  502    0  0.79445356060E+02  0.36427534494E+02  0.91477261933E+02  0.12651726886E+03  0.00000000000E+00 0. -1.
          1    1    5    5  503    0 -0.13211048574E+03  0.34619961188E+02 -0.54263135606E+02  0.14695649029E+03  0.00000000000E+00 0. -1.
         -2    1    5    5    0  503 -0.85114123915E+03  0.20157666345E+03 -0.14167956749E+03  0.88608558281E+03  0.00000000000E+00 0.  1.
         -1    1    6    6    0  502  0.18884050190E+02  0.22972654381E+01  0.13110086714E+03  0.13247385457E+03  0.00000000000E+00 0.  1.
<mgrwt>
<rscale>  0 0.22298914E+04</rscale>
<asrwt>0</asrwt>
<pdfrwt beam="1">  1        1 0.16372675E+00 0.22298914E+04</pdfrwt>
<pdfrwt beam="2">  1       -1 0.17970538E+00 0.22298914E+04</pdfrwt>
<totfact> 0.25667441E+00</totfact>
</mgrwt>
</event>
<event>
12    1  0.2214165E-007  0.3673095E+04  0.7818608E-02  0.8073951E-01
         -2   -1    0    0    0  501 -0.00000000000E+00  0.00000000000E+00  0.11074957295E+04  0.11074957295E+04  0.00000000000E+00 0.  1.
          2   -1    0    0  501    0  0.00000000000E+00 -0.00000000000E+00 -0.30455252627E+04  0.30455252627E+04  0.00000000000E+00 0. -1.
         23    2    1    2    0    0  0.13841962436E+04 -0.10256572192E+04 -0.80400411782E+03  0.19033186747E+04  0.90704928245E+02 0.  0.
        254    2    1    2    0    0 -0.13841962436E+04  0.10256572192E+04 -0.11340254154E+04  0.22497023174E+04  0.89842913024E+03 0.  0.
        -24    2    4    4    0    0 -0.34335408874E+03  0.17821802645E+03  0.11818494369E+03  0.41238876936E+03  0.80269053664E+02 0.  0.
         24    2    4    4    0    0 -0.10408421548E+04  0.84743919280E+03 -0.12522103591E+04  0.18373135481E+04  0.78642950133E+02 0.  0.
         13    1    3    3    0    0  0.97843584006E+03 -0.76810299445E+03 -0.55629835452E+03  0.13626396304E+04  0.00000000000E+00 0.  1.
        -13    1    3    3    0    0  0.40576040352E+03 -0.25755422480E+03 -0.24770576330E+03  0.54067904430E+03  0.00000000000E+00 0. -1.
          4    1    6    6  502    0 -0.10411447128E+04  0.84851171725E+03 -0.12520507915E+04  0.18361877986E+04  0.00000000000E+00 0. -1.
          1    1    5    5  503    0 -0.32768578268E+03  0.14997406263E+03  0.95172827168E+02  0.37273054431E+03  0.00000000000E+00 0. -1.
         -2    1    5    5    0  503 -0.15668306056E+02  0.28243963824E+02  0.23012116526E+02  0.39658225051E+02  0.00000000000E+00 0.  1.
         -3    1    6    6    0  502  0.30255793087E+00 -0.10725244553E+01 -0.15956762212E+00  0.11257494547E+01  0.00000000000E+00 0.  1.
<mgrwt>
<rscale>  0 0.36730947E+04</rscale>
<asrwt>0</asrwt>
<pdfrwt beam="1">  1        2 0.46854233E+00 0.36730947E+04</pdfrwt>
<pdfrwt beam="2">  1       -2 0.17038396E+00 0.36730947E+04</pdfrwt>
<totfact> 0.27946331E-01</totfact>
</mgrwt>
</event>
<event>
12    1  0.2214165E-007  0.1522117E+04  0.7818608E-02  0.8869877E-01
          2   -1    0    0  501    0  0.00000000000E+00  0.00000000000E+00  0.30641739101E+04  0.30641739101E+04  0.00000000000E+00 0. -1.
         -2   -1    0    0    0  501 -0.00000000000E+00 -0.00000000000E+00 -0.18902650828E+03  0.18902650828E+03  0.00000000000E+00 0.  1.
         23    2    1    2    0    0 -0.71162243514E+02 -0.48526512761E+03  0.87170595281E+03  0.10039311980E+04  0.86372873415E+02 0.  0.
        254    2    1    2    0    0  0.71162243514E+02  0.48526512761E+03  0.20034414490E+04  0.22492692203E+04  0.89715554782E+03 0.  0.
        -24    2    4    4    0    0 -0.23931297616E+03  0.13023867021E+03  0.12337888038E+03  0.30940534706E+03  0.79224421070E+02 0.  0.
         24    2    4    4    0    0  0.31047521967E+03  0.35502645740E+03  0.18800625686E+04  0.19398638733E+04  0.77446351711E+02 0.  0.
         13    1    3    3    0    0 -0.32654223853E+02 -0.36015274752E+03  0.56982770383E+03  0.67489251880E+03  0.00000000000E+00 0.  1.
        -13    1    3    3    0    0 -0.38508019661E+02 -0.12511238009E+03  0.30187824898E+03  0.32903867924E+03  0.00000000000E+00 0. -1.
          4    1    6    6  502    0  0.24480138227E+03  0.32169426707E+03  0.15794625453E+04  0.16303732242E+04  0.00000000000E+00 0. -1.
          1    1    5    5  503    0 -0.15161385867E+03  0.38157433292E+02  0.74332354298E+02  0.17311282665E+03  0.00000000000E+00 0. -1.
         -2    1    5    5    0  503 -0.87699117491E+02  0.92081236913E+02  0.49046526081E+02  0.13629252041E+03  0.00000000000E+00 0.  1.
         -3    1    6    6    0  502  0.65673837398E+02  0.33332190333E+02  0.30060002336E+03  0.30949064909E+03  0.00000000000E+00 0.  1.
<mgrwt>
<rscale>  0 0.15221171E+04</rscale>
<asrwt>0</asrwt>
<pdfrwt beam="1">  1        2 0.47141133E+00 0.15221171E+04</pdfrwt>
<pdfrwt beam="2">  1       -2 0.29081004E-01 0.15221171E+04</pdfrwt>
<totfact> 0.16753854E+01</totfact>
</mgrwt>
</event>
<event>
12    1  0.2214165E-007  0.1927838E+04  0.7818608E-02  0.8641122E-01
         -2   -1    0    0    0  501 -0.00000000000E+00  0.00000000000E+00  0.51048341293E+03  0.51048341293E+03  0.00000000000E+00 0.  1.
          2   -1    0    0  501    0  0.00000000000E+00 -0.00000000000E+00 -0.18201178978E+04  0.18201178978E+04  0.00000000000E+00 0. -1.
         23    2    1    2    0    0 -0.50788914949E+03 -0.13832806337E+03 -0.11598879153E+04  0.12769908906E+04  0.90992952884E+02 0.  0.
        254    2    1    2    0    0  0.50788914949E+03  0.13832806337E+03 -0.14974656965E+03  0.10536104202E+04  0.90032485308E+03 0.  0.
        -24    2    4    4    0    0  0.27242686693E+03  0.53585445392E+02  0.37060619141E+03  0.47067116588E+03  0.84229445504E+02 0.  0.
         24    2    4    4    0    0  0.23546228255E+03  0.84742617974E+02 -0.52035276107E+03  0.58293925428E+03  0.80170945027E+02 0.  0.
         11    1    3    3    0    0 -0.32764105374E+03 -0.11379092866E+03 -0.67066443833E+03  0.75504160441E+03  0.00000000000E+00 0. -1.
        -11    1    3    3    0    0 -0.18024809575E+03 -0.24537134706E+02 -0.48922347693E+03  0.52194928622E+03  0.00000000000E+00 0.  1.
          4    1    6    6  502    0  0.73230915634E+02 -0.11471087222E+02 -0.14250487434E+03  0.16062998492E+03  0.00000000000E+00 0. -1.
          3    1    5    5  503    0  0.96321765009E+02  0.60715871474E+02  0.14206193900E+03  0.18206013835E+03  0.00000000000E+00 0. -1.
         -4    1    5    5    0  503  0.17610510192E+03 -0.71304260821E+01  0.22854425242E+03  0.28861102753E+03  0.00000000000E+00 0.  1.
         -3    1    6    6    0  502  0.16223136692E+03  0.96213705195E+02 -0.37784788673E+03  0.42230926936E+03  0.00000000000E+00 0.  1.
<mgrwt>
<rscale>  0 0.19278382E+04</rscale>
<asrwt>0</asrwt>
<pdfrwt beam="1">  1        2 0.28001814E+00 0.19278382E+04</pdfrwt>
<pdfrwt beam="2">  1       -2 0.78535908E-01 0.19278382E+04</pdfrwt>
<totfact> 0.11322325E+01</totfact>
</mgrwt>
</event>
<event>
12    1  0.2214165E-007  0.2839137E+04  0.7818608E-02  0.8291220E-01
         -2   -1    0    0    0  501 -0.00000000000E+00  0.00000000000E+00  0.78222034887E+03  0.78222034887E+03  0.00000000000E+00 0.  1.
          2   -1    0    0  501    0  0.00000000000E+00 -0.00000000000E+00 -0.25762231198E+04  0.25762231198E+04  0.00000000000E+00 0. -1.
         23    2    1    2    0    0  0.84152601836E+03 -0.69226616348E+03 -0.15892948094E+04  0.19295544317E+04  0.99618437660E+02 0.  0.
        254    2    1    2    0    0 -0.84152601836E+03  0.69226616348E+03 -0.20470796154E+03  0.14288890369E+04  0.90134346932E+03 0.  0.
        -24    2    4    4    0    0 -0.56157393532E+03  0.89441808776E+03 -0.13673237657E+03  0.10679257354E+04  0.80128852584E+02 0.  0.
         24    2    4    4    0    0 -0.27995208304E+03 -0.20215192427E+03 -0.67975584965E+02  0.36096330153E+03  0.80220044932E+02 0.  0.
         13    1    3    3    0    0  0.14898737140E+03 -0.14412121127E+03 -0.24295517421E+03  0.31936715086E+03  0.00000000000E+00 0.  1.
        -13    1    3    3    0    0  0.69253864696E+03 -0.54814495221E+03 -0.13463396351E+04  0.16101872808E+04  0.00000000000E+00 0. -1.
          4    1    6    6  502    0 -0.15784509118E+03 -0.83997353018E+02 -0.67296767527E+02  0.19104837881E+03  0.00000000000E+00 0. -1.
          1    1    5    5  503    0 -0.27426642595E+03  0.50166963150E+03 -0.94168415658E+02  0.57944989609E+03  0.00000000000E+00 0. -1.
         -4    1    5    5    0  503 -0.28730750936E+03  0.39274845626E+03 -0.42563960913E+02  0.48847583932E+03  0.00000000000E+00 0.  1.
         -3    1    6    6    0  502 -0.12210699186E+03 -0.11815457126E+03 -0.67881743806E+00  0.16991492272E+03  0.00000000000E+00 0.  1.
<mgrwt>
<rscale>  0 0.28391366E+04</rscale>
<asrwt>0</asrwt>
<pdfrwt beam="1">  1        2 0.39634202E+00 0.28391366E+04</pdfrwt>
<pdfrwt beam="2">  1       -2 0.12034159E+00 0.28391366E+04</pdfrwt>
<totfact> 0.14368095E+00</totfact>
</mgrwt>
</event>
<event>
12    1  0.2214165E-007  0.2136430E+04  0.7818608E-02  0.8545363E-01
         -1   -1    0    0    0  501 -0.00000000000E+00  0.00000000000E+00  0.16151891871E+04  0.16151891871E+04  0.00000000000E+00 0.  1.
          1   -1    0    0  501    0  0.00000000000E+00 -0.00000000000E+00 -0.70647052187E+03  0.70647052187E+03  0.00000000000E+00 0. -1.
         23    2    1    2    0    0 -0.64747771082E+03 -0.51235559164E+03  0.57369743702E+02  0.83279538632E+03  0.92310506977E+02 0.  0.
        254    2    1    2    0    0  0.64747771082E+03  0.51235559164E+03  0.85134892154E+03  0.14888643227E+04  0.90010352005E+03 0.  0.
        -24    2    4    4    0    0  0.31328308821E+03  0.49076106635E+03  0.18743617298E+02  0.58791861301E+03  0.79399337037E+02 0.  0.
         24    2    4    4    0    0  0.33419462260E+03  0.21594525294E+02  0.83260530424E+03  0.90094570966E+03  0.79493457607E+02 0.  0.
         11    1    3    3    0    0 -0.31134065620E+03 -0.19490269455E+03  0.35976577420E+01  0.36733228511E+03  0.00000000000E+00 0. -1.
        -11    1    3    3    0    0 -0.33613705461E+03 -0.31745289710E+03  0.53772085960E+02  0.46546310121E+03  0.00000000000E+00 0.  1.
          4    1    6    6  502    0  0.13931052780E+03 -0.21806940867E+02  0.28266877786E+03  0.31588701114E+03  0.00000000000E+00 0. -1.
          1    1    5    5  503    0  0.41967161294E+02  0.52629910246E+02 -0.22399361454E+02  0.70942804238E+02  0.00000000000E+00 0. -1.
         -2    1    5    5    0  503  0.27131592692E+03  0.43813115610E+03  0.41142978752E+02  0.51697580877E+03  0.00000000000E+00 0.  1.
         -3    1    6    6    0  502  0.19488409480E+03  0.43401466160E+02  0.54993652638E+03  0.58505869852E+03  0.00000000000E+00 0.  1.
<mgrwt>
<rscale>  0 0.21364302E+04</rscale>
<asrwt>0</asrwt>
<pdfrwt beam="1">  1        1 0.10868777E+00 0.21364302E+04</pdfrwt>
<pdfrwt beam="2">  1       -1 0.24849064E+00 0.21364302E+04</pdfrwt>
<totfact> 0.17564751E+00</totfact>
</mgrwt>
</event>
<event>
12    1  0.2214165E-007  0.1453785E+04  0.7818608E-02  0.8915781E-01
          2   -1    0    0  501    0  0.00000000000E+00  0.00000000000E+00  0.14007223034E+04  0.14007223034E+04  0.00000000000E+00 0.  1.
         -2   -1    0    0    0  501 -0.00000000000E+00 -0.00000000000E+00 -0.37721433995E+03  0.37721433995E+03  0.00000000000E+00 0. -1.
         23    2    1    2    0    0 -0.60113335017E+02 -0.42179619807E+03  0.46049769823E+03  0.63364709954E+03  0.89021744097E+02 0.  0.
        254    2    1    2    0    0  0.60113335017E+02  0.42179619807E+03  0.56301026526E+03  0.11442895438E+04  0.90049561666E+03 0.  0.
        -24    2    4    4    0    0 -0.38963105010E+03  0.34250531077E+03  0.36975168203E+03  0.64193533749E+03  0.79009037758E+02 0.  0.
         24    2    4    4    0    0  0.44974438511E+03  0.79290887307E+02  0.19325858323E+03  0.50235420636E+03  0.80335620417E+02 0.  0.
         11    1    3    3    0    0 -0.64327869689E+02 -0.38976801855E+03  0.45188515807E+03  0.60021444434E+03  0.00000000000E+00 0. -1.
        -11    1    3    3    0    0  0.42145346713E+01 -0.32028179520E+02  0.86125401600E+01  0.33432655202E+02  0.00000000000E+00 0.  1.
          4    1    6    6  502    0  0.31489841220E+03  0.29327059498E+02  0.16139095445E+03  0.35506073650E+03  0.00000000000E+00 0. -1.
          1    1    5    5  503    0 -0.28997986094E+03  0.26859596005E+03  0.24003606345E+03  0.46243855945E+03  0.00000000000E+00 0. -1.
         -2    1    5    5    0  503 -0.99651189157E+02  0.73909350718E+02  0.12971561858E+03  0.17949677804E+03  0.00000000000E+00 0.  1.
         -3    1    6    6    0  502  0.13484597292E+03  0.49963827809E+02  0.31867628776E+02  0.14729346987E+03  0.00000000000E+00 0.  1.
<mgrwt>
<rscale>  0 0.14537848E+04</rscale>
<asrwt>0</asrwt>
<pdfrwt beam="1">  1        2 0.21549574E+00 0.14537848E+04</pdfrwt>
<pdfrwt beam="2">  1       -2 0.58032976E-01 0.14537848E+04</pdfrwt>
<totfact> 0.38940912E+01</totfact>
</mgrwt>
</event>
<event>
12    1  0.2214165E-007  0.1451677E+04  0.7818608E-02  0.8917239E-01
         -3   -1    0    0    0  501 -0.00000000000E+00  0.00000000000E+00  0.70378278831E+03  0.70378278831E+03  0.00000000000E+00 0.  1.
          3   -1    0    0  501    0  0.00000000000E+00 -0.00000000000E+00 -0.74858511040E+03  0.74858511040E+03  0.00000000000E+00 0. -1.
         23    2    1    2    0    0 -0.13644570589E+03  0.41356673397E+03 -0.52595221206E+02  0.44810950112E+03  0.91547766749E+02 0.  0.
        254    2    1    2    0    0  0.13644570589E+03 -0.41356673397E+03  0.77928991117E+01  0.10042583976E+04  0.90488636067E+03 0.  0.
        -24    2    4    4    0    0 -0.36677020705E+03 -0.20506815998E+03 -0.10938788486E+03  0.44138638138E+03  0.79264704008E+02 0.  0.
         24    2    4    4    0    0  0.50321591294E+03 -0.20849857399E+03  0.11718078397E+03  0.56287201620E+03  0.79972871004E+02 0.  0.
         11    1    3    3    0    0 -0.14006682479E+03  0.30198390259E+03 -0.48429251898E+02  0.33639022767E+03  0.00000000000E+00 0.  1.
        -11    1    3    3    0    0  0.36211188944E+01  0.11158283138E+03 -0.41659693079E+01  0.11171927345E+03  0.00000000000E+00 0. -1.
          2    1    6    6  502    0  0.35838965015E+03 -0.18658763805E+03  0.87705387594E+02  0.41346139241E+03  0.00000000000E+00 0. -1.
          3    1    5    5  503    0 -0.34737683988E+03 -0.16832734930E+03 -0.96546185291E+02  0.39790191166E+03  0.00000000000E+00 0. -1.
         -4    1    5    5    0  503 -0.19393367168E+02 -0.36740810679E+02 -0.12841699566E+02  0.43484469724E+02  0.00000000000E+00 0.  1.
         -1    1    6    6    0  502  0.14482626279E+03 -0.21910935947E+02  0.29475396375E+02  0.14941062379E+03  0.00000000000E+00 0.  1.
<mgrwt>
<rscale>  0 0.14516767E+04</rscale>
<asrwt>0</asrwt>
<pdfrwt beam="1">  1        3 0.11516694E+00 0.14516767E+04</pdfrwt>
<pdfrwt beam="2">  1       -3 0.10827427E+00 0.14516767E+04</pdfrwt>
<totfact> 0.11509358E+00</totfact>
</mgrwt>
</event>
<event>
12    1  0.2214165E-007  0.2624992E+04  0.7818608E-02  0.8359761E-01
         -1   -1    0    0    0  501 -0.00000000000E+00  0.00000000000E+00  0.80371800423E+03  0.80371800423E+03  0.00000000000E+00 0.  1.
          1   -1    0    0  501    0  0.00000000000E+00 -0.00000000000E+00 -0.21433465878E+04  0.21433465878E+04  0.00000000000E+00 0. -1.
         23    2    1    2    0    0 -0.79317444935E+03 -0.60190987488E+03 -0.12524858526E+04  0.16025607475E+04  0.89771564482E+02 0.  0.
        254    2    1    2    0    0  0.79317444935E+03  0.60190987488E+03 -0.87142730953E+02  0.13445038446E+04  0.89926388112E+03 0.  0.
        -24    2    4    4    0    0  0.46184571225E+03 -0.35142265941E+02  0.26659507065E+03  0.54017147088E+03  0.78586547693E+02 0.  0.
         24    2    4    4    0    0  0.33132873710E+03  0.63705214082E+03 -0.35373780160E+03  0.80433237367E+03  0.78777997595E+02 0.  0.
         13    1    3    3    0    0 -0.28764208048E+03 -0.16946774679E+03 -0.44559359831E+03  0.55678625927E+03  0.00000000000E+00 0. -1.
        -13    1    3    3    0    0 -0.50553236887E+03 -0.43244212809E+03 -0.80689225430E+03  0.10457744882E+04  0.00000000000E+00 0.  1.
          4    1    6    6  502    0  0.29670765069E+03  0.52746158246E+03 -0.27321043573E+03  0.66399931712E+03  0.00000000000E+00 0. -1.
          1    1    5    5  503    0  0.43739300022E+03 -0.50225675417E+02  0.25747538105E+03  0.51002826094E+03  0.00000000000E+00 0. -1.
         -2    1    5    5    0  503  0.24452712030E+02  0.15083409475E+02  0.91196896051E+01  0.30143209940E+02  0.00000000000E+00 0.  1.
         -3    1    6    6    0  502  0.34621086409E+02  0.10959055836E+03 -0.80527365879E+02  0.14033305655E+03  0.00000000000E+00 0.  1.
<mgrwt>
<rscale>  0 0.26249924E+04</rscale>
<asrwt>0</asrwt>
<pdfrwt beam="1">  1        1 0.32974563E+00 0.26249924E+04</pdfrwt>
<pdfrwt beam="2">  1       -1 0.12364892E+00 0.26249924E+04</pdfrwt>
<totfact> 0.12028814E+00</totfact>
</mgrwt>
</event>
<event>
12    1  0.2214165E-007  0.1747290E+04  0.7818608E-02  0.8734843E-01
         -1   -1    0    0    0  501 -0.00000000000E+00  0.00000000000E+00  0.10397945144E+04  0.10397945144E+04  0.00000000000E+00 0.  1.
          1   -1    0    0  501    0  0.00000000000E+00 -0.00000000000E+00 -0.73404481373E+03  0.73404481373E+03  0.00000000000E+00 0. -1.
         23    2    1    2    0    0 -0.59920492800E+03 -0.95187301386E+02 -0.89172554927E+02  0.61969288839E+03  0.89220867962E+02 0.  0.
        254    2    1    2    0    0  0.59920492800E+03  0.95187301386E+02  0.39492225557E+03  0.11541464397E+04  0.89887888409E+03 0.  0.
        -24    2    4    4    0    0 -0.19903520581E+03 -0.12414613378E+03  0.13856918312E+03  0.28398740810E+03  0.80125862018E+02 0.  0.
         24    2    4    4    0    0  0.79824013381E+03  0.21933343517E+03  0.25635307245E+03  0.87015903161E+03  0.78519905229E+02 0.  0.
         13    1    3    3    0    0 -0.23709936548E+03 -0.11461226103E+02 -0.70246965535E+02  0.24755222678E+03  0.00000000000E+00 0. -1.
        -13    1    3    3    0    0 -0.36210556252E+03 -0.83726075283E+02 -0.18925589392E+02  0.37214066161E+03  0.00000000000E+00 0.  1.
          4    1    6    6  502    0  0.48293989357E+03  0.13854484121E+03  0.11562413324E+03  0.51555266852E+03  0.00000000000E+00 0. -1.
          1    1    5    5  503    0 -0.67771347752E+02 -0.93162233181E+01  0.66106268481E+02  0.95130364897E+02  0.00000000000E+00 0. -1.
         -2    1    5    5    0  503 -0.13126385806E+03 -0.11482991046E+03  0.72462914639E+02  0.18885704320E+03  0.00000000000E+00 0.  1.
         -3    1    6    6    0  502  0.31530024024E+03  0.80788593961E+02  0.14072893922E+03  0.35460636309E+03  0.00000000000E+00 0.  1.
<mgrwt>
<rscale>  0 0.17472902E+04</rscale>
<asrwt>0</asrwt>
<pdfrwt beam="1">  1        1 0.11292997E+00 0.17472902E+04</pdfrwt>
<pdfrwt beam="2">  1       -1 0.15996839E+00 0.17472902E+04</pdfrwt>
<totfact> 0.70193186E+00</totfact>
</mgrwt>
</event>
<event>
12    1  0.2214165E-007  0.1808458E+04  0.7818608E-02  0.8701814E-01
          1   -1    0    0  501    0  0.00000000000E+00  0.00000000000E+00  0.94209198221E+03  0.94209198221E+03  0.00000000000E+00 0. -1.
         -1   -1    0    0    0  501 -0.00000000000E+00 -0.00000000000E+00 -0.86788815926E+03  0.86788815926E+03  0.00000000000E+00 0.  1.
         23    2    1    2    0    0  0.24747585009E+03  0.61498423162E+03 -0.12076010406E+03  0.67978461883E+03  0.89856684480E+02 0.  0.
        254    2    1    2    0    0 -0.24747585009E+03 -0.61498423162E+03  0.19496392701E+03  0.11301955226E+04  0.89436071305E+03 0.  0.
        -24    2    4    4    0    0 -0.48576721061E+03 -0.61156148693E+03  0.32213461274E+03  0.84860100422E+03  0.79848108571E+02 0.  0.
         24    2    4    4    0    0  0.23829136052E+03 -0.34227446918E+01 -0.12717068573E+03  0.28159451842E+03  0.79552509809E+02 0.  0.
         13    1    3    3    0    0  0.96102843873E+02  0.31469179389E+03 -0.24294360901E+02  0.32993468704E+03  0.00000000000E+00 0. -1.
        -13    1    3    3    0    0  0.15137300621E+03  0.30029243774E+03 -0.96465743157E+02  0.34984993179E+03  0.00000000000E+00 0.  1.
          2    1    6    6  502    0  0.80529210087E+02  0.24768087511E+02 -0.14011173215E+02  0.85409161166E+02  0.00000000000E+00 0. -1.
          3    1    5    5  503    0 -0.13478913877E+03 -0.22953031307E+03  0.10223160367E+03  0.28513782166E+03  0.00000000000E+00 0. -1.
         -4    1    5    5    0  503 -0.35097807183E+03 -0.38203117386E+03  0.21990300907E+03  0.56346318256E+03  0.00000000000E+00 0.  1.
         -1    1    6    6    0  502  0.15776215043E+03 -0.28190832203E+02 -0.11315951251E+03  0.19618535725E+03  0.00000000000E+00 0.  1.
<mgrwt>
<rscale>  0 0.18084584E+04</rscale>
<asrwt>0</asrwt>
<pdfrwt beam="1">  1        1 0.14493723E+00 0.18084584E+04</pdfrwt>
<pdfrwt beam="2">  1       -1 0.13352126E+00 0.18084584E+04</pdfrwt>
<totfact> 0.75154070E+00</totfact>
</mgrwt>
</event>
<event>
12    1  0.2214165E-007  0.4358959E+04  0.7818608E-02  0.7935805E-01
         -1   -1    0    0    0  501 -0.00000000000E+00  0.00000000000E+00  0.13882679673E+04  0.13882679673E+04  0.00000000000E+00 0.  1.
          1   -1    0    0  501    0  0.00000000000E+00 -0.00000000000E+00 -0.34216243070E+04  0.34216243070E+04  0.00000000000E+00 0. -1.
         23    2    1    2    0    0 -0.42730074629E+03 -0.12503242311E+04 -0.27547052106E+04  0.30565254920E+04  0.89725557725E+02 0.  0.
        254    2    1    2    0    0  0.42730074629E+03  0.12503242311E+04  0.72134887078E+03  0.17533667823E+04  0.89891838855E+03 0.  0.
        -24    2    4    4    0    0  0.18909700915E+03  0.10474484374E+04  0.12412105434E+03  0.10745179750E+04  0.79227107913E+02 0.  0.
         24    2    4    4    0    0  0.23820373715E+03  0.20287579372E+03  0.59722781644E+03  0.67884880731E+03  0.79088750135E+02 0.  0.
         13    1    3    3    0    0 -0.11196812965E+03 -0.29766606211E+03 -0.75171795963E+03  0.81622413430E+03  0.00000000000E+00 0. -1.
        -13    1    3    3    0    0 -0.31533261664E+03 -0.95265816896E+03 -0.20029872509E+04  0.22403013577E+04  0.00000000000E+00 0.  1.
          4    1    6    6  502    0  0.98628058932E+02  0.12910570429E+03  0.34406929112E+03  0.38049895398E+03  0.00000000000E+00 0. -1.
          1    1    5    5  503    0  0.99400485921E+02  0.34059617410E+03  0.41384047011E+02  0.35720981196E+03  0.00000000000E+00 0. -1.
         -2    1    5    5    0  503  0.89696523225E+02  0.70685226325E+03  0.82737007330E+02  0.71730816301E+03  0.00000000000E+00 0.  1.
         -3    1    6    6    0  502  0.13957567821E+03  0.73770089432E+02  0.25315852532E+03  0.29834985334E+03  0.00000000000E+00 0.  1.
<mgrwt>
<rscale>  0 0.43589592E+04</rscale>
<asrwt>0</asrwt>
<pdfrwt beam="1">  1        1 0.52640373E+00 0.43589592E+04</pdfrwt>
<pdfrwt beam="2">  1       -1 0.21357969E+00 0.43589592E+04</pdfrwt>
<totfact> 0.26566642E-02</totfact>
</mgrwt>
</event>
<event>
12    1  0.2214165E-007  0.2195737E+04  0.7818608E-02  0.8520204E-01
         -2   -1    0    0    0  501 -0.00000000000E+00  0.00000000000E+00  0.11427314509E+04  0.11427314509E+04  0.00000000000E+00 0.  1.
          2   -1    0    0  501    0  0.00000000000E+00 -0.00000000000E+00 -0.10547670911E+04  0.10547670911E+04  0.00000000000E+00 0. -1.
         23    2    1    2    0    0  0.18754155005E+03 -0.87568270960E+03 -0.13220742999E+03  0.90985692490E+03  0.91481027342E+02 0.  0.
        254    2    1    2    0    0 -0.18754155005E+03  0.87568270960E+03  0.22017178976E+03  0.12876416171E+04  0.89863968093E+03 0.  0.
        -24    2    4    4    0    0 -0.47197734939E+03  0.29246343701E+03 -0.82942050021E+02  0.56703083430E+03  0.79668708203E+02 0.  0.
         24    2    4    4    0    0  0.28443579934E+03  0.58321927259E+03  0.30311383979E+03  0.72061078278E+03  0.79708572421E+02 0.  0.
         13    1    3    3    0    0  0.92324180449E+02 -0.51873369004E+03 -0.11918116322E+03  0.54019676521E+03  0.00000000000E+00 0. -1.
        -13    1    3    3    0    0  0.95217369600E+02 -0.35694901956E+03 -0.13026266772E+02  0.36966015969E+03  0.00000000000E+00 0.  1.
          2    1    6    6  502    0  0.56947781217E+02  0.15309952295E+03  0.11095391926E+03  0.19746717680E+03  0.00000000000E+00 0. -1.
          3    1    5    5  503    0 -0.19446389901E+02  0.24643237770E+02 -0.20499374906E+02  0.37492340811E+02  0.00000000000E+00 0. -1.
         -4    1    5    5    0  503 -0.45253095949E+03  0.26782019924E+03 -0.62442675115E+02  0.52953849349E+03  0.00000000000E+00 0.  1.
         -1    1    6    6    0  502  0.22748801812E+03  0.43011974965E+03  0.19215992052E+03  0.52314360598E+03  0.00000000000E+00 0.  1.
<mgrwt>
<rscale>  0 0.21957373E+04</rscale>
<asrwt>0</asrwt>
<pdfrwt beam="1">  1        2 0.16227186E+00 0.21957373E+04</pdfrwt>
<pdfrwt beam="2">  1       -2 0.17580484E+00 0.21957373E+04</pdfrwt>
<totfact> 0.41219332E+00</totfact>
</mgrwt>
</event>
<event>
12    1  0.2214165E-007  0.1679953E+04  0.7818608E-02  0.8772881E-01
         -2   -1    0    0    0  501 -0.00000000000E+00  0.00000000000E+00  0.12919908742E+04  0.12919908742E+04  0.00000000000E+00 0.  1.
          2   -1    0    0  501    0  0.00000000000E+00 -0.00000000000E+00 -0.54610334546E+03  0.54610334546E+03  0.00000000000E+00 0. -1.
         23    2    1    2    0    0  0.45230823907E+03 -0.38176544983E+03  0.29963911379E+03  0.67026481144E+03  0.95622785573E+02 0.  0.
        254    2    1    2    0    0 -0.45230823907E+03  0.38176544983E+03  0.44624841493E+03  0.11678294082E+04  0.90241912492E+03 0.  0.
        -24    2    4    4    0    0 -0.16047860503E+03  0.64305806120E+03  0.19482778002E+03  0.69537595778E+03  0.79453168876E+02 0.  0.
         24    2    4    4    0    0 -0.29182963404E+03 -0.26129261137E+03  0.25142063490E+03  0.47245345041E+03  0.81003475780E+02 0.  0.
         11    1    3    3    0    0  0.25751125278E+03 -0.17351613975E+03  0.11804405244E+03  0.33219616852E+03  0.00000000000E+00 0. -1.
        -11    1    3    3    0    0  0.19479698629E+03 -0.20824931008E+03  0.18159506135E+03  0.33806864292E+03  0.00000000000E+00 0.  1.
          2    1    6    6  502    0 -0.27429206524E+03 -0.23239055435E+03  0.20137707433E+03  0.41206095771E+03  0.00000000000E+00 0. -1.
          1    1    5    5  503    0 -0.14676633696E+03  0.43762132705E+03  0.13060383636E+03  0.47969797334E+03  0.00000000000E+00 0. -1.
         -2    1    5    5    0  503 -0.13712268075E+02  0.20543673415E+03  0.64223943663E+02  0.21567798444E+03  0.00000000000E+00 0.  1.
         -1    1    6    6    0  502 -0.17537568801E+02 -0.28902057026E+02  0.50043560575E+02  0.60392492702E+02  0.00000000000E+00 0.  1.
<mgrwt>
<rscale>  0 0.16799530E+04</rscale>
<asrwt>0</asrwt>
<pdfrwt beam="1">  1        2 0.84015900E-01 0.16799530E+04</pdfrwt>
<pdfrwt beam="2">  1       -2 0.19876783E+00 0.16799530E+04</pdfrwt>
<totfact> 0.71630564E+00</totfact>
</mgrwt>
</event>
<event>
12    1  0.2214165E-007  0.3124532E+04  0.7818608E-02  0.8209037E-01
          1   -1    0    0  501    0  0.00000000000E+00  0.00000000000E+00  0.34790693650E+04  0.34790693650E+04  0.00000000000E+00 0. -1.
         -1   -1    0    0    0  501 -0.00000000000E+00 -0.00000000000E+00 -0.70153100679E+03  0.70153100679E+03  0.00000000000E+00 0.  1.
         23    2    1    2    0    0 -0.69309499800E+03  0.12406569862E+04  0.14914684960E+04  0.20619326441E+04  0.86472659228E+02 0.  0.
        254    2    1    2    0    0  0.69309499800E+03 -0.12406569862E+04  0.12860698623E+04  0.21186677277E+04  0.90286589039E+03 0.  0.
        -24    2    4    4    0    0 -0.20366435312E+02 -0.58789603825E+03  0.89020218590E+03  0.10706572888E+04  0.88377342865E+02 0.  0.
         24    2    4    4    0    0  0.71346143331E+03 -0.65276094796E+03  0.39586767636E+03  0.10480104389E+04  0.80564203526E+02 0.  0.
         13    1    3    3    0    0 -0.14200146513E+03  0.18894639268E+03  0.24117394293E+03  0.33768332230E+03  0.00000000000E+00 0. -1.
        -13    1    3    3    0    0 -0.55109353287E+03  0.10517105935E+04  0.12502945530E+04  0.17242493218E+04  0.00000000000E+00 0.  1.
          2    1    6    6  502    0  0.12304463221E+03 -0.10729092615E+03  0.10012028178E+03  0.19150821176E+03  0.00000000000E+00 0. -1.
          3    1    5    5  503    0 -0.36140222036E+02 -0.36067632402E+03  0.48039352946E+03  0.60180683737E+03  0.00000000000E+00 0. -1.
         -2    1    5    5    0  503  0.15773786724E+02 -0.22721971422E+03  0.40980865644E+03  0.46885045139E+03  0.00000000000E+00 0.  1.
         -1    1    6    6    0  502  0.59041680110E+03 -0.54547002182E+03  0.29574739458E+03  0.85650222716E+03  0.00000000000E+00 0.  1.
<mgrwt>
<rscale>  0 0.31245320E+04</rscale>
<asrwt>0</asrwt>
<pdfrwt beam="1">  1        1 0.53524143E+00 0.31245320E+04</pdfrwt>
<pdfrwt beam="2">  1       -1 0.10792785E+00 0.31245320E+04</pdfrwt>
<totfact> 0.17426684E-01</totfact>
</mgrwt>
</event>
<event>
12    1  0.2214165E-007  0.2113026E+04  0.7818608E-02  0.8555527E-01
          2   -1    0    0  501    0  0.00000000000E+00  0.00000000000E+00  0.28567501427E+04  0.28567501427E+04  0.00000000000E+00 0. -1.
         -2   -1    0    0    0  501 -0.00000000000E+00 -0.00000000000E+00 -0.39073049878E+03  0.39073049878E+03  0.00000000000E+00 0.  1.
         23    2    1    2    0    0  0.19983705254E+03  0.55857761721E+03  0.19729360112E+04  0.20622724422E+04  0.92451713892E+02 0.  0.
        254    2    1    2    0    0 -0.19983705254E+03 -0.55857761721E+03  0.49308363269E+03  0.11852081993E+04  0.89980175862E+03 0.  0.
        -24    2    4    4    0    0  0.87161465201E+02 -0.39295873720E+03  0.68160678401E+03  0.79561444387E+03  0.80005281918E+02 0.  0.
         24    2    4    4    0    0 -0.28699851775E+03 -0.16561888001E+03 -0.18852315133E+03  0.38959375541E+03  0.80277973721E+02 0.  0.
         13    1    3    3    0    0  0.25802424459E+02  0.19664551594E+03  0.69145581687E+03  0.71933745261E+03  0.00000000000E+00 0. -1.
        -13    1    3    3    0    0  0.17403462808E+03  0.36193210127E+03  0.12814801943E+04  0.13429349896E+04  0.00000000000E+00 0.  1.
          4    1    6    6  502    0 -0.25799770505E+03 -0.12846852861E+03 -0.13495685794E+03  0.31824571036E+03  0.00000000000E+00 0. -1.
          1    1    5    5  503    0  0.63227106734E+02 -0.22678438676E+03  0.32345584073E+03  0.40006562713E+03  0.00000000000E+00 0. -1.
         -2    1    5    5    0  503  0.23934358467E+02 -0.16617435044E+03  0.35815094328E+03  0.39554881675E+03  0.00000000000E+00 0.  1.
         -3    1    6    6    0  502 -0.29000812696E+02 -0.37150351403E+02 -0.53566293384E+02  0.71348045056E+02  0.00000000000E+00 0.  1.
<mgrwt>
<rscale>  0 0.21130257E+04</rscale>
<asrwt>0</asrwt>
<pdfrwt beam="1">  1        2 0.43950001E+00 0.21130257E+04</pdfrwt>
<pdfrwt beam="2">  1       -2 0.60112386E-01 0.21130257E+04</pdfrwt>
<totfact> 0.50777938E+00</totfact>
</mgrwt>
</event>
<event>
12    1  0.2214165E-007  0.2264999E+04  0.7818608E-02  0.8491851E-01
          2   -1    0    0  501    0  0.00000000000E+00  0.00000000000E+00  0.39387818825E+04  0.39387818825E+04  0.00000000000E+00 0. -1.
         -2   -1    0    0    0  501 -0.00000000000E+00 -0.00000000000E+00 -0.32562213859E+03  0.32562213859E+03  0.00000000000E+00 0.  1.
         23    2    1    2    0    0  0.53625190630E+03 -0.40675815346E+03  0.25891659260E+03  0.72644424955E+03  0.87550804524E+02 0.  0.
        254    2    1    2    0    0 -0.53625190630E+03  0.40675815346E+03  0.33542431513E+04  0.35379597716E+04  0.90177265675E+03 0.  0.
        -24    2    4    4    0    0 -0.77639589881E+03  0.21892230932E+03  0.23726742665E+04  0.25070778219E+04  0.71683058375E+02 0.  0.
         24    2    4    4    0    0  0.24014399251E+03  0.18783584414E+03  0.98156888480E+03  0.10308819496E+04  0.79301179059E+02 0.  0.
         11    1    3    3    0    0  0.20267859859E+03 -0.17132163645E+03  0.14568021663E+03  0.30274154481E+03  0.00000000000E+00 0. -1.
        -11    1    3    3    0    0  0.33357330771E+03 -0.23543651701E+03  0.11323637597E+03  0.42370270474E+03  0.00000000000E+00 0.  1.
          4    1    6    6  502    0  0.20689093849E+02  0.50429883269E+02  0.21332053719E+03  0.22017462005E+03  0.00000000000E+00 0. -1.
          3    1    5    5  503    0 -0.60135678092E+02 -0.23460176653E+01  0.17322102227E+03  0.18337755079E+03  0.00000000000E+00 0. -1.
         -4    1    5    5    0  503 -0.71626022072E+03  0.22126832698E+03  0.21994532443E+04  0.23237002711E+04  0.00000000000E+00 0.  1.
         -3    1    6    6    0  502  0.21945489866E+03  0.13740596087E+03  0.76824834762E+03  0.81070732959E+03  0.00000000000E+00 0.  1.
<mgrwt>
<rscale>  0 0.22649985E+04</rscale>
<asrwt>0</asrwt>
<pdfrwt beam="1">  1        2 0.60596641E+00 0.22649985E+04</pdfrwt>
<pdfrwt beam="2">  1       -2 0.50095716E-01 0.22649985E+04</pdfrwt>
<totfact> 0.13205548E+00</totfact>
</mgrwt>
</event>
<event>
12    1  0.2214165E-007  0.3449025E+04  0.7818608E-02  0.8125978E-01
         -2   -1    0    0    0  501 -0.00000000000E+00  0.00000000000E+00  0.12035331095E+04  0.12035331095E+04  0.00000000000E+00 0.  1.
          2   -1    0    0  501    0  0.00000000000E+00 -0.00000000000E+00 -0.24710101283E+04  0.24710101283E+04  0.00000000000E+00 0. -1.
         23    2    1    2    0    0 -0.10626920315E+04 -0.11497371083E+04 -0.97112785845E+03  0.18446611103E+04  0.92062601216E+02 0.  0.
        254    2    1    2    0    0  0.10626920315E+04  0.11497371083E+04 -0.29634916038E+03  0.18298821274E+04  0.89968661399E+03 0.  0.
        -24    2    4    4    0    0  0.12009246021E+04  0.97042408654E+03 -0.34644652486E+03  0.15845814534E+04  0.83248905040E+02 0.  0.
         24    2    4    4    0    0 -0.13823257053E+03  0.17931302172E+03  0.50097364487E+02  0.24530067405E+03  0.80007946156E+02 0.  0.
         13    1    3    3    0    0 -0.44233155732E+03 -0.41564764638E+03 -0.39201696343E+03  0.72256312676E+03  0.00000000000E+00 0. -1.
        -13    1    3    3    0    0 -0.62036047420E+03 -0.73408946188E+03 -0.57911089502E+03  0.11220979836E+04  0.00000000000E+00 0.  1.
          4    1    6    6  502    0 -0.11554224462E+03  0.14792642580E+03  0.76765350678E+01  0.18785943397E+03  0.00000000000E+00 0. -1.
          3    1    5    5  503    0  0.11791878499E+04  0.93771078118E+03 -0.33196629204E+03  0.15427206855E+04  0.00000000000E+00 0. -1.
         -4    1    5    5    0  503  0.21736752172E+02  0.32713305356E+02 -0.14480232818E+02  0.41860767847E+02  0.00000000000E+00 0.  1.
         -3    1    6    6    0  502 -0.22690325909E+02  0.31386595924E+02  0.42420829419E+02  0.57441240082E+02  0.00000000000E+00 0.  1.
<mgrwt>
<rscale>  0 0.34490245E+04</rscale>
<asrwt>0</asrwt>
<pdfrwt beam="1">  1        2 0.38015540E+00 0.34490245E+04</pdfrwt>
<pdfrwt beam="2">  1       -2 0.18515894E+00 0.34490245E+04</pdfrwt>
<totfact> 0.49894388E-01</totfact>
</mgrwt>
</event>
<event>
12    1  0.2214165E-007  0.1964536E+04  0.7818608E-02  0.8623383E-01
         -2   -1    0    0    0  501 -0.00000000000E+00  0.00000000000E+00  0.33829483271E+03  0.33829483271E+03  0.00000000000E+00 0.  1.
          2   -1    0    0  501    0  0.00000000000E+00 -0.00000000000E+00 -0.28520992675E+04  0.28520992675E+04  0.00000000000E+00 0. -1.
         23    2    1    2    0    0  0.62638144650E+03  0.44877666769E+03 -0.10586861506E+04  0.13132216611E+04  0.99902711049E+02 0.  0.
        254    2    1    2    0    0 -0.62638144650E+03 -0.44877666769E+03 -0.14551182841E+04  0.18771724391E+04  0.90147264585E+03 0.  0.
        -24    2    4    4    0    0 -0.74153272942E+03 -0.43875322558E+03 -0.71148734158E+03  0.11201857912E+04  0.78909998676E+02 0.  0.
         24    2    4    4    0    0  0.11515128292E+03 -0.10023442107E+02 -0.74363094256E+03  0.75698664784E+03  0.81740558679E+02 0.  0.
         11    1    3    3    0    0  0.26754140209E+03  0.15358364877E+03 -0.48749425555E+03  0.57690292788E+03  0.00000000000E+00 0. -1.
        -11    1    3    3    0    0  0.35884004440E+03  0.29519301892E+03 -0.57119189506E+03  0.73631873321E+03  0.00000000000E+00 0.  1.
          4    1    6    6  502    0  0.65388306321E+02  0.30631021382E+02 -0.29138908569E+03  0.30020241393E+03  0.00000000000E+00 0. -1.
          1    1    5    5  503    0  0.18590568595E+01 -0.28598919329E+01 -0.21271458274E+01  0.40199283135E+01  0.00000000000E+00 0. -1.
         -4    1    5    5    0  503 -0.74339178628E+03 -0.43589333365E+03 -0.70936019575E+03  0.11161658629E+04  0.00000000000E+00 0.  1.
         -3    1    6    6    0  502  0.49762976601E+02 -0.40654463489E+02 -0.45224185687E+03  0.45678423391E+03  0.00000000000E+00 0.  1.
<mgrwt>
<rscale>  0 0.19645360E+04</rscale>
<asrwt>0</asrwt>
<pdfrwt beam="1">  1        2 0.43878450E+00 0.19645360E+04</pdfrwt>
<pdfrwt beam="2">  1       -2 0.52045360E-01 0.19645360E+04</pdfrwt>
<totfact> 0.69944900E+00</totfact>
</mgrwt>
</event>
<event>
12    1  0.2214165E-007  0.1757590E+04  0.7818608E-02  0.8729183E-01
          2   -1    0    0  501    0  0.00000000000E+00  0.00000000000E+00  0.24703210803E+04  0.24703210803E+04  0.00000000000E+00 0. -1.
         -2   -1    0    0    0  501 -0.00000000000E+00 -0.00000000000E+00 -0.31262369408E+03  0.31262369408E+03  0.00000000000E+00 0.  1.
         23    2    1    2    0    0  0.93258306262E+02 -0.62680582325E+03  0.95609164676E+03  0.11507353354E+04  0.92184181233E+02 0.  0.
        254    2    1    2    0    0 -0.93258306262E+02  0.62680582325E+03  0.12016057395E+04  0.16322094390E+04  0.90480309903E+03 0.  0.
        -24    2    4    4    0    0  0.20775117348E+03 -0.14271381093E+03  0.20392595258E+03  0.33419355905E+03  0.81066385532E+02 0.  0.
         24    2    4    4    0    0 -0.30100947974E+03  0.76951963419E+03  0.99767978687E+03  0.12980158800E+04  0.81933468325E+02 0.  0.
         11    1    3    3    0    0  0.85825436360E+02 -0.43825298428E+03  0.73534543667E+03  0.86032819028E+03  0.00000000000E+00 0. -1.
        -11    1    3    3    0    0  0.74328699021E+01 -0.18855283897E+03  0.22074621009E+03  0.29040714507E+03  0.00000000000E+00 0.  1.
          4    1    6    6  502    0 -0.25467556455E+03  0.69259909776E+03  0.85482938360E+03  0.11292858046E+04  0.00000000000E+00 0. -1.
          3    1    5    5  503    0  0.12254891687E+03 -0.85339166475E+02  0.68704676616E+02  0.16438169895E+03  0.00000000000E+00 0. -1.
         -4    1    5    5    0  503  0.85202256608E+02 -0.57374644459E+02  0.13522127596E+03  0.16981186010E+03  0.00000000000E+00 0.  1.
         -3    1    6    6    0  502 -0.46333915191E+02  0.76920536424E+02  0.14285040327E+03  0.16873007537E+03  0.00000000000E+00 0.  1.
<mgrwt>
<rscale>  0 0.17575903E+04</rscale>
<asrwt>0</asrwt>
<pdfrwt beam="1">  1        2 0.38004938E+00 0.17575903E+04</pdfrwt>
<pdfrwt beam="2">  1       -2 0.48095955E-01 0.17575903E+04</pdfrwt>
<totfact> 0.14067416E+01</totfact>
</mgrwt>
</event>
<event>
12    1  0.2214165E-007  0.2288258E+04  0.7818608E-02  0.8482565E-01
         -1   -1    0    0    0  501 -0.00000000000E+00  0.00000000000E+00  0.14064162073E+04  0.14064162073E+04  0.00000000000E+00 0.  1.
          1   -1    0    0  501    0  0.00000000000E+00 -0.00000000000E+00 -0.93075644643E+03  0.93075644643E+03  0.00000000000E+00 0. -1.
         23    2    1    2    0    0  0.60254546857E+03 -0.59626132248E+03 -0.26880397130E+03  0.89393850029E+03  0.91004730270E+02 0.  0.
        254    2    1    2    0    0 -0.60254546857E+03  0.59626132248E+03  0.74446373216E+03  0.14432341534E+04  0.90006109058E+03 0.  0.
        -24    2    4    4    0    0 -0.75768505954E+03  0.26680467924E+03  0.69872438531E+03  0.10675742166E+04  0.78914858840E+02 0.  0.
         24    2    4    4    0    0  0.15513959097E+03  0.32945664323E+03  0.45739346854E+02  0.37565993687E+03  0.80114467235E+02 0.  0.
         13    1    3    3    0    0  0.30173029186E+03 -0.32613399957E+03 -0.97671288642E+02  0.45491123895E+03  0.00000000000E+00 0.  1.
        -13    1    3    3    0    0  0.30081517672E+03 -0.27012732291E+03 -0.17113268266E+03  0.43902726134E+03  0.00000000000E+00 0. -1.
          4    1    6    6  502    0  0.14170836092E+03  0.30681440910E+03  0.63540258640E+02  0.34388036532E+03  0.00000000000E+00 0. -1.
          1    1    5    5  503    0 -0.68934546273E+03  0.22143555479E+03  0.64366595388E+03  0.96878105478E+03  0.00000000000E+00 0. -1.
         -2    1    5    5    0  503 -0.68339596809E+02  0.45369124451E+02  0.55058431427E+02  0.98793161791E+02  0.00000000000E+00 0.  1.
         -3    1    6    6    0  502  0.13431230051E+02  0.22642234132E+02 -0.17800911787E+02  0.31779571545E+02  0.00000000000E+00 0.  1.
<mgrwt>
<rscale>  0 0.22882578E+04</rscale>
<asrwt>0</asrwt>
<pdfrwt beam="1">  1        1 0.14319330E+00 0.22882578E+04</pdfrwt>
<pdfrwt beam="2">  1       -1 0.21637173E+00 0.22882578E+04</pdfrwt>
<totfact> 0.18089834E+00</totfact>
</mgrwt>
</event>
<event>
12    1  0.2214165E-007  0.1395628E+04  0.7818608E-02  0.8956989E-01
          1   -1    0    0  501    0  0.00000000000E+00  0.00000000000E+00  0.61353251443E+03  0.61353251443E+03  0.00000000000E+00 0. -1.
         -1   -1    0    0    0  501 -0.00000000000E+00 -0.00000000000E+00 -0.79367319180E+03  0.79367319180E+03  0.00000000000E+00 0.  1.
         23    2    1    2    0    0 -0.11175089892E+03 -0.15017090230E+03 -0.40928708778E+03  0.45935634881E+03  0.91938956123E+02 0.  0.
        254    2    1    2    0    0  0.11175089892E+03  0.15017090230E+03  0.22914641041E+03  0.94784935742E+03  0.90048362764E+03 0.  0.
        -24    2    4    4    0    0  0.69870273740E+02 -0.26659591153E+03 -0.19536074080E+03  0.34675784702E+03  0.78230110780E+02 0.  0.
         24    2    4    4    0    0  0.41880625184E+02  0.41676681383E+03  0.42450715121E+03  0.60109151040E+03  0.75207170999E+02 0.  0.
         13    1    3    3    0    0 -0.95663163688E+02 -0.55501753602E+02 -0.24986022552E+03  0.27324351380E+03  0.00000000000E+00 0.  1.
        -13    1    3    3    0    0 -0.16087735236E+02 -0.94669148702E+02 -0.15942686227E+03  0.18611283500E+03  0.00000000000E+00 0. -1.
          2    1    6    6  502    0 -0.10633200607E+02  0.25968706791E+03  0.26297495688E+03  0.36973810480E+03  0.00000000000E+00 0. -1.
          1    1    5    5  503    0 -0.12029857208E+01 -0.72514770319E+00  0.57376580874E+01  0.59070918533E+01  0.00000000000E+00 0. -1.
         -2    1    5    5    0  503  0.71073259461E+02 -0.26587076382E+03 -0.20109839888E+03  0.34085075517E+03  0.00000000000E+00 0.  1.
         -1    1    6    6    0  502  0.52513825790E+02  0.15707974592E+03  0.16153219433E+03  0.23135340560E+03  0.00000000000E+00 0.  1.
<mgrwt>
<rscale>  0 0.13956279E+04</rscale>
<asrwt>0</asrwt>
<pdfrwt beam="1">  1        1 0.94389618E-01 0.13956279E+04</pdfrwt>
<pdfrwt beam="2">  1       -1 0.12210357E+00 0.13956279E+04</pdfrwt>
<totfact> 0.19189256E+01</totfact>
</mgrwt>
</event>
<event>
12    1  0.2214165E-007  0.1989523E+04  0.7818608E-02  0.8611535E-01
         -2   -1    0    0    0  501 -0.00000000000E+00  0.00000000000E+00  0.12671520910E+04  0.12671520910E+04  0.00000000000E+00 0.  1.
          2   -1    0    0  501    0  0.00000000000E+00 -0.00000000000E+00 -0.78092484028E+03  0.78092484028E+03  0.00000000000E+00 0. -1.
         23    2    1    2    0    0 -0.63880855237E+03  0.44052382808E+02  0.66630804741E+03  0.92851545498E+03  0.90319195470E+02 0.  0.
        254    2    1    2    0    0  0.63880855237E+03 -0.44052382808E+02 -0.18008079672E+03  0.11195614763E+04  0.90053974192E+03 0.  0.
        -24    2    4    4    0    0  0.75797041878E+03 -0.20991319429E+03  0.62122719156E+02  0.79307140428E+03  0.80748468456E+02 0.  0.
         24    2    4    4    0    0 -0.11916186641E+03  0.16586081149E+03 -0.24220351587E+03  0.32649007199E+03  0.78891474919E+02 0.  0.
         13    1    3    3    0    0 -0.57698465591E+03  0.25530032160E+02  0.62914610465E+03  0.85404209304E+03  0.00000000000E+00 0. -1.
        -13    1    3    3    0    0 -0.61823896466E+02  0.18522350647E+02  0.37161942758E+02  0.74473361931E+02  0.00000000000E+00 0.  1.
          2    1    6    6  502    0 -0.96992638228E+02  0.15895389490E+03 -0.23911171353E+03  0.30306488434E+03  0.00000000000E+00 0. -1.
          3    1    5    5  503    0  0.46648637386E+03 -0.91610190112E+02  0.21499878899E+02  0.47588255770E+03  0.00000000000E+00 0. -1.
         -4    1    5    5    0  503  0.29148404492E+03 -0.11830300418E+03  0.40622840257E+02  0.31718884658E+03  0.00000000000E+00 0.  1.
         -1    1    6    6    0  502 -0.22169228182E+02  0.69069165878E+01 -0.30918023497E+01  0.23425187655E+02  0.00000000000E+00 0.  1.
<mgrwt>
<rscale>  0 0.19895231E+04</rscale>
<asrwt>0</asrwt>
<pdfrwt beam="1">  1        2 0.12014228E+00 0.19895231E+04</pdfrwt>
<pdfrwt beam="2">  1       -2 0.19494648E+00 0.19895231E+04</pdfrwt>
<totfact> 0.47476771E+00</totfact>
</mgrwt>
</event>
<event>
12    1  0.2214165E-007  0.2209267E+04  0.7818608E-02  0.8514581E-01
         -4   -1    0    0    0  501 -0.00000000000E+00  0.00000000000E+00  0.18084408122E+04  0.18084408122E+04  0.00000000000E+00 0.  1.
          4   -1    0    0  501    0  0.00000000000E+00 -0.00000000000E+00 -0.67473302591E+03  0.67473302591E+03  0.00000000000E+00 0. -1.
         23    2    1    2    0    0  0.42218042545E+01 -0.76865896352E+03 -0.91937393407E+02  0.77940706125E+03  0.90379516380E+02 0.  0.
        254    2    1    2    0    0 -0.42218042545E+01  0.76865896352E+03  0.12256451797E+04  0.17037667768E+04  0.89986704439E+03 0.  0.
        -24    2    4    4    0    0  0.72413287244E+02  0.94184969132E+03  0.11382993589E+04  0.14814091143E+04  0.80765142376E+02 0.  0.
         24    2    4    4    0    0 -0.76635091498E+02 -0.17319072779E+03  0.87345820797E+02  0.22235766257E+03  0.77108185370E+02 0.  0.
         11    1    3    3    0    0 -0.49328694878E+01 -0.54692558040E+03 -0.24628945920E+02  0.54750206272E+03  0.00000000000E+00 0.  1.
        -11    1    3    3    0    0  0.91546737423E+01 -0.22173338312E+03 -0.67308447487E+02  0.23190499853E+03  0.00000000000E+00 0. -1.
          4    1    6    6  502    0 -0.33163775002E+02 -0.87675698176E+02  0.16927990924E+01  0.93753557755E+02  0.00000000000E+00 0. -1.
          3    1    5    5  503    0  0.10540736805E+02  0.31111665876E+03  0.43173585662E+03  0.53225983540E+03  0.00000000000E+00 0. -1.
         -4    1    5    5    0  503  0.61872550438E+02  0.63073303256E+03  0.70656350225E+03  0.94914927886E+03  0.00000000000E+00 0.  1.
         -3    1    6    6    0  502 -0.43471316496E+02 -0.85515029616E+02  0.85653021704E+02  0.12860410481E+03  0.00000000000E+00 0.  1.
<mgrwt>
<rscale>  0 0.22092666E+04</rscale>
<asrwt>0</asrwt>
<pdfrwt beam="1">  1        4 0.10380508E+00 0.22092666E+04</pdfrwt>
<pdfrwt beam="2">  1       -4 0.27822166E+00 0.22092666E+04</pdfrwt>
<totfact> 0.58168358E-02</totfact>
</mgrwt>
</event>
<event>
12    1  0.2214165E-007  0.1744790E+04  0.7818608E-02  0.8736223E-01
         -1   -1    0    0    0  501 -0.00000000000E+00  0.00000000000E+00  0.26649324200E+03  0.26649324200E+03  0.00000000000E+00 0. -1.
          1   -1    0    0  501    0  0.00000000000E+00 -0.00000000000E+00 -0.28558820597E+04  0.28558820597E+04  0.00000000000E+00 0.  1.
         23    2    1    2    0    0  0.49882216496E+03 -0.25044197243E+03 -0.15082804059E+04  0.16109006635E+04  0.92446908406E+02 0.  0.
        254    2    1    2    0    0 -0.49882216496E+03  0.25044197243E+03 -0.10811084118E+04  0.15114746382E+04  0.89678060316E+03 0.  0.
        -24    2    4    4    0    0  0.22630382912E+03  0.14847409444E+03 -0.49546596737E+03  0.57027503194E+03  0.80430761784E+02 0.  0.
         24    2    4    4    0    0 -0.72512599408E+03  0.10196787799E+03 -0.58564244442E+03  0.94119960631E+03  0.81697434351E+02 0.  0.
         11    1    3    3    0    0  0.26007667326E+03 -0.16348470317E+03 -0.92513601451E+03  0.97480447757E+03  0.00000000000E+00 0.  1.
        -11    1    3    3    0    0  0.23874549170E+03 -0.86957269253E+02 -0.58314439139E+03  0.63609618588E+03  0.00000000000E+00 0. -1.
          2    1    6    6  502    0 -0.43954824732E+03  0.86193293715E+02 -0.39740447612E+03  0.59880068741E+03  0.00000000000E+00 0. -1.
          3    1    5    5  503    0  0.55139746991E+02  0.77526848563E+02 -0.13757054877E+03  0.16726165082E+03  0.00000000000E+00 0. -1.
         -4    1    5    5    0  503  0.17116408212E+03  0.70947245877E+02 -0.35789541860E+03  0.40301338112E+03  0.00000000000E+00 0.  1.
         -1    1    6    6    0  502 -0.28557774676E+03  0.15774584271E+02 -0.18823796830E+03  0.34239891890E+03  0.00000000000E+00 0.  1.
<mgrwt>
<rscale>  0 0.17447903E+04</rscale>
<asrwt>0</asrwt>
<pdfrwt beam="1">  1        1 0.43936646E+00 0.17447903E+04</pdfrwt>
<pdfrwt beam="2">  1       -1 0.40998961E-01 0.17447903E+04</pdfrwt>
<totfact> 0.42063534E+00</totfact>
</mgrwt>
</event>
<event>
12    1  0.2214165E-007  0.1396673E+04  0.7818608E-02  0.8956230E-01
          2   -1    0    0  501    0  0.00000000000E+00  0.00000000000E+00  0.25149108694E+04  0.25149108694E+04  0.00000000000E+00 0. -1.
         -2   -1    0    0    0  501 -0.00000000000E+00 -0.00000000000E+00 -0.19391304300E+03  0.19391304300E+03  0.00000000000E+00 0.  1.
         23    2    1    2    0    0 -0.16413611705E+03  0.91810888944E+02 -0.38868021560E+01  0.20917929300E+03  0.91492978634E+02 0.  0.
        254    2    1    2    0    0  0.16413611705E+03 -0.91810888944E+02  0.23248846285E+04  0.24996446194E+04  0.89875735490E+03 0.  0.
        -24    2    4    4    0    0 -0.33193836622E+02 -0.13290870150E+03 -0.59611562812E+01  0.15868319201E+03  0.79864048976E+02 0.  0.
         24    2    4    4    0    0  0.19732995368E+03  0.41097812558E+02  0.23308457848E+04  0.23409614274E+04  0.81425985052E+02 0.  0.
         11    1    3    3    0    0 -0.42366807233E+02  0.57171310847E+02  0.31362598096E+02  0.77763215587E+02  0.00000000000E+00 0.  1.
        -11    1    3    3    0    0 -0.12176930982E+03  0.34639578097E+02 -0.35249400252E+02  0.13141607741E+03  0.00000000000E+00 0. -1.
          2    1    6    6  502    0  0.95613476929E+02  0.17235757124E+02  0.15662666381E+04  0.15692769641E+04  0.00000000000E+00 0. -1.
          3    1    5    5  503    0 -0.12355810186E+02 -0.76852888962E+02 -0.42414188161E+02  0.88645337974E+02  0.00000000000E+00 0. -1.
         -4    1    5    5    0  503 -0.20838026436E+02 -0.56055812540E+02  0.36453031880E+02  0.70037854040E+02  0.00000000000E+00 0.  1.
         -1    1    6    6    0  502  0.10171647675E+03  0.23862055434E+02  0.76457914669E+03  0.77168446329E+03  0.00000000000E+00 0.  1.
<mgrwt>
<rscale>  0 0.13966732E+04</rscale>
<asrwt>0</asrwt>
<pdfrwt beam="1">  1        2 0.38690934E+00 0.13966732E+04</pdfrwt>
<pdfrwt beam="2">  1       -2 0.29832778E-01 0.13966732E+04</pdfrwt>
<totfact> 0.34556350E+01</totfact>
</mgrwt>
</event>
<event>
12    1  0.2727833E-007  0.3231974E+04  0.7818608E-02  0.8180424E-01
         -1   -1    0    0    0  501 -0.00000000000E+00  0.00000000000E+00  0.16078499015E+04  0.16078499015E+04  0.00000000000E+00 0.  1.
          1   -1    0    0  501    0  0.00000000000E+00 -0.00000000000E+00 -0.16241651887E+04  0.16241651887E+04  0.00000000000E+00 0. -1.
         23    2    1    2    0    0 -0.12544400775E+04 -0.60714702919E+03 -0.53416189872E+03  0.14944142434E+04  0.75482275251E+02 0.  0.
        254    2    1    2    0    0  0.12544400775E+04  0.60714702919E+03  0.51784661153E+03  0.17376008467E+04  0.89935764100E+03 0.  0.
        -24    2    4    4    0    0  0.13577691965E+04  0.49451529318E+03  0.33428125209E+03  0.14853236805E+04  0.79749071373E+02 0.  0.
         24    2    4    4    0    0 -0.10332911902E+03  0.11263173600E+03  0.18356535944E+03  0.25227716616E+03  0.81146241979E+02 0.  0.
         13    1    3    3    0    0 -0.87408320742E+03 -0.39346785415E+03 -0.39127282150E+03  0.10353418887E+04  0.00000000000E+00 0. -1.
        -13    1    3    3    0    0 -0.38035687004E+03 -0.21367917503E+03 -0.14288907722E+03  0.45907235467E+03  0.00000000000E+00 0.  1.
          2    1    6    6  502    0 -0.41960153634E+02  0.67516944033E+02  0.14847285331E+03  0.16841431173E+03  0.00000000000E+00 0. -1.
          3    1    5    5  503    0  0.58307717140E+03  0.19661383566E+03  0.10486803933E+03  0.62420613090E+03  0.00000000000E+00 0. -1.
         -4    1    5    5    0  503  0.77469202509E+03  0.29790145752E+03  0.22941321275E+03  0.86111754965E+03  0.00000000000E+00 0.  1.
         -1    1    6    6    0  502 -0.61368965389E+02  0.45114791969E+02  0.35092506128E+02  0.83862854433E+02  0.00000000000E+00 0.  1.
<mgrwt>
<rscale>  0 0.32319739E+04</rscale>
<asrwt>0</asrwt>
<pdfrwt beam="1">  1        1 0.24987157E+00 0.32319739E+04</pdfrwt>
<pdfrwt beam="2">  1       -1 0.24736152E+00 0.32319739E+04</pdfrwt>
<totfact> 0.32511284E-01</totfact>
</mgrwt>
</event>
<event>
12    1  0.2214165E-007  0.2198117E+04  0.7818608E-02  0.8519212E-01
          1   -1    0    0  501    0  0.00000000000E+00  0.00000000000E+00  0.14442655623E+04  0.14442655623E+04  0.00000000000E+00 0. -1.
         -1   -1    0    0    0  501 -0.00000000000E+00 -0.00000000000E+00 -0.83636273807E+03  0.83636273807E+03  0.00000000000E+00 0.  1.
         23    2    1    2    0    0  0.70748896645E+02  0.31202292839E+03  0.11389767664E+04  0.11868469878E+04  0.94731113145E+02 0.  0.
        254    2    1    2    0    0 -0.70748896645E+02 -0.31202292839E+03 -0.53107394215E+03  0.10937813126E+04  0.90108507565E+03 0.  0.
        -24    2    4    4    0    0  0.30554786824E+03 -0.44128733524E+02  0.75395406293E+02  0.32750327869E+03  0.79164925011E+02 0.  0.
         24    2    4    4    0    0 -0.37629676489E+03 -0.26789419486E+03 -0.60646934844E+03  0.76627803391E+03  0.77526767956E+02 0.  0.
         13    1    3    3    0    0  0.33040107731E+02  0.26364446178E+03  0.10043914014E+04  0.10389427983E+04  0.00000000000E+00 0. -1.
        -13    1    3    3    0    0  0.37708788914E+02  0.48378466611E+02  0.13458536499E+03  0.14790418946E+03  0.00000000000E+00 0.  1.
          2    1    6    6  502    0 -0.15334838299E+03 -0.15419931156E+03 -0.30203880358E+03  0.37218354762E+03  0.00000000000E+00 0. -1.
          1    1    5    5  503    0  0.21756640309E+03 -0.12215188614E+02  0.83953744080E+02  0.23352212257E+03  0.00000000000E+00 0. -1.
         -2    1    5    5    0  503  0.87981465153E+02 -0.31913544910E+02 -0.85583377867E+01  0.93981156116E+02  0.00000000000E+00 0.  1.
         -1    1    6    6    0  502 -0.22294838190E+03 -0.11369488330E+03 -0.30443054486E+03  0.39409448629E+03  0.00000000000E+00 0.  1.
<mgrwt>
<rscale>  0 0.21981173E+04</rscale>
<asrwt>0</asrwt>
<pdfrwt beam="1">  1        1 0.22219470E+00 0.21981173E+04</pdfrwt>
<pdfrwt beam="2">  1       -1 0.12867119E+00 0.21981173E+04</pdfrwt>
<totfact> 0.33949804E+00</totfact>
</mgrwt>
</event>
<event>
12    1  0.2214165E-007  0.1330321E+04  0.7818608E-02  0.9005860E-01
         -2   -1    0    0    0  501 -0.00000000000E+00  0.00000000000E+00  0.93253297231E+03  0.93253297231E+03  0.00000000000E+00 0.  1.
          2   -1    0    0  501    0  0.00000000000E+00 -0.00000000000E+00 -0.47444819695E+03  0.47444819695E+03  0.00000000000E+00 0. -1.
         23    2    1    2    0    0  0.25695162161E+03 -0.43406116946E+02 -0.12574676132E+03  0.30375213518E+03  0.92438546106E+02 0.  0.
        254    2    1    2    0    0 -0.25695162161E+03  0.43406116946E+02  0.58383153669E+03  0.11032290341E+04  0.89908109288E+03 0.  0.
        -24    2    4    4    0    0 -0.10735920814E+03  0.40795452269E+03  0.46421556294E+02  0.43183652251E+03  0.79843153340E+02 0.  0.
         24    2    4    4    0    0 -0.14959241347E+03 -0.36454840574E+03  0.53740998040E+03  0.67139251157E+03  0.81761771414E+02 0.  0.
         11    1    3    3    0    0  0.15838182366E+03 -0.14579838519E+02 -0.27086455705E+02  0.16134140770E+03  0.00000000000E+00 0.  1.
        -11    1    3    3    0    0  0.98569797956E+02 -0.28826278427E+02 -0.98660305618E+02  0.14241072748E+03  0.00000000000E+00 0. -1.
          2    1    6    6  502    0 -0.10970722548E+03 -0.24817705455E+03  0.42797142659E+03  0.50674161829E+03  0.00000000000E+00 0. -1.
          3    1    5    5  503    0 -0.23078601370E+02  0.33511004384E+02 -0.14550017380E+02  0.43212408655E+02  0.00000000000E+00 0. -1.
         -4    1    5    5    0  503 -0.84280606770E+02  0.37444351830E+03  0.60971573674E+02  0.38862411386E+03  0.00000000000E+00 0.  1.
         -1    1    6    6    0  502 -0.39885187992E+02 -0.11637135119E+03  0.10943855381E+03  0.16465089328E+03  0.00000000000E+00 0.  1.
<mgrwt>
<rscale>  0 0.13303211E+04</rscale>
<asrwt>0</asrwt>
<pdfrwt beam="1">  1        2 0.72992031E-01 0.13303211E+04</pdfrwt>
<pdfrwt beam="2">  1       -2 0.14346661E+00 0.13303211E+04</pdfrwt>
<totfact> 0.21550168E+01</totfact>
</mgrwt>
</event>
<event>
12    1  0.2214165E-007  0.1127318E+04  0.7818608E-02  0.9178967E-01
          2   -1    0    0  501    0  0.00000000000E+00  0.00000000000E+00  0.42583112225E+03  0.42583112225E+03  0.00000000000E+00 0. -1.
         -2   -1    0    0    0  501 -0.00000000000E+00 -0.00000000000E+00 -0.74609747355E+03  0.74609747355E+03  0.00000000000E+00 0.  1.
         23    2    1    2    0    0  0.41867261357E+02  0.12015710488E+03  0.69808150789E+02  0.17144950585E+03  0.91275175780E+02 0.  0.
        254    2    1    2    0    0 -0.41867261357E+02 -0.12015710488E+03 -0.39007450210E+03  0.10004790899E+04  0.91247448995E+03 0.  0.
        -24    2    4    4    0    0 -0.33884420625E+03  0.22478058878E+03 -0.32833300068E+02  0.41619580556E+03  0.82457345170E+02 0.  0.
         24    2    4    4    0    0  0.29697694489E+03 -0.34493769366E+03 -0.35724120203E+03  0.58428328438E+03  0.81168723527E+02 0.  0.
         13    1    3    3    0    0 -0.95183681687E+01  0.55468312323E+02 -0.93295918284E+01  0.57047123400E+02  0.00000000000E+00 0.  1.
        -13    1    3    3    0    0  0.51385629526E+02  0.64688792561E+02  0.79137742617E+02  0.11440238245E+03  0.00000000000E+00 0. -1.
          2    1    6    6  502    0  0.23132179208E+03 -0.25468281311E+03 -0.22433406545E+03  0.41072969178E+03  0.00000000000E+00 0. -1.
          1    1    5    5  503    0 -0.21548741247E+03  0.97217387547E+02 -0.33348553474E+02  0.23874289810E+03  0.00000000000E+00 0. -1.
         -2    1    5    5    0  503 -0.12335679378E+03  0.12756320123E+03  0.51525340592E+00  0.17745290746E+03  0.00000000000E+00 0.  1.
         -1    1    6    6    0  502  0.65655152811E+02 -0.90254880545E+02 -0.13290713657E+03  0.17355359260E+03  0.00000000000E+00 0.  1.
<mgrwt>
<rscale>  0 0.11273181E+04</rscale>
<asrwt>0</asrwt>
<pdfrwt beam="1">  1        2 0.65512480E-01 0.11273181E+04</pdfrwt>
<pdfrwt beam="2">  1       -2 0.11478423E+00 0.11273181E+04</pdfrwt>
<totfact> 0.43484478E+01</totfact>
</mgrwt>
</event>
<event>
12    1  0.2214165E-007  0.2001599E+04  0.7818608E-02  0.8605873E-01
          1   -1    0    0  501    0  0.00000000000E+00  0.00000000000E+00  0.12636260517E+04  0.12636260517E+04  0.00000000000E+00 0. -1.
         -1   -1    0    0    0  501 -0.00000000000E+00 -0.00000000000E+00 -0.79263937088E+03  0.79263937088E+03  0.00000000000E+00 0.  1.
         23    2    1    2    0    0  0.79649427507E+03 -0.15109298169E+01  0.10829619849E+03  0.80884655204E+03  0.89995916627E+02 0.  0.
        254    2    1    2    0    0 -0.79649427507E+03  0.15109298169E+01  0.36269048228E+03  0.12474188705E+04  0.88887796655E+03 0.  0.
        -24    2    4    4    0    0  0.80772441576E+02  0.88487794597E+02  0.33112866773E+03  0.36115890805E+03  0.80220229096E+02 0.  0.
         24    2    4    4    0    0 -0.87726671665E+03 -0.86976864780E+02  0.31561814546E+02  0.88625996245E+03  0.85432463215E+02 0.  0.
         11    1    3    3    0    0  0.47235323596E+03  0.21369260134E+02  0.25535205256E+02  0.47352536522E+03  0.00000000000E+00 0.  1.
        -11    1    3    3    0    0  0.32414103911E+03 -0.22880189951E+02  0.82760993236E+02  0.33532118682E+03  0.00000000000E+00 0. -1.
          4    1    6    6  502    0 -0.78257115697E+03 -0.10090822785E+03  0.15469379406E+02  0.78920174092E+03  0.00000000000E+00 0. -1.
          1    1    5    5  503    0  0.28182538956E+02  0.65546551820E+02  0.26085953273E+03  0.27044093953E+03  0.00000000000E+00 0. -1.
         -2    1    5    5    0  503  0.52589902621E+02  0.22941242777E+02  0.70269135001E+02  0.90717968516E+02  0.00000000000E+00 0.  1.
         -3    1    6    6    0  502 -0.94695559673E+02  0.13931363065E+02  0.16092435140E+02  0.97058221534E+02  0.00000000000E+00 0.  1.
<mgrwt>
<rscale>  0 0.20015991E+04</rscale>
<asrwt>0</asrwt>
<pdfrwt beam="1">  1        1 0.19440401E+00 0.20015991E+04</pdfrwt>
<pdfrwt beam="2">  1       -1 0.12194452E+00 0.20015991E+04</pdfrwt>
<totfact> 0.53026204E+00</totfact>
</mgrwt>
</event>
<event>
12    1  0.2214165E-007  0.1659295E+04  0.7818608E-02  0.8784927E-01
         -2   -1    0    0    0  501 -0.00000000000E+00  0.00000000000E+00  0.95607434084E+03  0.95607434084E+03  0.00000000000E+00 0.  1.
          2   -1    0    0  501    0  0.00000000000E+00 -0.00000000000E+00 -0.71993884900E+03  0.71993884900E+03  0.00000000000E+00 0. -1.
         23    2    1    2    0    0 -0.30481545914E+02  0.57722071977E+03  0.26122343547E+02  0.58596584760E+03  0.92524125239E+02 0.  0.
        254    2    1    2    0    0  0.30481545914E+02 -0.57722071977E+03  0.21001314829E+03  0.10900473422E+04  0.89999155656E+03 0.  0.
        -24    2    4    4    0    0 -0.26085254010E+02  0.91692856208E+02 -0.24559441702E+03  0.27485201488E+03  0.78351720163E+02 0.  0.
         24    2    4    4    0    0  0.56566799923E+02 -0.66891357597E+03  0.45560756531E+03  0.81519532736E+03  0.79498384894E+02 0.  0.
         13    1    3    3    0    0 -0.47599243727E+02  0.14457047986E+03  0.13342920884E+02  0.15278856367E+03  0.00000000000E+00 0.  1.
        -13    1    3    3    0    0  0.17117697814E+02  0.43265023990E+03  0.12779422662E+02  0.43317728393E+03  0.00000000000E+00 0. -1.
          4    1    6    6  502    0 -0.83807900148E+01 -0.68783592212E+02  0.24801878063E+02  0.73597237409E+02  0.00000000000E+00 0. -1.
          3    1    5    5  503    0 -0.32513284450E+02  0.61700364726E+02 -0.78672491248E+02  0.10513519654E+03  0.00000000000E+00 0. -1.
         -4    1    5    5    0  503  0.64280304407E+01  0.29992491481E+02 -0.16692192577E+03  0.16971681833E+03  0.00000000000E+00 0.  1.
         -3    1    6    6    0  502  0.64947589938E+02 -0.60012998376E+03  0.43080568725E+03  0.74159808995E+03  0.00000000000E+00 0.  1.
<mgrwt>
<rscale>  0 0.16592951E+04</rscale>
<asrwt>0</asrwt>
<pdfrwt beam="1">  1        2 0.11075982E+00 0.16592951E+04</pdfrwt>
<pdfrwt beam="2">  1       -2 0.14708836E+00 0.16592951E+04</pdfrwt>
<totfact> 0.11902466E+01</totfact>
</mgrwt>
</event>
<event>
12    1  0.2329359E-007  0.2781400E+04  0.7818608E-02  0.8309066E-01
         -2   -1    0    0    0  501 -0.00000000000E+00  0.00000000000E+00  0.87362955017E+03  0.87362955017E+03  0.00000000000E+00 0.  1.
          2   -1    0    0  501    0  0.00000000000E+00 -0.00000000000E+00 -0.22138065688E+04  0.22138065688E+04  0.00000000000E+00 0. -1.
         23    2    1    2    0    0  0.12408986540E+04  0.55132389320E+02 -0.68755457196E+03  0.14226573539E+04  0.91398071773E+02 0.  0.
        254    2    1    2    0    0 -0.12408986540E+04 -0.55132389320E+02 -0.65262244664E+03  0.16647787650E+04  0.89593706740E+03 0.  0.
        -24    2    4    4    0    0 -0.42781352951E+03  0.24415567958E+03 -0.61672366025E+03  0.79329758185E+03  0.79602564972E+02 0.  0.
         24    2    4    4    0    0 -0.81308512446E+03 -0.29928806890E+03 -0.35898786393E+02  0.87148118315E+03  0.86660036382E+02 0.  0.
         11    1    3    3    0    0  0.78861896418E+03  0.67249743107E+02 -0.47146442498E+03  0.92126060517E+03  0.00000000000E+00 0. -1.
        -11    1    3    3    0    0  0.45227968979E+03 -0.12117353788E+02 -0.21609014699E+03  0.50139674878E+03  0.00000000000E+00 0.  1.
          4    1    6    6  502    0 -0.38145720855E+03 -0.16315610167E+03  0.20517555005E+02  0.41539196614E+03  0.00000000000E+00 0. -1.
          1    1    5    5  503    0 -0.30958406344E+03  0.13638493929E+03 -0.39878811301E+03  0.52294847077E+03  0.00000000000E+00 0. -1.
         -2    1    5    5    0  503 -0.11822946607E+03  0.10777074029E+03 -0.21793554724E+03  0.27034911108E+03  0.00000000000E+00 0.  1.
         -3    1    6    6    0  502 -0.43162791591E+03 -0.13613196724E+03 -0.56416341399E+02  0.45608921701E+03  0.00000000000E+00 0.  1.
<mgrwt>
<rscale>  0 0.27814002E+04</rscale>
<asrwt>0</asrwt>
<pdfrwt beam="1">  1        2 0.34058562E+00 0.27814002E+04</pdfrwt>
<pdfrwt beam="2">  1       -2 0.13440455E+00 0.27814002E+04</pdfrwt>
<totfact> 0.17635810E+00</totfact>
</mgrwt>
</event>
<event>
12    1  0.2214165E-007  0.2041950E+04  0.7818608E-02  0.8587255E-01
         -2   -1    0    0    0  501 -0.00000000000E+00  0.00000000000E+00  0.43860906817E+03  0.43860906817E+03  0.00000000000E+00 0.  1.
          2   -1    0    0  501    0  0.00000000000E+00 -0.00000000000E+00 -0.23765815959E+04  0.23765815959E+04  0.00000000000E+00 0. -1.
         23    2    1    2    0    0  0.75492453091E+03  0.58650454757E+02 -0.12062657733E+04  0.14273891925E+04  0.94930858340E+02 0.  0.
        254    2    1    2    0    0 -0.75492453091E+03 -0.58650454757E+02 -0.73170675446E+03  0.13878014716E+04  0.90401727130E+03 0.  0.
        -24    2    4    4    0    0 -0.23038247157E+03 -0.67926414466E+02  0.19508978760E+03  0.31972623891E+03  0.80465903548E+02 0.  0.
         24    2    4    4    0    0 -0.52454205934E+03  0.92759597094E+01 -0.92679654206E+03  0.10680752327E+04  0.81255503469E+02 0.  0.
         11    1    3    3    0    0  0.53635072840E+03  0.36667896431E+01 -0.80928819930E+03  0.97089285646E+03  0.00000000000E+00 0. -1.
        -11    1    3    3    0    0  0.21857380251E+03  0.54983665114E+02 -0.39697757400E+03  0.45649633605E+03  0.00000000000E+00 0.  1.
          2    1    6    6  502    0 -0.16610204850E+03 -0.33363212168E+02 -0.31780323364E+03  0.36014148575E+03  0.00000000000E+00 0. -1.
          1    1    5    5  503    0  0.45797245940E+01 -0.26448667686E+01 -0.25117957971E+01  0.58547686296E+01  0.00000000000E+00 0. -1.
         -2    1    5    5    0  503 -0.23496219616E+03 -0.65281547698E+02  0.19760158340E+03  0.31387147028E+03  0.00000000000E+00 0.  1.
         -1    1    6    6    0  502 -0.35844001084E+03  0.42639171877E+02 -0.60899330841E+03  0.70793374693E+03  0.00000000000E+00 0.  1.
<mgrwt>
<rscale>  0 0.20419503E+04</rscale>
<asrwt>0</asrwt>
<pdfrwt beam="1">  1        2 0.36562793E+00 0.20419503E+04</pdfrwt>
<pdfrwt beam="2">  1       -2 0.67478319E-01 0.20419503E+04</pdfrwt>
<totfact> 0.76458866E+00</totfact>
</mgrwt>
</event>
<event>
12    1  0.2214165E-007  0.2066509E+04  0.7818608E-02  0.8576142E-01
         -1   -1    0    0    0  501 -0.00000000000E+00  0.00000000000E+00  0.15228523965E+04  0.15228523965E+04  0.00000000000E+00 0.  1.
          1   -1    0    0  501    0  0.00000000000E+00 -0.00000000000E+00 -0.70106265464E+03  0.70106265464E+03  0.00000000000E+00 0. -1.
         23    2    1    2    0    0  0.56684102716E+03  0.56908620379E+03  0.85994277763E+02  0.81110205713E+03  0.72963510448E+02 0.  0.
        254    2    1    2    0    0 -0.56684102716E+03 -0.56908620379E+03  0.73579546405E+03  0.14128129940E+04  0.89970980520E+03 0.  0.
        -24    2    4    4    0    0 -0.52565995051E+03 -0.30742572119E+03 -0.13145363114E+02  0.61447640495E+03  0.81114080469E+02 0.  0.
         24    2    4    4    0    0 -0.41181076651E+02 -0.26166048260E+03  0.74894082717E+03  0.79833658901E+03  0.79163486089E+02 0.  0.
         13    1    3    3    0    0  0.43531377561E+03  0.41179312154E+03  0.90460869838E+02  0.60601553376E+03  0.00000000000E+00 0. -1.
        -13    1    3    3    0    0  0.13152725155E+03  0.15729308226E+03 -0.44665920758E+01  0.20508652337E+03  0.00000000000E+00 0.  1.
          4    1    6    6  502    0 -0.82625827082E+01 -0.17651012975E+02  0.16230012814E+02  0.25362212995E+02  0.00000000000E+00 0. -1.
          1    1    5    5  503    0 -0.18137814880E+03 -0.63026353094E+02 -0.94897948377E+01  0.19225090442E+03  0.00000000000E+00 0. -1.
         -2    1    5    5    0  503 -0.34428180171E+03 -0.24439936810E+03 -0.36555682763E+01  0.42222550053E+03  0.00000000000E+00 0.  1.
         -3    1    6    6    0  502 -0.32918493942E+02 -0.24400946962E+03  0.73271081435E+03  0.77297437602E+03  0.00000000000E+00 0.  1.
<mgrwt>
<rscale>  0 0.20665091E+04</rscale>
<asrwt>0</asrwt>
<pdfrwt beam="1">  1        1 0.10785579E+00 0.20665091E+04</pdfrwt>
<pdfrwt beam="2">  1       -1 0.23428498E+00 0.20665091E+04</pdfrwt>
<totfact> 0.22165360E+00</totfact>
</mgrwt>
</event>
<event>
12    1  0.2214165E-007  0.1264368E+04  0.7818608E-02  0.9058309E-01
         -1   -1    0    0    0  501 -0.00000000000E+00  0.00000000000E+00  0.15750234370E+03  0.15750234370E+03  0.00000000000E+00 0.  1.
          1   -1    0    0  501    0  0.00000000000E+00 -0.00000000000E+00 -0.25374630836E+04  0.25374630836E+04  0.00000000000E+00 0. -1.
         23    2    1    2    0    0  0.15975843647E+03  0.19193546949E+03 -0.23377820733E+03  0.35451717936E+03  0.93103156567E+02 0.  0.
        254    2    1    2    0    0 -0.15975843647E+03 -0.19193546949E+03 -0.21461825326E+04  0.23404482480E+04  0.89957576433E+03 0.  0.
        -24    2    4    4    0    0 -0.20081957767E+03  0.17869760108E+03 -0.18090591083E+04  0.18306009149E+04  0.78380590106E+02 0.  0.
         24    2    4    4    0    0  0.41061141198E+02 -0.37063307057E+03 -0.33712342432E+03  0.50984733310E+03  0.85071790442E+02 0.  0.
         13    1    3    3    0    0  0.63680543056E+02  0.44442400599E+02 -0.12632857608E+03  0.14828771921E+03  0.00000000000E+00 0. -1.
        -13    1    3    3    0    0  0.96077893419E+02  0.14749306889E+03 -0.10744963125E+03  0.20622946014E+03  0.00000000000E+00 0.  1.
          4    1    6    6  502    0  0.52089486288E+02 -0.22285040396E+03 -0.24544876699E+03  0.33559009870E+03  0.00000000000E+00 0. -1.
          1    1    5    5  503    0 -0.20250261545E+03  0.15257464434E+03 -0.16142169454E+04  0.16340081635E+04  0.00000000000E+00 0. -1.
         -2    1    5    5    0  503  0.16830377800E+01  0.26122956734E+02 -0.19484216287E+03  0.19659275144E+03  0.00000000000E+00 0.  1.
         -3    1    6    6    0  502 -0.11028345090E+02 -0.14778266661E+03 -0.91674657330E+02  0.17425723440E+03  0.00000000000E+00 0.  1.
<mgrwt>
<rscale>  0 0.12643676E+04</rscale>
<asrwt>0</asrwt>
<pdfrwt beam="1">  1        1 0.39037893E+00 0.12643676E+04</pdfrwt>
<pdfrwt beam="2">  1       -1 0.24231130E-01 0.12643676E+04</pdfrwt>
<totfact> 0.18676993E+01</totfact>
</mgrwt>
</event>
<event>
12    1  0.4232035E-007  0.2681982E+04  0.7818608E-02  0.8340875E-01
         -1   -1    0    0    0  501 -0.00000000000E+00  0.00000000000E+00  0.12489277216E+04  0.12489277216E+04  0.00000000000E+00 0.  1.
          1   -1    0    0  501    0  0.00000000000E+00 -0.00000000000E+00 -0.14398411022E+04  0.14398411022E+04  0.00000000000E+00 0. -1.
         23    2    1    2    0    0 -0.38656182876E+03  0.93529827188E+03  0.53695103790E+03  0.11493656314E+04  0.92260677457E+02 0.  0.
        254    2    1    2    0    0  0.38656182876E+03 -0.93529827188E+03 -0.72786441846E+03  0.15394031925E+04  0.90319581068E+03 0.  0.
        -24    2    4    4    0    0 -0.35189438619E+01 -0.69278267313E+03 -0.27005416375E+02  0.69804168387E+03  0.81072096032E+02 0.  0.
         24    2    4    4    0    0  0.39008077263E+03 -0.24251559875E+03 -0.70085900209E+03  0.84136150858E+03  0.75558073731E+02 0.  0.
         11    1    3    3    0    0 -0.18070436258E+03  0.39072721017E+03  0.18102292631E+03  0.46700226902E+03  0.00000000000E+00 0. -1.
        -11    1    3    3    0    0 -0.20585746618E+03  0.54457106171E+03  0.35592811159E+03  0.68236336234E+03  0.00000000000E+00 0.  1.
          4    1    6    6  502    0  0.41226207608E+01 -0.18904012646E+02 -0.32588171827E+02  0.37899164095E+02  0.00000000000E+00 0. -1.
          1    1    5    5  503    0 -0.73126034059E+01 -0.37443694636E+01  0.17233067993E+01  0.83942991117E+01  0.00000000000E+00 0. -1.
         -2    1    5    5    0  503  0.37936595440E+01 -0.68903830367E+03 -0.28728723174E+02  0.68964738476E+03  0.00000000000E+00 0.  1.
         -3    1    6    6    0  502  0.38595815187E+03 -0.22361158611E+03 -0.66827083026E+03  0.80346234449E+03  0.00000000000E+00 0.  1.
<mgrwt>
<rscale>  0 0.26819825E+04</rscale>
<asrwt>0</asrwt>
<pdfrwt beam="1">  1        1 0.22151402E+00 0.26819825E+04</pdfrwt>
<pdfrwt beam="2">  1       -1 0.19214273E+00 0.26819825E+04</pdfrwt>
<totfact> 0.10754256E+00</totfact>
</mgrwt>
</event>
<event>
12    1  0.2214165E-007  0.1142017E+04  0.7818608E-02  0.9165180E-01
         -1   -1    0    0    0  501 -0.00000000000E+00  0.00000000000E+00  0.78697270961E+03  0.78697270961E+03  0.00000000000E+00 0.  1.
          1   -1    0    0  501    0  0.00000000000E+00 -0.00000000000E+00 -0.41431013638E+03  0.41431013638E+03  0.00000000000E+00 0. -1.
         23    2    1    2    0    0 -0.19202446640E+03 -0.19436974788E+02  0.43391853761E+02  0.21838594124E+03  0.92511484014E+02 0.  0.
        254    2    1    2    0    0  0.19202446640E+03  0.19436974788E+02  0.32927071947E+03  0.98289690475E+03  0.90576814196E+03 0.  0.
        -24    2    4    4    0    0 -0.11235854571E+03  0.27078145402E+03 -0.16376737963E+03  0.34618887422E+03  0.84142399347E+02 0.  0.
         24    2    4    4    0    0  0.30438301212E+03 -0.25134447924E+03  0.49303809910E+03  0.63670803053E+03  0.80544917082E+02 0.  0.
         11    1    3    3    0    0 -0.12040639309E+03  0.12536157702E+02 -0.13047979976E+02  0.12175838587E+03  0.00000000000E+00 0. -1.
        -11    1    3    3    0    0 -0.71618073308E+02 -0.31973132491E+02  0.56439833737E+02  0.96627555376E+02  0.00000000000E+00 0.  1.
          4    1    6    6  502    0  0.87164469439E+02 -0.11982910061E+03  0.20092394158E+03  0.24965393726E+03  0.00000000000E+00 0. -1.
          1    1    5    5  503    0 -0.28958815115E+01 -0.47344795055E+01 -0.11809991215E+02  0.13049035153E+02  0.00000000000E+00 0. -1.
         -2    1    5    5    0  503 -0.10946266420E+03  0.27551593353E+03 -0.15195738841E+03  0.33313983907E+03  0.00000000000E+00 0.  1.
         -3    1    6    6    0  502  0.21721854268E+03 -0.13151537863E+03  0.29211415751E+03  0.38705409327E+03  0.00000000000E+00 0.  1.
<mgrwt>
<rscale>  0 0.11420171E+04</rscale>
<asrwt>0</asrwt>
<pdfrwt beam="1">  1        1 0.63740021E-01 0.11420171E+04</pdfrwt>
<pdfrwt beam="2">  1       -1 0.12107272E+00 0.11420171E+04</pdfrwt>
<totfact> 0.34464304E+01</totfact>
</mgrwt>
</event>
<event>
12    1  0.2214165E-007  0.1882958E+04  0.7818608E-02  0.8663386E-01
         -2   -1    0    0    0  501 -0.00000000000E+00  0.00000000000E+00  0.46795400727E+03  0.46795400727E+03  0.00000000000E+00 0.  1.
          2   -1    0    0  501    0  0.00000000000E+00 -0.00000000000E+00 -0.18941656172E+04  0.18941656172E+04  0.00000000000E+00 0. -1.
         23    2    1    2    0    0 -0.53752422042E+03 -0.45870192273E+03 -0.35983111161E+03  0.79788457333E+03  0.88326791026E+02 0.  0.
        254    2    1    2    0    0  0.53752422042E+03  0.45870192273E+03 -0.10663804983E+04  0.15642350512E+04  0.90018008564E+03 0.  0.
        -24    2    4    4    0    0 -0.12147708075E+03  0.43478108218E+03 -0.29204478848E+03  0.54396446767E+03  0.82558543120E+02 0.  0.
         24    2    4    4    0    0  0.65900130117E+03  0.23920840554E+02 -0.77433570987E+03  0.10202705835E+04  0.80630951921E+02 0.  0.
         13    1    3    3    0    0 -0.40702829055E+03 -0.29449677016E+03 -0.25388496893E+03  0.56290137182E+03  0.00000000000E+00 0. -1.
        -13    1    3    3    0    0 -0.13049592987E+03 -0.16420515257E+03 -0.10594614268E+03  0.23498320151E+03  0.00000000000E+00 0.  1.
          4    1    6    6  502    0  0.28136500631E+03 -0.23256427219E+02 -0.29671803054E+03  0.40957138307E+03  0.00000000000E+00 0. -1.
          1    1    5    5  503    0 -0.57433531174E+02  0.29612832486E+03 -0.22905044991E+03  0.37875414703E+03  0.00000000000E+00 0. -1.
         -2    1    5    5    0  503 -0.64043549581E+02  0.13865275732E+03 -0.62994338566E+02  0.16521032064E+03  0.00000000000E+00 0.  1.
         -3    1    6    6    0  502  0.37763629487E+03  0.47177267773E+02 -0.47761767933E+03  0.61069920043E+03  0.00000000000E+00 0.  1.
<mgrwt>
<rscale>  0 0.18829577E+04</rscale>
<asrwt>0</asrwt>
<pdfrwt beam="1">  1        2 0.29141010E+00 0.18829577E+04</pdfrwt>
<pdfrwt beam="2">  1       -2 0.71992923E-01 0.18829577E+04</pdfrwt>
<totfact> 0.12539703E+01</totfact>
</mgrwt>
</event>
<event>
12    1  0.2214165E-007  0.1719352E+04  0.7818608E-02  0.8750403E-01
         -2   -1    0    0    0  501 -0.00000000000E+00  0.00000000000E+00  0.32561620174E+03  0.32561620174E+03  0.00000000000E+00 0. -1.
          2   -1    0    0  501    0  0.00000000000E+00 -0.00000000000E+00 -0.22696750775E+04  0.22696750775E+04  0.00000000000E+00 0.  1.
         23    2    1    2    0    0 -0.30864510700E+03  0.52529980185E+03 -0.53857917646E+03  0.81833004610E+03  0.91623420199E+02 0.  0.
        254    2    1    2    0    0  0.30864510700E+03 -0.52529980185E+03 -0.14054796993E+04  0.17769612332E+04  0.90056446468E+03 0.  0.
        -24    2    4    4    0    0  0.28854378714E+03  0.27133839711E+02 -0.43369273975E+02  0.30461127311E+03  0.83146686222E+02 0.  0.
         24    2    4    4    0    0  0.20101319865E+02 -0.55243364156E+03 -0.13621104253E+04  0.14723499600E+04  0.82961452608E+02 0.  0.
         13    1    3    3    0    0 -0.19811735458E+03  0.29562232444E+03 -0.25993543205E+03  0.44069203956E+03  0.00000000000E+00 0. -1.
        -13    1    3    3    0    0 -0.11052775242E+03  0.22967747741E+03 -0.27864374441E+03  0.37763800654E+03  0.00000000000E+00 0.  1.
          2    1    6    6  502    0  0.66666284673E+01 -0.32768384152E+03 -0.91120544646E+03  0.96835763517E+03  0.00000000000E+00 0. -1.
          3    1    5    5  503    0  0.18187739784E+03 -0.16806174571E+01  0.94810418180E+01  0.18213210171E+03  0.00000000000E+00 0. -1.
         -4    1    5    5    0  503  0.10666638929E+03  0.28814457168E+02 -0.52850315793E+02  0.12247917140E+03  0.00000000000E+00 0.  1.
         -1    1    6    6    0  502  0.13434691398E+02 -0.22474980004E+03 -0.45090497888E+03  0.50399232488E+03  0.00000000000E+00 0.  1.
<mgrwt>
<rscale>  0 0.17193522E+04</rscale>
<asrwt>0</asrwt>
<pdfrwt beam="1">  1        2 0.34918080E+00 0.17193522E+04</pdfrwt>
<pdfrwt beam="2">  1       -2 0.50094798E-01 0.17193522E+04</pdfrwt>
<totfact> 0.16904365E+01</totfact>
</mgrwt>
</event>
<event>
12    1  0.2214165E-007  0.2334043E+04  0.7818608E-02  0.8464618E-01
         -2   -1    0    0    0  501 -0.00000000000E+00  0.00000000000E+00  0.68337292020E+03  0.68337292020E+03  0.00000000000E+00 0. -1.
          2   -1    0    0  501    0  0.00000000000E+00 -0.00000000000E+00 -0.19929668217E+04  0.19929668217E+04  0.00000000000E+00 0.  1.
         23    2    1    2    0    0  0.96125406498E+03  0.23724409422E+03 -0.60037064556E+03  0.11620339513E+04  0.97897161489E+02 0.  0.
        254    2    1    2    0    0 -0.96125406498E+03 -0.23724409422E+03 -0.70922325596E+03  0.15143057906E+04  0.89990569676E+03 0.  0.
        -24    2    4    4    0    0 -0.50380402355E+03 -0.40562430745E+03 -0.20763931520E+01  0.65171253204E+03  0.79845726670E+02 0.  0.
         24    2    4    4    0    0 -0.45745004143E+03  0.16838021324E+03 -0.70714686281E+03  0.86259325859E+03  0.79987546335E+02 0.  0.
         11    1    3    3    0    0  0.22422284863E+03  0.32477230930E+02 -0.17875772691E+03  0.28859137427E+03  0.00000000000E+00 0.  1.
        -11    1    3    3    0    0  0.73703121635E+03  0.20476686329E+03 -0.42161291865E+03  0.87344257702E+03  0.00000000000E+00 0. -1.
          4    1    6    6  502    0 -0.39098383741E+03  0.14888945567E+03 -0.64896429642E+03  0.77213411345E+03  0.00000000000E+00 0. -1.
          1    1    5    5  503    0 -0.42849107601E+03 -0.31077984707E+03 -0.17544530840E+02  0.52961922749E+03  0.00000000000E+00 0. -1.
         -2    1    5    5    0  503 -0.75312947540E+02 -0.94844460378E+02  0.15468137688E+02  0.12209330455E+03  0.00000000000E+00 0.  1.
         -3    1    6    6    0  502 -0.66466204024E+02  0.19490757562E+02 -0.58182566385E+02  0.90459145137E+02  0.00000000000E+00 0.  1.
<mgrwt>
<rscale>  0 0.23340433E+04</rscale>
<asrwt>0</asrwt>
<pdfrwt beam="1">  1        2 0.30661028E+00 0.23340433E+04</pdfrwt>
<pdfrwt beam="2">  1       -2 0.10513430E+00 0.23340433E+04</pdfrwt>
<totfact> 0.44664947E+00</totfact>
</mgrwt>
</event>
<event>
12    1  0.2214165E-007  0.1329458E+04  0.7818608E-02  0.9006525E-01
          2   -1    0    0  501    0  0.00000000000E+00  0.00000000000E+00  0.11447869902E+04  0.11447869902E+04  0.00000000000E+00 0. -1.
         -2   -1    0    0    0  501 -0.00000000000E+00 -0.00000000000E+00 -0.38597976722E+03  0.38597976722E+03  0.00000000000E+00 0.  1.
         23    2    1    2    0    0  0.45371778306E+02 -0.24505277987E+03  0.50123628264E+03  0.56645604201E+03  0.86747756820E+02 0.  0.
        254    2    1    2    0    0 -0.45371778306E+02  0.24505277987E+03  0.25757094034E+03  0.96431071541E+03  0.89523343512E+03 0.  0.
        -24    2    4    4    0    0 -0.30775416020E+03  0.31466653453E+03  0.44020206024E+03  0.62768209464E+03  0.80494142758E+02 0.  0.
         24    2    4    4    0    0  0.26238238190E+03 -0.69613754659E+02 -0.18263111990E+03  0.33662862077E+03  0.79209299927E+02 0.  0.
         11    1    3    3    0    0 -0.23875464880E+02 -0.32748260758E+02  0.73327438507E+02  0.83781857487E+02  0.00000000000E+00 0.  1.
        -11    1    3    3    0    0  0.69247243185E+02 -0.21230451912E+03  0.42790884413E+03  0.48267418453E+03  0.00000000000E+00 0. -1.
          4    1    6    6  502    0  0.22369506418E+03 -0.83645362406E+02 -0.17142416189E+03  0.29397665158E+03  0.00000000000E+00 0. -1.
          3    1    5    5  503    0 -0.97176812768E+02  0.14442881431E+03  0.20568836760E+03  0.26946376363E+03  0.00000000000E+00 0. -1.
         -4    1    5    5    0  503 -0.21057734743E+03  0.17023772022E+03  0.23451369264E+03  0.35821833102E+03  0.00000000000E+00 0.  1.
         -3    1    6    6    0  502  0.38687317714E+02  0.14031607747E+02 -0.11206958007E+02  0.42651969188E+02  0.00000000000E+00 0.  1.
<mgrwt>
<rscale>  0 0.13294580E+04</rscale>
<asrwt>0</asrwt>
<pdfrwt beam="1">  1        2 0.17612107E+00 0.13294580E+04</pdfrwt>
<pdfrwt beam="2">  1       -2 0.59381503E-01 0.13294580E+04</pdfrwt>
<totfact> 0.52959927E+01</totfact>
</mgrwt>
</event>
<event>
12    1  0.2214165E-007  0.1573602E+04  0.7818608E-02  0.8836932E-01
          1   -1    0    0  501    0  0.00000000000E+00  0.00000000000E+00  0.94871630274E+03  0.94871630274E+03  0.00000000000E+00 0. -1.
         -1   -1    0    0    0  501 -0.00000000000E+00 -0.00000000000E+00 -0.65251922024E+03  0.65251922024E+03  0.00000000000E+00 0.  1.
         23    2    1    2    0    0  0.29547276901E+03 -0.42537091496E+03  0.21152322809E+02  0.52627616099E+03  0.90964852212E+02 0.  0.
        254    2    1    2    0    0 -0.29547276901E+03  0.42537091496E+03  0.27504475969E+03  0.10749593620E+04  0.90091255824E+03 0.  0.
        -24    2    4    4    0    0 -0.12517079239E+03  0.55298278141E+03  0.49631436661E+03  0.75773088805E+03  0.79815189023E+02 0.  0.
         24    2    4    4    0    0 -0.17030197662E+03 -0.12761186644E+03 -0.22126960692E+03  0.31722847395E+03  0.79913165623E+02 0.  0.
         11    1    3    3    0    0  0.89673924098E+02 -0.20803008837E+03  0.92522832895E+01  0.22672347712E+03  0.00000000000E+00 0. -1.
        -11    1    3    3    0    0  0.20579884491E+03 -0.21734082659E+03  0.11900039519E+02  0.29955268387E+03  0.00000000000E+00 0.  1.
          2    1    6    6  502    0 -0.84271443911E+01 -0.40733675536E+02 -0.58490340266E+02  0.71773038041E+02  0.00000000000E+00 0. -1.
          3    1    5    5  503    0 -0.94475928192E+02  0.34456080675E+03  0.26478508903E+03  0.44470101634E+03  0.00000000000E+00 0. -1.
         -4    1    5    5    0  503 -0.30694864201E+02  0.20842197465E+03  0.23152927759E+03  0.31302987171E+03  0.00000000000E+00 0.  1.
         -1    1    6    6    0  502 -0.16187483223E+03 -0.86878190909E+02 -0.16277926665E+03  0.24545543591E+03  0.00000000000E+00 0.  1.
<mgrwt>
<rscale>  0 0.15736018E+04</rscale>
<asrwt>0</asrwt>
<pdfrwt beam="1">  1        1 0.14595635E+00 0.15736018E+04</pdfrwt>
<pdfrwt beam="2">  1       -1 0.10038757E+00 0.15736018E+04</pdfrwt>
<totfact> 0.15096681E+01</totfact>
</mgrwt>
</event>
<event>
12    1  0.2214165E-007  0.1803990E+04  0.7818608E-02  0.8704181E-01
          2   -1    0    0  501    0  0.00000000000E+00  0.00000000000E+00  0.12349041282E+04  0.12349041282E+04  0.00000000000E+00 0. -1.
         -2   -1    0    0    0  501 -0.00000000000E+00 -0.00000000000E+00 -0.65883246072E+03  0.65883246072E+03  0.00000000000E+00 0.  1.
         23    2    1    2    0    0  0.10748574951E+02  0.66345466607E+03  0.34966105111E+03  0.75539658571E+03  0.89852797621E+02 0.  0.
        254    2    1    2    0    0 -0.10748574951E+02 -0.66345466607E+03  0.22641061636E+03  0.11383400032E+04  0.89681021954E+03 0.  0.
        -24    2    4    4    0    0 -0.15971779431E+03 -0.84386364432E+03  0.22631607589E+03  0.89101313580E+03  0.71202653875E+02 0.  0.
         24    2    4    4    0    0  0.14896921936E+03  0.18040897825E+03  0.94540462711E-01  0.24732686740E+03  0.80195652300E+02 0.  0.
         11    1    3    3    0    0 -0.29858816409E+02  0.42552994457E+03  0.24858321381E+03  0.49372147698E+03  0.00000000000E+00 0. -1.
        -11    1    3    3    0    0  0.40607391360E+02  0.23792472150E+03  0.10107783730E+03  0.26167510873E+03  0.00000000000E+00 0.  1.
          2    1    6    6  502    0  0.15010342634E+03  0.14242791351E+03  0.12649688919E+02  0.20730837845E+03  0.00000000000E+00 0. -1.
          1    1    5    5  503    0 -0.15936053866E+03 -0.74710830037E+03  0.18626872771E+03  0.78629678410E+03  0.00000000000E+00 0. -1.
         -2    1    5    5    0  503 -0.35725564711E+00 -0.96755343952E+02  0.40047348189E+02  0.10471635169E+03  0.00000000000E+00 0.  1.
         -1    1    6    6    0  502 -0.11342069853E+01  0.37981064748E+02 -0.12555148456E+02  0.40018488947E+02  0.00000000000E+00 0.  1.
<mgrwt>
<rscale>  0 0.18039899E+04</rscale>
<asrwt>0</asrwt>
<pdfrwt beam="1">  1        2 0.18998525E+00 0.18039899E+04</pdfrwt>
<pdfrwt beam="2">  1       -2 0.10135884E+00 0.18039899E+04</pdfrwt>
<totfact> 0.13632537E+01</totfact>
</mgrwt>
</event>
<event>
12    1  0.2214165E-007  0.1267689E+04  0.7818608E-02  0.9055588E-01
          2   -1    0    0  501    0  0.00000000000E+00  0.00000000000E+00  0.45457856379E+03  0.45457856379E+03  0.00000000000E+00 0. -1.
         -2   -1    0    0    0  501 -0.00000000000E+00 -0.00000000000E+00 -0.88380449140E+03  0.88380449140E+03  0.00000000000E+00 0.  1.
         23    2    1    2    0    0  0.21773586690E+03  0.19335495049E+03 -0.33210760316E+02  0.30784259806E+03  0.94175718560E+02 0.  0.
        254    2    1    2    0    0 -0.21773586690E+03 -0.19335495049E+03 -0.39601516730E+03  0.10305404571E+04  0.90575414791E+03 0.  0.
        -24    2    4    4    0    0  0.20886733416E+03  0.10162629388E+03 -0.44011414496E+03  0.50399897878E+03  0.79756147969E+02 0.  0.
         24    2    4    4    0    0 -0.42660320105E+03 -0.29498124437E+03  0.44098977661E+02  0.52654147835E+03  0.79353531208E+02 0.  0.
         11    1    3    3    0    0  0.14669613797E+03  0.16824356497E+03  0.51839056631E+01  0.22327679442E+03  0.00000000000E+00 0. -1.
        -11    1    3    3    0    0  0.71039728932E+02  0.25111385515E+02 -0.38394665979E+02  0.84565803637E+02  0.00000000000E+00 0.  1.
          4    1    6    6  502    0 -0.39254952878E+03 -0.26649044133E+03  0.17498072747E+02  0.47478255066E+03  0.00000000000E+00 0. -1.
          3    1    5    5  503    0  0.14991147511E+03  0.10177666135E+03 -0.28142200391E+03  0.33470925211E+03  0.00000000000E+00 0. -1.
         -4    1    5    5    0  503  0.58955859049E+02 -0.15036747066E+00 -0.15869214105E+03  0.16928972668E+03  0.00000000000E+00 0.  1.
         -3    1    6    6    0  502 -0.34053672277E+02 -0.28490803036E+02  0.26600904914E+02  0.51758927688E+02  0.00000000000E+00 0.  1.
<mgrwt>
<rscale>  0 0.12676886E+04</rscale>
<asrwt>0</asrwt>
<pdfrwt beam="1">  1        2 0.69935164E-01 0.12676886E+04</pdfrwt>
<pdfrwt beam="2">  1       -2 0.13596992E+00 0.12676886E+04</pdfrwt>
<totfact> 0.26139067E+01</totfact>
</mgrwt>
</event>
<event>
12    1  0.2214165E-007  0.3010130E+04  0.7818608E-02  0.8240844E-01
          2   -1    0    0  501    0  0.00000000000E+00  0.00000000000E+00  0.29067006084E+04  0.29067006084E+04  0.00000000000E+00 0.  1.
         -2   -1    0    0    0  501 -0.00000000000E+00 -0.00000000000E+00 -0.77931017840E+03  0.77931017840E+03  0.00000000000E+00 0. -1.
         23    2    1    2    0    0 -0.21912484247E+02 -0.13677954292E+04  0.90494838380E+03  0.16428405046E+04  0.92999209068E+02 0.  0.
        254    2    1    2    0    0  0.21912484247E+02  0.13677954292E+04  0.12224420462E+04  0.20431702823E+04  0.89935296337E+03 0.  0.
        -24    2    4    4    0    0 -0.33144790399E+03  0.23176707170E+03  0.50277474074E+03  0.65047483118E+03  0.82227595646E+02 0.  0.
         24    2    4    4    0    0  0.35336038824E+03  0.11360283575E+04  0.71966730547E+03  0.13926954511E+04  0.79092324363E+02 0.  0.
         11    1    3    3    0    0  0.11779962037E+02 -0.10100850987E+04  0.63120493334E+03  0.11911466501E+04  0.00000000000E+00 0.  1.
        -11    1    3    3    0    0 -0.33692446285E+02 -0.35771033052E+03  0.27374345045E+03  0.45169385447E+03  0.00000000000E+00 0. -1.
          4    1    6    6  502    0  0.29546037400E+03  0.83985851158E+03  0.52496896224E+03  0.10335625590E+04  0.00000000000E+00 0. -1.
          1    1    5    5  503    0 -0.26408631219E+03  0.15352603404E+03  0.33397621953E+03  0.45260572094E+03  0.00000000000E+00 0. -1.
         -2    1    5    5    0  503 -0.67361591796E+02  0.78241037662E+02  0.16879852121E+03  0.19786911024E+03  0.00000000000E+00 0.  1.
         -3    1    6    6    0  502  0.57900014236E+02  0.29616984596E+03  0.19469834323E+03  0.35913289206E+03  0.00000000000E+00 0.  1.
<mgrwt>
<rscale>  0 0.30101305E+04</rscale>
<asrwt>0</asrwt>
<pdfrwt beam="1">  1        2 0.44718470E+00 0.30101305E+04</pdfrwt>
<pdfrwt beam="2">  1       -2 0.11989388E+00 0.30101305E+04</pdfrwt>
<totfact> 0.90532868E-01</totfact>
</mgrwt>
</event>
<event>
12    1  0.2214165E-007  0.1728768E+04  0.7818608E-02  0.8745125E-01
         -2   -1    0    0    0  501 -0.00000000000E+00  0.00000000000E+00  0.68413543060E+03  0.68413543060E+03  0.00000000000E+00 0.  1.
          2   -1    0    0  501    0  0.00000000000E+00 -0.00000000000E+00 -0.10921228146E+04  0.10921228146E+04  0.00000000000E+00 0. -1.
         23    2    1    2    0    0  0.10859964523E+03 -0.41718645072E+03  0.31604170416E+03  0.54290862803E+03  0.95021060888E+02 0.  0.
        254    2    1    2    0    0 -0.10859964523E+03  0.41718645072E+03 -0.72402908814E+03  0.12333496171E+04  0.90060798354E+03 0.  0.
        -24    2    4    4    0    0  0.29680407847E+03  0.13827740615E+03  0.20666006937E+02  0.33723085333E+03  0.78001682949E+02 0.  0.
         24    2    4    4    0    0 -0.40540372370E+03  0.27890904457E+03 -0.74469509507E+03  0.89611876381E+03  0.79470874449E+02 0.  0.
         13    1    3    3    0    0  0.10775142033E+03 -0.23331139635E+03  0.19775356595E+03  0.32427002497E+03  0.00000000000E+00 0.  1.
        -13    1    3    3    0    0  0.84822489964E+00 -0.18387505438E+03  0.11828813821E+03  0.21863860306E+03  0.00000000000E+00 0. -1.
          4    1    6    6  502    0 -0.23310819161E+03  0.16574950312E+03 -0.36121504101E+03  0.46074790573E+03  0.00000000000E+00 0. -1.
          3    1    5    5  503    0  0.14291483120E+03  0.39461880733E+02 -0.20773494953E+02  0.14971114554E+03  0.00000000000E+00 0. -1.
         -4    1    5    5    0  503  0.15388924727E+03  0.98815525415E+02  0.41439501890E+02  0.18751970778E+03  0.00000000000E+00 0.  1.
         -3    1    6    6    0  502 -0.17229553209E+03  0.11315954146E+03 -0.38348005407E+03  0.43537085808E+03  0.00000000000E+00 0.  1.
<mgrwt>
<rscale>  0 0.17287682E+04</rscale>
<asrwt>0</asrwt>
<pdfrwt beam="1">  1        2 0.16801889E+00 0.17287682E+04</pdfrwt>
<pdfrwt beam="2">  1       -2 0.10525161E+00 0.17287682E+04</pdfrwt>
<totfact> 0.15290476E+01</totfact>
</mgrwt>
</event>
<event>
12    1  0.2214165E-007  0.2028636E+04  0.7818608E-02  0.8593348E-01
          3   -1    0    0  501    0  0.00000000000E+00  0.00000000000E+00  0.17956633290E+04  0.17956633290E+04  0.00000000000E+00 0. -1.
         -3   -1    0    0    0  501 -0.00000000000E+00 -0.00000000000E+00 -0.57295878206E+03  0.57295878206E+03  0.00000000000E+00 0.  1.
         23    2    1    2    0    0  0.75243794605E+03  0.27614889591E+02  0.84187212992E+03  0.11330905086E+04  0.90664065184E+02 0.  0.
        254    2    1    2    0    0 -0.75243794605E+03 -0.27614889591E+02  0.38083241698E+03  0.12355316024E+04  0.90254061738E+03 0.  0.
        -24    2    4    4    0    0  0.17715975705E+03 -0.91842755266E+02  0.17710925021E+03  0.27830836172E+03  0.79165563710E+02 0.  0.
         24    2    4    4    0    0 -0.92959770310E+03  0.64227865675E+02  0.20372316676E+03  0.95722324072E+03  0.80598359617E+02 0.  0.
         11    1    3    3    0    0  0.37823311037E+03 -0.21451079824E+02  0.46420657227E+03  0.59917291023E+03  0.00000000000E+00 0. -1.
        -11    1    3    3    0    0  0.37420483568E+03  0.49065969415E+02  0.37766555764E+03  0.53391759835E+03  0.00000000000E+00 0.  1.
          4    1    6    6  502    0 -0.64886721032E+03  0.70610065145E+02  0.16946011045E+03  0.67433757641E+03  0.00000000000E+00 0. -1.
          3    1    5    5  503    0  0.85092958923E+02 -0.86439545768E+02  0.11479488394E+03  0.16700440746E+03  0.00000000000E+00 0. -1.
         -4    1    5    5    0  503  0.92066798125E+02 -0.54032094982E+01  0.62314366274E+02  0.11130395426E+03  0.00000000000E+00 0.  1.
         -3    1    6    6    0  502 -0.28073049278E+03 -0.63821994697E+01  0.34263056316E+02  0.28288566432E+03  0.00000000000E+00 0.  1.
<mgrwt>
<rscale>  0 0.20286361E+04</rscale>
<asrwt>0</asrwt>
<pdfrwt beam="1">  1        3 0.27625589E+00 0.20286361E+04</pdfrwt>
<pdfrwt beam="2">  1       -3 0.88147506E-01 0.20286361E+04</pdfrwt>
<totfact> 0.14849029E-01</totfact>
</mgrwt>
</event>
<event>
12    1  0.2214165E-007  0.2465751E+04  0.7818608E-02  0.8415290E-01
         -2   -1    0    0    0  501 -0.00000000000E+00  0.00000000000E+00  0.86676629526E+03  0.86676629526E+03  0.00000000000E+00 0.  1.
          2   -1    0    0  501    0  0.00000000000E+00 -0.00000000000E+00 -0.17536233555E+04  0.17536233555E+04  0.00000000000E+00 0. -1.
         23    2    1    2    0    0 -0.31295792324E+03 -0.70506428947E+03  0.39423263459E+03  0.87371296332E+03  0.11356345400E+03 0.  0.
        254    2    1    2    0    0  0.31295792324E+03  0.70506428947E+03 -0.12810896949E+04  0.17466766875E+04  0.90256873993E+03 0.  0.
        -24    2    4    4    0    0  0.12854249774E+03  0.64901134149E+03 -0.13672492809E+04  0.15210211503E+04  0.79974047915E+02 0.  0.
         24    2    4    4    0    0  0.18441542549E+03  0.56052947987E+02  0.86159586046E+02  0.22565553720E+03  0.79661565799E+02 0.  0.
         11    1    3    3    0    0 -0.16975508420E+03 -0.33957789748E+03  0.25444828672E+03  0.45702720672E+03  0.00000000000E+00 0.  1.
        -11    1    3    3    0    0 -0.14320283904E+03 -0.36548639199E+03  0.13978434787E+03  0.41668575659E+03  0.00000000000E+00 0. -1.
          2    1    6    6  502    0  0.85124288757E+02 -0.14441461527E+02  0.28496800926E+02  0.90921768628E+02  0.00000000000E+00 0. -1.
          1    1    5    5  503    0  0.94220684285E+02  0.55245079535E+03 -0.10941267694E+04  0.12293058228E+04  0.00000000000E+00 0. -1.
         -2    1    5    5    0  503  0.34321813460E+02  0.96560546140E+02 -0.27312251154E+03  0.29171532743E+03  0.00000000000E+00 0.  1.
         -1    1    6    6    0  502  0.99291136734E+02  0.70494409513E+02  0.57662785119E+02  0.13473376857E+03  0.00000000000E+00 0.  1.
<mgrwt>
<rscale>  0 0.24657507E+04</rscale>
<asrwt>0</asrwt>
<pdfrwt beam="1">  1        2 0.26978821E+00 0.24657507E+04</pdfrwt>
<pdfrwt beam="2">  1       -2 0.13334866E+00 0.24657507E+04</pdfrwt>
<totfact> 0.33343071E+00</totfact>
</mgrwt>
</event>
<event>
12    1  0.2214165E-007  0.4301019E+04  0.7818608E-02  0.7946430E-01
          2   -1    0    0  501    0  0.00000000000E+00  0.00000000000E+00  0.24223371705E+04  0.24223371705E+04  0.00000000000E+00 0. -1.
         -2   -1    0    0    0  501 -0.00000000000E+00 -0.00000000000E+00 -0.19091851881E+04  0.19091851881E+04  0.00000000000E+00 0.  1.
         23    2    1    2    0    0  0.14547646938E+04 -0.54082603928E+03 -0.11171543490E+04  0.19145399277E+04  0.92715566906E+02 0.  0.
        254    2    1    2    0    0 -0.14547646938E+04  0.54082603928E+03  0.16303063314E+04  0.24169824309E+04  0.88038185941E+03 0.  0.
        -24    2    4    4    0    0 -0.96906510584E+03  0.42785215639E+03  0.15872368960E+04  0.19099251775E+04  0.79677929019E+02 0.  0.
         24    2    4    4    0    0 -0.48569958794E+03  0.11297388289E+03  0.43069435356E+02  0.50705725348E+03  0.81147360444E+02 0.  0.
         13    1    3    3    0    0  0.61651746996E+03 -0.19097535240E+03 -0.42927742955E+03  0.77514159191E+03  0.00000000000E+00 0. -1.
        -13    1    3    3    0    0  0.83824722382E+03 -0.34985068688E+03 -0.68787691944E+03  0.11393983358E+04  0.00000000000E+00 0.  1.
          4    1    6    6  502    0 -0.44242207546E+03  0.80321322107E+02  0.26787530186E+02  0.45045130638E+03  0.00000000000E+00 0. -1.
          3    1    5    5  503    0 -0.46107969764E+03  0.18377621891E+03  0.67987060973E+03  0.84177920632E+03  0.00000000000E+00 0. -1.
         -2    1    5    5    0  503 -0.50798540820E+03  0.24407593748E+03  0.90736628628E+03  0.10681459711E+04  0.00000000000E+00 0.  1.
         -3    1    6    6    0  502 -0.43277512473E+02  0.32652560782E+02  0.16281905169E+02  0.56605947102E+02  0.00000000000E+00 0.  1.
<mgrwt>
<rscale>  0 0.43010186E+04</rscale>
<asrwt>0</asrwt>
<pdfrwt beam="1">  1        2 0.37266726E+00 0.43010186E+04</pdfrwt>
<pdfrwt beam="2">  1       -2 0.29372080E+00 0.43010186E+04</pdfrwt>
<totfact> 0.10319774E-01</totfact>
</mgrwt>
</event>
<event>
12    1  0.2214165E-007  0.1963528E+04  0.7818608E-02  0.8623865E-01
         -2   -1    0    0    0  501 -0.00000000000E+00  0.00000000000E+00  0.59544110922E+03  0.59544110922E+03  0.00000000000E+00 0.  1.
          2   -1    0    0  501    0  0.00000000000E+00 -0.00000000000E+00 -0.16187334620E+04  0.16187334620E+04  0.00000000000E+00 0. -1.
         23    2    1    2    0    0 -0.57924553454E+03 -0.12884666386E+03  0.13806727153E+03  0.61597285177E+03  0.90736599970E+02 0.  0.
        254    2    1    2    0    0  0.57924553454E+03  0.12884666386E+03 -0.11613596243E+04  0.15982017195E+04  0.92377795329E+03 0.  0.
        -24    2    4    4    0    0 -0.13491589997E+03  0.22909358264E+03 -0.66282744409E+03  0.71821948567E+03  0.76241978481E+02 0.  0.
         24    2    4    4    0    0  0.71416143451E+03 -0.10024691878E+03 -0.49853218023E+03  0.87998223378E+03  0.75884107540E+02 0.  0.
         13    1    3    3    0    0 -0.23475010863E+03 -0.88655827247E+02  0.30142063508E+02  0.25273704358E+03  0.00000000000E+00 0. -1.
        -13    1    3    3    0    0 -0.34449542591E+03 -0.40190836614E+02  0.10792520802E+03  0.36323580819E+03  0.00000000000E+00 0.  1.
          2    1    6    6  502    0  0.63822525296E+03 -0.74481626763E+02 -0.46451744999E+03  0.79287795252E+03  0.00000000000E+00 0. -1.
          1    1    5    5  503    0 -0.12855089202E+03  0.17767228100E+03 -0.47157781014E+03  0.52007538136E+03  0.00000000000E+00 0. -1.
         -2    1    5    5    0  503 -0.63650079541E+01  0.51421301645E+02 -0.19124963395E+03  0.19814410432E+03  0.00000000000E+00 0.  1.
         -1    1    6    6    0  502  0.75936181553E+02 -0.25765292020E+02 -0.34014730242E+02  0.87104281267E+02  0.00000000000E+00 0.  1.
<mgrwt>
<rscale>  0 0.19635279E+04</rscale>
<asrwt>0</asrwt>
<pdfrwt beam="1">  1        2 0.24903591E+00 0.19635279E+04</pdfrwt>
<pdfrwt beam="2">  1       -2 0.91606326E-01 0.19635279E+04</pdfrwt>
<totfact> 0.10289999E+01</totfact>
</mgrwt>
</event>
<event>
12    1  0.2214165E-007  0.3709399E+04  0.7818608E-02  0.8065882E-01
         -2   -1    0    0    0  501 -0.00000000000E+00  0.00000000000E+00  0.78730229851E+03  0.78730229851E+03  0.00000000000E+00 0. -1.
          2   -1    0    0  501    0  0.00000000000E+00 -0.00000000000E+00 -0.43692377520E+04  0.43692377520E+04  0.00000000000E+00 0.  1.
         23    2    1    2    0    0  0.62879153095E+03 -0.74995816159E+03  0.32053559575E+03  0.10331608187E+04  0.82838250254E+02 0.  0.
        254    2    1    2    0    0 -0.62879153095E+03  0.74995816159E+03 -0.39024710493E+04  0.41233792318E+04  0.90286209649E+03 0.  0.
        -24    2    4    4    0    0 -0.47330426699E+03  0.10060022344E+03 -0.27126298717E+04  0.27568541643E+04  0.88015498313E+02 0.  0.
         24    2    4    4    0    0 -0.15548726396E+03  0.64935793816E+03 -0.11898411776E+04  0.13665250675E+04  0.76332897957E+02 0.  0.
         11    1    3    3    0    0  0.52917395402E+03 -0.66974025106E+03  0.29184967462E+03  0.90208276232E+03  0.00000000000E+00 0. -1.
        -11    1    3    3    0    0  0.99617576928E+02 -0.80217910535E+02  0.28685921130E+02  0.13107805642E+03  0.00000000000E+00 0.  1.
          4    1    6    6  502    0 -0.12868906285E+03  0.37800828451E+03 -0.71736647110E+03  0.82101509846E+03  0.00000000000E+00 0. -1.
          3    1    5    5  503    0 -0.34648225380E+03  0.72330624262E+02 -0.21836265059E+04  0.22121271186E+04  0.00000000000E+00 0. -1.
         -4    1    5    5    0  503 -0.12682201319E+03  0.28269599176E+02 -0.52900336583E+03  0.54472704571E+03  0.00000000000E+00 0.  1.
         -3    1    6    6    0  502 -0.26798201112E+02  0.27134965365E+03 -0.47247470647E+03  0.54550996909E+03  0.00000000000E+00 0.  1.
<mgrwt>
<rscale>  0 0.37093994E+04</rscale>
<asrwt>0</asrwt>
<pdfrwt beam="1">  1        2 0.67219042E+00 0.37093994E+04</pdfrwt>
<pdfrwt beam="2">  1       -2 0.12112343E+00 0.37093994E+04</pdfrwt>
<totfact> 0.68366823E-02</totfact>
</mgrwt>
</event>
<event>
12    1  0.2214165E-007  0.3024990E+04  0.7818608E-02  0.8236631E-01
          1   -1    0    0  501    0  0.00000000000E+00  0.00000000000E+00  0.12408549479E+04  0.12408549479E+04  0.00000000000E+00 0. -1.
         -1   -1    0    0    0  501 -0.00000000000E+00 -0.00000000000E+00 -0.18436001524E+04  0.18436001524E+04  0.00000000000E+00 0.  1.
         23    2    1    2    0    0 -0.60642295015E+03 -0.92303638125E+03 -0.11132887941E+04  0.15708057304E+04  0.90960146148E+02 0.  0.
        254    2    1    2    0    0  0.60642295015E+03  0.92303638125E+03  0.51054358962E+03  0.15136493699E+04  0.90040807552E+03 0.  0.
        -24    2    4    4    0    0  0.12083671739E+03  0.58876620871E+03 -0.14989525887E+03  0.62482855329E+03  0.81822806071E+02 0.  0.
         24    2    4    4    0    0  0.48558623276E+03  0.33427017254E+03  0.66043884848E+03  0.88882081659E+03  0.79324861900E+02 0.  0.
         13    1    3    3    0    0 -0.30360667532E+03 -0.44542949605E+03 -0.60652505865E+03  0.81145369308E+03  0.00000000000E+00 0. -1.
        -13    1    3    3    0    0 -0.30281627484E+03 -0.47760688520E+03 -0.50676373542E+03  0.75935203736E+03  0.00000000000E+00 0.  1.
          2    1    6    6  502    0  0.36767878528E+03  0.24622530305E+03  0.54349906386E+03  0.70086077178E+03  0.00000000000E+00 0. -1.
          3    1    5    5  503    0  0.92984500646E+02  0.34784156222E+03 -0.54242786987E+02  0.36411831828E+03  0.00000000000E+00 0. -1.
         -2    1    5    5    0  503  0.27852216744E+02  0.24092464649E+03 -0.95652471881E+02  0.26071023501E+03  0.00000000000E+00 0.  1.
         -1    1    6    6    0  502  0.11790744749E+03  0.88044869493E+02  0.11693978463E+03  0.18796004481E+03  0.00000000000E+00 0.  1.
<mgrwt>
<rscale>  0 0.30249895E+04</rscale>
<asrwt>0</asrwt>
<pdfrwt beam="1">  1        1 0.19090076E+00 0.30249895E+04</pdfrwt>
<pdfrwt beam="2">  1       -1 0.28363079E+00 0.30249895E+04</pdfrwt>
<totfact> 0.35723623E-01</totfact>
</mgrwt>
</event>
<event>
12    1  0.2214165E-007  0.1123641E+04  0.7818608E-02  0.9182451E-01
         -1   -1    0    0    0  501 -0.00000000000E+00  0.00000000000E+00  0.53690715621E+03  0.53690715621E+03  0.00000000000E+00 0.  1.
          1   -1    0    0  501    0  0.00000000000E+00 -0.00000000000E+00 -0.58789029328E+03  0.58789029328E+03  0.00000000000E+00 0. -1.
         23    2    1    2    0    0  0.16920352910E+03 -0.64720448976E+02  0.15828904898E+02  0.20329891360E+03  0.90891821766E+02 0.  0.
        254    2    1    2    0    0 -0.16920352910E+03  0.64720448976E+02 -0.66812041964E+02  0.92149853590E+03  0.90104224759E+03 0.  0.
        -24    2    4    4    0    0 -0.57722725205E+02  0.47549685377E+03 -0.19184105359E+02  0.48584903043E+03  0.79070092425E+02 0.  0.
         24    2    4    4    0    0 -0.11148080389E+03 -0.41077640479E+03 -0.47627936606E+02  0.43564950547E+03  0.79729836960E+02 0.  0.
         13    1    3    3    0    0  0.12509035900E+03 -0.92238559144E+00  0.82477857144E+01  0.12536536475E+03  0.00000000000E+00 0. -1.
        -13    1    3    3    0    0  0.44113170103E+02 -0.63798063385E+02  0.75811191832E+01  0.77933548850E+02  0.00000000000E+00 0.  1.
          2    1    6    6  502    0 -0.14508708011E+02 -0.20399630845E+03 -0.17021856118E+02  0.20521876146E+03  0.00000000000E+00 0. -1.
          1    1    5    5  503    0 -0.73164157589E+02  0.35931188307E+03 -0.31295995265E+02  0.36801829111E+03  0.00000000000E+00 0. -1.
         -2    1    5    5    0  503  0.15441432385E+02  0.11618497070E+03  0.12111889907E+02  0.11783073931E+03  0.00000000000E+00 0.  1.
         -1    1    6    6    0  502 -0.96972095883E+02 -0.20678009635E+03 -0.30606080488E+02  0.23043074402E+03  0.00000000000E+00 0.  1.
<mgrwt>
<rscale>  0 0.11236414E+04</rscale>
<asrwt>0</asrwt>
<pdfrwt beam="1">  1        1 0.90444660E-01 0.11236414E+04</pdfrwt>
<pdfrwt beam="2">  1       -1 0.82601101E-01 0.11236414E+04</pdfrwt>
<totfact> 0.51143113E+01</totfact>
</mgrwt>
</event>
<event>
12    1  0.2214165E-007  0.3014544E+04  0.7818608E-02  0.8239590E-01
          1   -1    0    0  501    0  0.00000000000E+00  0.00000000000E+00  0.24156541898E+04  0.24156541898E+04  0.00000000000E+00 0. -1.
         -1   -1    0    0    0  501 -0.00000000000E+00 -0.00000000000E+00 -0.94047774918E+03  0.94047774918E+03  0.00000000000E+00 0.  1.
         23    2    1    2    0    0  0.41641994220E+03  0.11992682871E+04  0.93143455034E+02  0.12760905421E+04  0.89896471615E+02 0.  0.
        254    2    1    2    0    0 -0.41641994220E+03 -0.11992682871E+04  0.13820329856E+04  0.20800413970E+04  0.89716612008E+03 0.  0.
        -24    2    4    4    0    0 -0.48579029507E+03 -0.11675070203E+04  0.82471729172E+03  0.15116969673E+04  0.77487137744E+02 0.  0.
         24    2    4    4    0    0  0.69370352864E+02 -0.31761266768E+02  0.55731569390E+03  0.56834442962E+03  0.81200887214E+02 0.  0.
         11    1    3    3    0    0  0.12374994848E+03  0.48396631822E+03  0.23283559223E+02  0.50007956472E+03  0.00000000000E+00 0. -1.
        -11    1    3    3    0    0  0.29266999372E+03  0.71530196888E+03  0.69859895811E+02  0.77601097734E+03  0.00000000000E+00 0.  1.
          4    1    6    6  502    0  0.36653569828E+02  0.40563193159E+01  0.43792024309E+03  0.43947022336E+03  0.00000000000E+00 0. -1.
          3    1    5    5  503    0 -0.21140874352E+03 -0.60827718536E+03  0.42442021892E+03  0.77125048674E+03  0.00000000000E+00 0. -1.
         -4    1    5    5    0  503 -0.27438155155E+03 -0.55922983497E+03  0.40029707280E+03  0.74044648061E+03  0.00000000000E+00 0.  1.
         -1    1    6    6    0  502  0.32716783036E+02 -0.35817586084E+02  0.11939545081E+03  0.12887420626E+03  0.00000000000E+00 0.  1.
<mgrwt>
<rscale>  0 0.30145441E+04</rscale>
<asrwt>0</asrwt>
<pdfrwt beam="1">  1        1 0.37163911E+00 0.30145441E+04</pdfrwt>
<pdfrwt beam="2">  1       -1 0.14468888E+00 0.30145441E+04</pdfrwt>
<totfact> 0.50600817E-01</totfact>
</mgrwt>
</event>
<event>
12    1  0.2214165E-007  0.1725742E+04  0.7818608E-02  0.8746817E-01
          2   -1    0    0  501    0  0.00000000000E+00  0.00000000000E+00  0.12986309296E+04  0.12986309296E+04  0.00000000000E+00 0. -1.
         -2   -1    0    0    0  501 -0.00000000000E+00 -0.00000000000E+00 -0.57333182230E+03  0.57333182230E+03  0.00000000000E+00 0.  1.
         23    2    1    2    0    0 -0.44193050145E+03  0.68582666750E+02 -0.20774034670E+03  0.50024024349E+03  0.84131440413E+02 0.  0.
        254    2    1    2    0    0  0.44193050145E+03 -0.68582666750E+02  0.93303945400E+03  0.13717225084E+04  0.90058529139E+03 0.  0.
        -24    2    4    4    0    0 -0.22600042902E+03 -0.25801279839E+02  0.28642080740E+02  0.24381033185E+03  0.82953054009E+02 0.  0.
         24    2    4    4    0    0  0.66793093047E+03 -0.42781386911E+02  0.90439737326E+03  0.11279121766E+04  0.79305071297E+02 0.  0.
         11    1    3    3    0    0 -0.40341566719E+02  0.92305120462E+01  0.54036049517E+01  0.41735396301E+02  0.00000000000E+00 0. -1.
        -11    1    3    3    0    0 -0.40158893474E+03  0.59352154704E+02 -0.21314395165E+03  0.45850484719E+03  0.00000000000E+00 0.  1.
          4    1    6    6  502    0  0.40222053271E+03 -0.58253124067E+02  0.58169426336E+03  0.70960763766E+03  0.00000000000E+00 0. -1.
          3    1    5    5  503    0 -0.75691932075E+01  0.14607595996E+02 -0.86130751715E+01  0.18570396078E+02  0.00000000000E+00 0. -1.
         -4    1    5    5    0  503 -0.21843123581E+03 -0.40408875834E+02  0.37255155911E+02  0.22523993577E+03  0.00000000000E+00 0.  1.
         -3    1    6    6    0  502  0.26571039776E+03  0.15471737156E+02  0.32270310990E+03  0.41830453890E+03  0.00000000000E+00 0.  1.
<mgrwt>
<rscale>  0 0.17257421E+04</rscale>
<asrwt>0</asrwt>
<pdfrwt beam="1">  1        2 0.19978937E+00 0.17257421E+04</pdfrwt>
<pdfrwt beam="2">  1       -2 0.88204896E-01 0.17257421E+04</pdfrwt>
<totfact> 0.17413022E+01</totfact>
</mgrwt>
</event>
<event>
12    1  0.2214165E-007  0.1590563E+04  0.7818608E-02  0.8826367E-01
         -1   -1    0    0    0  501 -0.00000000000E+00  0.00000000000E+00  0.33167070404E+03  0.33167070404E+03  0.00000000000E+00 0.  1.
          1   -1    0    0  501    0  0.00000000000E+00 -0.00000000000E+00 -0.19069292356E+04  0.19069292356E+04  0.00000000000E+00 0. -1.
         23    2    1    2    0    0 -0.23070105949E+03  0.13396311571E+03  0.11215520015E+03  0.30777854450E+03  0.10478429422E+03 0.  0.
        254    2    1    2    0    0  0.23070105949E+03 -0.13396311571E+03 -0.16874137317E+04  0.19308213952E+04  0.89974277588E+03 0.  0.
        -24    2    4    4    0    0  0.18925233127E+03  0.33097527989E+03 -0.11504771483E+04  0.12146882320E+04  0.80676833418E+02 0.  0.
         24    2    4    4    0    0  0.41448728220E+02 -0.46493839560E+03 -0.53693658345E+03  0.71613316316E+03  0.81609459983E+02 0.  0.
         11    1    3    3    0    0 -0.21722371081E+03  0.99965515587E+02  0.12396861828E+03  0.26934636282E+03  0.00000000000E+00 0. -1.
        -11    1    3    3    0    0 -0.13477348680E+02  0.33997600119E+02 -0.11813418126E+02  0.38432181686E+02  0.00000000000E+00 0.  1.
          2    1    6    6  502    0  0.12121739084E+02 -0.41756908690E+03 -0.46385619703E+03  0.62423829618E+03  0.00000000000E+00 0. -1.
          3    1    5    5  503    0  0.19012643366E+03  0.32377469998E+03 -0.10715472090E+04  0.11354257079E+04  0.00000000000E+00 0. -1.
         -4    1    5    5    0  503 -0.87410238932E+00  0.72005799126E+01 -0.78929939303E+02  0.79262524086E+02  0.00000000000E+00 0.  1.
         -3    1    6    6    0  502  0.29326989137E+02 -0.47369308699E+02 -0.73080386419E+02  0.91894866982E+02  0.00000000000E+00 0.  1.
<mgrwt>
<rscale>  0 0.15905629E+04</rscale>
<asrwt>0</asrwt>
<pdfrwt beam="1">  1        1 0.29337373E+00 0.15905629E+04</pdfrwt>
<pdfrwt beam="2">  1       -1 0.51026263E-01 0.15905629E+04</pdfrwt>
<totfact> 0.12782212E+01</totfact>
</mgrwt>
</event>
<event>
12    1  0.2214165E-007  0.2846913E+04  0.7818608E-02  0.8288850E-01
          2   -1    0    0  501    0  0.00000000000E+00  0.00000000000E+00  0.88186680381E+03  0.88186680381E+03  0.00000000000E+00 0. -1.
         -2   -1    0    0    0  501 -0.00000000000E+00 -0.00000000000E+00 -0.22976585023E+04  0.22976585023E+04  0.00000000000E+00 0.  1.
         23    2    1    2    0    0  0.10254104776E+04  0.13762951431E+03  0.19092999397E+03  0.10561751386E+04  0.92968436518E+02 0.  0.
        254    2    1    2    0    0 -0.10254104776E+04 -0.13762951431E+03 -0.16067216925E+04  0.21233501675E+04  0.92555540404E+03 0.  0.
        -24    2    4    4    0    0 -0.70703842654E+03  0.22694837304E+03 -0.46252973906E+03  0.87851481215E+03  0.80284587666E+02 0.  0.
         24    2    4    4    0    0 -0.31837205102E+03 -0.36457788734E+03 -0.11441919534E+04  0.12448353553E+04  0.78498642114E+02 0.  0.
         13    1    3    3    0    0  0.21282031206E+03  0.51969664417E+02  0.10067536224E+02  0.21930500799E+03  0.00000000000E+00 0.  1.
        -13    1    3    3    0    0  0.81259016551E+03  0.85659849889E+02  0.18086245774E+03  0.83687013066E+03  0.00000000000E+00 0. -1.
          4    1    6    6  502    0 -0.17199363981E+03 -0.22674572429E+03 -0.58399097296E+03  0.64964674410E+03  0.00000000000E+00 0. -1.
          1    1    5    5  503    0 -0.29220998792E+03  0.10035886258E+03 -0.23882482927E+03  0.39050720533E+03  0.00000000000E+00 0. -1.
         -4    1    5    5    0  503 -0.41482843863E+03  0.12658951046E+03 -0.22370490979E+03  0.48800760682E+03  0.00000000000E+00 0.  1.
         -3    1    6    6    0  502 -0.14637841121E+03 -0.13783216306E+03 -0.56020098043E+03  0.59518861121E+03  0.00000000000E+00 0.  1.
<mgrwt>
<rscale>  0 0.28469132E+04</rscale>
<asrwt>0</asrwt>
<pdfrwt beam="1">  1        2 0.13567182E+00 0.28469132E+04</pdfrwt>
<pdfrwt beam="2">  1       -2 0.35348592E+00 0.28469132E+04</pdfrwt>
<totfact> 0.38669219E-01</totfact>
</mgrwt>
</event>
<event>
12    1  0.2214165E-007  0.2050760E+04  0.7818608E-02  0.8583250E-01
         -1   -1    0    0    0  501 -0.00000000000E+00  0.00000000000E+00  0.56890006838E+03  0.56890006838E+03  0.00000000000E+00 0.  1.
          1   -1    0    0  501    0  0.00000000000E+00 -0.00000000000E+00 -0.18481355303E+04  0.18481355303E+04  0.00000000000E+00 0. -1.
         23    2    1    2    0    0 -0.85384952555E+02 -0.74185735482E+03 -0.93217450203E+03  0.11976125584E+04  0.87656218581E+02 0.  0.
        254    2    1    2    0    0  0.85384952555E+02  0.74185735482E+03 -0.34706095986E+03  0.12194230403E+04  0.89938774525E+03 0.  0.
        -24    2    4    4    0    0  0.94369071599E+02  0.25785543126E+03  0.29543825632E+03  0.41113597918E+03  0.79712514575E+02 0.  0.
         24    2    4    4    0    0 -0.89841190446E+01  0.48400192356E+03 -0.64249921617E+03  0.80828706111E+03  0.78639391945E+02 0.  0.
         11    1    3    3    0    0 -0.73866084967E+02 -0.40318823902E+03 -0.45570171657E+03  0.61292822506E+03  0.00000000000E+00 0. -1.
        -11    1    3    3    0    0 -0.11518867588E+02 -0.33866911580E+03 -0.47647278546E+03  0.58468433329E+03  0.00000000000E+00 0.  1.
          4    1    6    6  502    0  0.25838469108E+01  0.38138818245E+03 -0.45038072609E+03  0.59017490663E+03  0.00000000000E+00 0. -1.
          1    1    5    5  503    0  0.51655440310E+02  0.20511158660E+03  0.25801252567E+03  0.33363080025E+03  0.00000000000E+00 0. -1.
         -2    1    5    5    0  503  0.42713631290E+02  0.52743844659E+02  0.37425730642E+02  0.77505178933E+02  0.00000000000E+00 0.  1.
         -3    1    6    6    0  502 -0.11567965955E+02  0.10261374111E+03 -0.19211849008E+03  0.21811215448E+03  0.00000000000E+00 0.  1.
<mgrwt>
<rscale>  0 0.20507603E+04</rscale>
<asrwt>0</asrwt>
<pdfrwt beam="1">  1        1 0.28432854E+00 0.20507603E+04</pdfrwt>
<pdfrwt beam="2">  1       -1 0.87523087E-01 0.20507603E+04</pdfrwt>
<totfact> 0.44818701E+00</totfact>
</mgrwt>
</event>
<event>
12    1  0.2214165E-007  0.3260259E+04  0.7818608E-02  0.8173082E-01
         -2   -1    0    0    0  501 -0.00000000000E+00  0.00000000000E+00  0.10400762886E+04  0.10400762886E+04  0.00000000000E+00 0.  1.
          2   -1    0    0  501    0  0.00000000000E+00 -0.00000000000E+00 -0.25549295011E+04  0.25549295011E+04  0.00000000000E+00 0. -1.
         23    2    1    2    0    0  0.49367622874E+03 -0.56083842700E+03 -0.21537599204E+04  0.22814609558E+04  0.90146205644E+02 0.  0.
        254    2    1    2    0    0 -0.49367622874E+03  0.56083842700E+03  0.63890670790E+03  0.13135448338E+04  0.87117293858E+03 0.  0.
        -24    2    4    4    0    0 -0.57917703195E+03  0.63868966655E+03  0.25161205830E+03  0.90165759351E+03  0.79418282246E+02 0.  0.
         24    2    4    4    0    0  0.85500803210E+02 -0.77851239552E+02  0.38729464961E+03  0.41188724027E+03  0.79263801524E+02 0.  0.
         13    1    3    3    0    0  0.18032264698E+03 -0.23520469388E+03 -0.73652566466E+03  0.79391911410E+03  0.00000000000E+00 0. -1.
        -13    1    3    3    0    0  0.31335358176E+03 -0.32563373313E+03 -0.14172342557E+04  0.14875418417E+04  0.00000000000E+00 0.  1.
          4    1    6    6  502    0  0.82145426489E+02 -0.53520857670E+02  0.19735672299E+03  0.22036794097E+03  0.00000000000E+00 0. -1.
          3    1    5    5  503    0 -0.27655799624E+03  0.28239816341E+03  0.15341397893E+03  0.42399162364E+03  0.00000000000E+00 0. -1.
         -4    1    5    5    0  503 -0.30261903571E+03  0.35629150314E+03  0.98198079368E+02  0.47766596988E+03  0.00000000000E+00 0.  1.
         -3    1    6    6    0  502  0.33553767219E+01 -0.24330381882E+02  0.18993792662E+03  0.19151929930E+03  0.00000000000E+00 0.  1.
<mgrwt>
<rscale>  0 0.32602586E+04</rscale>
<asrwt>0</asrwt>
<pdfrwt beam="1">  1        2 0.39306607E+00 0.32602586E+04</pdfrwt>
<pdfrwt beam="2">  1       -2 0.16001174E+00 0.32602586E+04</pdfrwt>
<totfact> 0.68229050E-01</totfact>
</mgrwt>
</event>
<event>
12    1  0.2214165E-007  0.2625028E+04  0.7818608E-02  0.8359749E-01
          1   -1    0    0  501    0  0.00000000000E+00  0.00000000000E+00  0.11567284448E+04  0.11567284448E+04  0.00000000000E+00 0. -1.
         -1   -1    0    0    0  501 -0.00000000000E+00 -0.00000000000E+00 -0.14892806431E+04  0.14892806431E+04  0.00000000000E+00 0.  1.
         23    2    1    2    0    0  0.28685946021E+02  0.11186802918E+03  0.10128439369E+04  0.10228265886E+04  0.83570630581E+02 0.  0.
        254    2    1    2    0    0 -0.28685946021E+02 -0.11186802918E+03 -0.13453961352E+04  0.16231824993E+04  0.90071822786E+03 0.  0.
        -24    2    4    4    0    0 -0.31611594610E+03  0.28822879577E+02 -0.11053311188E+03  0.34494180044E+03  0.77506303647E+02 0.  0.
         24    2    4    4    0    0  0.28743000007E+03 -0.14069090876E+03 -0.12348630234E+04  0.12782406989E+04  0.81256760537E+02 0.  0.
         11    1    3    3    0    0  0.46097116656E+02  0.41314018632E+02  0.63854277928E+03  0.64153618235E+03  0.00000000000E+00 0. -1.
        -11    1    3    3    0    0 -0.17411170636E+02  0.70554010552E+02  0.37430115763E+03  0.38129040621E+03  0.00000000000E+00 0.  1.
          2    1    6    6  502    0  0.22991540773E+03 -0.81916354633E+02 -0.83155226787E+03  0.86663173152E+03  0.00000000000E+00 0. -1.
          3    1    5    5  503    0 -0.14090915018E+03 -0.11171480077E+02 -0.80709409387E+02  0.16277038838E+03  0.00000000000E+00 0. -1.
         -4    1    5    5    0  503 -0.17520679592E+03  0.39994359655E+02 -0.29823702496E+02  0.18217141205E+03  0.00000000000E+00 0.  1.
         -1    1    6    6    0  502  0.57514592348E+02 -0.58774554129E+02 -0.40331075548E+03  0.41160896739E+03  0.00000000000E+00 0.  1.
<mgrwt>
<rscale>  0 0.26250282E+04</rscale>
<asrwt>0</asrwt>
<pdfrwt beam="1">  1        1 0.17795822E+00 0.26250282E+04</pdfrwt>
<pdfrwt beam="2">  1       -1 0.22912010E+00 0.26250282E+04</pdfrwt>
<totfact> 0.96683696E-01</totfact>
</mgrwt>
</event>
<event>
12    1  0.2214165E-007  0.2847143E+04  0.7818608E-02  0.8288780E-01
          1   -1    0    0  501    0  0.00000000000E+00  0.00000000000E+00  0.26189419299E+04  0.26189419299E+04  0.00000000000E+00 0. -1.
         -1   -1    0    0    0  501 -0.00000000000E+00 -0.00000000000E+00 -0.77380725883E+03  0.77380725883E+03  0.00000000000E+00 0.  1.
         23    2    1    2    0    0  0.84424718070E+03  0.77894924120E+03  0.16001055031E+03  0.11633417043E+04  0.90803757412E+02 0.  0.
        254    2    1    2    0    0 -0.84424718070E+03 -0.77894924120E+03  0.16851241208E+04  0.22294074844E+04  0.90061046330E+03 0.  0.
        -24    2    4    4    0    0 -0.52185837878E+03 -0.86150793065E+03  0.15729506561E+04  0.18694978742E+04  0.79476117534E+02 0.  0.
         24    2    4    4    0    0 -0.32238880192E+03  0.82558689458E+02  0.11217346468E+03  0.35990961014E+03  0.78750012615E+02 0.  0.
         13    1    3    3    0    0  0.56507957684E+03  0.46387296897E+03  0.90238146822E+02  0.73663829839E+03  0.00000000000E+00 0. -1.
        -13    1    3    3    0    0  0.27916760386E+03  0.31507627222E+03  0.69772403487E+02  0.42670340595E+03  0.00000000000E+00 0.  1.
          4    1    6    6  502    0 -0.13022239520E+03 -0.58146551966E+01  0.47358881821E+02  0.13868866614E+03  0.00000000000E+00 0. -1.
          3    1    5    5  503    0 -0.11624413937E+03 -0.16114256831E+03  0.36282935693E+03  0.41367229725E+03  0.00000000000E+00 0. -1.
         -4    1    5    5    0  503 -0.40561423941E+03 -0.70036536234E+03  0.12101212992E+04  0.14558255770E+04  0.00000000000E+00 0.  1.
         -3    1    6    6    0  502 -0.19216640672E+03  0.88373344655E+02  0.64814582859E+02  0.22122094401E+03  0.00000000000E+00 0.  1.
<mgrwt>
<rscale>  0 0.28471433E+04</rscale>
<asrwt>0</asrwt>
<pdfrwt beam="1">  1        1 0.40291414E+00 0.28471433E+04</pdfrwt>
<pdfrwt beam="2">  1       -1 0.11904727E+00 0.28471433E+04</pdfrwt>
<totfact> 0.60887044E-01</totfact>
</mgrwt>
</event>
<event>
12    1  0.2214165E-007  0.1256130E+04  0.7818608E-02  0.9065096E-01
          2   -1    0    0  501    0  0.00000000000E+00  0.00000000000E+00  0.84450005376E+03  0.84450005376E+03  0.00000000000E+00 0. -1.
         -2   -1    0    0    0  501 -0.00000000000E+00 -0.00000000000E+00 -0.46709983361E+03  0.46709983361E+03  0.00000000000E+00 0.  1.
         23    2    1    2    0    0  0.26383309398E+03 -0.12034995261E+03  0.69284641720E+02  0.31901475820E+03  0.11348146015E+03 0.  0.
        254    2    1    2    0    0 -0.26383309398E+03  0.12034995261E+03  0.30811557844E+03  0.99258512917E+03  0.89788530248E+03 0.  0.
        -24    2    4    4    0    0 -0.30964507918E+03  0.32266127119E+03  0.51659160074E+03  0.68785373865E+03  0.79281226188E+02 0.  0.
         24    2    4    4    0    0  0.45811985203E+02 -0.20231131858E+03 -0.20847602231E+03  0.30473139052E+03  0.79814540504E+02 0.  0.
         11    1    3    3    0    0  0.14534066189E+03 -0.96391156857E+02  0.90174333809E+02  0.19633281335E+03  0.00000000000E+00 0. -1.
        -11    1    3    3    0    0  0.11849243209E+03 -0.23958795755E+02 -0.20889692089E+02  0.12268194485E+03  0.00000000000E+00 0.  1.
          2    1    6    6  502    0  0.27157948988E+02 -0.18149783565E+03 -0.14016142511E+03  0.23092042705E+03  0.00000000000E+00 0. -1.
          3    1    5    5  503    0 -0.26722143873E+03  0.30819938368E+03  0.48058033892E+03  0.63035832633E+03  0.00000000000E+00 0. -1.
         -4    1    5    5    0  503 -0.42423640453E+02  0.14461887517E+02  0.36011261820E+02  0.57495412318E+02  0.00000000000E+00 0.  1.
         -1    1    6    6    0  502  0.18654036215E+02 -0.20813482937E+02 -0.68314597193E+02  0.73810963473E+02  0.00000000000E+00 0.  1.
<mgrwt>
<rscale>  0 0.12561303E+04</rscale>
<asrwt>0</asrwt>
<pdfrwt beam="1">  1        2 0.12992308E+00 0.12561303E+04</pdfrwt>
<pdfrwt beam="2">  1       -2 0.71861513E-01 0.12561303E+04</pdfrwt>
<totfact> 0.55268326E+01</totfact>
</mgrwt>
</event>
<event>
12    1  0.2214165E-007  0.2088404E+04  0.7818608E-02  0.8566369E-01
         -2   -1    0    0    0  501 -0.00000000000E+00  0.00000000000E+00  0.68906180680E+03  0.68906180680E+03  0.00000000000E+00 0.  1.
          2   -1    0    0  501    0  0.00000000000E+00 -0.00000000000E+00 -0.15823798479E+04  0.15823798479E+04  0.00000000000E+00 0. -1.
         23    2    1    2    0    0 -0.55525147668E+03 -0.62075095907E+03 -0.53545925486E+03  0.99416917114E+03  0.89553178003E+02 0.  0.
        254    2    1    2    0    0  0.55525147668E+03  0.62075095907E+03 -0.35785878624E+03  0.12772724835E+04  0.89984783757E+03 0.  0.
        -24    2    4    4    0    0 -0.20749221705E+03  0.34632539739E+03 -0.12054600134E+03  0.42894420603E+03  0.80420721414E+02 0.  0.
         24    2    4    4    0    0  0.76274369373E+03  0.27442556168E+03 -0.23731278489E+03  0.84832827752E+03  0.79096000743E+02 0.  0.
         13    1    3    3    0    0 -0.27165894084E+03 -0.27143877169E+03 -0.29317670899E+03  0.48314611621E+03  0.00000000000E+00 0. -1.
        -13    1    3    3    0    0 -0.28359253584E+03 -0.34931218738E+03 -0.24228254586E+03  0.51102305493E+03  0.00000000000E+00 0.  1.
          2    1    6    6  502    0  0.11536143459E+03  0.12746252643E+02 -0.39074694242E+02  0.12246452252E+03  0.00000000000E+00 0. -1.
          1    1    5    5  503    0 -0.99330063135E+02  0.24078571417E+03 -0.80003842508E+02  0.27247905682E+03  0.00000000000E+00 0. -1.
         -2    1    5    5    0  503 -0.10816215391E+03  0.10553968322E+03 -0.40542158836E+02  0.15646514921E+03  0.00000000000E+00 0.  1.
         -1    1    6    6    0  502  0.64738225914E+03  0.26167930904E+03 -0.19823809065E+03  0.72586375500E+03  0.00000000000E+00 0.  1.
<mgrwt>
<rscale>  0 0.20884037E+04</rscale>
<asrwt>0</asrwt>
<pdfrwt beam="1">  1        2 0.24344305E+00 0.20884037E+04</pdfrwt>
<pdfrwt beam="2">  1       -2 0.10600951E+00 0.20884037E+04</pdfrwt>
<totfact> 0.75603277E+00</totfact>
</mgrwt>
</event>
<event>
12    1  0.2214165E-007  0.1849082E+04  0.7818608E-02  0.8680625E-01
         -1   -1    0    0    0  501 -0.00000000000E+00  0.00000000000E+00  0.90716727515E+03  0.90716727515E+03  0.00000000000E+00 0.  1.
          1   -1    0    0  501    0  0.00000000000E+00 -0.00000000000E+00 -0.94224700041E+03  0.94224700041E+03  0.00000000000E+00 0. -1.
         23    2    1    2    0    0  0.23918015869E+03 -0.21703310676E+03  0.60712271422E+03  0.69367168381E+03  0.90949970098E+02 0.  0.
        254    2    1    2    0    0 -0.23918015869E+03  0.21703310676E+03 -0.64220243948E+03  0.11557425918E+04  0.90498974988E+03 0.  0.
        -24    2    4    4    0    0 -0.71439654075E+02 -0.22567661373E+03  0.10189176151E+03  0.26992890265E+03  0.80287752869E+02 0.  0.
         24    2    4    4    0    0 -0.16774050461E+03  0.44270972048E+03 -0.74409420099E+03  0.88581368911E+03  0.82830781478E+02 0.  0.
         11    1    3    3    0    0  0.21987659191E+03 -0.15483532039E+03  0.46122753815E+03  0.53390123999E+03  0.00000000000E+00 0. -1.
        -11    1    3    3    0    0  0.19303566774E+02 -0.62197786369E+02  0.14589517607E+03  0.15977044382E+03  0.00000000000E+00 0.  1.
          2    1    6    6  502    0 -0.11684455599E+03  0.38008416936E+03 -0.58386663136E+03  0.70641126072E+03  0.00000000000E+00 0. -1.
          1    1    5    5  503    0 -0.73781051435E+02 -0.21533740161E+03  0.72829706622E+02  0.23899373684E+03  0.00000000000E+00 0. -1.
         -2    1    5    5    0  503  0.23413973602E+01 -0.10339212119E+02  0.29062054890E+02  0.30935165803E+02  0.00000000000E+00 0.  1.
         -1    1    6    6    0  502 -0.50895948620E+02  0.62625551130E+02 -0.16022756963E+03  0.17940242838E+03  0.00000000000E+00 0.  1.
<mgrwt>
<rscale>  0 0.18490815E+04</rscale>
<asrwt>0</asrwt>
<pdfrwt beam="1">  1        1 0.14496108E+00 0.18490815E+04</pdfrwt>
<pdfrwt beam="2">  1       -1 0.13956420E+00 0.18490815E+04</pdfrwt>
<totfact> 0.66775834E+00</totfact>
</mgrwt>
</event>
<event>
12    1  0.2214165E-007  0.1750383E+04  0.7818608E-02  0.8733139E-01
          2   -1    0    0  501    0  0.00000000000E+00  0.00000000000E+00  0.10456584728E+04  0.10456584728E+04  0.00000000000E+00 0. -1.
         -2   -1    0    0    0  501 -0.00000000000E+00 -0.00000000000E+00 -0.73251481167E+03  0.73251481167E+03  0.00000000000E+00 0.  1.
         23    2    1    2    0    0 -0.46895607468E+03  0.36944610112E+03  0.31575529408E+03  0.68151464441E+03  0.91381525390E+02 0.  0.
        254    2    1    2    0    0  0.46895607468E+03 -0.36944610112E+03 -0.26116329926E+01  0.10966586400E+04  0.91991474087E+03 0.  0.
        -24    2    4    4    0    0  0.57399940061E+03 -0.46576024735E+03  0.25993410575E+03  0.78763952823E+03  0.80014793560E+02 0.  0.
         24    2    4    4    0    0 -0.10504332593E+03  0.96314146221E+02 -0.26254573875E+03  0.30901911178E+03  0.79069788343E+02 0.  0.
         11    1    3    3    0    0 -0.33497469861E+03  0.24231998678E+03  0.17339331577E+03  0.44832161074E+03  0.00000000000E+00 0.  1.
        -11    1    3    3    0    0 -0.13398137607E+03  0.12712611435E+03  0.14236197831E+03  0.23319303367E+03  0.00000000000E+00 0. -1.
          2    1    6    6  502    0 -0.11370621141E+03  0.96814837438E+02 -0.22200520214E+03  0.26756032038E+03  0.00000000000E+00 0. -1.
          1    1    5    5  503    0  0.55093654283E+03 -0.46325155290E+03  0.25669524292E+03  0.76421562614E+03  0.00000000000E+00 0. -1.
         -2    1    5    5    0  503  0.23062857780E+02 -0.25086944407E+01  0.32388628309E+01  0.23423902092E+02  0.00000000000E+00 0.  1.
         -1    1    6    6    0  502  0.86628854860E+01 -0.50069121690E+00 -0.40540536602E+02  0.41458791403E+02  0.00000000000E+00 0.  1.
<mgrwt>
<rscale>  0 0.17503832E+04</rscale>
<asrwt>0</asrwt>
<pdfrwt beam="1">  1        2 0.16087053E+00 0.17503832E+04</pdfrwt>
<pdfrwt beam="2">  1       -2 0.11269459E+00 0.17503832E+04</pdfrwt>
<totfact> 0.13833239E+01</totfact>
</mgrwt>
</event>
<event>
12    1  0.2214165E-007  0.4022402E+04  0.7818608E-02  0.8000042E-01
          2   -1    0    0  501    0  0.00000000000E+00  0.00000000000E+00  0.20496875342E+04  0.20496875342E+04  0.00000000000E+00 0. -1.
         -2   -1    0    0    0  501 -0.00000000000E+00 -0.00000000000E+00 -0.19734375658E+04  0.19734375658E+04  0.00000000000E+00 0.  1.
         23    2    1    2    0    0  0.85425800654E+03 -0.16767453093E+04 -0.28465539191E+03  0.19055592401E+04  0.94317291140E+02 0.  0.
        254    2    1    2    0    0 -0.85425800654E+03  0.16767453093E+04  0.36090536029E+03  0.21175658600E+04  0.90144379657E+03 0.  0.
        -24    2    4    4    0    0 -0.61967160278E+03  0.34247045467E+03  0.25388494585E+03  0.75623352420E+03  0.78438955755E+02 0.  0.
         24    2    4    4    0    0 -0.23458640375E+03  0.13342748546E+04  0.10702041445E+03  0.13613323358E+04  0.80325530785E+02 0.  0.
         13    1    3    3    0    0  0.12419548830E+03 -0.18487537882E+03 -0.48404105339E+02  0.22791749038E+03  0.00000000000E+00 0. -1.
        -13    1    3    3    0    0  0.73006251823E+03 -0.14918699304E+04 -0.23625128657E+03  0.16776417497E+04  0.00000000000E+00 0.  1.
          2    1    6    6  502    0 -0.19831758124E+03  0.12021101270E+04  0.11672896316E+03  0.12239380177E+04  0.00000000000E+00 0. -1.
          1    1    5    5  503    0 -0.53539376666E+03  0.26654212518E+03  0.19980950535E+03  0.63056722743E+03  0.00000000000E+00 0. -1.
         -2    1    5    5    0  503 -0.84277836126E+02  0.75928329491E+02  0.54075440492E+02  0.12566629678E+03  0.00000000000E+00 0.  1.
         -1    1    6    6    0  502 -0.36268822517E+02  0.13216472760E+03 -0.97085487157E+01  0.13739431802E+03  0.00000000000E+00 0.  1.
<mgrwt>
<rscale>  0 0.40224025E+04</rscale>
<asrwt>0</asrwt>
<pdfrwt beam="1">  1        2 0.31533654E+00 0.40224025E+04</pdfrwt>
<pdfrwt beam="2">  1       -2 0.30360578E+00 0.40224025E+04</pdfrwt>
<totfact> 0.14911202E-01</totfact>
</mgrwt>
</event>
<event>
12    1  0.2214165E-007  0.3385048E+04  0.7818608E-02  0.8141586E-01
         -2   -1    0    0    0  501 -0.00000000000E+00  0.00000000000E+00  0.10713304914E+04  0.10713304914E+04  0.00000000000E+00 0.  1.
          2   -1    0    0  501    0  0.00000000000E+00 -0.00000000000E+00 -0.26739068002E+04  0.26739068002E+04  0.00000000000E+00 0. -1.
         23    2    1    2    0    0  0.14893987502E+04  0.34472757562E+03 -0.11475606836E+04  0.19137058282E+04  0.90712380309E+02 0.  0.
        254    2    1    2    0    0 -0.14893987502E+04 -0.34472757562E+03 -0.45501562525E+03  0.18315314634E+04  0.90017917309E+03 0.  0.
        -24    2    4    4    0    0 -0.52432357072E+03 -0.29311709834E+03  0.22559439991E+03  0.64648172993E+03  0.78822291987E+02 0.  0.
         24    2    4    4    0    0 -0.96507517948E+03 -0.51610477277E+02 -0.68061002516E+03  0.11850497334E+04  0.84137512420E+02 0.  0.
         13    1    3    3    0    0  0.77009772149E+03  0.15724848259E+03 -0.64030205576E+03  0.10137871120E+04  0.00000000000E+00 0. -1.
        -13    1    3    3    0    0  0.71930102871E+03  0.18747909303E+03 -0.50725862786E+03  0.89991871619E+03  0.00000000000E+00 0.  1.
          2    1    6    6  502    0 -0.41287144664E+03 -0.24686920267E+02 -0.34239840324E+03  0.53694407718E+03  0.00000000000E+00 0. -1.
          3    1    5    5  503    0 -0.42949197405E+03 -0.20319140312E+03  0.17464782605E+03  0.50621335938E+03  0.00000000000E+00 0. -1.
         -4    1    5    5    0  503 -0.94831596665E+02 -0.89925695223E+02  0.50946573854E+02  0.14026837054E+03  0.00000000000E+00 0.  1.
         -1    1    6    6    0  502 -0.55220373284E+03 -0.26923557010E+02 -0.33821162192E+03  0.64810565627E+03  0.00000000000E+00 0.  1.
<mgrwt>
<rscale>  0 0.33850482E+04</rscale>
<asrwt>0</asrwt>
<pdfrwt beam="1">  1        2 0.41137027E+00 0.33850482E+04</pdfrwt>
<pdfrwt beam="2">  1       -2 0.16482008E+00 0.33850482E+04</pdfrwt>
<totfact> 0.52992901E-01</totfact>
</mgrwt>
</event>
<event>
12    1  0.2214165E-007  0.3134000E+04  0.7818608E-02  0.8206468E-01
          2   -1    0    0  501    0  0.00000000000E+00  0.00000000000E+00  0.22297848425E+04  0.22297848425E+04  0.00000000000E+00 0. -1.
         -2   -1    0    0    0  501 -0.00000000000E+00 -0.00000000000E+00 -0.11012221265E+04  0.11012221265E+04  0.00000000000E+00 0.  1.
         23    2    1    2    0    0  0.42600541013E+03 -0.10616100752E+04  0.14419134879E+04  0.18427296263E+04  0.89673897145E+02 0.  0.
        254    2    1    2    0    0 -0.42600541013E+03  0.10616100752E+04 -0.31335077185E+03  0.14882773427E+04  0.89904626205E+03 0.  0.
        -24    2    4    4    0    0  0.16800563735E+03  0.70955672702E+03 -0.19671984393E+02  0.73391939452E+03  0.80957072846E+02 0.  0.
         24    2    4    4    0    0 -0.59401104748E+03  0.35205334821E+03 -0.29367878746E+03  0.75435794819E+03  0.77575764752E+02 0.  0.
         13    1    3    3    0    0  0.32708657538E+03 -0.87107763087E+03  0.12150127521E+04  0.15303652683E+04  0.00000000000E+00 0.  1.
        -13    1    3    3    0    0  0.98918834752E+02 -0.19053244436E+03  0.22690073575E+03  0.31236435793E+03  0.00000000000E+00 0. -1.
          2    1    6    6  502    0 -0.46159335712E+03  0.30650247439E+03 -0.24807490692E+03  0.60708595239E+03  0.00000000000E+00 0. -1.
          1    1    5    5  503    0  0.15481548400E+03  0.67421252719E+03 -0.84988919622E+00  0.69175941498E+03  0.00000000000E+00 0. -1.
         -2    1    5    5    0  503  0.13190153355E+02  0.35344199829E+02 -0.18822095197E+02  0.42159979538E+02  0.00000000000E+00 0.  1.
         -1    1    6    6    0  502 -0.13241769036E+03  0.45550873817E+02 -0.45603880535E+02  0.14727199580E+03  0.00000000000E+00 0.  1.
<mgrwt>
<rscale>  0 0.31339996E+04</rscale>
<asrwt>0</asrwt>
<pdfrwt beam="1">  1        2 0.34304382E+00 0.31339996E+04</pdfrwt>
<pdfrwt beam="2">  1       -2 0.16941879E+00 0.31339996E+04</pdfrwt>
<totfact> 0.90504843E-01</totfact>
</mgrwt>
</event>
<event>
12    1  0.2214165E-007  0.1314028E+04  0.7818608E-02  0.9018515E-01
          2   -1    0    0  501    0  0.00000000000E+00  0.00000000000E+00  0.20871120655E+04  0.20871120655E+04  0.00000000000E+00 0. -1.
         -2   -1    0    0    0  501 -0.00000000000E+00 -0.00000000000E+00 -0.20682506492E+03  0.20682506492E+03  0.00000000000E+00 0.  1.
         23    2    1    2    0    0  0.15768055564E+03 -0.39216841731E+02  0.10311051866E+04  0.10477832597E+04  0.90943583021E+02 0.  0.
        254    2    1    2    0    0 -0.15768055564E+03  0.39216841731E+02  0.84918181397E+03  0.12461538706E+04  0.89743445323E+03 0.  0.
        -24    2    4    4    0    0 -0.20337847496E+03 -0.71727329449E+02  0.10069825647E+04  0.10329982489E+04  0.81017793015E+02 0.  0.
         24    2    4    4    0    0  0.45697919323E+02  0.11094417118E+03 -0.15780075076E+03  0.21315562170E+03  0.78341133354E+02 0.  0.
         13    1    3    3    0    0  0.64430408681E+02 -0.24204475299E+02  0.20389404345E+03  0.21519738646E+03  0.00000000000E+00 0.  1.
        -13    1    3    3    0    0  0.93250146958E+02 -0.15012366433E+02  0.82721114314E+03  0.83258587328E+03  0.00000000000E+00 0. -1.
          2    1    6    6  502    0  0.66225752664E+02  0.99121032613E+02 -0.13727463002E+03  0.18181076280E+03  0.00000000000E+00 0. -1.
          3    1    5    5  503    0 -0.11456223102E+03  0.25203655116E+01  0.50767917046E+03  0.52045076342E+03  0.00000000000E+00 0. -1.
         -4    1    5    5    0  503 -0.88816243940E+02 -0.74247694961E+02  0.49930339426E+03  0.51254748552E+03  0.00000000000E+00 0.  1.
         -1    1    6    6    0  502 -0.20527833341E+02  0.11823138568E+02 -0.20526120733E+02  0.31344858903E+02  0.00000000000E+00 0.  1.
<mgrwt>
<rscale>  0 0.13140275E+04</rscale>
<asrwt>0</asrwt>
<pdfrwt beam="1">  1        2 0.32109415E+00 0.13140275E+04</pdfrwt>
<pdfrwt beam="2">  1       -2 0.31819242E-01 0.13140275E+04</pdfrwt>
<totfact> 0.53783555E+01</totfact>
</mgrwt>
</event>
<event>
12    1  0.2214165E-007  0.3207919E+04  0.7818608E-02  0.8186729E-01
          1   -1    0    0  501    0  0.00000000000E+00  0.00000000000E+00  0.59337383505E+03  0.59337383505E+03  0.00000000000E+00 0. -1.
         -1   -1    0    0    0  501 -0.00000000000E+00 -0.00000000000E+00 -0.43356909767E+04  0.43356909767E+04  0.00000000000E+00 0.  1.
         23    2    1    2    0    0  0.38046223565E+03  0.80040209148E+03 -0.35394459018E+04  0.36498239973E+04  0.90238011383E+02 0.  0.
        254    2    1    2    0    0 -0.38046223565E+03 -0.80040209148E+03 -0.20287123993E+03  0.12792408145E+04  0.89994738778E+03 0.  0.
        -24    2    4    4    0    0 -0.67025848243E+03 -0.59103998040E+03 -0.14480056481E+03  0.90878413030E+03  0.79666179871E+02 0.  0.
         24    2    4    4    0    0  0.28979624678E+03 -0.20936211108E+03 -0.58070675119E+02  0.37045668423E+03  0.77791987875E+02 0.  0.
         11    1    3    3    0    0  0.25195949169E+03  0.56471956528E+03 -0.26204897857E+04  0.26924632755E+04  0.00000000000E+00 0.  1.
        -11    1    3    3    0    0  0.12850274395E+03  0.23568252620E+03 -0.91895611604E+03  0.95736072175E+03  0.00000000000E+00 0. -1.
          4    1    6    6  502    0  0.79294209627E+02 -0.99688499860E+02 -0.64065582219E+01  0.12753984739E+03  0.00000000000E+00 0. -1.
          3    1    5    5  503    0 -0.52314160028E+03 -0.47522970693E+03 -0.14531920421E+03  0.72155254792E+03  0.00000000000E+00 0. -1.
         -4    1    5    5    0  503 -0.14711688215E+03 -0.11581027347E+03  0.51863940423E+00  0.18723158239E+03  0.00000000000E+00 0.  1.
         -3    1    6    6    0  502  0.21050203716E+03 -0.10967361122E+03 -0.51664116897E+02  0.24291683684E+03  0.00000000000E+00 0.  1.
<mgrwt>
<rscale>  0 0.32079187E+04</rscale>
<asrwt>0</asrwt>
<pdfrwt beam="1">  1        1 0.91288283E-01 0.32079187E+04</pdfrwt>
<pdfrwt beam="2">  1       -1 0.66702938E+00 0.32079187E+04</pdfrwt>
<totfact> 0.74372894E-03</totfact>
</mgrwt>
</event>
<event>
12    1  0.2214165E-007  0.1707379E+04  0.7818608E-02  0.8757167E-01
         -2   -1    0    0    0  501 -0.00000000000E+00  0.00000000000E+00  0.68904494727E+03  0.68904494727E+03  0.00000000000E+00 0.  1.
          2   -1    0    0  501    0  0.00000000000E+00 -0.00000000000E+00 -0.10576747080E+04  0.10576747080E+04  0.00000000000E+00 0. -1.
         23    2    1    2    0    0  0.58185608963E+03 -0.19143495693E+03 -0.14005145121E+03  0.63502065940E+03  0.91831242539E+02 0.  0.
        254    2    1    2    0    0 -0.58185608963E+03  0.19143495693E+03 -0.22857830951E+03  0.11116989959E+04  0.89912332972E+03 0.  0.
        -24    2    4    4    0    0 -0.42288248509E+03  0.28075920674E+03  0.26609710552E+03  0.57842704383E+03  0.78197487837E+02 0.  0.
         24    2    4    4    0    0 -0.15897360454E+03 -0.89324249807E+02 -0.49467541502E+03  0.53327195203E+03  0.80148487531E+02 0.  0.
         11    1    3    3    0    0  0.23610331509E+03 -0.66444204433E+02 -0.11504893285E+02  0.24554423281E+03  0.00000000000E+00 0. -1.
        -11    1    3    3    0    0  0.34575277454E+03 -0.12499075250E+03 -0.12854655793E+03  0.38947642659E+03  0.00000000000E+00 0.  1.
          4    1    6    6  502    0 -0.10035149330E+03 -0.87364032043E+02 -0.40339257510E+03  0.42476872054E+03  0.00000000000E+00 0. -1.
          3    1    5    5  503    0 -0.14162139131E+03  0.78028166586E+02  0.47374668524E+02  0.16849146113E+03  0.00000000000E+00 0. -1.
         -4    1    5    5    0  503 -0.28126109378E+03  0.20273104016E+03  0.21872243699E+03  0.40993558269E+03  0.00000000000E+00 0.  1.
         -3    1    6    6    0  502 -0.58622111249E+02 -0.19602177648E+01 -0.91282839922E+02  0.10850323150E+03  0.00000000000E+00 0.  1.
<mgrwt>
<rscale>  0 0.17073786E+04</rscale>
<asrwt>0</asrwt>
<pdfrwt beam="1">  1        2 0.16271919E+00 0.17073786E+04</pdfrwt>
<pdfrwt beam="2">  1       -2 0.10600692E+00 0.17073786E+04</pdfrwt>
<totfact> 0.15818511E+01</totfact>
</mgrwt>
</event>
<event>
12    1  0.2214165E-007  0.3287057E+04  0.7818608E-02  0.8166196E-01
          2   -1    0    0  501    0  0.00000000000E+00  0.00000000000E+00  0.31885891260E+04  0.31885891260E+04  0.00000000000E+00 0. -1.
         -2   -1    0    0    0  501 -0.00000000000E+00 -0.00000000000E+00 -0.84714167993E+03  0.84714167993E+03  0.00000000000E+00 0.  1.
         23    2    1    2    0    0 -0.13224268663E+04  0.69287150470E+03  0.14344540511E+04  0.20719086937E+04  0.79142096564E+02 0.  0.
        254    2    1    2    0    0  0.13224268663E+04 -0.69287150470E+03  0.90699339500E+03  0.19638221123E+04  0.89726057042E+03 0.  0.
        -24    2    4    4    0    0  0.13749086618E+04 -0.50337765788E+03  0.95199175708E+03  0.17482231751E+04  0.78949792705E+02 0.  0.
         24    2    4    4    0    0 -0.52481795501E+02 -0.18949384683E+03 -0.44998362076E+02  0.21559893712E+03  0.76130100823E+02 0.  0.
         11    1    3    3    0    0 -0.10125104418E+04  0.52251337137E+03  0.10480530562E+04  0.15480997470E+04  0.00000000000E+00 0.  1.
        -11    1    3    3    0    0 -0.30991642450E+03  0.17035813333E+03  0.38640099485E+03  0.52380894665E+03  0.00000000000E+00 0. -1.
          4    1    6    6  502    0 -0.17742275756E+02 -0.70294589798E+01  0.10449186064E+02  0.21757461524E+02  0.00000000000E+00 0. -1.
          1    1    5    5  503    0  0.62015176022E+03 -0.26871549577E+03  0.43378999389E+03  0.80310023171E+03  0.00000000000E+00 0. -1.
         -2    1    5    5    0  503  0.75475690160E+03 -0.23466216211E+03  0.51820176319E+03  0.94512294344E+03  0.00000000000E+00 0.  1.
         -3    1    6    6    0  502 -0.34739519745E+02 -0.18246438785E+03 -0.55447548140E+02  0.19384147559E+03  0.00000000000E+00 0.  1.
<mgrwt>
<rscale>  0 0.32870575E+04</rscale>
<asrwt>0</asrwt>
<pdfrwt beam="1">  1        2 0.49055217E+00 0.32870575E+04</pdfrwt>
<pdfrwt beam="2">  1       -2 0.13032949E+00 0.32870575E+04</pdfrwt>
<totfact> 0.47548193E-01</totfact>
</mgrwt>
</event>
<event>
12    1  0.2214165E-007  0.2187323E+04  0.7818608E-02  0.8523723E-01
         -1   -1    0    0    0  501 -0.00000000000E+00  0.00000000000E+00  0.93664104800E+03  0.93664104800E+03  0.00000000000E+00 0.  1.
          1   -1    0    0  501    0  0.00000000000E+00 -0.00000000000E+00 -0.12770047456E+04  0.12770047456E+04  0.00000000000E+00 0. -1.
         23    2    1    2    0    0  0.23104794647E+03 -0.66213338719E+03 -0.72128159788E+03  0.10100626663E+04  0.90419413820E+02 0.  0.
        254    2    1    2    0    0 -0.23104794647E+03  0.66213338719E+03  0.38091790032E+03  0.12035831273E+04  0.90094956657E+03 0.  0.
        -24    2    4    4    0    0  0.22743680096E+03  0.27599564950E+03  0.46682902488E+03  0.59233253562E+03  0.70904141698E+02 0.  0.
         24    2    4    4    0    0 -0.45848474743E+03  0.38613773769E+03 -0.85911124563E+02  0.61125059166E+03  0.83282341367E+02 0.  0.
         13    1    3    3    0    0  0.93511275730E+02 -0.17591078028E+03 -0.24388296849E+03  0.31490929429E+03  0.00000000000E+00 0. -1.
        -13    1    3    3    0    0  0.13753667074E+03 -0.48622260691E+03 -0.47739862939E+03  0.69515337200E+03  0.00000000000E+00 0.  1.
          2    1    6    6  502    0 -0.28495093321E+03  0.28637274214E+03 -0.40636459095E+02  0.40602672767E+03  0.00000000000E+00 0. -1.
          3    1    5    5  503    0  0.17413255142E+03  0.15809157146E+03  0.29922648535E+03  0.38059372035E+03  0.00000000000E+00 0. -1.
         -4    1    5    5    0  503  0.53304249543E+02  0.11790407804E+03  0.16760253953E+03  0.21173881528E+03  0.00000000000E+00 0.  1.
         -1    1    6    6    0  502 -0.17353381423E+03  0.99764995550E+02 -0.45274665468E+02  0.20522386399E+03  0.00000000000E+00 0.  1.
<mgrwt>
<rscale>  0 0.21873226E+04</rscale>
<asrwt>0</asrwt>
<pdfrwt beam="1">  1        1 0.19646227E+00 0.21873226E+04</pdfrwt>
<pdfrwt beam="2">  1       -1 0.14409862E+00 0.21873226E+04</pdfrwt>
<totfact> 0.33316521E+00</totfact>
</mgrwt>
</event>
<event>
12    1  0.2214165E-007  0.3246219E+04  0.7818608E-02  0.8176716E-01
         -1   -1    0    0    0  501 -0.00000000000E+00  0.00000000000E+00  0.18503786746E+04  0.18503786746E+04  0.00000000000E+00 0.  1.
          1   -1    0    0  501    0  0.00000000000E+00 -0.00000000000E+00 -0.14237543913E+04  0.14237543913E+04  0.00000000000E+00 0. -1.
         23    2    1    2    0    0  0.60157961520E+02  0.11707603924E+04  0.11359702964E+04  0.16349352406E+04  0.91026644262E+02 0.  0.
        254    2    1    2    0    0 -0.60157961520E+02 -0.11707603924E+04 -0.70934601314E+03  0.16391978253E+04  0.89972154989E+03 0.  0.
        -24    2    4    4    0    0 -0.37326389886E+03 -0.34305704748E+03 -0.51994301297E+03  0.73071797297E+03  0.81203098883E+02 0.  0.
         24    2    4    4    0    0  0.31310593734E+03 -0.82770334489E+03 -0.18940300017E+03  0.90847985230E+03  0.79586370890E+02 0.  0.
         13    1    3    3    0    0 -0.23982218465E+02  0.20248192969E+03  0.19942265806E+03  0.28520777549E+03  0.00000000000E+00 0. -1.
        -13    1    3    3    0    0  0.84140179985E+02  0.96827846268E+03  0.93654763839E+03  0.13497274651E+04  0.00000000000E+00 0.  1.
          4    1    6    6  502    0  0.15334421974E+03 -0.37558285448E+03 -0.12594948963E+03  0.42478253759E+03  0.00000000000E+00 0. -1.
          3    1    5    5  503    0 -0.12509320198E+03 -0.91981038377E+02 -0.11329123665E+03  0.19220750481E+03  0.00000000000E+00 0. -1.
         -4    1    5    5    0  503 -0.24817069687E+03 -0.25107600911E+03 -0.40665177632E+03  0.53851046816E+03  0.00000000000E+00 0.  1.
         -3    1    6    6    0  502  0.15976171760E+03 -0.45212049040E+03 -0.63453510542E+02  0.48369731471E+03  0.00000000000E+00 0.  1.
<mgrwt>
<rscale>  0 0.32462192E+04</rscale>
<asrwt>0</asrwt>
<pdfrwt beam="1">  1        1 0.21903914E+00 0.32462192E+04</pdfrwt>
<pdfrwt beam="2">  1       -1 0.28467364E+00 0.32462192E+04</pdfrwt>
<totfact> 0.25574924E-01</totfact>
</mgrwt>
</event>
<event>
12    1  0.2214165E-007  0.1911047E+04  0.7818608E-02  0.8649377E-01
          1   -1    0    0  501    0  0.00000000000E+00  0.00000000000E+00  0.13723931997E+04  0.13723931997E+04  0.00000000000E+00 0. -1.
         -1   -1    0    0    0  501 -0.00000000000E+00 -0.00000000000E+00 -0.66527988503E+03  0.66527988503E+03  0.00000000000E+00 0.  1.
         23    2    1    2    0    0 -0.35352876535E+02 -0.60390876828E+03  0.72977934873E+03  0.95228456030E+03  0.91172143048E+02 0.  0.
        254    2    1    2    0    0  0.35352876535E+02  0.60390876828E+03 -0.22666034034E+02  0.10853885244E+04  0.90088782522E+03 0.  0.
        -24    2    4    4    0    0  0.39596482616E+02  0.79896860848E+03 -0.17815738298E+03  0.82372313706E+03  0.82831362667E+02 0.  0.
         24    2    4    4    0    0 -0.42436060816E+01 -0.19505984020E+03  0.15549134894E+03  0.26166538739E+03  0.78897819431E+02 0.  0.
         11    1    3    3    0    0  0.26890258506E+01 -0.49609252509E+03  0.56744655770E+03  0.75373113254E+03  0.00000000000E+00 0. -1.
        -11    1    3    3    0    0 -0.38041902385E+02 -0.10781624319E+03  0.16233279103E+03  0.19855342776E+03  0.00000000000E+00 0.  1.
          2    1    6    6  502    0 -0.56121445823E+01 -0.18764078470E+03  0.11428970413E+03  0.21977874492E+03  0.00000000000E+00 0. -1.
          3    1    5    5  503    0 -0.62074673465E+01  0.36958102637E+03 -0.48166201978E+02  0.37275816654E+03  0.00000000000E+00 0. -1.
         -4    1    5    5    0  503  0.45803949963E+02  0.42938758211E+03 -0.12999118100E+03  0.45096497052E+03  0.00000000000E+00 0.  1.
         -3    1    6    6    0  502  0.13685385007E+01 -0.74190555011E+01  0.41201644810E+02  0.41886642467E+02  0.00000000000E+00 0.  1.
<mgrwt>
<rscale>  0 0.19110475E+04</rscale>
<asrwt>0</asrwt>
<pdfrwt beam="1">  1        1 0.21113741E+00 0.19110475E+04</pdfrwt>
<pdfrwt beam="2">  1       -1 0.10235075E+00 0.19110475E+04</pdfrwt>
<totfact> 0.67853608E+00</totfact>
</mgrwt>
</event>
<event>
12    1  0.2214165E-007  0.1160367E+04  0.7818608E-02  0.9148273E-01
         -1   -1    0    0    0  501 -0.00000000000E+00  0.00000000000E+00  0.24259181881E+03  0.24259181881E+03  0.00000000000E+00 0.  1.
          1   -1    0    0  501    0  0.00000000000E+00 -0.00000000000E+00 -0.13875685213E+04  0.13875685213E+04  0.00000000000E+00 0. -1.
         23    2    1    2    0    0  0.15426262196E+03  0.81382782451E+02 -0.74354793121E+02  0.21082589397E+03  0.92188982492E+02 0.  0.
        254    2    1    2    0    0 -0.15426262196E+03 -0.81382782451E+02 -0.10706219094E+04  0.14193344462E+04  0.91534631881E+03 0.  0.
        -24    2    4    4    0    0  0.30145329462E+02 -0.42731602290E+03 -0.86719050760E+03  0.97053240109E+03  0.80037745922E+02 0.  0.
         24    2    4    4    0    0 -0.18440795142E+03  0.34593324045E+03 -0.20343140179E+03  0.44880204506E+03  0.79767418298E+02 0.  0.
         11    1    3    3    0    0 -0.18245520485E+01  0.83105895442E+01 -0.32330602975E+02  0.33431463885E+02  0.00000000000E+00 0. -1.
        -11    1    3    3    0    0  0.15608717401E+03  0.73072192906E+02 -0.42024190146E+02  0.17739443008E+03  0.00000000000E+00 0.  1.
          2    1    6    6  502    0 -0.17616687161E+03  0.29928807041E+03 -0.15263974985E+03  0.37935077300E+03  0.00000000000E+00 0. -1.
          3    1    5    5  503    0  0.39711215146E+02 -0.29419119197E+03 -0.66513753283E+03  0.72837722069E+03  0.00000000000E+00 0. -1.
         -4    1    5    5    0  503 -0.95658856837E+01 -0.13312483094E+03 -0.20205297477E+03  0.24215518040E+03  0.00000000000E+00 0.  1.
         -1    1    6    6    0  502 -0.82410798178E+01  0.46645170048E+02 -0.50791651938E+02  0.69451272069E+02  0.00000000000E+00 0.  1.
<mgrwt>
<rscale>  0 0.11603668E+04</rscale>
<asrwt>0</asrwt>
<pdfrwt beam="1">  1        1 0.21347208E+00 0.11603668E+04</pdfrwt>
<pdfrwt beam="2">  1       -1 0.37321818E-01 0.11603668E+04</pdfrwt>
<totfact> 0.53743784E+01</totfact>
</mgrwt>
</event>
<event>
12    1  0.2214165E-007  0.3888051E+04  0.7818608E-02  0.8027519E-01
          2   -1    0    0  501    0  0.00000000000E+00  0.00000000000E+00  0.21014492915E+04  0.21014492915E+04  0.00000000000E+00 0. -1.
         -2   -1    0    0    0  501 -0.00000000000E+00 -0.00000000000E+00 -0.17983950489E+04  0.17983950489E+04  0.00000000000E+00 0.  1.
         23    2    1    2    0    0  0.13033038210E+04  0.10100327961E+04  0.96177834937E+03  0.19110508324E+04  0.91272075802E+02 0.  0.
        254    2    1    2    0    0 -0.13033038210E+04 -0.10100327961E+04 -0.65872410671E+03  0.19887935080E+04  0.89588786666E+03 0.  0.
        -24    2    4    4    0    0 -0.11656358973E+04 -0.40154176460E+03 -0.32836783964E+03  0.12780807023E+04  0.75643966134E+02 0.  0.
         24    2    4    4    0    0 -0.13766792365E+03 -0.60849103150E+03 -0.33035626706E+03  0.71071280568E+03  0.82241329954E+02 0.  0.
         13    1    3    3    0    0  0.12618696634E+03  0.76890684568E+02  0.63508076263E+02  0.16083719594E+03  0.00000000000E+00 0. -1.
        -13    1    3    3    0    0  0.11771168546E+04  0.93314211154E+03  0.89827027310E+03  0.17502136365E+04  0.00000000000E+00 0.  1.
          2    1    6    6  502    0  0.53150600429E+01 -0.12399395100E+03 -0.66235573915E+02  0.14067658298E+03  0.00000000000E+00 0. -1.
          3    1    5    5  503    0 -0.79855370607E+03 -0.29828076940E+03 -0.25490629865E+03  0.88973965853E+03  0.00000000000E+00 0. -1.
         -4    1    5    5    0  503 -0.36708219123E+03 -0.10326099520E+03 -0.73461540997E+02  0.38834104375E+03  0.00000000000E+00 0.  1.
         -1    1    6    6    0  502 -0.14298298369E+03 -0.48449708050E+03 -0.26412069315E+03  0.57003622270E+03  0.00000000000E+00 0.  1.
<mgrwt>
<rscale>  0 0.38880514E+04</rscale>
<asrwt>0</asrwt>
<pdfrwt beam="1">  1        2 0.32329989E+00 0.38880514E+04</pdfrwt>
<pdfrwt beam="2">  1       -2 0.27667616E+00 0.38880514E+04</pdfrwt>
<totfact> 0.20602608E-01</totfact>
</mgrwt>
</event>
<event>
12    1  0.2214165E-007  0.2680872E+04  0.7818608E-02  0.8341238E-01
          2   -1    0    0  501    0  0.00000000000E+00  0.00000000000E+00  0.16086721355E+04  0.16086721355E+04  0.00000000000E+00 0.  1.
         -2   -1    0    0    0  501 -0.00000000000E+00 -0.00000000000E+00 -0.11169268589E+04  0.11169268589E+04  0.00000000000E+00 0. -1.
         23    2    1    2    0    0 -0.28223748127E+03 -0.10056384319E+04  0.78866423259E+03  0.13120300851E+04  0.92005547892E+02 0.  0.
        254    2    1    2    0    0  0.28223748127E+03  0.10056384319E+04 -0.29691895598E+03  0.14135689093E+04  0.90501355977E+03 0.  0.
        -24    2    4    4    0    0  0.29139969360E+03 -0.45554496082E+01  0.10970752326E+03  0.32172452113E+03  0.80847964003E+02 0.  0.
         24    2    4    4    0    0 -0.91622123342E+01  0.10101938815E+04 -0.40662647924E+03  0.10918443882E+04  0.78761983089E+02 0.  0.
         11    1    3    3    0    0 -0.77532539650E+02 -0.43672775905E+03  0.35083349366E+03  0.56553211271E+03  0.00000000000E+00 0.  1.
        -11    1    3    3    0    0 -0.20470494162E+03 -0.56891067286E+03  0.43783073893E+03  0.74649797238E+03  0.00000000000E+00 0. -1.
          4    1    6    6  502    0 -0.11619923031E+02  0.23731866199E+03 -0.61659791691E+02  0.24547321616E+03  0.00000000000E+00 0. -1.
          3    1    5    5  503    0  0.27810654306E+03 -0.17758693688E+02  0.86274767578E+02  0.29172239547E+03  0.00000000000E+00 0. -1.
         -4    1    5    5    0  503  0.13293150539E+02  0.13203244079E+02  0.23432755680E+02  0.30002125661E+02  0.00000000000E+00 0.  1.
         -3    1    6    6    0  502  0.24577106966E+01  0.77287521952E+03 -0.34496668755E+03  0.84637117201E+03  0.00000000000E+00 0.  1.
<mgrwt>
<rscale>  0 0.26808723E+04</rscale>
<asrwt>0</asrwt>
<pdfrwt beam="1">  1        2 0.24748802E+00 0.26808723E+04</pdfrwt>
<pdfrwt beam="2">  1       -2 0.17183490E+00 0.26808723E+04</pdfrwt>
<totfact> 0.20045630E+00</totfact>
</mgrwt>
</event>
<event>
12    1  0.2214165E-007  0.1521796E+04  0.7818608E-02  0.8870087E-01
         -1   -1    0    0    0  501 -0.00000000000E+00  0.00000000000E+00  0.73714224209E+03  0.73714224209E+03  0.00000000000E+00 0.  1.
          1   -1    0    0  501    0  0.00000000000E+00 -0.00000000000E+00 -0.78541944173E+03  0.78541944173E+03  0.00000000000E+00 0. -1.
         23    2    1    2    0    0 -0.41465347795E+03  0.21019285014E+03 -0.14598375758E+03  0.49569119462E+03  0.90994296138E+02 0.  0.
        254    2    1    2    0    0  0.41465347795E+03 -0.21019285014E+03  0.97706557935E+02  0.10268704892E+04  0.91038337479E+03 0.  0.
        -24    2    4    4    0    0  0.54075056908E+03  0.12073732362E+03 -0.15914323097E+03  0.58165321772E+03  0.77493344494E+02 0.  0.
         24    2    4    4    0    0 -0.12609709113E+03 -0.33093017376E+03  0.25684978890E+03  0.44521727148E+03  0.82651971966E+02 0.  0.
         11    1    3    3    0    0 -0.22219007953E+03  0.67563436498E+02 -0.49582154955E+02  0.23746923903E+03  0.00000000000E+00 0. -1.
        -11    1    3    3    0    0 -0.19246339841E+03  0.14262941364E+03 -0.96401602622E+02  0.25822195560E+03  0.00000000000E+00 0.  1.
          2    1    6    6  502    0 -0.13636371347E+03 -0.30335595892E+03  0.24666278427E+03  0.41408022086E+03  0.00000000000E+00 0. -1.
          1    1    5    5  503    0  0.54252644723E+03  0.11708099794E+03 -0.15602421258E+03  0.57652967047E+03  0.00000000000E+00 0. -1.
         -2    1    5    5    0  503 -0.17758781490E+01  0.36563256773E+01 -0.31190183896E+01  0.51235472452E+01  0.00000000000E+00 0.  1.
         -1    1    6    6    0  502  0.10266622332E+02 -0.27574214840E+02  0.10187004631E+02  0.31137050624E+02  0.00000000000E+00 0.  1.
<mgrwt>
<rscale>  0 0.15217961E+04</rscale>
<asrwt>0</asrwt>
<pdfrwt beam="1">  1        1 0.12083376E+00 0.15217961E+04</pdfrwt>
<pdfrwt beam="2">  1       -1 0.11340650E+00 0.15217961E+04</pdfrwt>
<totfact> 0.15611546E+01</totfact>
</mgrwt>
</event>
<event>
12    1  0.2214165E-007  0.3188763E+04  0.7818608E-02  0.8191791E-01
          2   -1    0    0  501    0  0.00000000000E+00  0.00000000000E+00  0.33147906416E+04  0.33147906416E+04  0.00000000000E+00 0. -1.
         -2   -1    0    0    0  501 -0.00000000000E+00 -0.00000000000E+00 -0.76688171157E+03  0.76688171157E+03  0.00000000000E+00 0.  1.
         23    2    1    2    0    0  0.97720161444E+03 -0.10634018034E+04  0.85179858843E+03  0.16791875674E+04  0.91453051360E+02 0.  0.
        254    2    1    2    0    0 -0.97720161444E+03  0.10634018034E+04  0.16961103416E+04  0.24024847858E+04  0.89966463997E+03 0.  0.
        -24    2    4    4    0    0 -0.48292269734E+02  0.68224863496E+03  0.78808430350E+03  0.10464727002E+04  0.78948715401E+02 0.  0.
         24    2    4    4    0    0 -0.92890934470E+03  0.38115316839E+03  0.90802603813E+03  0.13560120856E+04  0.78148460538E+02 0.  0.
         11    1    3    3    0    0  0.86349617890E+03 -0.94328106049E+03  0.71917108762E+03  0.14671781975E+04  0.00000000000E+00 0.  1.
        -11    1    3    3    0    0  0.11370543554E+03 -0.12012074286E+03  0.13262750080E+03  0.21200936985E+03  0.00000000000E+00 0. -1.
          4    1    6    6  502    0 -0.65107682677E+03  0.27878614859E+03  0.59355005118E+03  0.92408030725E+03  0.00000000000E+00 0. -1.
          3    1    5    5  503    0 -0.65602557548E+02  0.46798383220E+03  0.56707090626E+03  0.73816121239E+03  0.00000000000E+00 0. -1.
         -4    1    5    5    0  503  0.17310287814E+02  0.21426480276E+03  0.22101339724E+03  0.30831148783E+03  0.00000000000E+00 0.  1.
         -3    1    6    6    0  502 -0.27783251793E+03  0.10236701980E+03  0.31447598695E+03  0.43193177833E+03  0.00000000000E+00 0.  1.
<mgrwt>
<rscale>  0 0.31887630E+04</rscale>
<asrwt>0</asrwt>
<pdfrwt beam="1">  1        2 0.50996779E+00 0.31887630E+04</pdfrwt>
<pdfrwt beam="2">  1       -2 0.11798180E+00 0.31887630E+04</pdfrwt>
<totfact> 0.50766597E-01</totfact>
</mgrwt>
</event>
<event>
12    1  0.2214165E-007  0.1761701E+04  0.7818608E-02  0.8726936E-01
         -2   -1    0    0    0  501 -0.00000000000E+00  0.00000000000E+00  0.53623929276E+03  0.53623929276E+03  0.00000000000E+00 0.  1.
          2   -1    0    0  501    0  0.00000000000E+00 -0.00000000000E+00 -0.14469239901E+04  0.14469239901E+04  0.00000000000E+00 0. -1.
         23    2    1    2    0    0 -0.48630230276E+03  0.17325504453E+03 -0.77718578902E+03  0.93742542067E+03  0.90782314026E+02 0.  0.
        254    2    1    2    0    0  0.48630230276E+03 -0.17325504453E+03 -0.13349890835E+03  0.10457378622E+04  0.89957683264E+03 0.  0.
        -24    2    4    4    0    0 -0.17313035357E+03  0.11679117074E+03  0.14821587533E+03  0.26818767328E+03  0.79639095361E+02 0.  0.
         24    2    4    4    0    0  0.65943265633E+03 -0.29004621528E+03 -0.28171478368E+03  0.77755018893E+03  0.79011655698E+02 0.  0.
         13    1    3    3    0    0 -0.11570717231E+03  0.50004586483E+02 -0.12684263157E+03  0.17882298951E+03  0.00000000000E+00 0. -1.
        -13    1    3    3    0    0 -0.37059513045E+03  0.12325045805E+03 -0.65034315745E+03  0.75860243116E+03  0.00000000000E+00 0.  1.
          2    1    6    6  502    0  0.56247792728E+03 -0.24811246024E+03 -0.26937959539E+03  0.67119786801E+03  0.00000000000E+00 0. -1.
          1    1    5    5  503    0 -0.16960160414E+03  0.82500972520E+02  0.11905334469E+03  0.22303545341E+03  0.00000000000E+00 0. -1.
         -2    1    5    5    0  503 -0.35287494317E+01  0.34290198222E+02  0.29162530637E+02  0.45152219877E+02  0.00000000000E+00 0.  1.
         -1    1    6    6    0  502  0.96954729048E+02 -0.41933755037E+02 -0.12335188292E+02  0.10635232093E+03  0.00000000000E+00 0.  1.
<mgrwt>
<rscale>  0 0.17617009E+04</rscale>
<asrwt>0</asrwt>
<pdfrwt beam="1">  1        2 0.22260369E+00 0.17617009E+04</pdfrwt>
<pdfrwt beam="2">  1       -2 0.82498355E-01 0.17617009E+04</pdfrwt>
<totfact> 0.16613556E+01</totfact>
</mgrwt>
</event>
<event>
12    1  0.2214165E-007  0.3188389E+04  0.7818608E-02  0.8191890E-01
         -2   -1    0    0    0  501 -0.00000000000E+00  0.00000000000E+00  0.84987882535E+03  0.84987882535E+03  0.00000000000E+00 0.  1.
          2   -1    0    0  501    0  0.00000000000E+00 -0.00000000000E+00 -0.29903744844E+04  0.29903744844E+04  0.00000000000E+00 0. -1.
         23    2    1    2    0    0  0.12554915603E+04 -0.57893189686E+03 -0.39959527974E+03  0.14420166551E+04  0.91183588278E+02 0.  0.
        254    2    1    2    0    0 -0.12554915603E+04  0.57893189686E+03 -0.17409003793E+04  0.23982366546E+04  0.89965755815E+03 0.  0.
        -24    2    4    4    0    0 -0.13344460718E+04  0.33089236813E+03 -0.14567585385E+04  0.20046329109E+04  0.78559467814E+02 0.  0.
         24    2    4    4    0    0  0.78954511531E+02  0.24803952872E+03 -0.28414184075E+03  0.39360374375E+03  0.80186649300E+02 0.  0.
         13    1    3    3    0    0  0.65268076356E+03 -0.35086408753E+03 -0.21775445285E+03  0.77234369860E+03  0.00000000000E+00 0. -1.
        -13    1    3    3    0    0  0.60281079673E+03 -0.22806780933E+03 -0.18184082689E+03  0.66967295647E+03  0.00000000000E+00 0.  1.
          4    1    6    6  502    0  0.64357540601E+02  0.14325034695E+03 -0.21854391131E+03  0.26911706765E+03  0.00000000000E+00 0. -1.
          3    1    5    5  503    0 -0.27709946301E+03  0.96308230479E+02 -0.28498724313E+03  0.40899525230E+03  0.00000000000E+00 0. -1.
         -4    1    5    5    0  503 -0.10573466088E+04  0.23458413766E+03 -0.11717712954E+04  0.15956376586E+04  0.00000000000E+00 0.  1.
         -3    1    6    6    0  502  0.14596970931E+02  0.10478918177E+03 -0.65597929443E+02  0.12448667609E+03  0.00000000000E+00 0.  1.
<mgrwt>
<rscale>  0 0.31883889E+04</rscale>
<asrwt>0</asrwt>
<pdfrwt beam="1">  1        2 0.46005761E+00 0.31883889E+04</pdfrwt>
<pdfrwt beam="2">  1       -2 0.13075059E+00 0.31883889E+04</pdfrwt>
<totfact> 0.63646551E-01</totfact>
</mgrwt>
</event>
<event>
12    1  0.2214165E-007  0.1557462E+04  0.7818608E-02  0.8847115E-01
         -1   -1    0    0    0  501 -0.00000000000E+00  0.00000000000E+00  0.30773459922E+03  0.30773459922E+03  0.00000000000E+00 0.  1.
          1   -1    0    0  501    0  0.00000000000E+00 -0.00000000000E+00 -0.19706005309E+04  0.19706005309E+04  0.00000000000E+00 0. -1.
         23    2    1    2    0    0  0.38747307789E+03  0.31398855590E+03 -0.38087758444E+03  0.63396630545E+03  0.90118493104E+02 0.  0.
        254    2    1    2    0    0 -0.38747307789E+03 -0.31398855590E+03 -0.12819883472E+04  0.16443688246E+04  0.90096088134E+03 0.  0.
        -24    2    4    4    0    0  0.67948945737E+02 -0.28695251398E+03 -0.11080056232E+04  0.11495295556E+04  0.82358567870E+02 0.  0.
         24    2    4    4    0    0 -0.45542202363E+03 -0.27036041919E+02 -0.17398272401E+03  0.49483926900E+03  0.80347661621E+02 0.  0.
         11    1    3    3    0    0  0.57671319115E+02  0.36536753588E+02 -0.18118126189E+02  0.70634141233E+02  0.00000000000E+00 0.  1.
        -11    1    3    3    0    0  0.32980175877E+03  0.27745180231E+03 -0.36275945825E+03  0.56333216422E+03  0.00000000000E+00 0. -1.
          4    1    6    6  502    0 -0.36358695993E+03 -0.21913314593E+01 -0.10882939832E+03  0.37953144442E+03  0.00000000000E+00 0. -1.
          1    1    5    5  503    0  0.35216860790E+02 -0.25600239618E+03 -0.88191657761E+03  0.91899635690E+03  0.00000000000E+00 0. -1.
         -2    1    5    5    0  503  0.32732084947E+02 -0.30950117796E+02 -0.22608904561E+03  0.23053319874E+03  0.00000000000E+00 0.  1.
         -3    1    6    6    0  502 -0.91835063696E+02 -0.24844710460E+02 -0.65153325688E+02  0.11530782458E+03  0.00000000000E+00 0.  1.
<mgrwt>
<rscale>  0 0.15574620E+04</rscale>
<asrwt>0</asrwt>
<pdfrwt beam="1">  1        1 0.30316931E+00 0.15574620E+04</pdfrwt>
<pdfrwt beam="2">  1       -1 0.47343784E-01 0.15574620E+04</pdfrwt>
<totfact> 0.13380328E+01</totfact>
</mgrwt>
</event>
<event>
12    1  0.2214165E-007  0.1272317E+04  0.7818608E-02  0.9051810E-01
          1   -1    0    0  501    0  0.00000000000E+00  0.00000000000E+00  0.97436363505E+03  0.97436363505E+03  0.00000000000E+00 0. -1.
         -1   -1    0    0    0  501 -0.00000000000E+00 -0.00000000000E+00 -0.41534579679E+03  0.41534579679E+03  0.00000000000E+00 0.  1.
         23    2    1    2    0    0  0.26121033518E+03 -0.92134673646E+02  0.28461195625E+03  0.40776366065E+03  0.92453231483E+02 0.  0.
        254    2    1    2    0    0 -0.26121033518E+03  0.92134673646E+02  0.27440588201E+03  0.98194577120E+03  0.90122098966E+03 0.  0.
        -24    2    4    4    0    0  0.32420127929E+03 -0.18313041318E+02  0.39935324855E+02  0.33649294102E+03  0.78681841652E+02 0.  0.
         24    2    4    4    0    0 -0.58541161447E+03  0.11044771496E+03  0.23447055716E+03  0.64545283018E+03  0.82021080937E+02 0.  0.
         11    1    3    3    0    0  0.91487377166E+02  0.13929040920E+01  0.52868840470E+02  0.10567400179E+03  0.00000000000E+00 0.  1.
        -11    1    3    3    0    0  0.16972295801E+03 -0.93527577738E+02  0.23174311578E+03  0.30208965885E+03  0.00000000000E+00 0. -1.
          4    1    6    6  502    0 -0.42539940295E+03  0.87202283630E+02  0.20843466478E+03  0.48167821186E+03  0.00000000000E+00 0. -1.
          1    1    5    5  503    0  0.26033801423E+03 -0.10873020405E+01  0.22186901410E+01  0.26034973874E+03  0.00000000000E+00 0. -1.
         -2    1    5    5    0  503  0.63863265067E+02 -0.17225739278E+02  0.37716634714E+02  0.76143202276E+02  0.00000000000E+00 0.  1.
         -3    1    6    6    0  502 -0.16001221152E+03  0.23245431334E+02  0.26035892373E+02  0.16377461832E+03  0.00000000000E+00 0.  1.
<mgrwt>
<rscale>  0 0.12723173E+04</rscale>
<asrwt>0</asrwt>
<pdfrwt beam="1">  1        1 0.14990210E+00 0.12723173E+04</pdfrwt>
<pdfrwt beam="2">  1       -1 0.63899354E-01 0.12723173E+04</pdfrwt>
<totfact> 0.38764209E+01</totfact>
</mgrwt>
</event>
<event>
12    1  0.2214165E-007  0.3200792E+04  0.7818608E-02  0.8188608E-01
         -2   -1    0    0    0  501 -0.00000000000E+00  0.00000000000E+00  0.16803766192E+04  0.16803766192E+04  0.00000000000E+00 0. -1.
          2   -1    0    0  501    0  0.00000000000E+00 -0.00000000000E+00 -0.15242221362E+04  0.15242221362E+04  0.00000000000E+00 0.  1.
         23    2    1    2    0    0  0.94268330708E+03  0.29902324346E+03 -0.10202177577E+04  0.14238639639E+04  0.92073867796E+02 0.  0.
        254    2    1    2    0    0 -0.94268330708E+03 -0.29902324346E+03  0.11763722407E+04  0.17807347915E+04  0.89949876687E+03 0.  0.
        -24    2    4    4    0    0 -0.71980672484E+03  0.75686894675E+02  0.11167541411E+04  0.13331601278E+04  0.79535448093E+02 0.  0.
         24    2    4    4    0    0 -0.22287658224E+03 -0.37471013814E+03  0.59618099585E+02  0.44757466376E+03  0.81774710705E+02 0.  0.
         11    1    3    3    0    0  0.12249297941E+03  0.27703036181E+02 -0.90961469898E+02  0.15506765370E+03  0.00000000000E+00 0. -1.
        -11    1    3    3    0    0  0.82019032767E+03  0.27132020728E+03 -0.92925628777E+03  0.12687963102E+04  0.00000000000E+00 0.  1.
          2    1    6    6  502    0 -0.82831221884E+02 -0.96096521368E+02  0.47627973519E+02  0.13551375059E+03  0.00000000000E+00 0. -1.
          1    1    5    5  503    0 -0.37170621281E+03  0.62156747104E+01  0.61266256402E+03  0.71663070029E+03  0.00000000000E+00 0. -1.
         -2    1    5    5    0  503 -0.34810051204E+03  0.69471219965E+02  0.50409157708E+03  0.61652942749E+03  0.00000000000E+00 0.  1.
         -1    1    6    6    0  502 -0.14004536035E+03 -0.27861361677E+03  0.11990126066E+02  0.31206091317E+03  0.00000000000E+00 0.  1.
<mgrwt>
<rscale>  0 0.32007919E+04</rscale>
<asrwt>0</asrwt>
<pdfrwt beam="1">  1        2 0.23449571E+00 0.32007919E+04</pdfrwt>
<pdfrwt beam="2">  1       -2 0.25851948E+00 0.32007919E+04</pdfrwt>
<totfact> 0.59004259E-01</totfact>
</mgrwt>
</event>
<event>
12    1  0.2214165E-007  0.2464901E+04  0.7818608E-02  0.8415598E-01
          1   -1    0    0  501    0  0.00000000000E+00  0.00000000000E+00  0.91621241211E+03  0.91621241211E+03  0.00000000000E+00 0. -1.
         -1   -1    0    0    0  501 -0.00000000000E+00 -0.00000000000E+00 -0.16578404550E+04  0.16578404550E+04  0.00000000000E+00 0.  1.
         23    2    1    2    0    0  0.95166419987E+03 -0.42544338806E+03 -0.89665995776E+02  0.10503186841E+04  0.91991964854E+02 0.  0.
        254    2    1    2    0    0 -0.95166419987E+03  0.42544338806E+03 -0.65196204709E+03  0.15237341830E+04  0.90002473511E+03 0.  0.
        -24    2    4    4    0    0 -0.80164635089E+03  0.74822239690E+02 -0.54737324760E+02  0.81069778095E+03  0.77456296540E+02 0.  0.
         24    2    4    4    0    0 -0.15001784898E+03  0.35062114837E+03 -0.59722472233E+03  0.71303640204E+03  0.79391416214E+02 0.  0.
         11    1    3    3    0    0  0.29403816901E+02 -0.63472819703E+01  0.11624765371E+02  0.32249148929E+02  0.00000000000E+00 0. -1.
        -11    1    3    3    0    0  0.92226038297E+03 -0.41909610609E+03 -0.10129076115E+03  0.10180695352E+04  0.00000000000E+00 0.  1.
          2    1    6    6  502    0 -0.14144138865E+03  0.32924752956E+03 -0.58723059289E+03  0.68793122575E+03  0.00000000000E+00 0. -1.
          1    1    5    5  503    0 -0.76635448155E+03  0.85038767788E+02 -0.43531749296E+02  0.77228608469E+03  0.00000000000E+00 0. -1.
         -4    1    5    5    0  503 -0.35291869340E+02 -0.10216528098E+02 -0.11205575465E+02  0.38411696257E+02  0.00000000000E+00 0.  1.
         -1    1    6    6    0  502 -0.85764603344E+01  0.21373618809E+02 -0.99941294446E+01  0.25105176283E+02  0.00000000000E+00 0.  1.
<mgrwt>
<rscale>  0 0.24649008E+04</rscale>
<asrwt>0</asrwt>
<pdfrwt beam="1">  1        1 0.14095576E+00 0.24649008E+04</pdfrwt>
<pdfrwt beam="2">  1       -1 0.25505238E+00 0.24649008E+04</pdfrwt>
<totfact> 0.10162769E+00</totfact>
</mgrwt>
</event>
<event>
12    1  0.2214165E-007  0.2385777E+04  0.7818608E-02  0.8444848E-01
          1   -1    0    0  501    0  0.00000000000E+00  0.00000000000E+00  0.28748934151E+04  0.28748934151E+04  0.00000000000E+00 0. -1.
         -1   -1    0    0    0  501 -0.00000000000E+00 -0.00000000000E+00 -0.49496879252E+03  0.49496879252E+03  0.00000000000E+00 0.  1.
         23    2    1    2    0    0  0.51322433929E+03 -0.60271135608E+03  0.11183602472E+03  0.80470574836E+03  0.91563332310E+02 0.  0.
        254    2    1    2    0    0 -0.51322433929E+03  0.60271135608E+03  0.22680885979E+04  0.25651564593E+04  0.89952296890E+03 0.  0.
        -24    2    4    4    0    0  0.14717039725E+03 -0.58208268998E+02  0.99405419907E+02  0.20228987215E+03  0.77410764499E+02 0.  0.
         24    2    4    4    0    0 -0.66039473654E+03  0.66091962508E+03  0.21686831780E+04  0.23628665872E+04  0.83760511650E+02 0.  0.
         11    1    3    3    0    0  0.18230661046E+03 -0.17382328163E+03  0.16352374014E+01  0.25189860551E+03  0.00000000000E+00 0.  1.
        -11    1    3    3    0    0  0.33091772883E+03 -0.42888807446E+03  0.11020078732E+03  0.55280714286E+03  0.00000000000E+00 0. -1.
          2    1    6    6  502    0 -0.50121470243E+03  0.54622110457E+03  0.16819346579E+04  0.18380636187E+04  0.00000000000E+00 0. -1.
          3    1    5    5  503    0  0.57181542159E+02 -0.57339265258E+02  0.22852629767E+02  0.84141326299E+02  0.00000000000E+00 0. -1.
         -4    1    5    5    0  503  0.89988855088E+02 -0.86900373965E+00  0.76552790140E+02  0.11814854585E+03  0.00000000000E+00 0.  1.
         -1    1    6    6    0  502 -0.15918003412E+03  0.11469852051E+03  0.48674852007E+03  0.52480296842E+03  0.00000000000E+00 0.  1.
<mgrwt>
<rscale>  0 0.23857766E+04</rscale>
<asrwt>0</asrwt>
<pdfrwt beam="1">  1        1 0.44229128E+00 0.23857766E+04</pdfrwt>
<pdfrwt beam="2">  1       -1 0.76149047E-01 0.23857766E+04</pdfrwt>
<totfact> 0.11445078E+00</totfact>
</mgrwt>
</event>
<event>
12    1  0.2214165E-007  0.1588785E+04  0.7818608E-02  0.8827467E-01
         -3   -1    0    0    0  501 -0.00000000000E+00  0.00000000000E+00  0.89219839151E+03  0.89219839151E+03  0.00000000000E+00 0. -1.
          3   -1    0    0  501    0  0.00000000000E+00 -0.00000000000E+00 -0.70730874238E+03  0.70730874238E+03  0.00000000000E+00 0.  1.
         23    2    1    2    0    0 -0.41985593346E+03  0.95670646594E+02  0.36898331129E+03  0.57460870897E+03  0.92707102912E+02 0.  0.
        254    2    1    2    0    0  0.41985593346E+03 -0.95670646594E+02 -0.18409366216E+03  0.10248984249E+04  0.91164380516E+03 0.  0.
        -24    2    4    4    0    0  0.24669493731E+03  0.38343166288E+03 -0.21183368651E+03  0.50831150689E+03  0.75025629667E+02 0.  0.
         24    2    4    4    0    0  0.17316099615E+03 -0.47910230947E+03  0.27740024350E+02  0.51658691803E+03  0.81048019094E+02 0.  0.
         11    1    3    3    0    0 -0.75597241909E+02  0.53816817786E+02  0.93273664324E+02  0.13157191690E+03  0.00000000000E+00 0. -1.
        -11    1    3    3    0    0 -0.34425869155E+03  0.41853828809E+02  0.27570964697E+03  0.44303679207E+03  0.00000000000E+00 0.  1.
          2    1    6    6  502    0  0.17284505297E+03 -0.41561388940E+03  0.83398001208E+01  0.45019981082E+03  0.00000000000E+00 0. -1.
          1    1    5    5  503    0  0.26375373286E+00  0.35149968726E+02 -0.11620064095E+02  0.37021828116E+02  0.00000000000E+00 0. -1.
         -2    1    5    5    0  503  0.24643118358E+03  0.34828169415E+03 -0.20021362242E+03  0.47128967878E+03  0.00000000000E+00 0.  1.
         -1    1    6    6    0  502  0.31594318437E+00 -0.63488420075E+02  0.19400224230E+02  0.66387107212E+02  0.00000000000E+00 0.  1.
<mgrwt>
<rscale>  0 0.15887854E+04</rscale>
<asrwt>0</asrwt>
<pdfrwt beam="1">  1        3 0.10881673E+00 0.15887854E+04</pdfrwt>
<pdfrwt beam="2">  1       -3 0.13726129E+00 0.15887854E+04</pdfrwt>
<totfact> 0.72928618E-01</totfact>
</mgrwt>
</event>
<event>
12    1  0.2214165E-007  0.1630134E+04  0.7818608E-02  0.8802246E-01
         -2   -1    0    0    0  501 -0.00000000000E+00  0.00000000000E+00  0.24336067261E+03  0.24336067261E+03  0.00000000000E+00 0.  1.
          2   -1    0    0  501    0  0.00000000000E+00 -0.00000000000E+00 -0.27298346901E+04  0.27298346901E+04  0.00000000000E+00 0. -1.
         23    2    1    2    0    0 -0.51653799585E+03 -0.20667291611E+03 -0.70648009328E+03  0.90364882480E+03  0.89117231579E+02 0.  0.
        254    2    1    2    0    0  0.51653799585E+03  0.20667291611E+03 -0.17799939242E+04  0.20695465379E+04  0.89728440693E+03 0.  0.
        -24    2    4    4    0    0  0.26058759467E+03  0.12634565071E+03 -0.37966131657E+02  0.30519110075E+03  0.88493292825E+02 0.  0.
         24    2    4    4    0    0  0.25595040118E+03  0.80327265400E+02 -0.17420277926E+04  0.17643554372E+04  0.79537419867E+02 0.  0.
         13    1    3    3    0    0 -0.48488985620E+03 -0.19066394378E+03 -0.61802078389E+03  0.80834435819E+03  0.00000000000E+00 0.  1.
        -13    1    3    3    0    0 -0.31648139642E+02 -0.16008972328E+02 -0.88459309389E+02  0.95304466608E+02  0.00000000000E+00 0. -1.
          4    1    6    6  502    0  0.21249582489E+03  0.45840701324E+02 -0.12032521163E+04  0.12227311646E+04  0.00000000000E+00 0. -1.
          3    1    5    5  503    0  0.20425301915E+03  0.12126413544E+03 -0.85370019572E+00  0.23753950236E+03  0.00000000000E+00 0. -1.
         -4    1    5    5    0  503  0.56334575516E+02  0.50815152728E+01 -0.37112431461E+02  0.67651598392E+02  0.00000000000E+00 0.  1.
         -3    1    6    6    0  502  0.43454576286E+02  0.34486564076E+02 -0.53877567628E+03  0.54162427258E+03  0.00000000000E+00 0.  1.
<mgrwt>
<rscale>  0 0.16301342E+04</rscale>
<asrwt>0</asrwt>
<pdfrwt beam="1">  1        2 0.41997458E+00 0.16301342E+04</pdfrwt>
<pdfrwt beam="2">  1       -2 0.37440102E-01 0.16301342E+04</pdfrwt>
<totfact> 0.16461696E+01</totfact>
</mgrwt>
</event>
<event>
12    1  0.2214165E-007  0.3331300E+04  0.7818608E-02  0.8154976E-01
          1   -1    0    0  501    0  0.00000000000E+00  0.00000000000E+00  0.19999837134E+04  0.19999837134E+04  0.00000000000E+00 0. -1.
         -1   -1    0    0    0  501 -0.00000000000E+00 -0.00000000000E+00 -0.13872064743E+04  0.13872064743E+04  0.00000000000E+00 0.  1.
         23    2    1    2    0    0  0.61940669046E+03 -0.12590265057E+04  0.93635547178E+03  0.16894120199E+04  0.92406780602E+02 0.  0.
        254    2    1    2    0    0 -0.61940669046E+03  0.12590265057E+04 -0.32357823270E+03  0.16977781678E+04  0.89940838556E+03 0.  0.
        -24    2    4    4    0    0 -0.29710454008E+03 -0.53710214694E+02 -0.71935190748E+02  0.32057718501E+03  0.80244407797E+02 0.  0.
         24    2    4    4    0    0 -0.32230215038E+03  0.13127367204E+04 -0.25164304195E+03  0.13772009828E+04  0.78752480149E+02 0.  0.
         13    1    3    3    0    0  0.21532356401E+03 -0.44502687160E+03  0.38340488852E+03  0.62562965259E+03  0.00000000000E+00 0.  1.
        -13    1    3    3    0    0  0.40408312645E+03 -0.81399963410E+03  0.55295058327E+03  0.10637823673E+04  0.00000000000E+00 0. -1.
          2    1    6    6  502    0 -0.30487649614E+03  0.12343690584E+04 -0.21736928676E+03  0.12899093213E+04  0.00000000000E+00 0. -1.
          1    1    5    5  503    0 -0.11824119674E+03 -0.49189368917E+02 -0.59537257137E+02  0.14122768712E+03  0.00000000000E+00 0. -1.
         -2    1    5    5    0  503 -0.17886334333E+03 -0.45208457771E+01 -0.12397933611E+02  0.17934949789E+03  0.00000000000E+00 0.  1.
         -1    1    6    6    0  502 -0.17425654239E+02  0.78367661964E+02 -0.34273755196E+02  0.87291661473E+02  0.00000000000E+00 0.  1.
<mgrwt>
<rscale>  0 0.33313003E+04</rscale>
<asrwt>0</asrwt>
<pdfrwt beam="1">  1        1 0.30768980E+00 0.33313003E+04</pdfrwt>
<pdfrwt beam="2">  1       -1 0.21341638E+00 0.33313003E+04</pdfrwt>
<totfact> 0.30055813E-01</totfact>
</mgrwt>
</event>
<event>
12    1  0.2214165E-007  0.1417810E+04  0.7818608E-02  0.8941027E-01
          1   -1    0    0  501    0  0.00000000000E+00  0.00000000000E+00  0.23414786832E+04  0.23414786832E+04  0.00000000000E+00 0. -1.
         -1   -1    0    0    0  501 -0.00000000000E+00 -0.00000000000E+00 -0.21462764685E+03  0.21462764685E+03  0.00000000000E+00 0.  1.
         23    2    1    2    0    0  0.17252627033E+02 -0.28573853489E+03  0.11831448442E+04  0.12207495915E+04  0.91943892692E+02 0.  0.
        254    2    1    2    0    0 -0.17252627033E+02  0.28573853489E+03  0.94370619215E+03  0.13353567385E+04  0.90036219297E+03 0.  0.
        -24    2    4    4    0    0  0.14495935705E+03  0.56231271208E+03  0.44077083962E+03  0.73339729018E+03  0.79899003906E+02 0.  0.
         24    2    4    4    0    0 -0.16221198408E+03 -0.27657417719E+03  0.50293535253E+03  0.60195944833E+03  0.81272414402E+02 0.  0.
         11    1    3    3    0    0  0.27762146897E+02 -0.23689148654E+03  0.10814965559E+04  0.11074850399E+04  0.00000000000E+00 0. -1.
        -11    1    3    3    0    0 -0.10509519864E+02 -0.48847048346E+02  0.10164828831E+03  0.11326455163E+03  0.00000000000E+00 0.  1.
          2    1    6    6  502    0 -0.24961273665E+02 -0.80925090713E+02  0.81828088358E+02  0.11776150277E+03  0.00000000000E+00 0. -1.
          1    1    5    5  503    0 -0.93019790531E+01  0.23566307097E+02  0.13592575461E+02  0.28751621731E+02  0.00000000000E+00 0. -1.
         -4    1    5    5    0  503  0.15426133610E+03  0.53874640498E+03  0.42717826416E+03  0.70464566845E+03  0.00000000000E+00 0.  1.
         -1    1    6    6    0  502 -0.13725071042E+03 -0.19564908648E+03  0.42110726417E+03  0.48419794556E+03  0.00000000000E+00 0.  1.
<mgrwt>
<rscale>  0 0.14178097E+04</rscale>
<asrwt>0</asrwt>
<pdfrwt beam="1">  1        1 0.36022747E+00 0.14178097E+04</pdfrwt>
<pdfrwt beam="2">  1       -1 0.33019640E-01 0.14178097E+04</pdfrwt>
<totfact> 0.14650655E+01</totfact>
</mgrwt>
</event>
<event>
12    1  0.2548613E-007  0.2143480E+04  0.7818608E-02  0.8542328E-01
         -2   -1    0    0    0  501 -0.00000000000E+00  0.00000000000E+00  0.48917024816E+03  0.48917024816E+03  0.00000000000E+00 0.  1.
          2   -1    0    0  501    0  0.00000000000E+00 -0.00000000000E+00 -0.23481111923E+04  0.23481111923E+04  0.00000000000E+00 0. -1.
         23    2    1    2    0    0  0.59810273287E+03 -0.29671385744E+03 -0.15235378997E+04  0.16659304349E+04  0.91599618239E+02 0.  0.
        254    2    1    2    0    0 -0.59810273287E+03  0.29671385744E+03 -0.33540304443E+03  0.11713510055E+04  0.90210974031E+03 0.  0.
        -24    2    4    4    0    0  0.30242358256E+02  0.16846867224E+03  0.24050582606E+03  0.30583081510E+03  0.79957121845E+02 0.  0.
         24    2    4    4    0    0 -0.62834509113E+03  0.12824518520E+03 -0.57590887049E+03  0.86552019039E+03  0.78675229844E+02 0.  0.
         11    1    3    3    0    0  0.33243770324E+03 -0.13687528763E+03 -0.91162533462E+03  0.97995429568E+03  0.00000000000E+00 0. -1.
        -11    1    3    3    0    0  0.26566502963E+03 -0.15983856982E+03 -0.61191256505E+03  0.68597613926E+03  0.00000000000E+00 0.  1.
          4    1    6    6  502    0 -0.21953178934E+02  0.14125066220E+02 -0.42544307096E+02  0.49914703518E+02  0.00000000000E+00 0. -1.
          1    1    5    5  503    0 -0.25659084369E+02  0.53403471805E+02  0.57634596124E+02  0.82656313019E+02  0.00000000000E+00 0. -1.
         -2    1    5    5    0  503  0.55901442625E+02  0.11506520044E+03  0.18287122994E+03  0.22317450208E+03  0.00000000000E+00 0.  1.
         -3    1    6    6    0  502 -0.60639191219E+03  0.11412011898E+03 -0.53336456339E+03  0.81560548687E+03  0.00000000000E+00 0.  1.
<mgrwt>
<rscale>  0 0.21434795E+04</rscale>
<asrwt>0</asrwt>
<pdfrwt beam="1">  1        2 0.36124787E+00 0.21434795E+04</pdfrwt>
<pdfrwt beam="2">  1       -2 0.75256962E-01 0.21434795E+04</pdfrwt>
<totfact> 0.61944778E+00</totfact>
</mgrwt>
</event>
<event>
12    1  0.2214165E-007  0.1951177E+04  0.7818608E-02  0.8629794E-01
         -2   -1    0    0    0  501 -0.00000000000E+00  0.00000000000E+00  0.40732383851E+03  0.40732383851E+03  0.00000000000E+00 0.  1.
          2   -1    0    0  501    0  0.00000000000E+00 -0.00000000000E+00 -0.23366485099E+04  0.23366485099E+04  0.00000000000E+00 0. -1.
         23    2    1    2    0    0  0.29442942743E+03 -0.42772594898E+03  0.26867161650E+02  0.52795367616E+03  0.91515379171E+02 0.  0.
        254    2    1    2    0    0 -0.29442942743E+03  0.42772594898E+03 -0.19561918330E+04  0.22160186722E+04  0.90244894200E+03 0.  0.
        -24    2    4    4    0    0 -0.47656478855E+03  0.13802443648E+03 -0.46735707187E+03  0.68619542942E+03  0.79226207657E+02 0.  0.
         24    2    4    4    0    0  0.18213536111E+03  0.28970151250E+03 -0.14888347612E+04  0.15298232428E+04  0.81424517927E+02 0.  0.
         11    1    3    3    0    0  0.10262878753E+03 -0.19889389518E+03 -0.23908079578E+02  0.22508453043E+03  0.00000000000E+00 0. -1.
        -11    1    3    3    0    0  0.19180063990E+03 -0.22883205381E+03  0.50775241229E+02  0.30286914573E+03  0.00000000000E+00 0.  1.
          2    1    6    6  502    0  0.15421685698E+03  0.18425142061E+03 -0.93746693294E+03  0.96776839963E+03  0.00000000000E+00 0. -1.
          1    1    5    5  503    0 -0.24822228133E+03  0.34312676936E+02 -0.25587068990E+03  0.35813610639E+03  0.00000000000E+00 0. -1.
         -2    1    5    5    0  503 -0.22834250721E+03  0.10371175955E+03 -0.21148638197E+03  0.32805932303E+03  0.00000000000E+00 0.  1.
         -1    1    6    6    0  502  0.27918504134E+02  0.10545009189E+03 -0.55136782822E+03  0.56205484318E+03  0.00000000000E+00 0.  1.
<mgrwt>
<rscale>  0 0.19511767E+04</rscale>
<asrwt>0</asrwt>
<pdfrwt beam="1">  1        2 0.35948438E+00 0.19511767E+04</pdfrwt>
<pdfrwt beam="2">  1       -2 0.62665206E-01 0.19511767E+04</pdfrwt>
<totfact> 0.95199173E+00</totfact>
</mgrwt>
</event>
<event>
12    1  0.2214165E-007  0.2399676E+04  0.7818608E-02  0.8439625E-01
         -2   -1    0    0    0  501 -0.00000000000E+00  0.00000000000E+00  0.75498229868E+03  0.75498229868E+03  0.00000000000E+00 0.  1.
          2   -1    0    0  501    0  0.00000000000E+00 -0.00000000000E+00 -0.19068145858E+04  0.19068145858E+04  0.00000000000E+00 0. -1.
         23    2    1    2    0    0 -0.99095769709E+03  0.40209120284E+02 -0.19211574867E+03  0.10141748108E+04  0.89599973511E+02 0.  0.
        254    2    1    2    0    0  0.99095769709E+03 -0.40209120284E+02 -0.95971653844E+03  0.16476220736E+04  0.89999374033E+03 0.  0.
        -24    2    4    4    0    0  0.45512525981E+03  0.37047176919E+03 -0.70736795857E+03  0.92259419405E+03  0.80139155253E+02 0.  0.
         24    2    4    4    0    0  0.53583243728E+03 -0.41068088948E+03 -0.25234857987E+03  0.72502787959E+03  0.78806259926E+02 0.  0.
         13    1    3    3    0    0 -0.76642753083E+03  0.19506353567E+02 -0.11163935173E+03  0.77476125529E+03  0.00000000000E+00 0.  1.
        -13    1    3    3    0    0 -0.22453016626E+03  0.20702766717E+02 -0.80476396940E+02  0.23941355553E+03  0.00000000000E+00 0. -1.
          4    1    6    6  502    0  0.28148799598E+03 -0.17037407845E+03 -0.13932008044E+03  0.35731345246E+03  0.00000000000E+00 0. -1.
          3    1    5    5  503    0  0.35041436985E+02  0.52921790595E+02 -0.10304237526E+03  0.12102210263E+03  0.00000000000E+00 0. -1.
         -4    1    5    5    0  503  0.42008382282E+03  0.31754997860E+03 -0.60432558331E+03  0.80157209142E+03  0.00000000000E+00 0.  1.
         -1    1    6    6    0  502  0.25434444130E+03 -0.24030681102E+03 -0.11302849943E+03  0.36771442714E+03  0.00000000000E+00 0.  1.
<mgrwt>
<rscale>  0 0.23996760E+04</rscale>
<asrwt>0</asrwt>
<pdfrwt beam="1">  1        2 0.29335609E+00 0.23996760E+04</pdfrwt>
<pdfrwt beam="2">  1       -2 0.11615112E+00 0.23996760E+04</pdfrwt>
<totfact> 0.38954882E+00</totfact>
</mgrwt>
</event>
<event>
12    1  0.2214165E-007  0.2163451E+04  0.7818608E-02  0.8533797E-01
          1   -1    0    0  501    0  0.00000000000E+00  0.00000000000E+00  0.14337124579E+04  0.14337124579E+04  0.00000000000E+00 0. -1.
         -1   -1    0    0    0  501 -0.00000000000E+00 -0.00000000000E+00 -0.81615380070E+03  0.81615380070E+03  0.00000000000E+00 0.  1.
         23    2    1    2    0    0 -0.14605511793E+03 -0.53746585549E+03 -0.46875196192E+03  0.73324617132E+03  0.87862976621E+02 0.  0.
        254    2    1    2    0    0  0.14605511793E+03  0.53746585549E+03  0.10863106192E+04  0.15166200873E+04  0.89992448830E+03 0.  0.
        -24    2    4    4    0    0 -0.14511832888E+01  0.76548300992E+03  0.72327960911E+03  0.10561348054E+04  0.79504652604E+02 0.  0.
         24    2    4    4    0    0  0.14750630122E+03 -0.22801715444E+03  0.36303101006E+03  0.46048528193E+03  0.80655123775E+02 0.  0.
         11    1    3    3    0    0 -0.13528896513E+03 -0.43529270009E+03 -0.41877997760E+03  0.61899879521E+03  0.00000000000E+00 0.  1.
        -11    1    3    3    0    0 -0.10766152803E+02 -0.10217315540E+03 -0.49971984324E+02  0.11424737611E+03  0.00000000000E+00 0. -1.
          2    1    6    6  502    0  0.12906371114E+03 -0.21510700301E+03  0.35845294139E+03  0.43751225750E+03  0.00000000000E+00 0. -1.
          1    1    5    5  503    0  0.82969279335E+01  0.75500944216E+03  0.71318159446E+03  0.10386222044E+04  0.00000000000E+00 0. -1.
         -2    1    5    5    0  503 -0.97481112223E+01  0.10473567762E+02  0.10098014656E+02  0.17512601008E+02  0.00000000000E+00 0.  1.
         -1    1    6    6    0  502  0.18442590075E+02 -0.12910151423E+02  0.45780686780E+01  0.22973024426E+02  0.00000000000E+00 0.  1.
<mgrwt>
<rscale>  0 0.21634508E+04</rscale>
<asrwt>0</asrwt>
<pdfrwt beam="1">  1        1 0.22057115E+00 0.21634508E+04</pdfrwt>
<pdfrwt beam="2">  1       -1 0.12556212E+00 0.21634508E+04</pdfrwt>
<totfact> 0.36827265E+00</totfact>
</mgrwt>
</event>
<event>
12    1  0.2214165E-007  0.1666299E+04  0.7818608E-02  0.8780822E-01
          2   -1    0    0  501    0  0.00000000000E+00  0.00000000000E+00  0.78701912012E+03  0.78701912012E+03  0.00000000000E+00 0. -1.
         -2   -1    0    0    0  501 -0.00000000000E+00 -0.00000000000E+00 -0.88198368378E+03  0.88198368378E+03  0.00000000000E+00 0.  1.
         23    2    1    2    0    0  0.22891860119E+03 -0.53270442004E+03 -0.11623826506E+03  0.59827558264E+03  0.90799853591E+02 0.  0.
        254    2    1    2    0    0 -0.22891860119E+03  0.53270442004E+03  0.21273701402E+02  0.10707272213E+04  0.89990359866E+03 0.  0.
        -24    2    4    4    0    0  0.33407260795E+03  0.25066210435E+03  0.79310844638E+02  0.43319997143E+03  0.83282694675E+02 0.  0.
         24    2    4    4    0    0 -0.56299120914E+03  0.28204231570E+03 -0.58037143236E+02  0.63752724983E+03  0.81029098952E+02 0.  0.
         13    1    3    3    0    0  0.54654501442E+02 -0.56450742661E+02 -0.28813913854E+01  0.78626352397E+02  0.00000000000E+00 0. -1.
        -13    1    3    3    0    0  0.17426409975E+03 -0.47625367738E+03 -0.11335687368E+03  0.51964923024E+03  0.00000000000E+00 0.  1.
          2    1    6    6  502    0 -0.41614482492E+03  0.24659215048E+03 -0.48945098444E+02  0.48618908528E+03  0.00000000000E+00 0. -1.
          3    1    5    5  503    0  0.18965952302E+02 -0.55298858882E+01  0.30334492281E+01  0.19987215886E+02  0.00000000000E+00 0. -1.
         -2    1    5    5    0  503  0.31510665565E+03  0.25619199024E+03  0.76277395409E+02  0.41321275554E+03  0.00000000000E+00 0.  1.
         -1    1    6    6    0  502 -0.14684638421E+03  0.35450165216E+02 -0.90920447921E+01  0.15133816455E+03  0.00000000000E+00 0.  1.
<mgrwt>
<rscale>  0 0.16662989E+04</rscale>
<asrwt>0</asrwt>
<pdfrwt beam="1">  1        2 0.12107986E+00 0.16662989E+04</pdfrwt>
<pdfrwt beam="2">  1       -2 0.13568980E+00 0.16662989E+04</pdfrwt>
<totfact> 0.13074686E+01</totfact>
</mgrwt>
</event>
<event>
12    1  0.2214165E-007  0.1344246E+04  0.7818608E-02  0.8995196E-01
         -1   -1    0    0    0  501 -0.00000000000E+00  0.00000000000E+00  0.43601728929E+03  0.43601728929E+03  0.00000000000E+00 0.  1.
          1   -1    0    0  501    0  0.00000000000E+00 -0.00000000000E+00 -0.10360806220E+04  0.10360806220E+04  0.00000000000E+00 0. -1.
         23    2    1    2    0    0 -0.32435400278E+03  0.15161740235E+03 -0.17152234225E+03  0.40726624994E+03  0.90843429237E+02 0.  0.
        254    2    1    2    0    0  0.32435400278E+03 -0.15161740235E+03 -0.42854099046E+03  0.10648316613E+04  0.90665634652E+03 0.  0.
        -24    2    4    4    0    0 -0.12923564683E+02  0.28085881324E+03 -0.41811310853E+03  0.51031943180E+03  0.80985550837E+02 0.  0.
         24    2    4    4    0    0  0.33727756747E+03 -0.43247621559E+03 -0.10427881926E+02  0.55451222955E+03  0.81137151989E+02 0.  0.
         13    1    3    3    0    0 -0.14300271799E+03  0.11486691613E+03 -0.99787493051E+02  0.20881027164E+03  0.00000000000E+00 0. -1.
        -13    1    3    3    0    0 -0.18135128480E+03  0.36750486217E+02 -0.71734849199E+02  0.19845597830E+03  0.00000000000E+00 0.  1.
          2    1    6    6  502    0  0.25828103764E+03 -0.29590811845E+03 -0.37032485519E+02  0.39451503641E+03  0.00000000000E+00 0. -1.
          3    1    5    5  503    0 -0.40667119591E+02  0.84860361011E+02 -0.12058979523E+03  0.15296076033E+03  0.00000000000E+00 0. -1.
         -4    1    5    5    0  503  0.27743554907E+02  0.19599845223E+03 -0.29752331330E+03  0.35735867147E+03  0.00000000000E+00 0.  1.
         -1    1    6    6    0  502  0.78996529826E+02 -0.13656809714E+03  0.26604603592E+02  0.15999719314E+03  0.00000000000E+00 0.  1.
<mgrwt>
<rscale>  0 0.13442456E+04</rscale>
<asrwt>0</asrwt>
<pdfrwt beam="1">  1        1 0.15939702E+00 0.13442456E+04</pdfrwt>
<pdfrwt beam="2">  1       -1 0.67079584E-01 0.13442456E+04</pdfrwt>
<totfact> 0.31274631E+01</totfact>
</mgrwt>
</event>
<event>
12    1  0.2214165E-007  0.2071333E+04  0.7818608E-02  0.8573977E-01
         -1   -1    0    0    0  501 -0.00000000000E+00  0.00000000000E+00  0.69509776346E+03  0.69509776346E+03  0.00000000000E+00 0.  1.
          1   -1    0    0  501    0  0.00000000000E+00 -0.00000000000E+00 -0.15431002147E+04  0.15431002147E+04  0.00000000000E+00 0. -1.
         23    2    1    2    0    0  0.64774318104E+03 -0.48890069675E+03 -0.12130416311E+03  0.82531539057E+03  0.88519342815E+02 0.  0.
        254    2    1    2    0    0 -0.64774318104E+03  0.48890069675E+03 -0.72669828814E+03  0.14128825876E+04  0.89975090137E+03 0.  0.
        -24    2    4    4    0    0 -0.31298998212E+03  0.68716630313E+03 -0.66931272336E+03  0.10121370432E+04  0.79256643221E+02 0.  0.
         24    2    4    4    0    0 -0.33475319892E+03 -0.19826560638E+03 -0.57385564788E+02  0.40074554441E+03  0.77038519318E+02 0.  0.
         13    1    3    3    0    0  0.16463112894E+03 -0.13661605626E+03 -0.70483839911E+02  0.22524503798E+03  0.00000000000E+00 0. -1.
        -13    1    3    3    0    0  0.48311205210E+03 -0.35228464050E+03 -0.50820323200E+02  0.60007035259E+03  0.00000000000E+00 0.  1.
          4    1    6    6  502    0 -0.31289959283E+03 -0.15828561065E+03 -0.45027173087E+02  0.35353632917E+03  0.00000000000E+00 0. -1.
          1    1    5    5  503    0 -0.57862935220E+02  0.20322440174E+03 -0.20845376315E+03  0.29681854407E+03  0.00000000000E+00 0. -1.
         -2    1    5    5    0  503 -0.25512704690E+03  0.48394190140E+03 -0.46085896020E+03  0.71531849912E+03  0.00000000000E+00 0.  1.
         -3    1    6    6    0  502 -0.21853606097E+02 -0.39979995733E+02 -0.12358391700E+02  0.47209215241E+02  0.00000000000E+00 0.  1.
<mgrwt>
<rscale>  0 0.20713334E+04</rscale>
<asrwt>0</asrwt>
<pdfrwt beam="1">  1        1 0.23740003E+00 0.20713334E+04</pdfrwt>
<pdfrwt beam="2">  1       -1 0.10693812E+00 0.20713334E+04</pdfrwt>
<totfact> 0.45927256E+00</totfact>
</mgrwt>
</event>
<event>
12    1  0.2412856E-007  0.3254212E+04  0.7818608E-02  0.8174645E-01
          2   -1    0    0  501    0  0.00000000000E+00  0.00000000000E+00  0.25255882184E+04  0.25255882184E+04  0.00000000000E+00 0. -1.
         -2   -1    0    0    0  501 -0.00000000000E+00 -0.00000000000E+00 -0.10482603583E+04  0.10482603583E+04  0.00000000000E+00 0.  1.
         23    2    1    2    0    0  0.13117564704E+04  0.45467667796E+03  0.12834264651E+04  0.18928839609E+04  0.91598465941E+02 0.  0.
        254    2    1    2    0    0 -0.13117564704E+04 -0.45467667796E+03  0.19390139495E+03  0.16809646158E+04  0.92768980248E+03 0.  0.
        -24    2    4    4    0    0 -0.11707725853E+04 -0.10547485845E+03  0.39992239658E+03  0.12443203511E+04  0.81005065025E+02 0.  0.
         24    2    4    4    0    0 -0.14098388508E+03 -0.34920181951E+03 -0.20602100164E+03  0.43664426475E+03  0.79969958231E+02 0.  0.
         13    1    3    3    0    0  0.95784728855E+03  0.34883219688E+03  0.99161456169E+03  0.14221303628E+04  0.00000000000E+00 0. -1.
        -13    1    3    3    0    0  0.35390918181E+03  0.10584448108E+03  0.29181190342E+03  0.47075359810E+03  0.00000000000E+00 0.  1.
          4    1    6    6  502    0 -0.14024707041E+03 -0.34096807212E+03 -0.18183969566E+03  0.41108897076E+03  0.00000000000E+00 0. -1.
          1    1    5    5  503    0 -0.85367395868E+03 -0.43967988176E+02  0.27420037293E+03  0.89770722188E+03  0.00000000000E+00 0. -1.
         -2    1    5    5    0  503 -0.31709862660E+03 -0.61506870272E+02  0.12572202366E+03  0.34661312918E+03  0.00000000000E+00 0.  1.
         -3    1    6    6    0  502 -0.73681467280E+00 -0.82337473923E+01 -0.24181305981E+02  0.25555293990E+02  0.00000000000E+00 0.  1.
<mgrwt>
<rscale>  0 0.32542120E+04</rscale>
<asrwt>0</asrwt>
<pdfrwt beam="1">  1        2 0.38855203E+00 0.32542120E+04</pdfrwt>
<pdfrwt beam="2">  1       -2 0.16127082E+00 0.32542120E+04</pdfrwt>
<totfact> 0.69504026E-01</totfact>
</mgrwt>
</event>
<event>
12    1  0.2717005E-007  0.1801157E+04  0.7818608E-02  0.8705684E-01
         -1   -1    0    0    0  501 -0.00000000000E+00  0.00000000000E+00  0.74879171663E+03  0.74879171663E+03  0.00000000000E+00 0.  1.
          1   -1    0    0  501    0  0.00000000000E+00 -0.00000000000E+00 -0.10831343347E+04  0.10831343347E+04  0.00000000000E+00 0. -1.
         23    2    1    2    0    0  0.59839973174E+03 -0.30664239466E+03 -0.10552682961E+03  0.68765118042E+03  0.98063433673E+02 0.  0.
        254    2    1    2    0    0 -0.59839973174E+03  0.30664239466E+03 -0.22881578846E+03  0.11442748709E+04  0.89716025213E+03 0.  0.
        -24    2    4    4    0    0 -0.20858127772E+03 -0.27543182416E+03  0.97073923518E+02  0.36765028838E+03  0.79840771159E+02 0.  0.
         24    2    4    4    0    0 -0.38981845401E+03  0.58207421882E+03 -0.32588971198E+03  0.77662458254E+03  0.78567261169E+02 0.  0.
         11    1    3    3    0    0  0.46506401681E+03 -0.19398420872E+03 -0.61590513540E+02  0.50764929265E+03  0.00000000000E+00 0.  1.
        -11    1    3    3    0    0  0.13333571493E+03 -0.11265818593E+03 -0.43936316068E+02  0.18000188777E+03  0.00000000000E+00 0. -1.
          2    1    6    6  502    0 -0.30610030948E+02  0.20877545222E+02 -0.61192191125E+01  0.37553837775E+02  0.00000000000E+00 0. -1.
          3    1    5    5  503    0  0.73643870118E+01 -0.10148729402E+02  0.34963994265E+01  0.13017515642E+02  0.00000000000E+00 0. -1.
         -4    1    5    5    0  503 -0.21594566474E+03 -0.26528309476E+03  0.93577524091E+02  0.35463277273E+03  0.00000000000E+00 0.  1.
         -1    1    6    6    0  502 -0.35920842306E+03  0.56119667359E+03 -0.31977049287E+03  0.73907074476E+03  0.00000000000E+00 0.  1.
<mgrwt>
<rscale>  0 0.18011574E+04</rscale>
<asrwt>0</asrwt>
<pdfrwt beam="1">  1        1 0.16663605E+00 0.18011574E+04</pdfrwt>
<pdfrwt beam="2">  1       -1 0.11519873E+00 0.18011574E+04</pdfrwt>
<totfact> 0.84221836E+00</totfact>
</mgrwt>
</event>
<event>
12    1  0.3274974E-007  0.2934387E+04  0.7818608E-02  0.8262719E-01
         -2   -1    0    0    0  501 -0.00000000000E+00  0.00000000000E+00  0.20246436446E+04  0.20246436446E+04  0.00000000000E+00 0.  1.
          2   -1    0    0  501    0  0.00000000000E+00 -0.00000000000E+00 -0.10632272341E+04  0.10632272341E+04  0.00000000000E+00 0. -1.
         23    2    1    2    0    0  0.36695147409E+03  0.12404793572E+04  0.12059089299E+03  0.13024117895E+04  0.91059792784E+02 0.  0.
        254    2    1    2    0    0 -0.36695147409E+03 -0.12404793572E+04  0.84082551748E+03  0.17854590892E+04  0.89857341849E+03 0.  0.
        -24    2    4    4    0    0 -0.29284100929E+03 -0.98237570227E+03  0.10229507894E+04  0.14503327283E+04  0.78859546536E+02 0.  0.
         24    2    4    4    0    0 -0.74110464799E+02 -0.25810365493E+03 -0.18212527193E+03  0.33512636091E+03  0.83846320276E+02 0.  0.
         11    1    3    3    0    0  0.20297464829E+03  0.83762165289E+03  0.81238462355E+02  0.86568379273E+03  0.00000000000E+00 0. -1.
        -11    1    3    3    0    0  0.16397682580E+03  0.40285770431E+03  0.39352430638E+02  0.43672799672E+03  0.00000000000E+00 0.  1.
          4    1    6    6  502    0 -0.21721061900E+02 -0.17317853905E+02  0.14909934535E+01  0.27819699054E+02  0.00000000000E+00 0. -1.
          1    1    5    5  503    0 -0.77155889792E+02 -0.26478042196E+03  0.22728774623E+03  0.35738134083E+03  0.00000000000E+00 0. -1.
         -2    1    5    5    0  503 -0.21568511950E+03 -0.71759528032E+03  0.79566304318E+03  0.10929513875E+04  0.00000000000E+00 0.  1.
         -1    1    6    6    0  502 -0.52389402899E+02 -0.24078580102E+03 -0.18361626538E+03  0.30730666186E+03  0.00000000000E+00 0.  1.
<mgrwt>
<rscale>  0 0.29343867E+04</rscale>
<asrwt>0</asrwt>
<pdfrwt beam="1">  1        2 0.16357342E+00 0.29343867E+04</pdfrwt>
<pdfrwt beam="2">  1       -2 0.31148364E+00 0.29343867E+04</pdfrwt>
<totfact> 0.53401727E-01</totfact>
</mgrwt>
</event>
<event>
12    1  0.2214165E-007  0.3206484E+04  0.7818608E-02  0.8187107E-01
          2   -1    0    0  501    0  0.00000000000E+00  0.00000000000E+00  0.20501565229E+04  0.20501565229E+04  0.00000000000E+00 0. -1.
         -2   -1    0    0    0  501 -0.00000000000E+00 -0.00000000000E+00 -0.12537507185E+04  0.12537507185E+04  0.00000000000E+00 0.  1.
         23    2    1    2    0    0 -0.70684082597E+03  0.12143468522E+04  0.82769517789E+03  0.16333688201E+04  0.92477912266E+02 0.  0.
        254    2    1    2    0    0  0.70684082597E+03 -0.12143468522E+04 -0.31289373465E+02  0.16705384213E+04  0.90302677792E+03 0.  0.
        -24    2    4    4    0    0  0.26971011427E+03 -0.99667301389E+03 -0.33596237689E+03  0.10887840817E+04  0.80494816543E+02 0.  0.
         24    2    4    4    0    0  0.43713071171E+03 -0.21767383827E+03  0.30467300343E+03  0.58175433965E+03  0.84541786671E+02 0.  0.
         11    1    3    3    0    0 -0.34880378373E+03  0.67687802675E+03  0.47619082716E+03  0.89810113379E+03  0.00000000000E+00 0. -1.
        -11    1    3    3    0    0 -0.35803704224E+03  0.53746882541E+03  0.35150435073E+03  0.73526768628E+03  0.00000000000E+00 0.  1.
          2    1    6    6  502    0  0.15162590327E+03 -0.66645044233E+02  0.15076537605E+03  0.22396913867E+03  0.00000000000E+00 0. -1.
          3    1    5    5  503    0  0.16948068840E+03 -0.51262828164E+03 -0.14686265649E+03  0.55953560990E+03  0.00000000000E+00 0. -1.
         -4    1    5    5    0  503  0.10022942587E+03 -0.48404473225E+03 -0.18909972040E+03  0.52924847178E+03  0.00000000000E+00 0.  1.
         -1    1    6    6    0  502  0.28550480844E+03 -0.15102879404E+03  0.15390762738E+03  0.35778520098E+03  0.00000000000E+00 0.  1.
<mgrwt>
<rscale>  0 0.32064842E+04</rscale>
<asrwt>0</asrwt>
<pdfrwt beam="1">  1        2 0.31540869E+00 0.32064842E+04</pdfrwt>
<pdfrwt beam="2">  1       -2 0.19288473E+00 0.32064842E+04</pdfrwt>
<totfact> 0.78173773E-01</totfact>
</mgrwt>
</event>
<event>
12    1  0.2927685E-007  0.2267804E+04  0.7818608E-02  0.8490725E-01
         -1   -1    0    0    0  501 -0.00000000000E+00  0.00000000000E+00  0.13312411051E+04  0.13312411051E+04  0.00000000000E+00 0.  1.
          1   -1    0    0  501    0  0.00000000000E+00 -0.00000000000E+00 -0.96581604654E+03  0.96581604654E+03  0.00000000000E+00 0. -1.
         23    2    1    2    0    0  0.26130337896E+03 -0.67674592639E+03 -0.47111676330E+03  0.86967637503E+03  0.90119298031E+02 0.  0.
        254    2    1    2    0    0 -0.26130337896E+03  0.67674592639E+03  0.83654182181E+03  0.14273807766E+04  0.90074921977E+03 0.  0.
        -24    2    4    4    0    0 -0.15291425502E+03  0.52711771040E+03  0.10152911330E+04  0.11573847433E+04  0.86530394694E+02 0.  0.
         24    2    4    4    0    0 -0.10838912394E+03  0.14962821599E+03 -0.17874931123E+03  0.26999603326E+03  0.82521127618E+02 0.  0.
         11    1    3    3    0    0  0.10763071116E+03 -0.35878699139E+03 -0.20126557133E+03  0.42522970895E+03  0.00000000000E+00 0. -1.
        -11    1    3    3    0    0  0.15367266780E+03 -0.31795893501E+03 -0.26985119197E+03  0.44444666608E+03  0.00000000000E+00 0.  1.
          4    1    6    6  502    0 -0.98300103198E+02  0.82346259961E+02 -0.83794707145E+02  0.15318410415E+03  0.00000000000E+00 0. -1.
          1    1    5    5  503    0 -0.38741893431E+02  0.28110637058E+03  0.49108905709E+03  0.56717738661E+03  0.00000000000E+00 0. -1.
         -2    1    5    5    0  503 -0.11417236159E+03  0.24601133982E+03  0.52420207595E+03  0.59020735670E+03  0.00000000000E+00 0.  1.
         -3    1    6    6    0  502 -0.10089020743E+02  0.67281956029E+02 -0.94954604080E+02  0.11681192911E+03  0.00000000000E+00 0.  1.
<mgrwt>
<rscale>  0 0.22678042E+04</rscale>
<asrwt>0</asrwt>
<pdfrwt beam="1">  1        1 0.14858708E+00 0.22678042E+04</pdfrwt>
<pdfrwt beam="2">  1       -1 0.20480632E+00 0.22678042E+04</pdfrwt>
<totfact> 0.20353338E+00</totfact>
</mgrwt>
</event>
<event>
12    1  0.2214165E-007  0.2223630E+04  0.7818608E-02  0.8508657E-01
          2   -1    0    0  501    0  0.00000000000E+00  0.00000000000E+00  0.11137030281E+04  0.11137030281E+04  0.00000000000E+00 0. -1.
         -2   -1    0    0    0  501 -0.00000000000E+00 -0.00000000000E+00 -0.11099303911E+04  0.11099303911E+04  0.00000000000E+00 0.  1.
         23    2    1    2    0    0 -0.82875794361E+03 -0.31346732213E+03  0.27455866490E+03  0.93204578688E+03  0.90693975740E+02 0.  0.
        254    2    1    2    0    0  0.82875794361E+03  0.31346732213E+03 -0.27078602787E+03  0.12915876323E+04  0.89987335108E+03 0.  0.
        -24    2    4    4    0    0  0.72809718477E+03  0.43573018049E+03  0.12044699257E+03  0.86107324647E+03  0.83386792174E+02 0.  0.
         24    2    4    4    0    0  0.10066075884E+03 -0.12226285836E+03 -0.39123302043E+03  0.43051438586E+03  0.84844359003E+02 0.  0.
         13    1    3    3    0    0 -0.66942833265E+03 -0.22999638780E+03  0.18769358187E+03  0.73229878576E+03  0.00000000000E+00 0.  1.
        -13    1    3    3    0    0 -0.15932961096E+03 -0.83470934334E+02  0.86865083028E+02  0.19974700112E+03  0.00000000000E+00 0. -1.
          4    1    6    6  502    0  0.10556740151E+03 -0.97361869093E+02 -0.37173178206E+03  0.39850762554E+03  0.00000000000E+00 0. -1.
          1    1    5    5  503    0  0.40240729839E+03  0.26668674923E+03  0.10355789578E+03  0.49373848725E+03  0.00000000000E+00 0. -1.
         -2    1    5    5    0  503  0.32568988638E+03  0.16904343126E+03  0.16889096789E+02  0.36733475922E+03  0.00000000000E+00 0.  1.
         -3    1    6    6    0  502 -0.49066426704E+01 -0.24900989265E+02 -0.19501238368E+02  0.32006760326E+02  0.00000000000E+00 0.  1.
<mgrwt>
<rscale>  0 0.22236302E+04</rscale>
<asrwt>0</asrwt>
<pdfrwt beam="1">  1        2 0.17133893E+00 0.22236302E+04</pdfrwt>
<pdfrwt beam="2">  1       -2 0.17075852E+00 0.22236302E+04</pdfrwt>
<totfact> 0.41029090E+00</totfact>
</mgrwt>
</event>
<event>
12    1  0.2214165E-007  0.2118383E+04  0.7818608E-02  0.8553189E-01
         -1   -1    0    0    0  501 -0.00000000000E+00  0.00000000000E+00  0.10158284142E+04  0.10158284142E+04  0.00000000000E+00 0.  1.
          1   -1    0    0  501    0  0.00000000000E+00 -0.00000000000E+00 -0.11044051523E+04  0.11044051523E+04  0.00000000000E+00 0. -1.
         23    2    1    2    0    0  0.21133609568E+03  0.83885943787E+03 -0.29909722491E+02  0.87039559940E+03  0.91355383650E+02 0.  0.
        254    2    1    2    0    0 -0.21133609568E+03 -0.83885943787E+03 -0.58667015615E+02  0.12498379670E+04  0.90016944139E+03 0.  0.
        -24    2    4    4    0    0 -0.83483697989E+02 -0.50111278328E+03 -0.46971815539E+03  0.69639222524E+03  0.79015419225E+02 0.  0.
         24    2    4    4    0    0 -0.12785239769E+03 -0.33774665459E+03  0.41105113977E+03  0.55344574177E+03  0.83187206296E+02 0.  0.
         11    1    3    3    0    0  0.18247538933E+03  0.57783323332E+03 -0.42733892001E+02  0.60746580049E+03  0.00000000000E+00 0. -1.
        -11    1    3    3    0    0  0.28860706347E+02  0.26102620455E+03  0.12824169509E+02  0.26292979891E+03  0.00000000000E+00 0.  1.
          4    1    6    6  502    0 -0.36212299196E+02 -0.11327551090E+03  0.19653214977E+03  0.22971190191E+03  0.00000000000E+00 0. -1.
          1    1    5    5  503    0 -0.29865977751E+02 -0.51071330957E+02 -0.37071707873E+02  0.69818113677E+02  0.00000000000E+00 0. -1.
         -2    1    5    5    0  503 -0.53617720238E+02 -0.45004145233E+03 -0.43264644752E+03  0.62657411157E+03  0.00000000000E+00 0.  1.
         -3    1    6    6    0  502 -0.91640098497E+02 -0.22447114369E+03  0.21451899000E+03  0.32373383986E+03  0.00000000000E+00 0.  1.
<mgrwt>
<rscale>  0 0.21183825E+04</rscale>
<asrwt>0</asrwt>
<pdfrwt beam="1">  1        1 0.16990848E+00 0.21183825E+04</pdfrwt>
<pdfrwt beam="2">  1       -1 0.15628129E+00 0.21183825E+04</pdfrwt>
<totfact> 0.36044861E+00</totfact>
</mgrwt>
</event>
<event>
12    1  0.2214165E-007  0.1999731E+04  0.7818608E-02  0.8606747E-01
         -1   -1    0    0    0  501 -0.00000000000E+00  0.00000000000E+00  0.29976288372E+03  0.29976288372E+03  0.00000000000E+00 0.  1.
          1   -1    0    0  501    0  0.00000000000E+00 -0.00000000000E+00 -0.33350718622E+04  0.33350718622E+04  0.00000000000E+00 0. -1.
         23    2    1    2    0    0 -0.51756713932E+02 -0.78966864800E+03 -0.10937051770E+04  0.13530097954E+04  0.90493985037E+02 0.  0.
        254    2    1    2    0    0  0.51756713932E+02  0.78966864800E+03 -0.19416038015E+04  0.22818249505E+04  0.90035795748E+03 0.  0.
        -24    2    4    4    0    0 -0.25109478789E+01  0.28703378053E+03 -0.16808379220E+04  0.17069984268E+04  0.78948167425E+02 0.  0.
         24    2    4    4    0    0  0.54267661811E+02  0.50263486747E+03 -0.26076587957E+03  0.57482652373E+03  0.82703683772E+02 0.  0.
         11    1    3    3    0    0 -0.47023367057E+02 -0.29937927627E+03 -0.36029975551E+03  0.47080257213E+03  0.00000000000E+00 0. -1.
        -11    1    3    3    0    0 -0.47333468755E+01 -0.49028937173E+03 -0.73340542149E+03  0.88220722331E+03  0.00000000000E+00 0.  1.
          4    1    6    6  502    0  0.37098099526E+02  0.28960736021E+03 -0.10465180375E+03  0.31016236410E+03  0.00000000000E+00 0. -1.
          3    1    5    5  503    0 -0.10959273287E+02  0.25389402118E+03 -0.15849463490E+04  0.16051907080E+04  0.00000000000E+00 0. -1.
         -4    1    5    5    0  503  0.84483254081E+01  0.33139759341E+02 -0.95891572943E+02  0.10180771883E+03  0.00000000000E+00 0.  1.
         -3    1    6    6    0  502  0.17169562285E+02  0.21302750726E+03 -0.15611407582E+03  0.26466415962E+03  0.00000000000E+00 0.  1.
<mgrwt>
<rscale>  0 0.19997307E+04</rscale>
<asrwt>0</asrwt>
<pdfrwt beam="1">  1        1 0.51308798E+00 0.19997307E+04</pdfrwt>
<pdfrwt beam="2">  1       -1 0.46117367E-01 0.19997307E+04</pdfrwt>
<totfact> 0.14618552E+00</totfact>
</mgrwt>
</event>
<event>
12    1  0.2214165E-007  0.2854613E+04  0.7818608E-02  0.8286511E-01
          2   -1    0    0  501    0  0.00000000000E+00  0.00000000000E+00  0.29445347346E+04  0.29445347346E+04  0.00000000000E+00 0. -1.
         -2   -1    0    0    0  501 -0.00000000000E+00 -0.00000000000E+00 -0.69185921968E+03  0.69185921968E+03  0.00000000000E+00 0.  1.
         23    2    1    2    0    0 -0.93209435093E+03 -0.84919404964E+03  0.13293706985E+04  0.18344571178E+04  0.89866844535E+02 0.  0.
        254    2    1    2    0    0  0.93209435093E+03  0.84919404964E+03  0.92330481641E+03  0.18019368366E+04  0.89696943425E+03 0.  0.
        -24    2    4    4    0    0  0.49207056456E+03 -0.88983284179E+02  0.32308105343E+03  0.60190666767E+03  0.88649896388E+02 0.  0.
         24    2    4    4    0    0  0.44002378637E+03  0.93817733382E+03  0.60022376298E+03  0.12000301689E+04  0.77499666736E+02 0.  0.
         11    1    3    3    0    0 -0.49982520177E+03 -0.45915266157E+03  0.65039923033E+03  0.94003487051E+03  0.00000000000E+00 0. -1.
        -11    1    3    3    0    0 -0.43226914916E+03 -0.39004138807E+03  0.67897146821E+03  0.89442224724E+03  0.00000000000E+00 0.  1.
          2    1    6    6  502    0  0.20776180853E+03  0.49440570310E+03  0.34725074866E+03  0.63889361461E+03  0.00000000000E+00 0. -1.
          3    1    5    5  503    0  0.23740011724E+03 -0.62050456370E+01  0.12169727064E+03  0.26684741696E+03  0.00000000000E+00 0. -1.
         -4    1    5    5    0  503  0.25467044731E+03 -0.82778238542E+02  0.20138378279E+03  0.33505925070E+03  0.00000000000E+00 0.  1.
         -1    1    6    6    0  502  0.23226197784E+03  0.44377163072E+03  0.25297301431E+03  0.56113655428E+03  0.00000000000E+00 0.  1.
<mgrwt>
<rscale>  0 0.28546128E+04</rscale>
<asrwt>0</asrwt>
<pdfrwt beam="1">  1        2 0.45300534E+00 0.28546128E+04</pdfrwt>
<pdfrwt beam="2">  1       -2 0.10643988E+00 0.28546128E+04</pdfrwt>
<totfact> 0.11614843E+00</totfact>
</mgrwt>
</event>
<event>
12    1  0.2214165E-007  0.2631256E+04  0.7818608E-02  0.8357661E-01
         -1   -1    0    0    0  501 -0.00000000000E+00  0.00000000000E+00  0.80812440054E+03  0.80812440054E+03  0.00000000000E+00 0.  1.
          1   -1    0    0  501    0  0.00000000000E+00 -0.00000000000E+00 -0.21418454539E+04  0.21418454539E+04  0.00000000000E+00 0. -1.
         23    2    1    2    0    0  0.83768604101E+03  0.80078969763E+03 -0.52036490123E+03  0.12735946457E+04  0.91003560949E+02 0.  0.
        254    2    1    2    0    0 -0.83768604101E+03 -0.80078969763E+03 -0.81335615210E+03  0.16763752087E+04  0.89760991915E+03 0.  0.
        -24    2    4    4    0    0  0.84978012644E+01 -0.56118387483E+03 -0.43987011716E+03  0.71760674306E+03  0.80462188101E+02 0.  0.
         24    2    4    4    0    0 -0.84618384227E+03 -0.23960582280E+03 -0.37348603494E+03  0.95876846561E+03  0.79417297355E+02 0.  0.
         11    1    3    3    0    0  0.44107994394E+03  0.46807757777E+03 -0.32146056367E+03  0.71901671034E+03  0.00000000000E+00 0. -1.
        -11    1    3    3    0    0  0.39660609707E+03  0.33271211986E+03 -0.19890433756E+03  0.55457793540E+03  0.00000000000E+00 0.  1.
          4    1    6    6  502    0 -0.29814442632E+03 -0.45602427014E+02 -0.12248099646E+03  0.32553229454E+03  0.00000000000E+00 0. -1.
          3    1    5    5  503    0 -0.25264097487E+02 -0.39520949337E+03 -0.33226939181E+03  0.51694464598E+03  0.00000000000E+00 0. -1.
         -4    1    5    5    0  503  0.33761898752E+02 -0.16597438145E+03 -0.10760072536E+03  0.20066209708E+03  0.00000000000E+00 0.  1.
         -3    1    6    6    0  502 -0.54803941595E+03 -0.19400339579E+03 -0.25100503847E+03  0.63323617107E+03  0.00000000000E+00 0.  1.
<mgrwt>
<rscale>  0 0.26312564E+04</rscale>
<asrwt>0</asrwt>
<pdfrwt beam="1">  1        1 0.32951469E+00 0.26312564E+04</pdfrwt>
<pdfrwt beam="2">  1       -1 0.12432683E+00 0.26312564E+04</pdfrwt>
<totfact> 0.11888017E+00</totfact>
</mgrwt>
</event>
<event>
12    1  0.2214165E-007  0.3200932E+04  0.7818608E-02  0.8188571E-01
          1   -1    0    0  501    0  0.00000000000E+00  0.00000000000E+00  0.94999532292E+03  0.94999532292E+03  0.00000000000E+00 0. -1.
         -1   -1    0    0    0  501 -0.00000000000E+00 -0.00000000000E+00 -0.26963203508E+04  0.26963203508E+04  0.00000000000E+00 0.  1.
         23    2    1    2    0    0  0.38115851927E+03 -0.11531592871E+04 -0.17531170404E+04  0.21346630635E+04  0.91153054064E+02 0.  0.
        254    2    1    2    0    0 -0.38115851927E+03  0.11531592871E+04  0.67920124940E+01  0.15116526102E+04  0.89999406907E+03 0.  0.
        -24    2    4    4    0    0 -0.62755454812E+03  0.72652748319E+03 -0.17585226414E+03  0.97928012487E+03  0.79991558757E+02 0.  0.
         24    2    4    4    0    0  0.24639602885E+03  0.42663180390E+03  0.18264427663E+03  0.53237248535E+03  0.85649473129E+02 0.  0.
         13    1    3    3    0    0  0.17719919921E+03 -0.67910551805E+03 -0.10036125408E+04  0.12246721981E+04  0.00000000000E+00 0. -1.
        -13    1    3    3    0    0  0.20395932006E+03 -0.47405376903E+03 -0.74950449967E+03  0.90999086544E+03  0.00000000000E+00 0.  1.
          2    1    6    6  502    0  0.15834352619E+03  0.24726446809E+03  0.65799214626E+02  0.30090185462E+03  0.00000000000E+00 0. -1.
          3    1    5    5  503    0 -0.22942717139E+03  0.24786063020E+03 -0.25005834548E+02  0.33866947122E+03  0.00000000000E+00 0. -1.
         -4    1    5    5    0  503 -0.39812737673E+03  0.47866685299E+03 -0.15084642959E+03  0.64061065365E+03  0.00000000000E+00 0.  1.
         -1    1    6    6    0  502  0.88052502657E+02  0.17936733580E+03  0.11684506201E+03  0.23147063073E+03  0.00000000000E+00 0.  1.
<mgrwt>
<rscale>  0 0.32009322E+04</rscale>
<asrwt>0</asrwt>
<pdfrwt beam="1">  1        1 0.14615312E+00 0.32009322E+04</pdfrwt>
<pdfrwt beam="2">  1       -1 0.41481852E+00 0.32009322E+04</pdfrwt>
<totfact> 0.78417439E-02</totfact>
</mgrwt>
</event>
<event>
12    1  0.2214165E-007  0.1572536E+04  0.7818608E-02  0.8837600E-01
         -1   -1    0    0    0  501 -0.00000000000E+00  0.00000000000E+00  0.37918806822E+03  0.37918806822E+03  0.00000000000E+00 0.  1.
          1   -1    0    0  501    0  0.00000000000E+00 -0.00000000000E+00 -0.16303709091E+04  0.16303709091E+04  0.00000000000E+00 0. -1.
         23    2    1    2    0    0  0.44810514632E+03  0.16155771377E+03 -0.14018859223E+03  0.50443472236E+03  0.88895616831E+02 0.  0.
        254    2    1    2    0    0 -0.44810514632E+03 -0.16155771377E+03 -0.11109942487E+04  0.15051242550E+04  0.89676735294E+03 0.  0.
        -24    2    4    4    0    0 -0.68001473512E+03 -0.12135318267E+03 -0.53495464469E+03  0.87677107166E+03  0.73514660456E+02 0.  0.
         24    2    4    4    0    0  0.23190958880E+03 -0.40204531102E+02 -0.57603960399E+03  0.62835318332E+03  0.87221762941E+02 0.  0.
         13    1    3    3    0    0  0.21247506103E+03  0.58711856173E+02 -0.10754858669E+03  0.24527419781E+03  0.00000000000E+00 0. -1.
        -13    1    3    3    0    0  0.23563008529E+03  0.10284585760E+03 -0.32640005533E+02  0.25916052454E+03  0.00000000000E+00 0.  1.
          2    1    6    6  502    0  0.78105110036E+02  0.23995325069E+02 -0.14882293596E+03  0.16977764902E+03  0.00000000000E+00 0. -1.
          3    1    5    5  503    0 -0.52276767501E+03 -0.12193320302E+03 -0.42889392337E+03  0.68709806108E+03  0.00000000000E+00 0. -1.
         -4    1    5    5    0  503 -0.15724706011E+03  0.58002034928E+00 -0.10606072133E+03  0.18967301058E+03  0.00000000000E+00 0.  1.
         -1    1    6    6    0  502  0.15380447876E+03 -0.64199856171E+02 -0.42721666803E+03  0.45857553431E+03  0.00000000000E+00 0.  1.
<mgrwt>
<rscale>  0 0.15725358E+04</rscale>
<asrwt>0</asrwt>
<pdfrwt beam="1">  1        1 0.25082629E+00 0.15725358E+04</pdfrwt>
<pdfrwt beam="2">  1       -1 0.58336627E-01 0.15725358E+04</pdfrwt>
<totfact> 0.15228774E+01</totfact>
</mgrwt>
</event>
<event>
12    1  0.2214165E-007  0.2063352E+04  0.7818608E-02  0.8577561E-01
         -1   -1    0    0    0  501 -0.00000000000E+00  0.00000000000E+00  0.59802841109E+03  0.59802841109E+03  0.00000000000E+00 0.  1.
          1   -1    0    0  501    0  0.00000000000E+00 -0.00000000000E+00 -0.17797742564E+04  0.17797742564E+04  0.00000000000E+00 0. -1.
         23    2    1    2    0    0  0.52104402127E+03  0.67607322445E+02  0.26194710001E+03  0.59457833731E+03  0.94071748367E+02 0.  0.
        254    2    1    2    0    0 -0.52104402127E+03 -0.67607322445E+02 -0.14436929453E+04  0.17832243302E+04  0.90530772076E+03 0.  0.
        -24    2    4    4    0    0 -0.29644770454E+03 -0.26500432717E+03 -0.11844131359E+03  0.42225895224E+03  0.78522245482E+02 0.  0.
         24    2    4    4    0    0 -0.22459631673E+03  0.19739700473E+03 -0.13252516318E+04  0.13609653780E+04  0.80782359466E+02 0.  0.
         11    1    3    3    0    0  0.27982460988E+03  0.75560247362E+02  0.11380051797E+03  0.31138677102E+03  0.00000000000E+00 0. -1.
        -11    1    3    3    0    0  0.24121941140E+03 -0.79529249167E+01  0.14814658203E+03  0.28319156629E+03  0.00000000000E+00 0.  1.
          4    1    6    6  502    0 -0.83914520355E+02  0.27969214232E+02 -0.43259828239E+03  0.44154863560E+03  0.00000000000E+00 0. -1.
          3    1    5    5  503    0 -0.21227528813E+03 -0.17095951129E+03 -0.45038776485E+02  0.27625431008E+03  0.00000000000E+00 0. -1.
         -4    1    5    5    0  503 -0.84172416414E+02 -0.94044815877E+02 -0.73402537108E+02  0.14600464216E+03  0.00000000000E+00 0.  1.
         -3    1    6    6    0  502 -0.14068179638E+03  0.16942779049E+03 -0.89265334936E+03  0.91941674237E+03  0.00000000000E+00 0.  1.
<mgrwt>
<rscale>  0 0.20633522E+04</rscale>
<asrwt>0</asrwt>
<pdfrwt beam="1">  1        1 0.27381142E+00 0.20633522E+04</pdfrwt>
<pdfrwt beam="2">  1       -1 0.92004371E-01 0.20633522E+04</pdfrwt>
<totfact> 0.44624341E+00</totfact>
</mgrwt>
</event>
<event>
12    1  0.2214165E-007  0.1224724E+04  0.7818608E-02  0.9091486E-01
         -1   -1    0    0    0  501 -0.00000000000E+00  0.00000000000E+00  0.32453305130E+03  0.32453305130E+03  0.00000000000E+00 0.  1.
          1   -1    0    0  501    0  0.00000000000E+00 -0.00000000000E+00 -0.11554676982E+04  0.11554676982E+04  0.00000000000E+00 0. -1.
         23    2    1    2    0    0  0.11737691396E+03  0.18504409029E+03 -0.37869633391E+03  0.44937538634E+03  0.10251180055E+03 0.  0.
        254    2    1    2    0    0 -0.11737691396E+03 -0.18504409029E+03 -0.45223831297E+03  0.10306253631E+04  0.89980580801E+03 0.  0.
        -24    2    4    4    0    0 -0.25815793250E+03  0.30548575807E+03 -0.17387165193E+03  0.44326738470E+03  0.79294113923E+02 0.  0.
         24    2    4    4    0    0  0.14078101854E+03 -0.49052984836E+03 -0.27836666105E+03  0.58735797843E+03  0.84039095255E+02 0.  0.
         13    1    3    3    0    0  0.17474503558E+02  0.63290697574E+02 -0.20333082070E+03  0.21366912112E+03  0.00000000000E+00 0. -1.
        -13    1    3    3    0    0  0.99902410403E+02  0.12175339271E+03 -0.17536551321E+03  0.23570626522E+03  0.00000000000E+00 0.  1.
          2    1    6    6  502    0  0.47870440124E+02 -0.24810395778E+03 -0.96986338840E+02  0.27065384317E+03  0.00000000000E+00 0. -1.
          3    1    5    5  503    0 -0.12302299950E+03  0.16988365004E+03 -0.13031223775E+03  0.24693398362E+03  0.00000000000E+00 0. -1.
         -2    1    5    5    0  503 -0.13513493300E+03  0.13560210803E+03 -0.43559414173E+02  0.19633340109E+03  0.00000000000E+00 0.  1.
         -1    1    6    6    0  502  0.92910578411E+02 -0.24242589058E+03 -0.18138032221E+03  0.31670413526E+03  0.00000000000E+00 0.  1.
<mgrwt>
<rscale>  0 0.12247244E+04</rscale>
<asrwt>0</asrwt>
<pdfrwt beam="1">  1        1 0.17776427E+00 0.12247244E+04</pdfrwt>
<pdfrwt beam="2">  1       -1 0.49928161E-01 0.12247244E+04</pdfrwt>
<totfact> 0.45813073E+01</totfact>
</mgrwt>
</event>
<event>
12    1  0.2214165E-007  0.2031155E+04  0.7818608E-02  0.8592191E-01
         -2   -1    0    0    0  501 -0.00000000000E+00  0.00000000000E+00  0.72424573651E+03  0.72424573651E+03  0.00000000000E+00 0.  1.
          2   -1    0    0  501    0  0.00000000000E+00 -0.00000000000E+00 -0.14240997271E+04  0.14240997271E+04  0.00000000000E+00 0. -1.
         23    2    1    2    0    0  0.65576411292E+03 -0.45985633724E+03 -0.43196258803E+03  0.91459049110E+03  0.91595121330E+02 0.  0.
        254    2    1    2    0    0 -0.65576411292E+03  0.45985633724E+03 -0.26789140254E+03  0.12337549725E+04  0.89938373671E+03 0.  0.
        -24    2    4    4    0    0 -0.62354169825E+03  0.40457948602E+03 -0.55385470315E+03  0.93061987980E+03  0.82519806830E+02 0.  0.
         24    2    4    4    0    0 -0.32222414672E+02  0.55276851224E+02  0.28596330061E+03  0.30313509267E+03  0.77601938286E+02 0.  0.
         13    1    3    3    0    0  0.52665270769E+03 -0.40286846599E+03 -0.33124334017E+03  0.74120727588E+03  0.00000000000E+00 0.  1.
        -13    1    3    3    0    0  0.12911140523E+03 -0.56987871248E+02 -0.10071924785E+03  0.17338321522E+03  0.00000000000E+00 0. -1.
          2    1    6    6  502    0 -0.46690837511E+02  0.56824971773E+02  0.15721890692E+03  0.17357101260E+03  0.00000000000E+00 0. -1.
          1    1    5    5  503    0 -0.45880470502E+03  0.33470430249E+03 -0.44134101716E+03  0.71924308887E+03  0.00000000000E+00 0. -1.
         -2    1    5    5    0  503 -0.16473699323E+03  0.69875183531E+02 -0.11251368599E+03  0.21137679094E+03  0.00000000000E+00 0.  1.
         -1    1    6    6    0  502  0.14468422838E+02 -0.15481205489E+01  0.12874439369E+03  0.12956408007E+03  0.00000000000E+00 0.  1.
<mgrwt>
<rscale>  0 0.20311555E+04</rscale>
<asrwt>0</asrwt>
<pdfrwt beam="1">  1        2 0.21909226E+00 0.20311555E+04</pdfrwt>
<pdfrwt beam="2">  1       -2 0.11142242E+00 0.20311555E+04</pdfrwt>
<totfact> 0.82748379E+00</totfact>
</mgrwt>
</event>
<event>
12    1  0.2214165E-007  0.1487194E+04  0.7818608E-02  0.8893014E-01
          1   -1    0    0  501    0  0.00000000000E+00  0.00000000000E+00  0.11730516523E+04  0.11730516523E+04  0.00000000000E+00 0. -1.
         -1   -1    0    0    0  501 -0.00000000000E+00 -0.00000000000E+00 -0.47136581122E+03  0.47136581122E+03  0.00000000000E+00 0.  1.
         23    2    1    2    0    0  0.17014632074E+03  0.38648625176E+03  0.36979788219E+01  0.43190195303E+03  0.90577197589E+02 0.  0.
        254    2    1    2    0    0 -0.17014632074E+03 -0.38648625176E+03  0.69798786230E+03  0.12125155105E+04  0.89704259323E+03 0.  0.
        -24    2    4    4    0    0 -0.28035808091E+03 -0.13746278110E+03 -0.12203437215E+03  0.34468814590E+03  0.80130270298E+02 0.  0.
         24    2    4    4    0    0  0.11021176017E+03 -0.24902347066E+03  0.82002223445E+03  0.86782736462E+03  0.80799435472E+02 0.  0.
         11    1    3    3    0    0  0.12742219189E+03  0.19064203028E+03 -0.19405295490E+02  0.23012467097E+03  0.00000000000E+00 0. -1.
        -11    1    3    3    0    0  0.42724128857E+02  0.19584422148E+03  0.23103274312E+02  0.20177728206E+03  0.00000000000E+00 0.  1.
          2    1    6    6  502    0  0.35960709649E+01 -0.46108788641E+02  0.23489316114E+03  0.23940290154E+03  0.00000000000E+00 0. -1.
          3    1    5    5  503    0 -0.33578523167E+02 -0.97423106374E+01  0.10944379583E+02  0.36636174461E+02  0.00000000000E+00 0. -1.
         -4    1    5    5    0  503 -0.24677955775E+03 -0.12772047047E+03 -0.13297875173E+03  0.30805197144E+03  0.00000000000E+00 0.  1.
         -3    1    6    6    0  502  0.10661568920E+03 -0.20291468201E+03  0.58512907332E+03  0.62842446308E+03  0.00000000000E+00 0.  1.
<mgrwt>
<rscale>  0 0.14871939E+04</rscale>
<asrwt>0</asrwt>
<pdfrwt beam="1">  1        1 0.18046948E+00 0.14871939E+04</pdfrwt>
<pdfrwt beam="2">  1       -1 0.72517818E-01 0.14871939E+04</pdfrwt>
<totfact> 0.20773179E+01</totfact>
</mgrwt>
</event>
<event>
12    1  0.2214165E-007  0.1246414E+04  0.7818608E-02  0.9073174E-01
          2   -1    0    0  501    0  0.00000000000E+00  0.00000000000E+00  0.13047481743E+04  0.13047481743E+04  0.00000000000E+00 0. -1.
         -2   -1    0    0    0  501 -0.00000000000E+00 -0.00000000000E+00 -0.29767173976E+03  0.29767173976E+03  0.00000000000E+00 0.  1.
         23    2    1    2    0    0  0.13675123709E+03 -0.24346830220E+03  0.15904485923E+03  0.33392313547E+03  0.90728596014E+02 0.  0.
        254    2    1    2    0    0 -0.13675123709E+03  0.24346830220E+03  0.84803157532E+03  0.12684967786E+04  0.90108202156E+03 0.  0.
        -24    2    4    4    0    0 -0.44171703532E+03 -0.13260289238E+02  0.17362094178E+03  0.48122251750E+03  0.78365205004E+02 0.  0.
         24    2    4    4    0    0  0.30496579823E+03  0.25672859143E+03  0.67441063354E+03  0.78727426111E+03  0.77828990889E+02 0.  0.
         11    1    3    3    0    0  0.29238578011E+02 -0.36182249671E+02 -0.74819383489E+01  0.47117184093E+02  0.00000000000E+00 0.  1.
        -11    1    3    3    0    0  0.10751265908E+03 -0.20728605253E+03  0.16652679758E+03  0.28680595138E+03  0.00000000000E+00 0. -1.
          4    1    6    6  502    0  0.58551125616E+01 -0.12301033709E+01  0.36455888623E+02  0.36943569301E+02  0.00000000000E+00 0. -1.
          1    1    5    5  503    0 -0.84297738839E+02  0.10728870846E+02  0.64702860936E+02  0.10680673039E+03  0.00000000000E+00 0. -1.
         -2    1    5    5    0  503 -0.35741929649E+03 -0.23989160084E+02  0.10891808085E+03  0.37441578711E+03  0.00000000000E+00 0.  1.
         -3    1    6    6    0  502  0.29911068567E+03  0.25795869480E+03  0.63795474492E+03  0.75033069181E+03  0.00000000000E+00 0.  1.
<mgrwt>
<rscale>  0 0.12464135E+04</rscale>
<asrwt>0</asrwt>
<pdfrwt beam="1">  1        2 0.20073049E+00 0.12464135E+04</pdfrwt>
<pdfrwt beam="2">  1       -2 0.45795653E-01 0.12464135E+04</pdfrwt>
<totfact> 0.73031052E+01</totfact>
</mgrwt>
</event>
<event>
12    1  0.2214165E-007  0.2857541E+04  0.7818608E-02  0.8285624E-01
          1   -1    0    0  501    0  0.00000000000E+00  0.00000000000E+00  0.11925565981E+04  0.11925565981E+04  0.00000000000E+00 0. -1.
         -1   -1    0    0    0  501 -0.00000000000E+00 -0.00000000000E+00 -0.17117715529E+04  0.17117715529E+04  0.00000000000E+00 0.  1.
         23    2    1    2    0    0  0.12735285074E+04 -0.12874527304E+03 -0.12650176753E+03  0.12893742819E+04  0.89627769553E+02 0.  0.
        254    2    1    2    0    0 -0.12735285074E+04  0.12874527304E+03 -0.39271318722E+03  0.16149538691E+04  0.90299620563E+03 0.  0.
        -24    2    4    4    0    0 -0.83503862205E+03  0.42195084055E+03  0.21926207362E+02  0.93931004669E+03  0.80564217277E+02 0.  0.
         24    2    4    4    0    0 -0.43848988539E+03 -0.29320556751E+03 -0.41463939458E+03  0.67564382242E+03  0.79535292991E+02 0.  0.
         13    1    3    3    0    0  0.61785081077E+03 -0.50554029850E+02 -0.10466973565E+03  0.62868997755E+03  0.00000000000E+00 0. -1.
        -13    1    3    3    0    0  0.65567769666E+03 -0.78191243191E+02 -0.21832031882E+02  0.66068430436E+03  0.00000000000E+00 0.  1.
          4    1    6    6  502    0 -0.21351080366E+03 -0.11877247397E+03 -0.23517168479E+03  0.33911574010E+03  0.00000000000E+00 0. -1.
          1    1    5    5  503    0 -0.36516427526E+03  0.20752042580E+03  0.44259535550E+02  0.42233704732E+03  0.00000000000E+00 0. -1.
         -2    1    5    5    0  503 -0.46987434679E+03  0.21443041475E+03 -0.22333328188E+02  0.51697299938E+03  0.00000000000E+00 0.  1.
         -3    1    6    6    0  502 -0.22497908172E+03 -0.17443309354E+03 -0.17946770979E+03  0.33652808233E+03  0.00000000000E+00 0.  1.
<mgrwt>
<rscale>  0 0.28575405E+04</rscale>
<asrwt>0</asrwt>
<pdfrwt beam="1">  1        1 0.18347025E+00 0.28575405E+04</pdfrwt>
<pdfrwt beam="2">  1       -1 0.26334947E+00 0.28575405E+04</pdfrwt>
<totfact> 0.53196105E-01</totfact>
</mgrwt>
</event>
<event>
12    1  0.2214165E-007  0.1845316E+04  0.7818608E-02  0.8682565E-01
          2   -1    0    0  501    0  0.00000000000E+00  0.00000000000E+00  0.26443032469E+04  0.26443032469E+04  0.00000000000E+00 0. -1.
         -2   -1    0    0    0  501 -0.00000000000E+00 -0.00000000000E+00 -0.32193648465E+03  0.32193648465E+03  0.00000000000E+00 0.  1.
         23    2    1    2    0    0  0.13264231532E+02 -0.54054460941E+03  0.17488120575E+03  0.57591280787E+03  0.93422221848E+02 0.  0.
        254    2    1    2    0    0 -0.13264231532E+02  0.54054460941E+03  0.21474855565E+04  0.23903269236E+04  0.89978006872E+03 0.  0.
        -24    2    4    4    0    0  0.13138361075E+03  0.25963559689E+03  0.10084932252E+03  0.31792263980E+03  0.78942527828E+02 0.  0.
         24    2    4    4    0    0 -0.14464784228E+03  0.28090901252E+03  0.20466362339E+04  0.20724042838E+04  0.79415174852E+02 0.  0.
         11    1    3    3    0    0 -0.21626817387E+02 -0.31511966396E+02  0.16886202650E+02  0.41783574481E+02  0.00000000000E+00 0. -1.
        -11    1    3    3    0    0  0.34891048919E+02 -0.50903264302E+03  0.15799500310E+03  0.53412923338E+03  0.00000000000E+00 0.  1.
          4    1    6    6  502    0 -0.12830679795E+03  0.24740346015E+03  0.19282885197E+04  0.19483243369E+04  0.00000000000E+00 0. -1.
          1    1    5    5  503    0  0.14013078588E+03  0.25576750374E+03  0.10005448555E+03  0.30832540149E+03  0.00000000000E+00 0. -1.
         -2    1    5    5    0  503 -0.87471751374E+01  0.38680931495E+01  0.79483697305E+00  0.95972383169E+01  0.00000000000E+00 0.  1.
         -3    1    6    6    0  502 -0.16341044326E+02  0.33505552374E+02  0.11834771424E+03  0.12407994695E+03  0.00000000000E+00 0.  1.
<mgrwt>
<rscale>  0 0.18453159E+04</rscale>
<asrwt>0</asrwt>
<pdfrwt beam="1">  1        2 0.40681587E+00 0.18453159E+04</pdfrwt>
<pdfrwt beam="2">  1       -2 0.49528692E-01 0.18453159E+04</pdfrwt>
<totfact> 0.10415996E+01</totfact>
</mgrwt>
</event>
<event>
12    1  0.2214165E-007  0.1232413E+04  0.7818608E-02  0.9084949E-01
         -2   -1    0    0    0  501 -0.00000000000E+00  0.00000000000E+00  0.20035453262E+03  0.20035453262E+03  0.00000000000E+00 0.  1.
          2   -1    0    0  501    0  0.00000000000E+00 -0.00000000000E+00 -0.18951941122E+04  0.18951941122E+04  0.00000000000E+00 0. -1.
         23    2    1    2    0    0  0.11801095150E+03 -0.26862488536E+03 -0.34577982927E+03  0.46245597614E+03  0.90641744423E+02 0.  0.
        254    2    1    2    0    0 -0.11801095150E+03  0.26862488536E+03 -0.13490597503E+04  0.16330926687E+04  0.87232077868E+03 0.  0.
        -24    2    4    4    0    0 -0.17565464481E+03 -0.20533601946E+03 -0.99297928522E+03  0.10322349785E+04  0.80521765898E+02 0.  0.
         24    2    4    4    0    0  0.57643693309E+02  0.47396090482E+03 -0.35608046511E+03  0.60085769023E+03  0.79214465822E+02 0.  0.
         13    1    3    3    0    0  0.63761822865E+02 -0.83025754247E+02 -0.17774083885E+03  0.20627809316E+03  0.00000000000E+00 0. -1.
        -13    1    3    3    0    0  0.54249128635E+02 -0.18559913111E+03 -0.16803899042E+03  0.25617788298E+03  0.00000000000E+00 0.  1.
          2    1    6    6  502    0  0.66565037891E+02  0.32533942290E+03 -0.27598456652E+03  0.43179176152E+03  0.00000000000E+00 0. -1.
          3    1    5    5  503    0 -0.11947077765E+03 -0.18855187204E+03 -0.77463724161E+03  0.80615626974E+03  0.00000000000E+00 0. -1.
         -4    1    5    5    0  503 -0.56183867156E+02 -0.16784147424E+02 -0.21834204361E+03  0.22607870873E+03  0.00000000000E+00 0.  1.
         -1    1    6    6    0  502 -0.89213445826E+01  0.14862148192E+03 -0.80095898590E+02  0.16906592870E+03  0.00000000000E+00 0.  1.
<mgrwt>
<rscale>  0 0.12324135E+04</rscale>
<asrwt>0</asrwt>
<pdfrwt beam="1">  1        2 0.29156832E+00 0.12324135E+04</pdfrwt>
<pdfrwt beam="2">  1       -2 0.30823775E-01 0.12324135E+04</pdfrwt>
<totfact> 0.73372669E+01</totfact>
</mgrwt>
</event>
<event>
12    1  0.2214165E-007  0.4054237E+04  0.7818608E-02  0.7993694E-01
         -2   -1    0    0    0  501 -0.00000000000E+00  0.00000000000E+00  0.16455440382E+04  0.16455440382E+04  0.00000000000E+00 0.  1.
          2   -1    0    0  501    0  0.00000000000E+00 -0.00000000000E+00 -0.24971738993E+04  0.24971738993E+04  0.00000000000E+00 0. -1.
         23    2    1    2    0    0  0.10518683853E+04  0.14439190174E+04 -0.11411177723E+04  0.21218056120E+04  0.92628591759E+02 0.  0.
        254    2    1    2    0    0 -0.10518683853E+04 -0.14439190174E+04  0.28948791128E+03  0.20209123255E+04  0.89941878349E+03 0.  0.
        -24    2    4    4    0    0 -0.48680712192E+03 -0.42568510948E+03 -0.29485293730E+03  0.71541576086E+03  0.81807517226E+02 0.  0.
         24    2    4    4    0    0 -0.56506126335E+03 -0.10182339079E+04  0.58434084858E+03  0.13054965647E+04  0.82295385910E+02 0.  0.
         11    1    3    3    0    0  0.77773339145E+03  0.11046317152E+04 -0.90154414082E+03  0.16241497136E+04  0.00000000000E+00 0.  1.
        -11    1    3    3    0    0  0.27413499382E+03  0.33928730221E+03 -0.23957363153E+03  0.49765589839E+03  0.00000000000E+00 0. -1.
          2    1    6    6  502    0 -0.38836638565E+02 -0.98553057395E+02  0.75372664439E+02  0.13000780039E+03  0.00000000000E+00 0. -1.
          3    1    5    5  503    0 -0.22716124969E+03 -0.14861102778E+03 -0.10713605088E+03  0.29183146563E+03  0.00000000000E+00 0. -1.
         -4    1    5    5    0  503 -0.25964587223E+03 -0.27707408169E+03 -0.18771688643E+03  0.42358429523E+03  0.00000000000E+00 0.  1.
         -3    1    6    6    0  502 -0.52622462479E+03 -0.91968085050E+03  0.50896818414E+03  0.11754887643E+04  0.00000000000E+00 0.  1.
<mgrwt>
<rscale>  0 0.40542371E+04</rscale>
<asrwt>0</asrwt>
<pdfrwt beam="1">  1        2 0.38418060E+00 0.40542371E+04</pdfrwt>
<pdfrwt beam="2">  1       -2 0.25316062E+00 0.40542371E+04</pdfrwt>
<totfact> 0.16865170E-01</totfact>
</mgrwt>
</event>
<event>
12    1  0.2214165E-007  0.1002450E+04  0.7818608E-02  0.9305861E-01
         -1   -1    0    0    0  501 -0.00000000000E+00  0.00000000000E+00  0.24559859726E+03  0.24559859726E+03  0.00000000000E+00 0.  1.
          1   -1    0    0  501    0  0.00000000000E+00 -0.00000000000E+00 -0.10229159859E+04  0.10229159859E+04  0.00000000000E+00 0. -1.
         23    2    1    2    0    0 -0.33975458805E+00 -0.41602405090E+02 -0.17406267347E+02  0.89221006382E+02  0.76983987260E+02 0.  0.
        254    2    1    2    0    0  0.33975458805E+00  0.41602405090E+02 -0.75991112134E+03  0.11792935768E+04  0.90085379084E+03 0.  0.
        -24    2    4    4    0    0  0.89762088817E+02 -0.24740572823E+03  0.77244804582E+02  0.28561056830E+03  0.79622923456E+02 0.  0.
         24    2    4    4    0    0 -0.89422334229E+02  0.28900813332E+03 -0.83715592592E+03  0.89368300853E+03  0.79480943881E+02 0.  0.
         13    1    3    3    0    0  0.63785062641E+01 -0.14646047470E+02  0.30163908033E+02  0.34132878526E+02  0.00000000000E+00 0.  1.
        -13    1    3    3    0    0 -0.67182608522E+01 -0.26956357620E+02 -0.47570175380E+02  0.55088127856E+02  0.00000000000E+00 0. -1.
          4    1    6    6  502    0  0.97666736730E+01  0.26649856476E+02 -0.12723996778E+03  0.13036722044E+03  0.00000000000E+00 0. -1.
          1    1    5    5  503    0 -0.78089220810E+01 -0.84302023127E+02  0.29379450614E+02  0.89615637507E+02  0.00000000000E+00 0. -1.
         -2    1    5    5    0  503  0.97571010898E+02 -0.16310370511E+03  0.47865353968E+02  0.19599493080E+03  0.00000000000E+00 0.  1.
         -3    1    6    6    0  502 -0.99189007902E+02  0.26235827685E+03 -0.70991595814E+03  0.76331578808E+03  0.00000000000E+00 0.  1.
<mgrwt>
<rscale>  0 0.10024505E+04</rscale>
<asrwt>0</asrwt>
<pdfrwt beam="1">  1        1 0.15737169E+00 0.10024505E+04</pdfrwt>
<pdfrwt beam="2">  1       -1 0.37784399E-01 0.10024505E+04</pdfrwt>
<totfact> 0.98278546E+01</totfact>
</mgrwt>
</event>
<event>
12    1  0.2214165E-007  0.1296516E+04  0.7818608E-02  0.9032332E-01
         -1   -1    0    0    0  501 -0.00000000000E+00  0.00000000000E+00  0.31355125534E+03  0.31355125534E+03  0.00000000000E+00 0.  1.
          1   -1    0    0  501    0  0.00000000000E+00 -0.00000000000E+00 -0.13402547209E+04  0.13402547209E+04  0.00000000000E+00 0. -1.
         23    2    1    2    0    0 -0.10905576108E+03  0.98666591809E+02 -0.63990898351E+03  0.66301965271E+03  0.92104817159E+02 0.  0.
        254    2    1    2    0    0  0.10905576108E+03 -0.98666591809E+02 -0.38679448206E+03  0.99078632354E+03  0.90023292108E+03 0.  0.
        -24    2    4    4    0    0 -0.26522104399E+03  0.22397785089E+03 -0.33028058020E+03  0.48597540834E+03  0.81108297916E+02 0.  0.
         24    2    4    4    0    0  0.37427680507E+03 -0.32264444270E+03 -0.56513901856E+02  0.50481091520E+03  0.86357835689E+02 0.  0.
         13    1    3    3    0    0 -0.19497462463E+02  0.47723123358E+01 -0.15746556525E+02  0.25512350929E+02  0.00000000000E+00 0.  1.
        -13    1    3    3    0    0 -0.89558298618E+02  0.93894279473E+02 -0.62416242698E+03  0.63750730178E+03  0.00000000000E+00 0. -1.
          4    1    6    6  502    0  0.28845479664E+03 -0.22042234595E+03 -0.90304698058E+01  0.36314422711E+03  0.00000000000E+00 0. -1.
          3    1    5    5  503    0 -0.90074080366E+02  0.10312706291E+03 -0.17672286385E+03  0.22356095738E+03  0.00000000000E+00 0. -1.
         -4    1    5    5    0  503 -0.17514696362E+03  0.12085078798E+03 -0.15355771635E+03  0.26241445096E+03  0.00000000000E+00 0.  1.
         -3    1    6    6    0  502  0.85822008423E+02 -0.10222209675E+03 -0.47483432050E+02  0.14166668809E+03  0.00000000000E+00 0.  1.
<mgrwt>
<rscale>  0 0.12965162E+04</rscale>
<asrwt>0</asrwt>
<pdfrwt beam="1">  1        1 0.20619303E+00 0.12965162E+04</pdfrwt>
<pdfrwt beam="2">  1       -1 0.48238655E-01 0.12965162E+04</pdfrwt>
<totfact> 0.35748938E+01</totfact>
</mgrwt>
</event>
<event>
12    1  0.2214165E-007  0.1286969E+04  0.7818608E-02  0.9039964E-01
         -2   -1    0    0    0  501 -0.00000000000E+00  0.00000000000E+00  0.48701608128E+03  0.48701608128E+03  0.00000000000E+00 0.  1.
          2   -1    0    0  501    0  0.00000000000E+00 -0.00000000000E+00 -0.85022246156E+03  0.85022246156E+03  0.00000000000E+00 0. -1.
         23    2    1    2    0    0 -0.55069529745E+02 -0.31116561806E+03 -0.84720242586E+02  0.33939446344E+03  0.90301646407E+02 0.  0.
        254    2    1    2    0    0  0.55069529745E+02  0.31116561806E+03 -0.27848613769E+03  0.99784407939E+03  0.90458917909E+03 0.  0.
        -24    2    4    4    0    0  0.33628564467E+03 -0.17811620024E+03 -0.12568095477E+03  0.40781196132E+03  0.75508130720E+02 0.  0.
         24    2    4    4    0    0 -0.28121611492E+03  0.48928181830E+03 -0.15280518291E+03  0.59003211807E+03  0.79430947498E+02 0.  0.
         11    1    3    3    0    0 -0.51948016528E+02 -0.23018282371E+03 -0.10109189138E+03  0.25671443133E+03  0.00000000000E+00 0. -1.
        -11    1    3    3    0    0 -0.31215132175E+01 -0.80982794352E+02  0.16371648794E+02  0.82680032112E+02  0.00000000000E+00 0.  1.
          4    1    6    6  502    0 -0.17205492954E+03  0.36907456325E+03 -0.11809868896E+03  0.42398848139E+03  0.00000000000E+00 0. -1.
          1    1    5    5  503    0  0.16699180881E+03 -0.12781876990E+03 -0.53275306065E+02  0.21693814876E+03  0.00000000000E+00 0. -1.
         -2    1    5    5    0  503  0.16929383585E+03 -0.50297430339E+02 -0.72405648709E+02  0.19087381256E+03  0.00000000000E+00 0.  1.
         -3    1    6    6    0  502 -0.10916118538E+03  0.12020725505E+03 -0.34706493951E+02  0.16604363668E+03  0.00000000000E+00 0.  1.
<mgrwt>
<rscale>  0 0.12869685E+04</rscale>
<asrwt>0</asrwt>
<pdfrwt beam="1">  1        2 0.13080346E+00 0.12869685E+04</pdfrwt>
<pdfrwt beam="2">  1       -2 0.74925551E-01 0.12869685E+04</pdfrwt>
<totfact> 0.49831655E+01</totfact>
</mgrwt>
</event>
<event>
12    1  0.2214165E-007  0.2008025E+04  0.7818608E-02  0.8602878E-01
          1   -1    0    0  501    0  0.00000000000E+00  0.00000000000E+00  0.72089683415E+03  0.72089683415E+03  0.00000000000E+00 0. -1.
         -1   -1    0    0    0  501 -0.00000000000E+00 -0.00000000000E+00 -0.13983154848E+04  0.13983154848E+04  0.00000000000E+00 0.  1.
         23    2    1    2    0    0  0.20379901319E+03  0.56009109026E+03 -0.83450993155E+03  0.10295845126E+04  0.91659017617E+02 0.  0.
        254    2    1    2    0    0 -0.20379901319E+03 -0.56009109026E+03  0.15709128092E+03  0.10896278064E+04  0.89854049363E+03 0.  0.
        -24    2    4    4    0    0  0.20886295623E+03 -0.59321711656E+03  0.20199528239E+03  0.66549674297E+03  0.80953930940E+02 0.  0.
         24    2    4    4    0    0 -0.41266196942E+03  0.33126026296E+02 -0.44904001465E+02  0.42413106339E+03  0.80520525125E+02 0.  0.
         11    1    3    3    0    0  0.35113398476E+02  0.11190978940E+03 -0.10794368492E+03  0.15940072406E+03  0.00000000000E+00 0. -1.
        -11    1    3    3    0    0  0.16868561471E+03  0.44818130086E+03 -0.72656624663E+03  0.87018378851E+03  0.00000000000E+00 0.  1.
          4    1    6    6  502    0 -0.88838931678E+02  0.26780333192E+02  0.17138253074E+02  0.94357096956E+02  0.00000000000E+00 0. -1.
          1    1    5    5  503    0  0.59555934795E+01 -0.70265531904E+02  0.39587675771E+01  0.70628506342E+02  0.00000000000E+00 0. -1.
         -2    1    5    5    0  503  0.20290736275E+03 -0.52295158466E+03  0.19803651481E+03  0.59486823663E+03  0.00000000000E+00 0.  1.
         -3    1    6    6    0  502 -0.32382303774E+03  0.63456931037E+01 -0.62042254539E+02  0.32977396644E+03  0.00000000000E+00 0.  1.
<mgrwt>
<rscale>  0 0.20080251E+04</rscale>
<asrwt>0</asrwt>
<pdfrwt beam="1">  1        1 0.11090720E+00 0.20080251E+04</pdfrwt>
<pdfrwt beam="2">  1       -1 0.21512546E+00 0.20080251E+04</pdfrwt>
<totfact> 0.28649199E+00</totfact>
</mgrwt>
</event>
<event>
12    1  0.2214165E-007  0.1724689E+04  0.7818608E-02  0.8747407E-01
          2   -1    0    0  501    0  0.00000000000E+00  0.00000000000E+00  0.24111362384E+04  0.24111362384E+04  0.00000000000E+00 0. -1.
         -2   -1    0    0    0  501 -0.00000000000E+00 -0.00000000000E+00 -0.30841813531E+03  0.30841813531E+03  0.00000000000E+00 0.  1.
         23    2    1    2    0    0 -0.36725292962E+03 -0.13854076830E+03  0.21222511309E+02  0.40375081233E+03  0.92174099798E+02 0.  0.
        254    2    1    2    0    0  0.36725292962E+03  0.13854076830E+03  0.20814955918E+04  0.23158035614E+04  0.93608438589E+03 0.  0.
        -24    2    4    4    0    0 -0.15766602622E+03  0.38383890028E+03  0.10161531004E+04  0.11004202907E+04  0.78529074190E+02 0.  0.
         24    2    4    4    0    0  0.52491895584E+03 -0.24529813198E+03  0.10653424914E+04  0.12153832707E+04  0.80565420644E+02 0.  0.
         11    1    3    3    0    0 -0.23886197028E+03 -0.91398410520E+02 -0.30419311613E+02  0.25755396486E+03  0.00000000000E+00 0.  1.
        -11    1    3    3    0    0 -0.12839095934E+03 -0.47142357776E+02  0.51641822923E+02  0.14619684747E+03  0.00000000000E+00 0. -1.
          4    1    6    6  502    0  0.97793719565E+02 -0.32469261206E+02  0.13546399475E+03  0.17020093532E+03  0.00000000000E+00 0. -1.
          1    1    5    5  503    0 -0.10309981490E+03  0.16298239152E+03  0.51952811436E+03  0.55416810932E+03  0.00000000000E+00 0. -1.
         -2    1    5    5    0  503 -0.54566211319E+02  0.22085650876E+03  0.49662498606E+03  0.54625218138E+03  0.00000000000E+00 0.  1.
         -3    1    6    6    0  502  0.42712523628E+03 -0.21282887077E+03  0.92987849664E+03  0.10451823354E+04  0.00000000000E+00 0.  1.
<mgrwt>
<rscale>  0 0.17246891E+04</rscale>
<asrwt>0</asrwt>
<pdfrwt beam="1">  1        2 0.37094403E+00 0.17246891E+04</pdfrwt>
<pdfrwt beam="2">  1       -2 0.47448945E-01 0.17246891E+04</pdfrwt>
<totfact> 0.15678543E+01</totfact>
</mgrwt>
</event>
<event>
12    1  0.2214165E-007  0.1025754E+04  0.7818608E-02  0.9280741E-01
         -2   -1    0    0    0  501 -0.00000000000E+00  0.00000000000E+00  0.77473938317E+03  0.77473938317E+03  0.00000000000E+00 0.  1.
          2   -1    0    0  501    0  0.00000000000E+00 -0.00000000000E+00 -0.33952393557E+03  0.33952393557E+03  0.00000000000E+00 0. -1.
         23    2    1    2    0    0 -0.78636258589E+02  0.25842329502E+02  0.63863693021E+02  0.13827869394E+03  0.90503805177E+02 0.  0.
        254    2    1    2    0    0  0.78636258589E+02 -0.25842329502E+02  0.37135175458E+03  0.97598462480E+03  0.89877270489E+03 0.  0.
        -24    2    4    4    0    0 -0.93330317924E+02 -0.35545770205E+03  0.45094727672E+03  0.58742736830E+03  0.81588850049E+02 0.  0.
         24    2    4    4    0    0  0.17196657651E+03  0.32961537255E+03 -0.79595522143E+02  0.38855725650E+03  0.80140483999E+02 0.  0.
         11    1    3    3    0    0 -0.63803900303E+02  0.11870013110E+02  0.86294020901E+02  0.10797450138E+03  0.00000000000E+00 0.  1.
        -11    1    3    3    0    0 -0.14832358286E+02  0.13972316392E+02 -0.22430327880E+02  0.30304192556E+02  0.00000000000E+00 0. -1.
          2    1    6    6  502    0  0.84005086730E+02  0.23640712064E+03 -0.67603980211E+02  0.25983740960E+03  0.00000000000E+00 0. -1.
          1    1    5    5  503    0 -0.10161748550E+03 -0.32760538766E+03  0.38663035593E+03  0.51685049629E+03  0.00000000000E+00 0. -1.
         -2    1    5    5    0  503  0.82871675758E+01 -0.27852314394E+02  0.64316920785E+02  0.70576872011E+02  0.00000000000E+00 0.  1.
         -1    1    6    6    0  502  0.87961489782E+02  0.93208251908E+02 -0.11991541931E+02  0.12871984690E+03  0.00000000000E+00 0.  1.
<mgrwt>
<rscale>  0 0.10257535E+04</rscale>
<asrwt>0</asrwt>
<pdfrwt beam="1">  1        2 0.52234452E-01 0.10257535E+04</pdfrwt>
<pdfrwt beam="2">  1       -2 0.11919067E+00 0.10257535E+04</pdfrwt>
<totfact> 0.51456878E+01</totfact>
</mgrwt>
</event>
<event>
12    1  0.2214165E-007  0.2978177E+04  0.7818608E-02  0.8249990E-01
          2   -1    0    0  501    0  0.00000000000E+00  0.00000000000E+00  0.27999431685E+04  0.27999431685E+04  0.00000000000E+00 0.  1.
         -2   -1    0    0    0  501 -0.00000000000E+00 -0.00000000000E+00 -0.79193927478E+03  0.79193927478E+03  0.00000000000E+00 0. -1.
         23    2    1    2    0    0  0.34801528011E+00 -0.10420490974E+04 -0.12375846430E+03  0.10546224922E+04  0.10509995751E+03 0.  0.
        254    2    1    2    0    0 -0.34801528011E+00  0.10420490974E+04  0.21317623580E+04  0.25372599511E+04  0.89856044088E+03 0.  0.
        -24    2    4    4    0    0  0.35421960336E+03  0.77705639490E+03  0.98832086582E+03  0.13084703429E+04  0.77642359887E+02 0.  0.
         24    2    4    4    0    0 -0.35456761864E+03  0.26499270247E+03  0.11434414922E+04  0.12287896082E+04  0.80784445859E+02 0.  0.
         11    1    3    3    0    0  0.35207820770E+02 -0.87143474923E+03 -0.12068539980E+03  0.88045617638E+03  0.00000000000E+00 0. -1.
        -11    1    3    3    0    0 -0.34859805490E+02 -0.17061434814E+03 -0.30730645002E+01  0.17416631579E+03  0.00000000000E+00 0.  1.
          4    1    6    6  502    0 -0.21817062022E+03  0.11631817591E+03  0.58953220026E+03  0.63927814973E+03  0.00000000000E+00 0. -1.
          3    1    5    5  503    0  0.17782943635E+03  0.47676806188E+03  0.60606877718E+03  0.79135987764E+03  0.00000000000E+00 0. -1.
         -4    1    5    5    0  503  0.17639016701E+03  0.30028833302E+03  0.38225208865E+03  0.51711046522E+03  0.00000000000E+00 0.  1.
         -3    1    6    6    0  502 -0.13639699842E+03  0.14867452656E+03  0.55390929192E+03  0.58951145850E+03  0.00000000000E+00 0.  1.
<mgrwt>
<rscale>  0 0.29781773E+04</rscale>
<asrwt>0</asrwt>
<pdfrwt beam="1">  1        2 0.43076048E+00 0.29781773E+04</pdfrwt>
<pdfrwt beam="2">  1       -2 0.12183681E+00 0.29781773E+04</pdfrwt>
<totfact> 0.10134908E+00</totfact>
</mgrwt>
</event>
<event>
12    1  0.2214165E-007  0.2894014E+04  0.7818608E-02  0.8274661E-01
          2   -1    0    0  501    0  0.00000000000E+00  0.00000000000E+00  0.23631870815E+04  0.23631870815E+04  0.00000000000E+00 0. -1.
         -2   -1    0    0    0  501 -0.00000000000E+00 -0.00000000000E+00 -0.88601926628E+03  0.88601926628E+03  0.00000000000E+00 0.  1.
         23    2    1    2    0    0 -0.85384182269E+03 -0.24775109680E+03 -0.40337219222E+03  0.98036009996E+03  0.89276738335E+02 0.  0.
        254    2    1    2    0    0  0.85384182269E+03  0.24775109680E+03  0.18805400074E+04  0.22688462478E+04  0.90598350565E+03 0.  0.
        -24    2    4    4    0    0  0.40922327884E+03 -0.29090030886E+03  0.46818054383E+03  0.69106192745E+03  0.79289875237E+02 0.  0.
         24    2    4    4    0    0  0.44461854385E+03  0.53865140566E+03  0.14123594636E+04  0.15777843204E+04  0.82541630601E+02 0.  0.
         13    1    3    3    0    0 -0.33483938868E+03 -0.92490263147E+02 -0.20558488088E+03  0.40365456548E+03  0.00000000000E+00 0.  1.
        -13    1    3    3    0    0 -0.51900243401E+03 -0.15526083365E+03 -0.19778731134E+03  0.57670553448E+03  0.00000000000E+00 0. -1.
          4    1    6    6  502    0  0.20721248325E+03  0.25940508196E+03  0.76345456938E+03  0.83252080411E+03  0.00000000000E+00 0. -1.
          1    1    5    5  503    0  0.39863286320E+03 -0.27320525912E+03  0.46412315082E+03  0.67004445551E+03  0.00000000000E+00 0. -1.
         -2    1    5    5    0  503  0.10590415638E+02 -0.17695049743E+02  0.40573930087E+01  0.21017471941E+02  0.00000000000E+00 0.  1.
         -3    1    6    6    0  502  0.23740606060E+03  0.27924632370E+03  0.64890489421E+03  0.74526351624E+03  0.00000000000E+00 0.  1.
<mgrwt>
<rscale>  0 0.28940140E+04</rscale>
<asrwt>0</asrwt>
<pdfrwt beam="1">  1        2 0.36356724E+00 0.28940140E+04</pdfrwt>
<pdfrwt beam="2">  1       -2 0.13631066E+00 0.28940140E+04</pdfrwt>
<totfact> 0.13866800E+00</totfact>
</mgrwt>
</event>
<event>
12    1  0.2214165E-007  0.1386989E+04  0.7818608E-02  0.8963291E-01
         -2   -1    0    0    0  501 -0.00000000000E+00  0.00000000000E+00  0.29967309459E+03  0.29967309459E+03  0.00000000000E+00 0.  1.
          2   -1    0    0  501    0  0.00000000000E+00 -0.00000000000E+00 -0.16048640856E+04  0.16048640856E+04  0.00000000000E+00 0. -1.
         23    2    1    2    0    0  0.22760293157E+03  0.21810627445E+03 -0.59603523228E+02  0.33377404995E+03  0.92082001631E+02 0.  0.
        254    2    1    2    0    0 -0.22760293157E+03 -0.21810627445E+03 -0.12455874677E+04  0.15707631302E+04  0.90356805497E+03 0.  0.
        -24    2    4    4    0    0 -0.41228989114E+02 -0.22799111826E+03 -0.13289940258E+04  0.13513507460E+04  0.79018595087E+02 0.  0.
         24    2    4    4    0    0 -0.18637394246E+03  0.98848438048E+01  0.83406558113E+02  0.21941238421E+03  0.79700588732E+02 0.  0.
         13    1    3    3    0    0  0.12652747096E+03  0.63883648423E+02 -0.45403694842E+02  0.14883486469E+03  0.00000000000E+00 0. -1.
        -13    1    3    3    0    0  0.10107546061E+03  0.15422262603E+03 -0.14199828387E+02  0.18493918526E+03  0.00000000000E+00 0.  1.
          2    1    6    6  502    0 -0.18484395890E+02 -0.24801420405E+02  0.18862401351E+02  0.36229456665E+02  0.00000000000E+00 0. -1.
          1    1    5    5  503    0  0.67357698863E+01  0.26379728758E+01 -0.18702055915E+02  0.20052341318E+02  0.00000000000E+00 0. -1.
         -2    1    5    5    0  503 -0.47964759000E+02 -0.23062909114E+03 -0.13102919699E+04  0.13312984047E+04  0.00000000000E+00 0.  1.
         -1    1    6    6    0  502 -0.16788954657E+03  0.34686264210E+02  0.64544156762E+02  0.18318292755E+03  0.00000000000E+00 0.  1.
<mgrwt>
<rscale>  0 0.13869890E+04</rscale>
<asrwt>0</asrwt>
<pdfrwt beam="1">  1        2 0.24690217E+00 0.13869890E+04</pdfrwt>
<pdfrwt beam="2">  1       -2 0.46103553E-01 0.13869890E+04</pdfrwt>
<totfact> 0.48150986E+01</totfact>
</mgrwt>
</event>
<event>
12    1  0.2214165E-007  0.1427782E+04  0.7818608E-02  0.8933950E-01
          1   -1    0    0  501    0  0.00000000000E+00  0.00000000000E+00  0.11360932224E+04  0.11360932224E+04  0.00000000000E+00 0. -1.
         -1   -1    0    0    0  501 -0.00000000000E+00 -0.00000000000E+00 -0.44859046253E+03  0.44859046253E+03  0.00000000000E+00 0.  1.
         23    2    1    2    0    0 -0.34151927030E+03  0.17099767058E+03  0.70518991777E+01  0.39304470622E+03  0.92513763683E+02 0.  0.
        254    2    1    2    0    0  0.34151927030E+03 -0.17099767058E+03  0.68045086071E+03  0.11916389787E+04  0.90061893521E+03 0.  0.
        -24    2    4    4    0    0  0.34926910504E+03  0.31719108575E+03  0.39350301757E+03  0.61952333914E+03  0.79783772137E+02 0.  0.
         24    2    4    4    0    0 -0.77498347413E+01 -0.48818875633E+03  0.28694784314E+03  0.57211563959E+03  0.81172154258E+02 0.  0.
         11    1    3    3    0    0 -0.26967436199E+03  0.16472647348E+03  0.29843336579E+02  0.31741092816E+03  0.00000000000E+00 0. -1.
        -11    1    3    3    0    0 -0.71844908314E+02  0.62711971000E+01 -0.22791437402E+02  0.75633778053E+02  0.00000000000E+00 0.  1.
          4    1    6    6  502    0  0.21522791854E+02 -0.25043395006E+03  0.11038373737E+03  0.27452679904E+03  0.00000000000E+00 0. -1.
          1    1    5    5  503    0  0.47010966555E+01  0.11786068236E+02  0.31054879071E+02  0.33547238758E+02  0.00000000000E+00 0. -1.
         -2    1    5    5    0  503  0.34456800839E+03  0.30540501751E+03  0.36244813850E+03  0.58597610039E+03  0.00000000000E+00 0.  1.
         -3    1    6    6    0  502 -0.29272626595E+02 -0.23775480627E+03  0.17656410578E+03  0.29758884055E+03  0.00000000000E+00 0.  1.
<mgrwt>
<rscale>  0 0.14277823E+04</rscale>
<asrwt>0</asrwt>
<pdfrwt beam="1">  1        1 0.17478357E+00 0.14277823E+04</pdfrwt>
<pdfrwt beam="2">  1       -1 0.69013918E-01 0.14277823E+04</pdfrwt>
<totfact> 0.24622677E+01</totfact>
</mgrwt>
</event>
<event>
12    1  0.2214165E-007  0.2154546E+04  0.7818608E-02  0.8537589E-01
          1   -1    0    0  501    0  0.00000000000E+00  0.00000000000E+00  0.24949836722E+04  0.24949836722E+04  0.00000000000E+00 0. -1.
         -1   -1    0    0    0  501 -0.00000000000E+00 -0.00000000000E+00 -0.46514012840E+03  0.46514012840E+03  0.00000000000E+00 0.  1.
         23    2    1    2    0    0  0.80932090007E+03 -0.24637022226E+03  0.11995603992E+04  0.14707051615E+04  0.91268367673E+02 0.  0.
        254    2    1    2    0    0 -0.80932090007E+03  0.24637022226E+03  0.83028314463E+03  0.14894186392E+04  0.90183101341E+03 0.  0.
        -24    2    4    4    0    0 -0.46218977832E+03  0.26054503489E+03 -0.50859503889E+02  0.53934823943E+03  0.82502896028E+02 0.  0.
         24    2    4    4    0    0 -0.34713112175E+03 -0.14174812628E+02  0.88114264852E+03  0.95007039974E+03  0.74299774023E+02 0.  0.
         11    1    3    3    0    0  0.49650768237E+03 -0.17287825407E+03  0.81082022654E+03  0.96635201100E+03  0.00000000000E+00 0. -1.
        -11    1    3    3    0    0  0.31281321770E+03 -0.73491968186E+02  0.38874017265E+03  0.50435315047E+03  0.00000000000E+00 0.  1.
          4    1    6    6  502    0 -0.18756325928E+02  0.57204259310E+01  0.19041973917E+02  0.27333492382E+02  0.00000000000E+00 0. -1.
          3    1    5    5  503    0 -0.29794377402E+03  0.20838692837E+03 -0.50063037933E+02  0.36701759108E+03  0.00000000000E+00 0. -1.
         -2    1    5    5    0  503 -0.16424600430E+03  0.52158106519E+02 -0.79646595607E+00  0.17233064836E+03  0.00000000000E+00 0.  1.
         -3    1    6    6    0  502 -0.32837479582E+03 -0.19895238559E+02  0.86210067461E+03  0.92273690736E+03  0.00000000000E+00 0.  1.
<mgrwt>
<rscale>  0 0.21545459E+04</rscale>
<asrwt>0</asrwt>
<pdfrwt beam="1">  1        1 0.38384364E+00 0.21545459E+04</pdfrwt>
<pdfrwt beam="2">  1       -1 0.71560021E-01 0.21545459E+04</pdfrwt>
<totfact> 0.24647210E+00</totfact>
</mgrwt>
</event>
<event>
12    1  0.2214165E-007  0.1657296E+04  0.7818608E-02  0.8786102E-01
         -2   -1    0    0    0  501 -0.00000000000E+00  0.00000000000E+00  0.55003609077E+03  0.55003609077E+03  0.00000000000E+00 0.  1.
          2   -1    0    0  501    0  0.00000000000E+00 -0.00000000000E+00 -0.12483865878E+04  0.12483865878E+04  0.00000000000E+00 0. -1.
         23    2    1    2    0    0 -0.22451040673E+03 -0.43072176682E+03  0.95842423396E+02  0.50345911085E+03  0.91428349161E+02 0.  0.
        254    2    1    2    0    0  0.22451040673E+03  0.43072176682E+03 -0.79419292042E+03  0.12949635677E+04  0.90014559030E+03 0.  0.
        -24    2    4    4    0    0  0.30167173456E+03  0.67225840580E+03 -0.47699224803E+03  0.88132627701E+03  0.79228796964E+02 0.  0.
         24    2    4    4    0    0 -0.77161327827E+02 -0.24153663899E+03 -0.31720067239E+03  0.41363729071E+03  0.78649368821E+02 0.  0.
         11    1    3    3    0    0 -0.15006729810E+03 -0.32369996090E+03  0.31790634308E+02  0.35820734649E+03  0.00000000000E+00 0. -1.
        -11    1    3    3    0    0 -0.74443108634E+02 -0.10702180591E+03  0.64051789088E+02  0.14525176436E+03  0.00000000000E+00 0.  1.
          2    1    6    6  502    0 -0.31147857037E+02 -0.77130854748E+02 -0.16560464166E+03  0.18532203077E+03  0.00000000000E+00 0. -1.
          1    1    5    5  503    0  0.13347436063E+02  0.97236822766E+01 -0.21788440847E+02  0.27339352607E+02  0.00000000000E+00 0. -1.
         -2    1    5    5    0  503  0.28832429849E+03  0.66253472353E+03 -0.45520380718E+03  0.85398692441E+03  0.00000000000E+00 0.  1.
         -1    1    6    6    0  502 -0.46013470790E+02 -0.16440578424E+03 -0.15159603074E+03  0.22831525994E+03  0.00000000000E+00 0.  1.
<mgrwt>
<rscale>  0 0.16572962E+04</rscale>
<asrwt>0</asrwt>
<pdfrwt beam="1">  1        2 0.19205948E+00 0.16572962E+04</pdfrwt>
<pdfrwt beam="2">  1       -2 0.84620937E-01 0.16572962E+04</pdfrwt>
<totfact> 0.20602943E+01</totfact>
</mgrwt>
</event>
<event>
12    1  0.2214165E-007  0.1484262E+04  0.7818608E-02  0.8894986E-01
          2   -1    0    0  501    0  0.00000000000E+00  0.00000000000E+00  0.15789105534E+04  0.15789105534E+04  0.00000000000E+00 0. -1.
         -2   -1    0    0    0  501 -0.00000000000E+00 -0.00000000000E+00 -0.34882188156E+03  0.34882188156E+03  0.00000000000E+00 0.  1.
         23    2    1    2    0    0  0.22735320046E+03  0.39605034801E+03  0.43121372303E+03  0.63449996869E+03  0.89997663440E+02 0.  0.
        254    2    1    2    0    0 -0.22735320046E+03 -0.39605034801E+03  0.79887494882E+03  0.12932324663E+04  0.90868238239E+03 0.  0.
        -24    2    4    4    0    0  0.98334668866E+02 -0.15956854718E+03 -0.15390792463E+03  0.25581153012E+03  0.81363759308E+02 0.  0.
         24    2    4    4    0    0 -0.32568786932E+03 -0.23648180083E+03  0.95278287346E+03  0.10374209362E+04  0.80316651273E+02 0.  0.
         11    1    3    3    0    0  0.50400585446E+02  0.13099921384E+03  0.18256189044E+03  0.23028212454E+03  0.00000000000E+00 0. -1.
        -11    1    3    3    0    0  0.17695261501E+03  0.26505113417E+03  0.24865183259E+03  0.40421784416E+03  0.00000000000E+00 0.  1.
          4    1    6    6  502    0 -0.81111884736E+02 -0.10145183409E+03  0.33961628691E+03  0.36360807859E+03  0.00000000000E+00 0. -1.
          1    1    5    5  503    0  0.40350233003E+02 -0.37416426022E+02 -0.91763997834E+02  0.10699888569E+03  0.00000000000E+00 0. -1.
         -2    1    5    5    0  503  0.57984435862E+02 -0.12215212116E+03 -0.62143926797E+02  0.14881264444E+03  0.00000000000E+00 0.  1.
         -3    1    6    6    0  502 -0.24457598459E+03 -0.13502996674E+03  0.61316658655E+03  0.67381285756E+03  0.00000000000E+00 0.  1.
<mgrwt>
<rscale>  0 0.14842622E+04</rscale>
<asrwt>0</asrwt>
<pdfrwt beam="1">  1        2 0.24290931E+00 0.14842622E+04</pdfrwt>
<pdfrwt beam="2">  1       -2 0.53664906E-01 0.14842622E+04</pdfrwt>
<totfact> 0.36261612E+01</totfact>
</mgrwt>
</event>
<event>
12    1  0.2214165E-007  0.2804446E+04  0.7818608E-02  0.8301889E-01
          2   -1    0    0  501    0  0.00000000000E+00  0.00000000000E+00  0.77199923587E+03  0.77199923587E+03  0.00000000000E+00 0. -1.
         -2   -1    0    0    0  501 -0.00000000000E+00 -0.00000000000E+00 -0.25469312737E+04  0.25469312737E+04  0.00000000000E+00 0.  1.
         23    2    1    2    0    0 -0.81367080965E+03  0.36482043528E+03  0.24287012171E+03  0.92733258277E+03  0.76195056152E+02 0.  0.
        254    2    1    2    0    0  0.81367080965E+03 -0.36482043528E+03 -0.20178021595E+04  0.23915979268E+04  0.92361298816E+03 0.  0.
        -24    2    4    4    0    0  0.76043288183E+02  0.24832878232E+03 -0.21050110040E+03  0.34398842234E+03  0.81040456724E+02 0.  0.
         24    2    4    4    0    0  0.73762752146E+03 -0.61314921761E+03 -0.18073010591E+04  0.20476095044E+04  0.79506231697E+02 0.  0.
         13    1    3    3    0    0 -0.54788023794E+03  0.20601744495E+03  0.16113092053E+03  0.60710717036E+03  0.00000000000E+00 0. -1.
        -13    1    3    3    0    0 -0.26579057170E+03  0.15880299033E+03  0.81739201181E+02  0.32022541241E+03  0.00000000000E+00 0.  1.
          4    1    6    6  502    0  0.35025889979E+02 -0.48941002862E+02 -0.90281506715E+02  0.10850246626E+03  0.00000000000E+00 0. -1.
          3    1    5    5  503    0  0.53439380314E+02  0.52940994033E+02 -0.63346429941E+02  0.98342698782E+02  0.00000000000E+00 0. -1.
         -4    1    5    5    0  503  0.22603907869E+02  0.19538778829E+03 -0.14715467046E+03  0.24564572356E+03  0.00000000000E+00 0.  1.
         -3    1    6    6    0  502  0.70260163148E+03 -0.56420821474E+03 -0.17170195524E+04  0.19391070382E+04  0.00000000000E+00 0.  1.
<mgrwt>
<rscale>  0 0.28044458E+04</rscale>
<asrwt>0</asrwt>
<pdfrwt beam="1">  1        2 0.11876911E+00 0.28044458E+04</pdfrwt>
<pdfrwt beam="2">  1       -2 0.39183558E+00 0.28044458E+04</pdfrwt>
<totfact> 0.26347335E-01</totfact>
</mgrwt>
</event>
<event>
12    1  0.2214165E-007  0.3996766E+04  0.7818608E-02  0.8005199E-01
          2   -1    0    0  501    0  0.00000000000E+00  0.00000000000E+00  0.18891928203E+04  0.18891928203E+04  0.00000000000E+00 0. -1.
         -2   -1    0    0    0  501 -0.00000000000E+00 -0.00000000000E+00 -0.21138838129E+04  0.21138838129E+04  0.00000000000E+00 0.  1.
         23    2    1    2    0    0 -0.18403808748E+04  0.45481102000E+03 -0.64443405042E+02  0.18991171080E+04  0.92940891410E+02 0.  0.
        254    2    1    2    0    0  0.18403808748E+04 -0.45481102000E+03 -0.16024758755E+03  0.21039595252E+04  0.89839388145E+03 0.  0.
        -24    2    4    4    0    0  0.63685317541E+03 -0.29635823513E+03 -0.46953065999E+03  0.84869622165E+03  0.80100345917E+02 0.  0.
         24    2    4    4    0    0  0.12035276994E+04 -0.15845278487E+03  0.30928307244E+03  0.12552633036E+04  0.80272873244E+02 0.  0.
         13    1    3    3    0    0 -0.13995893222E+04  0.33910121339E+03 -0.97071992033E+01  0.14401160139E+04  0.00000000000E+00 0.  1.
        -13    1    3    3    0    0 -0.44079155256E+03  0.11570980661E+03 -0.54736205839E+02  0.45900109410E+03  0.00000000000E+00 0. -1.
          2    1    6    6  502    0  0.10085985136E+04 -0.10272559834E+03  0.25584424556E+03  0.10456002047E+04  0.00000000000E+00 0. -1.
          3    1    5    5  503    0  0.47326964357E+03 -0.25705492148E+03 -0.36567337546E+03  0.65098264623E+03  0.00000000000E+00 0. -1.
         -4    1    5    5    0  503  0.16358353184E+03 -0.39303313650E+02 -0.10385728453E+03  0.19771357542E+03  0.00000000000E+00 0.  1.
         -1    1    6    6    0  502  0.19492918580E+03 -0.55727186530E+02  0.53438826875E+02  0.20966309884E+03  0.00000000000E+00 0.  1.
<mgrwt>
<rscale>  0 0.39967658E+04</rscale>
<asrwt>0</asrwt>
<pdfrwt beam="1">  1        2 0.29064505E+00 0.39967658E+04</pdfrwt>
<pdfrwt beam="2">  1       -2 0.32521289E+00 0.39967658E+04</pdfrwt>
<totfact> 0.13503565E-01</totfact>
</mgrwt>
</event>
<event>
12    1  0.2214165E-007  0.2783603E+04  0.7818608E-02  0.8308377E-01
         -1   -1    0    0    0  501 -0.00000000000E+00  0.00000000000E+00  0.95581328425E+03  0.95581328425E+03  0.00000000000E+00 0.  1.
          1   -1    0    0  501    0  0.00000000000E+00 -0.00000000000E+00 -0.20266637184E+04  0.20266637184E+04  0.00000000000E+00 0. -1.
         23    2    1    2    0    0 -0.22701358478E+03  0.12286057230E+04 -0.48852906939E+03  0.13446837689E+04  0.92231212622E+02 0.  0.
        254    2    1    2    0    0  0.22701358478E+03 -0.12286057230E+04 -0.58232136473E+03  0.16377932337E+04  0.88445537724E+03 0.  0.
        -24    2    4    4    0    0  0.57438498344E+02 -0.13188093916E+04 -0.51038695790E+03  0.14179942025E+04  0.87494680628E+02 0.  0.
         24    2    4    4    0    0  0.16957508643E+03  0.90203668629E+02 -0.71934406832E+02  0.21979903117E+03  0.79023056408E+02 0.  0.
         11    1    3    3    0    0 -0.20177176816E+03  0.11201236740E+04 -0.47175496000E+03  0.12320477401E+04  0.00000000000E+00 0. -1.
        -11    1    3    3    0    0 -0.25241816619E+02  0.10848204894E+03 -0.16774109393E+02  0.11263602885E+03  0.00000000000E+00 0.  1.
          2    1    6    6  502    0  0.10509198954E+03  0.27370974710E+02 -0.71024096635E+02  0.12976100657E+03  0.00000000000E+00 0. -1.
          3    1    5    5  503    0  0.30686626681E+02 -0.11351639982E+04 -0.41250970040E+03  0.12081817847E+04  0.00000000000E+00 0. -1.
         -4    1    5    5    0  503  0.26751871663E+02 -0.18364539342E+03 -0.97877257497E+02  0.20981241788E+03  0.00000000000E+00 0.  1.
         -1    1    6    6    0  502  0.64483096891E+02  0.62832693919E+02 -0.91031019736E+00  0.90038024603E+02  0.00000000000E+00 0.  1.
<mgrwt>
<rscale>  0 0.27836035E+04</rscale>
<asrwt>0</asrwt>
<pdfrwt beam="1">  1        1 0.31179441E+00 0.27836035E+04</pdfrwt>
<pdfrwt beam="2">  1       -1 0.14704820E+00 0.27836035E+04</pdfrwt>
<totfact> 0.91191000E-01</totfact>
</mgrwt>
</event>
<event>
12    1  0.2214165E-007  0.1374636E+04  0.7818608E-02  0.8972386E-01
         -1   -1    0    0    0  501 -0.00000000000E+00  0.00000000000E+00  0.50364913516E+03  0.50364913516E+03  0.00000000000E+00 0.  1.
          1   -1    0    0  501    0  0.00000000000E+00 -0.00000000000E+00 -0.93796649836E+03  0.93796649836E+03  0.00000000000E+00 0. -1.
         23    2    1    2    0    0  0.29619741826E+03  0.11942167726E+03 -0.35147107723E+03  0.48363093961E+03  0.91501475592E+02 0.  0.
        254    2    1    2    0    0 -0.29619741826E+03 -0.11942167726E+03 -0.82846285970E+02  0.95798469391E+03  0.89937573855E+03 0.  0.
        -24    2    4    4    0    0  0.44821276866E+01  0.91128615366E+01  0.37897276428E+03  0.38646291669E+03  0.75033966970E+02 0.  0.
         24    2    4    4    0    0 -0.30067954594E+03 -0.12853453879E+03 -0.46181905025E+03  0.57152177722E+03  0.80193451432E+02 0.  0.
         11    1    3    3    0    0  0.18717635165E+02  0.16418597873E+02 -0.10261112027E+01  0.24919332385E+02  0.00000000000E+00 0.  1.
        -11    1    3    3    0    0  0.27747978309E+03  0.10300307938E+03 -0.35044496603E+03  0.45871160722E+03  0.00000000000E+00 0. -1.
          4    1    6    6  502    0 -0.19649256910E+03 -0.56029758451E+02 -0.23337194384E+03  0.31017918646E+03  0.00000000000E+00 0. -1.
          3    1    5    5  503    0  0.29875013326E+02 -0.12053747651E+02  0.89740646724E+02  0.95347747368E+02  0.00000000000E+00 0. -1.
         -4    1    5    5    0  503 -0.25392885640E+02  0.21166609188E+02  0.28923211755E+03  0.29111516932E+03  0.00000000000E+00 0.  1.
         -3    1    6    6    0  502 -0.10418697684E+03 -0.72504780343E+02 -0.22844710641E+03  0.26134259076E+03  0.00000000000E+00 0.  1.
<mgrwt>
<rscale>  0 0.13746360E+04</rscale>
<asrwt>0</asrwt>
<pdfrwt beam="1">  1        1 0.14430254E+00 0.13746360E+04</pdfrwt>
<pdfrwt beam="2">  1       -1 0.77484482E-01 0.13746360E+04</pdfrwt>
<totfact> 0.27648715E+01</totfact>
</mgrwt>
</event>
<event>
12    1  0.2214165E-007  0.2370346E+04  0.7818608E-02  0.8450690E-01
          1   -1    0    0  501    0  0.00000000000E+00  0.00000000000E+00  0.90612707868E+03  0.90612707868E+03  0.00000000000E+00 0. -1.
         -1   -1    0    0    0  501 -0.00000000000E+00 -0.00000000000E+00 -0.15501529585E+04  0.15501529585E+04  0.00000000000E+00 0.  1.
         23    2    1    2    0    0  0.33349697207E+03 -0.91972960716E+03 -0.75991675861E+01  0.98237009779E+03  0.88715731452E+02 0.  0.
        254    2    1    2    0    0 -0.33349697207E+03  0.91972960716E+03 -0.63642671222E+03  0.14739099394E+04  0.90013819422E+03 0.  0.
        -24    2    4    4    0    0 -0.17590411724E+03 -0.93056474556E+02 -0.34373420366E+03  0.40485318431E+03  0.78429153774E+02 0.  0.
         24    2    4    4    0    0 -0.15759285483E+03  0.10127860817E+04 -0.29269250856E+03  0.10690567551E+04  0.81500219486E+02 0.  0.
         11    1    3    3    0    0  0.18581828638E+03 -0.61306010373E+03  0.19673412677E+02  0.64090418122E+03  0.00000000000E+00 0. -1.
        -11    1    3    3    0    0  0.14767868569E+03 -0.30666950343E+03 -0.27272580264E+02  0.34146591657E+03  0.00000000000E+00 0.  1.
          4    1    6    6  502    0 -0.84829358552E+02  0.44986559954E+03 -0.17003488224E+03  0.48835124542E+03  0.00000000000E+00 0. -1.
          3    1    5    5  503    0 -0.76684163497E+02 -0.83772621490E+02 -0.16697728759E+03  0.20193991090E+03  0.00000000000E+00 0. -1.
         -4    1    5    5    0  503 -0.99219953743E+02 -0.92838530663E+01 -0.17675691607E+03  0.20291327341E+03  0.00000000000E+00 0.  1.
         -3    1    6    6    0  502 -0.72763496277E+02  0.56292048217E+03 -0.12265762632E+03  0.58070550965E+03  0.00000000000E+00 0.  1.
<mgrwt>
<rscale>  0 0.23703464E+04</rscale>
<asrwt>0</asrwt>
<pdfrwt beam="1">  1        1 0.13940417E+00 0.23703464E+04</pdfrwt>
<pdfrwt beam="2">  1       -1 0.23848507E+00 0.23703464E+04</pdfrwt>
<totfact> 0.13404998E+00</totfact>
</mgrwt>
</event>
<event>
12    1  0.2214165E-007  0.4717286E+04  0.7818608E-02  0.7873663E-01
          2   -1    0    0  501    0  0.00000000000E+00  0.00000000000E+00  0.16219936845E+04  0.16219936845E+04  0.00000000000E+00 0. -1.
         -2   -1    0    0    0  501 -0.00000000000E+00 -0.00000000000E+00 -0.34298503730E+04  0.34298503730E+04  0.00000000000E+00 0.  1.
         23    2    1    2    0    0 -0.80403854964E+03  0.18126277718E+04  0.31280821346E+03  0.20089639600E+04  0.77393706026E+02 0.  0.
        254    2    1    2    0    0  0.80403854964E+03 -0.18126277718E+04 -0.21206649019E+04  0.30428800975E+04  0.91093481277E+03 0.  0.
        -24    2    4    4    0    0  0.27041287826E+03 -0.15477804665E+04 -0.14176128296E+04  0.21179288438E+04  0.85140798063E+02 0.  0.
         24    2    4    4    0    0  0.53362567138E+03 -0.26484730535E+03 -0.70305207234E+03  0.92495125375E+03  0.79700395833E+02 0.  0.
         11    1    3    3    0    0 -0.54729324768E+03  0.13012072642E+04  0.24478066660E+03  0.14326855266E+04  0.00000000000E+00 0. -1.
        -11    1    3    3    0    0 -0.25674530196E+03  0.51142050765E+03  0.68027546857E+02  0.57627843344E+03  0.00000000000E+00 0.  1.
          2    1    6    6  502    0  0.98432306155E+02 -0.33161633922E+02 -0.16685239432E+03  0.19654092283E+03  0.00000000000E+00 0. -1.
          3    1    5    5  503    0 -0.30799395494E+00 -0.13635029484E+03 -0.12591063661E+03  0.18559360489E+03  0.00000000000E+00 0. -1.
         -4    1    5    5    0  503  0.27072087222E+03 -0.14114301717E+04 -0.12917021930E+04  0.19323352389E+04  0.00000000000E+00 0.  1.
         -1    1    6    6    0  502  0.43519336522E+03 -0.23168567143E+03 -0.53619967803E+03  0.72841033092E+03  0.00000000000E+00 0.  1.
<mgrwt>
<rscale>  0 0.47172855E+04</rscale>
<asrwt>0</asrwt>
<pdfrwt beam="1">  1        2 0.24953749E+00 0.47172855E+04</pdfrwt>
<pdfrwt beam="2">  1       -2 0.52766928E+00 0.47172855E+04</pdfrwt>
<totfact> 0.91684325E-03</totfact>
</mgrwt>
</event>
<event>
12    1  0.2214165E-007  0.2559672E+04  0.7818608E-02  0.8382030E-01
         -1   -1    0    0    0  501 -0.00000000000E+00  0.00000000000E+00  0.84148937183E+03  0.84148937183E+03  0.00000000000E+00 0.  1.
          1   -1    0    0  501    0  0.00000000000E+00 -0.00000000000E+00 -0.19465254208E+04  0.19465254208E+04  0.00000000000E+00 0. -1.
         23    2    1    2    0    0 -0.11038474977E+04  0.18355689236E+03 -0.45266503456E+03  0.12105205111E+04  0.91004634507E+02 0.  0.
        254    2    1    2    0    0  0.11038474977E+04 -0.18355689236E+03 -0.65237101438E+03  0.15774942815E+04  0.90040426303E+03 0.  0.
        -24    2    4    4    0    0  0.93612104735E+03 -0.34094248030E+03 -0.81116044362E+03  0.12872231977E+04  0.79986907391E+02 0.  0.
         24    2    4    4    0    0  0.16772645031E+03  0.15738558794E+03  0.15878942924E+03  0.29027108374E+03  0.78363472289E+02 0.  0.
         11    1    3    3    0    0 -0.10668501125E+04  0.19344487639E+03 -0.43348156758E+03  0.11676884654E+04  0.00000000000E+00 0.  1.
        -11    1    3    3    0    0 -0.36997385128E+02 -0.98879840306E+01 -0.19183466980E+02  0.42832045711E+02  0.00000000000E+00 0. -1.
          2    1    6    6  502    0  0.16451192579E+03  0.15063286606E+03  0.16738556429E+03  0.27887696427E+03  0.00000000000E+00 0. -1.
          3    1    5    5  503    0  0.76004317959E+03 -0.24395312077E+03 -0.63696852163E+03  0.10212285041E+04  0.00000000000E+00 0. -1.
         -4    1    5    5    0  503  0.17607786776E+03 -0.96989359538E+02 -0.17419192199E+03  0.26599469368E+03  0.00000000000E+00 0.  1.
         -3    1    6    6    0  502  0.32145245236E+01  0.67527218831E+01 -0.85961350514E+01  0.11394119473E+02  0.00000000000E+00 0.  1.
<mgrwt>
<rscale>  0 0.25596722E+04</rscale>
<asrwt>0</asrwt>
<pdfrwt beam="1">  1        1 0.29946544E+00 0.25596722E+04</pdfrwt>
<pdfrwt beam="2">  1       -1 0.12945991E+00 0.25596722E+04</pdfrwt>
<totfact> 0.14673043E+00</totfact>
</mgrwt>
</event>
<event>
12    1  0.2214165E-007  0.1743968E+04  0.7818608E-02  0.8736678E-01
         -2   -1    0    0    0  501 -0.00000000000E+00  0.00000000000E+00  0.35081810960E+03  0.35081810960E+03  0.00000000000E+00 0.  1.
          2   -1    0    0  501    0  0.00000000000E+00 -0.00000000000E+00 -0.21673802315E+04  0.21673802315E+04  0.00000000000E+00 0. -1.
         23    2    1    2    0    0  0.54548504809E+03  0.32489034678E+03 -0.61972089855E+03  0.89190058815E+03  0.91241393689E+02 0.  0.
        254    2    1    2    0    0 -0.54548504809E+03 -0.32489034678E+03 -0.11968412233E+04  0.16262977529E+04  0.89961535790E+03 0.  0.
        -24    2    4    4    0    0  0.17226511232E+03 -0.29596747719E+03 -0.57012667572E+03  0.66963355296E+03  0.78055444467E+02 0.  0.
         24    2    4    4    0    0 -0.71775016041E+03 -0.28922869596E+02 -0.62671454758E+03  0.95666419994E+03  0.80208741066E+02 0.  0.
         11    1    3    3    0    0  0.45548861505E+02  0.21443823648E+02 -0.19813001436E+02  0.54102600519E+02  0.00000000000E+00 0.  1.
        -11    1    3    3    0    0  0.49993618659E+03  0.30344652314E+03 -0.59990789712E+03  0.83779798764E+03  0.00000000000E+00 0. -1.
          2    1    6    6  502    0 -0.45486982270E+03  0.20241826489E+02 -0.39003493564E+03  0.59953610246E+03  0.00000000000E+00 0. -1.
          3    1    5    5  503    0  0.59897139913E+01 -0.53645669495E+01  0.47707173593E+00  0.80549891182E+01  0.00000000000E+00 0. -1.
         -4    1    5    5    0  503  0.16627539833E+03 -0.29060291024E+03 -0.57060374745E+03  0.66157856384E+03  0.00000000000E+00 0.  1.
         -1    1    6    6    0  502 -0.26288033771E+03 -0.49164696084E+02 -0.23667961195E+03  0.35712809747E+03  0.00000000000E+00 0.  1.
<mgrwt>
<rscale>  0 0.17439682E+04</rscale>
<asrwt>0</asrwt>
<pdfrwt beam="1">  1        2 0.33344312E+00 0.17439682E+04</pdfrwt>
<pdfrwt beam="2">  1       -2 0.53972016E-01 0.17439682E+04</pdfrwt>
<totfact> 0.16520977E+01</totfact>
</mgrwt>
</event>
<event>
12    1  0.2214165E-007  0.2571953E+04  0.7818608E-02  0.8377791E-01
         -2   -1    0    0    0  501 -0.00000000000E+00  0.00000000000E+00  0.14948606808E+04  0.14948606808E+04  0.00000000000E+00 0.  1.
          2   -1    0    0  501    0  0.00000000000E+00 -0.00000000000E+00 -0.11062808391E+04  0.11062808391E+04  0.00000000000E+00 0. -1.
         23    2    1    2    0    0  0.41390929291E+03 -0.78605851876E+03  0.86650834484E+03  0.12444214377E+04  0.92407278999E+02 0.  0.
        254    2    1    2    0    0 -0.41390929291E+03  0.78605851876E+03 -0.47792850311E+03  0.13567200822E+04  0.90722920460E+03 0.  0.
        -24    2    4    4    0    0 -0.25518473645E+03  0.48179625886E+03 -0.73610963412E+03  0.91948916390E+03  0.79724803696E+02 0.  0.
         24    2    4    4    0    0 -0.15872455646E+03  0.30426225990E+03  0.25818113100E+03  0.43723091830E+03  0.82124124895E+02 0.  0.
         13    1    3    3    0    0  0.41389091778E+03 -0.74833367739E+03  0.83589088006E+03  0.11958355020E+04  0.00000000000E+00 0.  1.
        -13    1    3    3    0    0  0.18375128221E-01 -0.37724841365E+02  0.30617464776E+02  0.48585935650E+02  0.00000000000E+00 0. -1.
          4    1    6    6  502    0 -0.43919759669E+02  0.13568675040E+03  0.66579288154E+02  0.15739326902E+03  0.00000000000E+00 0. -1.
          1    1    5    5  503    0 -0.11309360917E+02  0.21648919426E+02 -0.11110282662E+02  0.26833108979E+02  0.00000000000E+00 0. -1.
         -2    1    5    5    0  503 -0.24387537553E+03  0.46014733943E+03 -0.72499935145E+03  0.89265605492E+03  0.00000000000E+00 0.  1.
         -3    1    6    6    0  502 -0.11480479679E+03  0.16857550950E+03  0.19160184285E+03  0.27983764927E+03  0.00000000000E+00 0.  1.
<mgrwt>
<rscale>  0 0.25719531E+04</rscale>
<asrwt>0</asrwt>
<pdfrwt beam="1">  1        2 0.17019705E+00 0.25719531E+04</pdfrwt>
<pdfrwt beam="2">  1       -2 0.22997857E+00 0.25719531E+04</pdfrwt>
<totfact> 0.16371628E+00</totfact>
</mgrwt>
</event>
<event>
12    1  0.2214165E-007  0.1364590E+04  0.7818608E-02  0.8979856E-01
          1   -1    0    0  501    0  0.00000000000E+00  0.00000000000E+00  0.13259556084E+04  0.13259556084E+04  0.00000000000E+00 0. -1.
         -1   -1    0    0    0  501 -0.00000000000E+00 -0.00000000000E+00 -0.35108772757E+03  0.35108772757E+03  0.00000000000E+00 0.  1.
         23    2    1    2    0    0 -0.20755007278E+03  0.31339894359E+03  0.32568299242E+03  0.50606600959E+03  0.93474402699E+02 0.  0.
        254    2    1    2    0    0  0.20755007278E+03 -0.31339894359E+03  0.64918488837E+03  0.11709773263E+04  0.89913900423E+03 0.  0.
        -24    2    4    4    0    0  0.49287636493E+03  0.40045818286E+02  0.24901126599E+03  0.56041011060E+03  0.86730057040E+02 0.  0.
         24    2    4    4    0    0 -0.28532629216E+03 -0.35344476188E+03  0.40017362238E+03  0.61056721573E+03  0.79492793274E+02 0.  0.
         13    1    3    3    0    0 -0.20764174712E+03  0.28546469074E+03  0.32217149104E+03  0.47791176429E+03  0.00000000000E+00 0. -1.
        -13    1    3    3    0    0  0.91674346580E-01  0.27934252848E+02  0.35115013744E+01  0.28154245298E+02  0.00000000000E+00 0.  1.
          2    1    6    6  502    0 -0.30452988969E+02 -0.29542242840E+02  0.72608021879E+02  0.84095502200E+02  0.00000000000E+00 0. -1.
          1    1    5    5  503    0  0.48716187471E+02  0.12226798131E+02 -0.45307755762E+00  0.50229142871E+02  0.00000000000E+00 0. -1.
         -2    1    5    5    0  503  0.44416017746E+03  0.27819020155E+02  0.24946434355E+03  0.51018096772E+03  0.00000000000E+00 0.  1.
         -1    1    6    6    0  502 -0.25487330319E+03 -0.32390251904E+03  0.32756560050E+03  0.52647171353E+03  0.00000000000E+00 0.  1.
<mgrwt>
<rscale>  0 0.13645904E+04</rscale>
<asrwt>0</asrwt>
<pdfrwt beam="1">  1        1 0.20399317E+00 0.13645904E+04</pdfrwt>
<pdfrwt beam="2">  1       -1 0.54013497E-01 0.13645904E+04</pdfrwt>
<totfact> 0.29323277E+01</totfact>
</mgrwt>
</event>
<event>
12    1  0.2214165E-007  0.2570345E+04  0.7818608E-02  0.8378345E-01
          2   -1    0    0  501    0  0.00000000000E+00  0.00000000000E+00  0.48852080207E+04  0.48852080207E+04  0.00000000000E+00 0. -1.
         -2   -1    0    0    0  501 -0.00000000000E+00 -0.00000000000E+00 -0.33809571949E+03  0.33809571949E+03  0.00000000000E+00 0.  1.
         23    2    1    2    0    0  0.57527602171E+03 -0.96568339205E+03  0.18970589824E+04  0.22069603020E+04  0.91400641257E+02 0.  0.
        254    2    1    2    0    0 -0.57527602171E+03  0.96568339205E+03  0.26500533188E+04  0.30163434382E+04  0.90114273539E+03 0.  0.
        -24    2    4    4    0    0 -0.19833689014E+01 -0.91001892349E+00  0.10848889707E+04  0.10877974024E+04  0.79462872159E+02 0.  0.
         24    2    4    4    0    0 -0.57329265281E+03  0.96659341097E+03  0.15651643481E+04  0.19285460358E+04  0.81136228101E+02 0.  0.
         11    1    3    3    0    0  0.31234805734E+03 -0.61030746027E+03  0.11677014248E+04  0.13540912534E+04  0.00000000000E+00 0.  1.
        -11    1    3    3    0    0  0.26292796437E+03 -0.35537593178E+03  0.72935755756E+03  0.85286904863E+03  0.00000000000E+00 0. -1.
          4    1    6    6  502    0 -0.55153862741E+03  0.95179686348E+03  0.15204779995E+04  0.18766900314E+04  0.00000000000E+00 0. -1.
          3    1    5    5  503    0 -0.86619602716E+01 -0.79517399497E+01  0.10697504562E+04  0.10698150767E+04  0.00000000000E+00 0. -1.
         -4    1    5    5    0  503  0.66785913702E+01  0.70417210262E+01  0.15138514487E+02  0.17982325727E+02  0.00000000000E+00 0.  1.
         -3    1    6    6    0  502 -0.21754025403E+02  0.14796547498E+02  0.44686348631E+02  0.51856004408E+02  0.00000000000E+00 0.  1.
<mgrwt>
<rscale>  0 0.25703447E+04</rscale>
<asrwt>0</asrwt>
<pdfrwt beam="1">  1        2 0.75157041E+00 0.25703447E+04</pdfrwt>
<pdfrwt beam="2">  1       -2 0.52014730E-01 0.25703447E+04</pdfrwt>
<totfact> 0.14783311E-01</totfact>
</mgrwt>
</event>
<event>
12    1  0.2214165E-007  0.1599614E+04  0.7818608E-02  0.8820785E-01
         -2   -1    0    0    0  501 -0.00000000000E+00  0.00000000000E+00  0.31383588708E+03  0.31383588708E+03  0.00000000000E+00 0.  1.
          2   -1    0    0  501    0  0.00000000000E+00 -0.00000000000E+00 -0.20382979686E+04  0.20382979686E+04  0.00000000000E+00 0. -1.
         23    2    1    2    0    0  0.88278920810E+02  0.41334343181E+03 -0.97195591719E+02  0.44362478278E+03  0.93327404176E+02 0.  0.
        254    2    1    2    0    0 -0.88278920810E+02 -0.41334343181E+03 -0.16272664898E+04  0.19085090729E+04  0.90319692872E+03 0.  0.
        -24    2    4    4    0    0  0.71233934785E+02 -0.18947484461E+03  0.32941332701E+02  0.22382957417E+03  0.89663574932E+02 0.  0.
         24    2    4    4    0    0 -0.15951285560E+03 -0.22386858720E+03 -0.16602078225E+04  0.16846794987E+04  0.79331608588E+02 0.  0.
         13    1    3    3    0    0  0.67308829035E+02  0.15816872102E+03 -0.71959712324E+02  0.18634919633E+03  0.00000000000E+00 0. -1.
        -13    1    3    3    0    0  0.20970091775E+02  0.25517471079E+03 -0.25235879395E+02  0.25727558645E+03  0.00000000000E+00 0.  1.
          2    1    6    6  502    0 -0.16708067909E+03 -0.22263063714E+03 -0.16217698767E+04  0.16454840889E+04  0.00000000000E+00 0. -1.
          1    1    5    5  503    0  0.61300027658E+02 -0.59885201600E+02  0.38039061741E+02  0.93759804712E+02  0.00000000000E+00 0. -1.
         -2    1    5    5    0  503  0.99339071268E+01 -0.12958964301E+03 -0.50977290404E+01  0.13006976946E+03  0.00000000000E+00 0.  1.
         -3    1    6    6    0  502  0.75678234977E+01 -0.12379500512E+01 -0.38437945782E+02  0.39195409792E+02  0.00000000000E+00 0.  1.
<mgrwt>
<rscale>  0 0.15996138E+04</rscale>
<asrwt>0</asrwt>
<pdfrwt beam="1">  1        2 0.31358432E+00 0.15996138E+04</pdfrwt>
<pdfrwt beam="2">  1       -2 0.48282442E-01 0.15996138E+04</pdfrwt>
<totfact> 0.24794225E+01</totfact>
</mgrwt>
</event>
<event>
12    1  0.2214165E-007  0.3319788E+04  0.7818608E-02  0.8157879E-01
          1   -1    0    0  501    0  0.00000000000E+00  0.00000000000E+00  0.11712718811E+04  0.11712718811E+04  0.00000000000E+00 0. -1.
         -1   -1    0    0    0  501 -0.00000000000E+00 -0.00000000000E+00 -0.23523556217E+04  0.23523556217E+04  0.00000000000E+00 0.  1.
         23    2    1    2    0    0 -0.97932500610E+03  0.10492620283E+04  0.34651364653E+02  0.14386530860E+04  0.92161342272E+02 0.  0.
        254    2    1    2    0    0  0.97932500610E+03 -0.10492620283E+04 -0.12157351052E+04  0.20849744168E+04  0.89948774367E+03 0.  0.
        -24    2    4    4    0    0  0.75735080419E+03 -0.23849804601E+03 -0.33527769985E+03  0.86496710621E+03  0.72769500846E+02 0.  0.
         24    2    4    4    0    0  0.22197420191E+03 -0.81076398233E+03 -0.88045740539E+03  0.12200073106E+04  0.81251546999E+02 0.  0.
         13    1    3    3    0    0 -0.91882061539E+03  0.10122805227E+04  0.38529571101E+02  0.13676358096E+04  0.00000000000E+00 0. -1.
        -13    1    3    3    0    0 -0.60504390712E+02  0.36981505628E+02 -0.38782064478E+01  0.71017276343E+02  0.00000000000E+00 0.  1.
          2    1    6    6  502    0  0.18224704813E+03 -0.52828330680E+03 -0.56450232492E+03  0.79432997780E+03  0.00000000000E+00 0. -1.
          3    1    5    5  503    0  0.59316622883E+03 -0.15469259437E+03 -0.25848315489E+03  0.66527401508E+03  0.00000000000E+00 0. -1.
         -4    1    5    5    0  503  0.16418457535E+03 -0.83805451633E+02 -0.76794544969E+02  0.19969309113E+03  0.00000000000E+00 0.  1.
         -1    1    6    6    0  502  0.39727153781E+02 -0.28248067553E+03 -0.31595508047E+03  0.42567733281E+03  0.00000000000E+00 0.  1.
<mgrwt>
<rscale>  0 0.33197879E+04</rscale>
<asrwt>0</asrwt>
<pdfrwt beam="1">  1        1 0.18019568E+00 0.33197879E+04</pdfrwt>
<pdfrwt beam="2">  1       -1 0.36190086E+00 0.33197879E+04</pdfrwt>
<totfact> 0.12022882E-01</totfact>
</mgrwt>
</event>
<event>
12    1  0.2214165E-007  0.3122746E+04  0.7818608E-02  0.8209523E-01
         -2   -1    0    0    0  501 -0.00000000000E+00  0.00000000000E+00  0.65988458196E+03  0.65988458196E+03  0.00000000000E+00 0.  1.
          2   -1    0    0  501    0  0.00000000000E+00 -0.00000000000E+00 -0.36944118903E+04  0.36944118903E+04  0.00000000000E+00 0. -1.
         23    2    1    2    0    0 -0.88509023536E+03  0.10945073961E+04 -0.10387085150E+04  0.17516287102E+04  0.89199745042E+02 0.  0.
        254    2    1    2    0    0  0.88509023536E+03 -0.10945073961E+04 -0.19958187933E+04  0.26026677620E+04  0.89958638201E+03 0.  0.
        -24    2    4    4    0    0  0.47751342910E+03 -0.52697079753E+03 -0.31771417393E+03  0.78300145142E+03  0.80197756704E+02 0.  0.
         24    2    4    4    0    0  0.40757680626E+03 -0.56753659858E+03 -0.16781046194E+04  0.18196663106E+04  0.83268988868E+02 0.  0.
         13    1    3    3    0    0 -0.58158652357E+03  0.65468504381E+03 -0.66371811615E+03  0.10988071390E+04  0.00000000000E+00 0. -1.
        -13    1    3    3    0    0 -0.30350371179E+03  0.43982235230E+03 -0.37499039881E+03  0.65282157122E+03  0.00000000000E+00 0.  1.
          4    1    6    6  502    0  0.36752008123E+03 -0.53882812678E+03 -0.15924875554E+04  0.17208786635E+04  0.00000000000E+00 0. -1.
          1    1    5    5  503    0  0.41958150360E+03 -0.48966531029E+03 -0.30328441896E+03  0.71260240882E+03  0.00000000000E+00 0. -1.
         -2    1    5    5    0  503  0.57931925500E+02 -0.37305487243E+02 -0.14429754966E+02  0.70399042600E+02  0.00000000000E+00 0.  1.
         -3    1    6    6    0  502  0.40056725031E+02 -0.28708471796E+02 -0.85617064015E+02  0.98787647120E+02  0.00000000000E+00 0.  1.
<mgrwt>
<rscale>  0 0.31227459E+04</rscale>
<asrwt>0</asrwt>
<pdfrwt beam="1">  1        2 0.56837106E+00 0.31227459E+04</pdfrwt>
<pdfrwt beam="2">  1       -2 0.10152070E+00 0.31227459E+04</pdfrwt>
<totfact> 0.39744411E-01</totfact>
</mgrwt>
</event>
<event>
12    1  0.2214165E-007  0.1964919E+04  0.7818608E-02  0.8623200E-01
         -2   -1    0    0    0  501 -0.00000000000E+00  0.00000000000E+00  0.38773918088E+03  0.38773918088E+03  0.00000000000E+00 0.  1.
          2   -1    0    0  501    0  0.00000000000E+00 -0.00000000000E+00 -0.24893713985E+04  0.24893713985E+04  0.00000000000E+00 0. -1.
         23    2    1    2    0    0 -0.76104412621E+03  0.11664443618E+03 -0.88794754782E+03  0.11788111811E+04  0.91383075083E+02 0.  0.
        254    2    1    2    0    0  0.76104412621E+03 -0.11664443618E+03 -0.12136846698E+04  0.16982993983E+04  0.90465257534E+03 0.  0.
        -24    2    4    4    0    0  0.43681212240E+03 -0.50638104177E+03 -0.64843030253E+03  0.93489921760E+03  0.79674965303E+02 0.  0.
         24    2    4    4    0    0  0.32423200381E+03  0.38973660559E+03 -0.56525436730E+03  0.76340018073E+03  0.79033677320E+02 0.  0.
         11    1    3    3    0    0 -0.38888748479E+03  0.91835784028E+02 -0.50889023226E+03  0.64702129451E+03  0.00000000000E+00 0. -1.
        -11    1    3    3    0    0 -0.37215664142E+03  0.24808652150E+02 -0.37905731556E+03  0.53178988657E+03  0.00000000000E+00 0.  1.
          4    1    6    6  502    0  0.21199437209E+03  0.30856473061E+03 -0.42219960907E+03  0.56427503637E+03  0.00000000000E+00 0. -1.
          3    1    5    5  503    0  0.40028844228E+03 -0.43121609940E+03 -0.54574643539E+03  0.80250690536E+03  0.00000000000E+00 0. -1.
         -4    1    5    5    0  503  0.36523680120E+02 -0.75164942369E+02 -0.10268386714E+03  0.13239231225E+03  0.00000000000E+00 0.  1.
         -3    1    6    6    0  502  0.11223763173E+03  0.81171874988E+02 -0.14305475823E+03  0.19912514436E+03  0.00000000000E+00 0.  1.
<mgrwt>
<rscale>  0 0.19649192E+04</rscale>
<asrwt>0</asrwt>
<pdfrwt beam="1">  1        2 0.38298020E+00 0.19649192E+04</pdfrwt>
<pdfrwt beam="2">  1       -2 0.59652184E-01 0.19649192E+04</pdfrwt>
<totfact> 0.86308831E+00</totfact>
</mgrwt>
</event>
<event>
12    1  0.2214165E-007  0.2634173E+04  0.7818608E-02  0.8356685E-01
         -2   -1    0    0    0  501 -0.00000000000E+00  0.00000000000E+00  0.22377204667E+04  0.22377204667E+04  0.00000000000E+00 0.  1.
          2   -1    0    0  501    0  0.00000000000E+00 -0.00000000000E+00 -0.77521580361E+03  0.77521580361E+03  0.00000000000E+00 0. -1.
         23    2    1    2    0    0  0.19102385414E+03 -0.64951251653E+03  0.17247262308E+04  0.18550256638E+04  0.89905618878E+02 0.  0.
        254    2    1    2    0    0 -0.19102385414E+03  0.64951251653E+03 -0.26222156769E+03  0.11579106065E+04  0.90202006634E+03 0.  0.
        -24    2    4    4    0    0 -0.13923527356E+03 -0.10664163593E+03  0.19004076489E+03  0.27118473428E+03  0.81650277807E+02 0.  0.
         24    2    4    4    0    0 -0.51788580576E+02  0.75615415246E+03 -0.45226233258E+03  0.88672587221E+03  0.85383813529E+02 0.  0.
         13    1    3    3    0    0 -0.56496171286E+01 -0.16441664550E+01  0.13684655670E+02  0.14896014830E+02  0.00000000000E+00 0. -1.
        -13    1    3    3    0    0  0.19667347127E+03 -0.64786835007E+03  0.17110415751E+04  0.18401296490E+04  0.00000000000E+00 0.  1.
          2    1    6    6  502    0 -0.75393018189E+02  0.59194089113E+03 -0.35964817853E+03  0.69672443484E+03  0.00000000000E+00 0. -1.
          1    1    5    5  503    0  0.50206556819E+01 -0.27734987096E+02  0.19407585868E+02  0.34221205149E+02  0.00000000000E+00 0. -1.
         -2    1    5    5    0  503 -0.14425592924E+03 -0.78906648836E+02  0.17063317902E+03  0.23696352913E+03  0.00000000000E+00 0.  1.
         -1    1    6    6    0  502  0.23604437613E+02  0.16421326133E+03 -0.92614154051E+02  0.19000143737E+03  0.00000000000E+00 0.  1.
<mgrwt>
<rscale>  0 0.26341726E+04</rscale>
<asrwt>0</asrwt>
<pdfrwt beam="1">  1        2 0.11926397E+00 0.26341726E+04</pdfrwt>
<pdfrwt beam="2">  1       -2 0.34426468E+00 0.26341726E+04</pdfrwt>
<totfact> 0.53567278E-01</totfact>
</mgrwt>
</event>
<event>
12    1  0.2214165E-007  0.2654072E+04  0.7818608E-02  0.8350063E-01
         -2   -1    0    0    0  501 -0.00000000000E+00  0.00000000000E+00  0.63816924047E+03  0.63816924047E+03  0.00000000000E+00 0.  1.
          2   -1    0    0  501    0  0.00000000000E+00 -0.00000000000E+00 -0.27594939473E+04  0.27594939473E+04  0.00000000000E+00 0. -1.
         23    2    1    2    0    0  0.89427723736E+03 -0.59493025075E+03 -0.33821988521E+03  0.11297944802E+04  0.91482765064E+02 0.  0.
        254    2    1    2    0    0 -0.89427723736E+03  0.59493025075E+03 -0.17831048216E+04  0.22678687075E+04  0.90005104814E+03 0.  0.
        -24    2    4    4    0    0 -0.60323168436E+03 -0.76556279429E+02 -0.11184845835E+04  0.12761142519E+04  0.87809404556E+02 0.  0.
         24    2    4    4    0    0 -0.29104555300E+03  0.67148653017E+03 -0.66462023812E+03  0.99175445561E+03  0.79089602200E+02 0.  0.
         11    1    3    3    0    0  0.44498026405E+03 -0.28626166833E+03 -0.21377901245E+03  0.57066158475E+03  0.00000000000E+00 0. -1.
        -11    1    3    3    0    0  0.44929697331E+03 -0.30866858241E+03 -0.12444087276E+03  0.55913289548E+03  0.00000000000E+00 0.  1.
          4    1    6    6  502    0 -0.24297193227E+03  0.47849796254E+03 -0.46732378592E+03  0.71160886792E+03  0.00000000000E+00 0. -1.
          1    1    5    5  503    0 -0.53139856497E+03 -0.70625441434E+02 -0.10367169308E+04  0.11671136973E+04  0.00000000000E+00 0. -1.
         -4    1    5    5    0  503 -0.71833119383E+02 -0.59308379947E+01 -0.81767652659E+02  0.10900055459E+03  0.00000000000E+00 0.  1.
         -3    1    6    6    0  502 -0.48073620734E+02  0.19298856764E+03 -0.19729645220E+03  0.28014558768E+03  0.00000000000E+00 0.  1.
<mgrwt>
<rscale>  0 0.26540717E+04</rscale>
<asrwt>0</asrwt>
<pdfrwt beam="1">  1        2 0.42453754E+00 0.26540717E+04</pdfrwt>
<pdfrwt beam="2">  1       -2 0.98179882E-01 0.26540717E+04</pdfrwt>
<totfact> 0.18579213E+00</totfact>
</mgrwt>
</event>
<event>
12    1  0.2214165E-007  0.1775448E+04  0.7818608E-02  0.8719466E-01
         -1   -1    0    0    0  501 -0.00000000000E+00  0.00000000000E+00  0.91405654741E+03  0.91405654741E+03  0.00000000000E+00 0.  1.
          1   -1    0    0  501    0  0.00000000000E+00 -0.00000000000E+00 -0.86214971962E+03  0.86214971962E+03  0.00000000000E+00 0. -1.
         23    2    1    2    0    0  0.52277431379E+03 -0.16845245405E+03  0.37712896582E+03  0.67259811855E+03  0.92156170606E+02 0.  0.
        254    2    1    2    0    0 -0.52277431379E+03  0.16845245405E+03 -0.32522213803E+03  0.11036081485E+04  0.90028456272E+03 0.  0.
        -24    2    4    4    0    0  0.13766057289E+03  0.94608559156E+02  0.18446435643E+03  0.26249714874E+03  0.83525095091E+02 0.  0.
         24    2    4    4    0    0 -0.66043488668E+03  0.73843894893E+02 -0.50968649447E+03  0.84111099973E+03  0.77847484617E+02 0.  0.
         11    1    3    3    0    0  0.19057930158E+03 -0.33399918669E+02  0.90895141685E+02  0.21377079206E+03  0.00000000000E+00 0. -1.
        -11    1    3    3    0    0  0.33219501221E+03 -0.13505253538E+03  0.28623382414E+03  0.45882732649E+03  0.00000000000E+00 0.  1.
          4    1    6    6  502    0 -0.42818922113E+03  0.10670823186E+02 -0.33285116834E+03  0.54244794758E+03  0.00000000000E+00 0. -1.
          3    1    5    5  503    0  0.38279855463E+02  0.74243806459E+02  0.10145563743E+03  0.13141817416E+03  0.00000000000E+00 0. -1.
         -4    1    5    5    0  503  0.99380717426E+02  0.20364752697E+02  0.83008719002E+02  0.13107897459E+03  0.00000000000E+00 0.  1.
         -3    1    6    6    0  502 -0.23224566555E+03  0.63173071707E+02 -0.17683532612E+03  0.29866305215E+03  0.00000000000E+00 0.  1.
<mgrwt>
<rscale>  0 0.17754477E+04</rscale>
<asrwt>0</asrwt>
<pdfrwt beam="1">  1        1 0.13263842E+00 0.17754477E+04</pdfrwt>
<pdfrwt beam="2">  1       -1 0.14062408E+00 0.17754477E+04</pdfrwt>
<totfact> 0.76643067E+00</totfact>
</mgrwt>
</event>
<event>
12    1  0.2214165E-007  0.1661826E+04  0.7818608E-02  0.8783441E-01
         -2   -1    0    0    0  501 -0.00000000000E+00  0.00000000000E+00  0.60254109321E+03  0.60254109321E+03  0.00000000000E+00 0.  1.
          2   -1    0    0  501    0  0.00000000000E+00 -0.00000000000E+00 -0.11458412294E+04  0.11458412294E+04  0.00000000000E+00 0. -1.
         23    2    1    2    0    0  0.19502052867E+03  0.35822922903E+03 -0.63283210149E+03  0.75769629716E+03  0.85240969753E+02 0.  0.
        254    2    1    2    0    0 -0.19502052867E+03 -0.35822922903E+03  0.89531965291E+02  0.99068602545E+03  0.89837722649E+03 0.  0.
        -24    2    4    4    0    0 -0.14769324596E+03 -0.64328291560E+03  0.16167011649E+03  0.68421915327E+03  0.79952603081E+02 0.  0.
         24    2    4    4    0    0 -0.47327282712E+02  0.28505368657E+03 -0.72138151195E+02  0.30646687218E+03  0.72267246879E+02 0.  0.
         13    1    3    3    0    0  0.19764237856E+03  0.33204977546E+03 -0.56106826611E+03  0.68126144939E+03  0.00000000000E+00 0. -1.
        -13    1    3    3    0    0 -0.26218498915E+01  0.26179453574E+02 -0.71763835380E+02  0.76434847777E+02  0.00000000000E+00 0.  1.
          4    1    6    6  502    0 -0.14305835697E+02  0.17492919442E+03 -0.10041826211E+02  0.17580022261E+03  0.00000000000E+00 0. -1.
          1    1    5    5  503    0 -0.12438771614E+03 -0.45640384519E+03  0.83738967166E+02  0.48040502542E+03  0.00000000000E+00 0. -1.
         -2    1    5    5    0  503 -0.23305529821E+02 -0.18687907041E+03  0.77931149321E+02  0.20381412785E+03  0.00000000000E+00 0.  1.
         -3    1    6    6    0  502 -0.33021447015E+02  0.11012449214E+03 -0.62096324984E+02  0.13066664957E+03  0.00000000000E+00 0.  1.
<mgrwt>
<rscale>  0 0.16618260E+04</rscale>
<asrwt>0</asrwt>
<pdfrwt beam="1">  1        2 0.17628327E+00 0.16618260E+04</pdfrwt>
<pdfrwt beam="2">  1       -2 0.92698630E-01 0.16618260E+04</pdfrwt>
<totfact> 0.19236956E+01</totfact>
</mgrwt>
</event>
<event>
12    1  0.2214165E-007  0.2664817E+04  0.7818608E-02  0.8346512E-01
          1   -1    0    0  501    0  0.00000000000E+00  0.00000000000E+00  0.17720033664E+04  0.17720033664E+04  0.00000000000E+00 0. -1.
         -1   -1    0    0    0  501 -0.00000000000E+00 -0.00000000000E+00 -0.10018675777E+04  0.10018675777E+04  0.00000000000E+00 0.  1.
         23    2    1    2    0    0 -0.10346737753E+03  0.97729873305E+03  0.10072338658E+04  0.14102064342E+04  0.91344484562E+02 0.  0.
        254    2    1    2    0    0  0.10346737753E+03 -0.97729873305E+03 -0.23709807712E+03  0.13636645098E+04  0.91517598597E+03 0.  0.
        -24    2    4    4    0    0  0.25104119370E+03 -0.53556632275E+02 -0.32377383513E+03  0.42079716238E+03  0.79691666791E+02 0.  0.
         24    2    4    4    0    0 -0.14757381617E+03 -0.92374210077E+03  0.86675758011E+02  0.94286734742E+03  0.80054030792E+02 0.  0.
         13    1    3    3    0    0 -0.15992427402E+02  0.51667893031E+03  0.49314153846E+03  0.71442385998E+03  0.00000000000E+00 0. -1.
        -13    1    3    3    0    0 -0.87474950124E+02  0.46061980274E+03  0.51409232737E+03  0.69578257425E+03  0.00000000000E+00 0.  1.
          4    1    6    6  502    0 -0.64760179237E+02 -0.38596286360E+03 -0.32301342240E+01  0.39137149444E+03  0.00000000000E+00 0. -1.
          3    1    5    5  503    0  0.74821270105E+02 -0.24314786131E+02 -0.47796318630E+02  0.92053893776E+02  0.00000000000E+00 0. -1.
         -4    1    5    5    0  503  0.17621992359E+03 -0.29241846144E+02 -0.27597751650E+03  0.32874326861E+03  0.00000000000E+00 0.  1.
         -3    1    6    6    0  502 -0.82813636936E+02 -0.53777923718E+03  0.89905892235E+02  0.55149585299E+03  0.00000000000E+00 0.  1.
<mgrwt>
<rscale>  0 0.26648172E+04</rscale>
<asrwt>0</asrwt>
<pdfrwt beam="1">  1        1 0.27261590E+00 0.26648172E+04</pdfrwt>
<pdfrwt beam="2">  1       -1 0.15413347E+00 0.26648172E+04</pdfrwt>
<totfact> 0.12080906E+00</totfact>
</mgrwt>
</event>
<event>
12    1  0.2214165E-007  0.1654364E+04  0.7818608E-02  0.8787829E-01
         -2   -1    0    0    0  501 -0.00000000000E+00  0.00000000000E+00  0.40393405897E+03  0.40393405897E+03  0.00000000000E+00 0.  1.
          2   -1    0    0  501    0  0.00000000000E+00 -0.00000000000E+00 -0.16939155469E+04  0.16939155469E+04  0.00000000000E+00 0. -1.
         23    2    1    2    0    0 -0.23195111500E+03 -0.42877472782E+03 -0.62281852256E+02  0.49958366754E+03  0.89753689570E+02 0.  0.
        254    2    1    2    0    0  0.23195111500E+03  0.42877472782E+03 -0.12276996357E+04  0.15982659383E+04  0.89975470394E+03 0.  0.
        -24    2    4    4    0    0  0.15351574412E+03  0.40501018387E+03 -0.83770152540E+02  0.44832155460E+03  0.79840122326E+02 0.  0.
         24    2    4    4    0    0  0.78435370879E+02  0.23764543944E+02 -0.11439294831E+04  0.11499443837E+04  0.84146077391E+02 0.  0.
         11    1    3    3    0    0 -0.15788206955E+03 -0.31149161354E+03 -0.43161777954E+01  0.34924547611E+03  0.00000000000E+00 0.  1.
        -11    1    3    3    0    0 -0.74069045447E+02 -0.11728311428E+03 -0.57965674460E+02  0.15033819143E+03  0.00000000000E+00 0. -1.
          4    1    6    6  502    0  0.65331603134E+02  0.25285547477E+02 -0.41324268650E+03  0.41913851556E+03  0.00000000000E+00 0. -1.
          3    1    5    5  503    0  0.75282441510E+02  0.27816397196E+03 -0.29338320657E+02  0.28966079879E+03  0.00000000000E+00 0. -1.
         -4    1    5    5    0  503  0.78233302609E+02  0.12684621192E+03 -0.54431831883E+02  0.15866075582E+03  0.00000000000E+00 0.  1.
         -3    1    6    6    0  502  0.13103767744E+02 -0.15210035331E+01 -0.73068679665E+03  0.73080586819E+03  0.00000000000E+00 0.  1.
<mgrwt>
<rscale>  0 0.16543641E+04</rscale>
<asrwt>0</asrwt>
<pdfrwt beam="1">  1        2 0.26060240E+00 0.16543641E+04</pdfrwt>
<pdfrwt beam="2">  1       -2 0.62143700E-01 0.16543641E+04</pdfrwt>
<totfact> 0.22685028E+01</totfact>
</mgrwt>
</event>
<event>
12    1  0.2214165E-007  0.1807124E+04  0.7818608E-02  0.8702520E-01
         -2   -1    0    0    0  501 -0.00000000000E+00  0.00000000000E+00  0.22345269897E+03  0.22345269897E+03  0.00000000000E+00 0. -1.
          2   -1    0    0  501    0  0.00000000000E+00 -0.00000000000E+00 -0.36536792872E+04  0.36536792872E+04  0.00000000000E+00 0.  1.
         23    2    1    2    0    0 -0.59029620794E+03  0.32677398699E+03 -0.12645325224E+04  0.14360742756E+04  0.89643588476E+02 0.  0.
        254    2    1    2    0    0  0.59029620794E+03 -0.32677398699E+03 -0.21656940658E+04  0.24410577106E+04  0.90183208426E+03 0.  0.
        -24    2    4    4    0    0  0.14612635808E+03 -0.18094514403E+03 -0.23159387940E+02  0.24663825017E+03  0.78740151915E+02 0.  0.
         24    2    4    4    0    0  0.44416984986E+03 -0.14582884296E+03 -0.21425346779E+04  0.21944194604E+04  0.80430190623E+02 0.  0.
         11    1    3    3    0    0 -0.50843799960E+03  0.24696709300E+03 -0.10806082303E+04  0.12195146952E+04  0.00000000000E+00 0.  1.
        -11    1    3    3    0    0 -0.81858208337E+02  0.79806893990E+02 -0.18392429211E+03  0.21655958032E+03  0.00000000000E+00 0. -1.
          4    1    6    6  502    0  0.43596024519E+02 -0.89892110147E+01 -0.11827390830E+03  0.12637300603E+03  0.00000000000E+00 0. -1.
          1    1    5    5  503    0  0.73214595745E+02 -0.39147957278E+02 -0.26525566402E+02  0.87158162338E+02  0.00000000000E+00 0. -1.
         -2    1    5    5    0  503  0.72911762334E+02 -0.14179718675E+03  0.33661784611E+01  0.15948008783E+03  0.00000000000E+00 0.  1.
         -3    1    6    6    0  502  0.40057382534E+03 -0.13683963195E+03 -0.20242607696E+04  0.20680464544E+04  0.00000000000E+00 0.  1.
<mgrwt>
<rscale>  0 0.18071242E+04</rscale>
<asrwt>0</asrwt>
<pdfrwt beam="1">  1        2 0.56210445E+00 0.18071242E+04</pdfrwt>
<pdfrwt beam="2">  1       -2 0.34377342E-01 0.18071242E+04</pdfrwt>
<totfact> 0.47691115E+00</totfact>
</mgrwt>
</event>
<event>
12    1  0.2214165E-007  0.1357133E+04  0.7818608E-02  0.8985446E-01
         -1   -1    0    0    0  501 -0.00000000000E+00  0.00000000000E+00  0.23689711563E+03  0.23689711563E+03  0.00000000000E+00 0. -1.
          1   -1    0    0  501    0  0.00000000000E+00 -0.00000000000E+00 -0.19436812694E+04  0.19436812694E+04  0.00000000000E+00 0.  1.
         23    2    1    2    0    0  0.51512969889E+02 -0.26504175596E+02 -0.10635882450E+04  0.10691378068E+04  0.92084948445E+02 0.  0.
        254    2    1    2    0    0 -0.51512969889E+02  0.26504175596E+02 -0.64319590882E+03  0.11114405782E+04  0.90456792140E+03 0.  0.
        -24    2    4    4    0    0  0.11524757064E+03  0.43505571177E+03 -0.35362693819E+03  0.57775054628E+03  0.78665160229E+02 0.  0.
         24    2    4    4    0    0 -0.16676054053E+03 -0.40855153618E+03 -0.28956897062E+03  0.53369003195E+03  0.79065958947E+02 0.  0.
         13    1    3    3    0    0  0.60455579234E+02 -0.33456218387E+02 -0.43548197016E+03  0.44092940698E+03  0.00000000000E+00 0. -1.
        -13    1    3    3    0    0 -0.89426093447E+01  0.69520427917E+01 -0.62810627480E+03  0.62820839982E+03  0.00000000000E+00 0.  1.
          2    1    6    6  502    0 -0.21324080954E+02 -0.10727810887E+02 -0.23410286071E+02  0.33434171874E+02  0.00000000000E+00 0. -1.
          3    1    5    5  503    0  0.51594279755E+02  0.10787708916E+03 -0.61146993326E+02  0.13430707674E+03  0.00000000000E+00 0. -1.
         -4    1    5    5    0  503  0.63653290883E+02  0.32717862261E+03 -0.29247994487E+03  0.44344346954E+03  0.00000000000E+00 0.  1.
         -1    1    6    6    0  502 -0.14543645957E+03 -0.39782372529E+03 -0.26615868455E+03  0.50025586007E+03  0.00000000000E+00 0.  1.
<mgrwt>
<rscale>  0 0.13571330E+04</rscale>
<asrwt>0</asrwt>
<pdfrwt beam="1">  1        1 0.29902788E+00 0.13571330E+04</pdfrwt>
<pdfrwt beam="2">  1       -1 0.36445711E-01 0.13571330E+04</pdfrwt>
<totfact> 0.22986853E+01</totfact>
</mgrwt>
</event>
<event>
12    1  0.2214165E-007  0.2299360E+04  0.7818608E-02  0.8478173E-01
          2   -1    0    0  501    0  0.00000000000E+00  0.00000000000E+00  0.15201705189E+04  0.15201705189E+04  0.00000000000E+00 0. -1.
         -2   -1    0    0    0  501 -0.00000000000E+00 -0.00000000000E+00 -0.86948434238E+03  0.86948434238E+03  0.00000000000E+00 0.  1.
         23    2    1    2    0    0 -0.73677154150E+03 -0.56100390895E+03 -0.28198590309E+02  0.93050585380E+03  0.86534924975E+02 0.  0.
        254    2    1    2    0    0  0.73677154150E+03  0.56100390895E+03  0.67888476679E+03  0.14591490074E+04  0.90037414951E+03 0.  0.
        -24    2    4    4    0    0  0.58263638430E+03 -0.10927557571E+03  0.34283004505E+03  0.68947556764E+03  0.80235969643E+02 0.  0.
         24    2    4    4    0    0  0.15413515720E+03  0.67027948467E+03  0.33605472174E+03  0.76967343980E+03  0.80200958121E+02 0.  0.
         11    1    3    3    0    0 -0.26456338424E+03 -0.21566788223E+03  0.29791470781E+02  0.34262800737E+03  0.00000000000E+00 0. -1.
        -11    1    3    3    0    0 -0.47220815726E+03 -0.34533602672E+03 -0.57990061090E+02  0.58787784643E+03  0.00000000000E+00 0.  1.
          2    1    6    6  502    0  0.12375465920E+03  0.37159816933E+03  0.20536748066E+03  0.44223999959E+03  0.00000000000E+00 0. -1.
          3    1    5    5  503    0  0.41655289761E+03 -0.10209062562E+03  0.27768322078E+03  0.51092737591E+03  0.00000000000E+00 0. -1.
         -4    1    5    5    0  503  0.16608348668E+03 -0.71849500924E+01  0.65146824268E+02  0.17854819173E+03  0.00000000000E+00 0.  1.
         -1    1    6    6    0  502  0.30380498007E+02  0.29868131533E+03  0.13068724107E+03  0.32743344021E+03  0.00000000000E+00 0.  1.
<mgrwt>
<rscale>  0 0.22993603E+04</rscale>
<asrwt>0</asrwt>
<pdfrwt beam="1">  1        2 0.23387239E+00 0.22993603E+04</pdfrwt>
<pdfrwt beam="2">  1       -2 0.13376682E+00 0.22993603E+04</pdfrwt>
<totfact> 0.45286472E+00</totfact>
</mgrwt>
</event>
<event>
12    1  0.2214165E-007  0.2360621E+04  0.7818608E-02  0.8454395E-01
         -1   -1    0    0    0  501 -0.00000000000E+00  0.00000000000E+00  0.51801319353E+03  0.51801319353E+03  0.00000000000E+00 0.  1.
          1   -1    0    0  501    0  0.00000000000E+00 -0.00000000000E+00 -0.26893774535E+04  0.26893774535E+04  0.00000000000E+00 0. -1.
         23    2    1    2    0    0 -0.24653949142E+03 -0.81670349182E+03 -0.16323458499E+04  0.18441049058E+04  0.91562086170E+02 0.  0.
        254    2    1    2    0    0  0.24653949142E+03  0.81670349182E+03 -0.53901841003E+03  0.13632857412E+04  0.91663561537E+03 0.  0.
        -24    2    4    4    0    0  0.26303128933E+03  0.48491701001E+03  0.16455572317E+03  0.58113547983E+03  0.79434842060E+02 0.  0.
         24    2    4    4    0    0 -0.16491797918E+02  0.33178648181E+03 -0.70357413320E+03  0.78215026134E+03  0.79926350415E+02 0.  0.
         13    1    3    3    0    0 -0.13894579329E+03 -0.32038805691E+03 -0.70784842117E+03  0.78930591524E+03  0.00000000000E+00 0. -1.
        -13    1    3    3    0    0 -0.10759369812E+03 -0.49631543491E+03 -0.92449742874E+03  0.10547989906E+04  0.00000000000E+00 0.  1.
          4    1    6    6  502    0 -0.24158329282E+02  0.21613559251E+03 -0.37208123817E+03  0.43097873152E+03  0.00000000000E+00 0. -1.
          3    1    5    5  503    0  0.20633314981E+03  0.32782202512E+03  0.87038054314E+02  0.39700915829E+03  0.00000000000E+00 0. -1.
         -4    1    5    5    0  503  0.56698139519E+02  0.15709498488E+03  0.77517668856E+02  0.18412632154E+03  0.00000000000E+00 0.  1.
         -3    1    6    6    0  502  0.76665313642E+01  0.11565088930E+03 -0.33149289503E+03  0.35117152982E+03  0.00000000000E+00 0.  1.
<mgrwt>
<rscale>  0 0.23606211E+04</rscale>
<asrwt>0</asrwt>
<pdfrwt beam="1">  1        1 0.41375038E+00 0.23606211E+04</pdfrwt>
<pdfrwt beam="2">  1       -1 0.79694337E-01 0.23606211E+04</pdfrwt>
<totfact> 0.14118874E+00</totfact>
</mgrwt>
</event>
<event>
12    1  0.2214165E-007  0.1524656E+04  0.7818608E-02  0.8868221E-01
         -1   -1    0    0    0  501 -0.00000000000E+00  0.00000000000E+00  0.30911834443E+03  0.30911834443E+03  0.00000000000E+00 0.  1.
          1   -1    0    0  501    0  0.00000000000E+00 -0.00000000000E+00 -0.18800041036E+04  0.18800041036E+04  0.00000000000E+00 0. -1.
         23    2    1    2    0    0  0.33912565844E+03  0.82205760995E+02 -0.13220383784E+02  0.36091191664E+03  0.91206543990E+02 0.  0.
        254    2    1    2    0    0 -0.33912565844E+03 -0.82205760995E+02 -0.15576653754E+04  0.18282105314E+04  0.89121732818E+03 0.  0.
        -24    2    4    4    0    0 -0.18649943614E+02  0.54288127878E+02  0.94783880530E+02  0.13754635132E+03  0.81486155433E+02 0.  0.
         24    2    4    4    0    0 -0.32047571483E+03 -0.13649388887E+03 -0.16524492559E+04  0.16906641801E+04  0.80134642248E+02 0.  0.
         11    1    3    3    0    0  0.13380857812E+03  0.26076031335E+02 -0.49414847699E+02  0.14500524874E+03  0.00000000000E+00 0. -1.
        -11    1    3    3    0    0  0.20531708032E+03  0.56129729660E+02  0.36194463914E+02  0.21590666790E+03  0.00000000000E+00 0.  1.
          2    1    6    6  502    0 -0.23982458799E+03 -0.11982415570E+03 -0.11051207919E+04  0.11371744044E+04  0.00000000000E+00 0. -1.
          3    1    5    5  503    0 -0.20575608079E+02  0.46067670080E+01  0.84086647571E+02  0.86689920117E+02  0.00000000000E+00 0. -1.
         -4    1    5    5    0  503  0.19256644649E+01  0.49681360870E+02  0.10697232959E+02  0.50856431201E+02  0.00000000000E+00 0.  1.
         -1    1    6    6    0  502 -0.80651126842E+02 -0.16669733176E+02 -0.54732846404E+03  0.55348977571E+03  0.00000000000E+00 0.  1.
<mgrwt>
<rscale>  0 0.15246557E+04</rscale>
<asrwt>0</asrwt>
<pdfrwt beam="1">  1        1 0.28923140E+00 0.15246557E+04</pdfrwt>
<pdfrwt beam="2">  1       -1 0.47556669E-01 0.15246557E+04</pdfrwt>
<totfact> 0.15324053E+01</totfact>
</mgrwt>
</event>
<event>
12    1  0.2214165E-007  0.1987524E+04  0.7818608E-02  0.8612476E-01
          2   -1    0    0  501    0  0.00000000000E+00  0.00000000000E+00  0.16404497422E+04  0.16404497422E+04  0.00000000000E+00 0. -1.
         -2   -1    0    0    0  501 -0.00000000000E+00 -0.00000000000E+00 -0.60200763815E+03  0.60200763815E+03  0.00000000000E+00 0.  1.
         23    2    1    2    0    0  0.19424179548E+03 -0.34063442011E+02 -0.45065030535E+03  0.49842912856E+03  0.80347403721E+02 0.  0.
        254    2    1    2    0    0 -0.19424179548E+03  0.34063442011E+02  0.14890924094E+04  0.17440282518E+04  0.88619870578E+03 0.  0.
        -24    2    4    4    0    0 -0.77785611831E+02 -0.95653363976E+02 -0.77583383131E+02  0.16574643933E+03  0.79072962281E+02 0.  0.
         24    2    4    4    0    0 -0.11645618365E+03  0.12971680599E+03  0.15666757925E+04  0.15782818125E+04  0.78178949787E+02 0.  0.
         11    1    3    3    0    0 -0.97318677671E+00  0.12226280961E+02 -0.28647724719E+02  0.31162817110E+02  0.00000000000E+00 0. -1.
        -11    1    3    3    0    0  0.19521498226E+03 -0.46289722971E+02 -0.42200258064E+03  0.46726631145E+03  0.00000000000E+00 0.  1.
          4    1    6    6  502    0 -0.18702012253E+02  0.78286620883E+02  0.68618093442E+03  0.69088554409E+03  0.00000000000E+00 0. -1.
          1    1    5    5  503    0 -0.75596035004E+02 -0.10494263355E+03 -0.53725597645E+02  0.14005055047E+03  0.00000000000E+00 0. -1.
         -2    1    5    5    0  503 -0.21895768266E+01  0.92892695737E+01 -0.23857785486E+02  0.25695888858E+02  0.00000000000E+00 0.  1.
         -3    1    6    6    0  502 -0.97754171398E+02  0.51430185103E+02  0.88049485810E+03  0.88739626836E+03  0.00000000000E+00 0.  1.
<mgrwt>
<rscale>  0 0.19875244E+04</rscale>
<asrwt>0</asrwt>
<pdfrwt beam="1">  1        2 0.25237688E+00 0.19875244E+04</pdfrwt>
<pdfrwt beam="2">  1       -2 0.92616561E-01 0.19875244E+04</pdfrwt>
<totfact> 0.97359684E+00</totfact>
</mgrwt>
</event>
<event>
12    1  0.2214165E-007  0.1101904E+04  0.7818608E-02  0.9203339E-01
          1   -1    0    0  501    0  0.00000000000E+00  0.00000000000E+00  0.39020427131E+03  0.39020427131E+03  0.00000000000E+00 0. -1.
         -1   -1    0    0    0  501 -0.00000000000E+00 -0.00000000000E+00 -0.77792039974E+03  0.77792039974E+03  0.00000000000E+00 0.  1.
         23    2    1    2    0    0  0.83970573763E+01  0.11539514410E+03  0.66158304400E+02  0.15352194933E+03  0.76193948780E+02 0.  0.
        254    2    1    2    0    0 -0.83970573763E+01 -0.11539514410E+03 -0.45387443283E+03  0.10146027217E+04  0.90001674002E+03 0.  0.
        -24    2    4    4    0    0 -0.11614533290E+03  0.20220081333E+03 -0.59354613807E+03  0.64233602648E+03  0.76965223539E+02 0.  0.
         24    2    4    4    0    0  0.10774827553E+03 -0.31759595743E+03  0.13967170524E+03  0.37226669525E+03  0.81224528883E+02 0.  0.
         13    1    3    3    0    0  0.71041413684E+01  0.10615105510E+03  0.22324765764E+02  0.10870561388E+03  0.00000000000E+00 0.  1.
        -13    1    3    3    0    0  0.12929160079E+01  0.92440889945E+01  0.43833538636E+02  0.44816335442E+02  0.00000000000E+00 0. -1.
          2    1    6    6  502    0  0.63749041313E+02 -0.14371274125E+03  0.24512917182E+02  0.15911686075E+03  0.00000000000E+00 0. -1.
          1    1    5    5  503    0 -0.60160231969E+02  0.14310027602E+03 -0.30095382365E+03  0.33862980743E+03  0.00000000000E+00 0. -1.
         -2    1    5    5    0  503 -0.55985100936E+02  0.59100537309E+02 -0.29259231441E+03  0.30370621905E+03  0.00000000000E+00 0.  1.
         -1    1    6    6    0  502  0.43999234216E+02 -0.17388321618E+03  0.11515878806E+03  0.21314983450E+03  0.00000000000E+00 0.  1.
<mgrwt>
<rscale>  0 0.11019036E+04</rscale>
<asrwt>0</asrwt>
<pdfrwt beam="1">  1        1 0.60031427E-01 0.11019036E+04</pdfrwt>
<pdfrwt beam="2">  1       -1 0.11968006E+00 0.11019036E+04</pdfrwt>
<totfact> 0.38517091E+01</totfact>
</mgrwt>
</event>
<event>
12    1  0.2214165E-007  0.2063524E+04  0.7818608E-02  0.8577484E-01
          2   -1    0    0  501    0  0.00000000000E+00  0.00000000000E+00  0.22672721944E+04  0.22672721944E+04  0.00000000000E+00 0. -1.
         -2   -1    0    0    0  501 -0.00000000000E+00 -0.00000000000E+00 -0.46952147479E+03  0.46952147479E+03  0.00000000000E+00 0.  1.
         23    2    1    2    0    0  0.32135935784E+03 -0.58587861059E+03  0.13879990279E+04  0.15432202051E+04  0.91987590426E+02 0.  0.
        254    2    1    2    0    0 -0.32135935784E+03  0.58587861059E+03  0.40975169170E+03  0.11935734641E+04  0.90010865015E+03 0.  0.
        -24    2    4    4    0    0 -0.50839405177E+03  0.17296447342E+03  0.48388154538E+03  0.72711359949E+03  0.78559631257E+02 0.  0.
         24    2    4    4    0    0  0.18703469393E+03  0.41291413717E+03 -0.74129853674E+02  0.46645986459E+03  0.81298884734E+02 0.  0.
         11    1    3    3    0    0 -0.11526544401E+01 -0.39107707291E+02  0.96961729624E+02  0.10455772756E+03  0.00000000000E+00 0. -1.
        -11    1    3    3    0    0  0.32251201228E+03 -0.54677090330E+03  0.12910372983E+04  0.14386624776E+04  0.00000000000E+00 0.  1.
          2    1    6    6  502    0  0.10716036661E+03  0.29945405394E+03 -0.24106734104E+02  0.31896270820E+03  0.00000000000E+00 0. -1.
          1    1    5    5  503    0 -0.45205874226E+03  0.12582203966E+03  0.42084787534E+03  0.63031835313E+03  0.00000000000E+00 0. -1.
         -2    1    5    5    0  503 -0.56335309512E+02  0.47142433765E+02  0.63033670037E+02  0.96795246358E+02  0.00000000000E+00 0.  1.
         -1    1    6    6    0  502  0.79874327325E+02  0.11346008323E+03 -0.50023119570E+02  0.14749715639E+03  0.00000000000E+00 0.  1.
<mgrwt>
<rscale>  0 0.20635242E+04</rscale>
<asrwt>0</asrwt>
<pdfrwt beam="1">  1        2 0.34881110E+00 0.20635242E+04</pdfrwt>
<pdfrwt beam="2">  1       -2 0.72234074E-01 0.20635242E+04</pdfrwt>
<totfact> 0.75882818E+00</totfact>
</mgrwt>
</event>
<event>
12    1  0.2214165E-007  0.1672640E+04  0.7818608E-02  0.8777124E-01
         -2   -1    0    0    0  501 -0.00000000000E+00  0.00000000000E+00  0.21786454889E+03  0.21786454889E+03  0.00000000000E+00 0.  1.
          2   -1    0    0  501    0  0.00000000000E+00 -0.00000000000E+00 -0.32103949460E+04  0.32103949460E+04  0.00000000000E+00 0. -1.
         23    2    1    2    0    0  0.53939897093E+03 -0.58527426977E+02 -0.59599911563E+03  0.81133382364E+03  0.93117764140E+02 0.  0.
        254    2    1    2    0    0 -0.53939897093E+03  0.58527426977E+02 -0.23965312815E+04  0.26169256712E+04  0.90031165501E+03 0.  0.
        -24    2    4    4    0    0 -0.19394518136E+02  0.39488105731E+03 -0.68741618142E+03  0.79738510376E+03  0.83515270806E+02 0.  0.
         24    2    4    4    0    0 -0.52000445280E+03 -0.33635363033E+03 -0.17091151001E+04  0.18195405675E+04  0.78198822959E+02 0.  0.
         11    1    3    3    0    0  0.38819187899E+03 -0.90970296929E+00 -0.43606384249E+03  0.58381969580E+03  0.00000000000E+00 0.  1.
        -11    1    3    3    0    0  0.15120709194E+03 -0.57617724008E+02 -0.15993527313E+03  0.22751412783E+03  0.00000000000E+00 0. -1.
          2    1    6    6  502    0 -0.97185137547E+01 -0.22667127967E+02 -0.53818917255E+02  0.59200709914E+02  0.00000000000E+00 0. -1.
          3    1    5    5  503    0 -0.32634988107E+02  0.73908894895E+02 -0.10803471497E+03  0.13490391704E+03  0.00000000000E+00 0. -1.
         -4    1    5    5    0  503  0.13240469971E+02  0.32097216241E+03 -0.57938146645E+03  0.66248118672E+03  0.00000000000E+00 0.  1.
         -1    1    6    6    0  502 -0.51028593904E+03 -0.31368650237E+03 -0.16552961828E+04  0.17603398576E+04  0.00000000000E+00 0.  1.
<mgrwt>
<rscale>  0 0.16726401E+04</rscale>
<asrwt>0</asrwt>
<pdfrwt beam="1">  1        2 0.49390688E+00 0.16726401E+04</pdfrwt>
<pdfrwt beam="2">  1       -2 0.33517625E-01 0.16726401E+04</pdfrwt>
<totfact> 0.10201565E+01</totfact>
</mgrwt>
</event>
<event>
12    1  0.2214165E-007  0.3015058E+04  0.7818608E-02  0.8239444E-01
          2   -1    0    0  501    0  0.00000000000E+00  0.00000000000E+00  0.20307969718E+04  0.20307969718E+04  0.00000000000E+00 0.  1.
         -2   -1    0    0    0  501 -0.00000000000E+00 -0.00000000000E+00 -0.11190892017E+04  0.11190892017E+04  0.00000000000E+00 0. -1.
         23    2    1    2    0    0  0.11703764960E+04 -0.35012534523E+03 -0.23518635632E+03  0.12476751303E+04  0.94930020218E+02 0.  0.
        254    2    1    2    0    0 -0.11703764960E+04  0.35012534523E+03  0.11468941264E+04  0.19022110432E+04  0.90037315374E+03 0.  0.
        -24    2    4    4    0    0 -0.39050714573E+03  0.45057591828E+03  0.13176987390E+03  0.61580711423E+03  0.79627967898E+02 0.  0.
         24    2    4    4    0    0 -0.77986935031E+03 -0.10045057305E+03  0.10151242525E+04  0.12864039290E+04  0.77918543201E+02 0.  0.
         11    1    3    3    0    0  0.23760068380E+03 -0.93749543772E+02 -0.81915763577E+02  0.26824103754E+03  0.00000000000E+00 0.  1.
        -11    1    3    3    0    0  0.93277581225E+03 -0.25637580145E+03 -0.15327059274E+03  0.97943409277E+03  0.00000000000E+00 0. -1.
          2    1    6    6  502    0 -0.41285203674E+03 -0.29487923324E+02  0.48274183674E+03  0.63588994551E+03  0.00000000000E+00 0. -1.
          3    1    5    5  503    0 -0.12237670203E+03  0.18125363535E+03  0.76924836824E+02  0.23183262939E+03  0.00000000000E+00 0. -1.
         -4    1    5    5    0  503 -0.26813044370E+03  0.26932228293E+03  0.54845037075E+02  0.38397448485E+03  0.00000000000E+00 0.  1.
         -1    1    6    6    0  502 -0.36701731357E+03 -0.70962649726E+02  0.53238241573E+03  0.65051398347E+03  0.00000000000E+00 0.  1.
<mgrwt>
<rscale>  0 0.30150575E+04</rscale>
<asrwt>0</asrwt>
<pdfrwt beam="1">  1        2 0.31243030E+00 0.30150575E+04</pdfrwt>
<pdfrwt beam="2">  1       -2 0.17216757E+00 0.30150575E+04</pdfrwt>
<totfact> 0.11296813E+00</totfact>
</mgrwt>
</event>
<event>
12    1  0.2214165E-007  0.1980568E+04  0.7818608E-02  0.8615760E-01
          2   -1    0    0  501    0  0.00000000000E+00  0.00000000000E+00  0.43524983635E+04  0.43524983635E+04  0.00000000000E+00 0. -1.
         -2   -1    0    0    0  501 -0.00000000000E+00 -0.00000000000E+00 -0.22531022927E+03  0.22531022927E+03  0.00000000000E+00 0.  1.
         23    2    1    2    0    0  0.53380220356E+03 -0.18214308894E+03  0.28994352925E+04  0.29552310200E+04  0.92436295079E+02 0.  0.
        254    2    1    2    0    0 -0.53380220356E+03  0.18214308894E+03  0.12277528417E+04  0.16225775728E+04  0.89847651167E+03 0.  0.
        -24    2    4    4    0    0 -0.33066374299E+03 -0.41044009724E+02 -0.12580976579E+02  0.34360774245E+03  0.82975165173E+02 0.  0.
         24    2    4    4    0    0 -0.20313846056E+03  0.22318709866E+03  0.12403338183E+04  0.12789698303E+04  0.79108349399E+02 0.  0.
         13    1    3    3    0    0  0.34699501848E+03 -0.79748050269E+02  0.19439009865E+04  0.19762379258E+04  0.00000000000E+00 0. -1.
        -13    1    3    3    0    0  0.18680718507E+03 -0.10239503867E+03  0.95553430609E+03  0.97899309418E+03  0.00000000000E+00 0.  1.
          2    1    6    6  502    0 -0.69085533628E+01 -0.43425464322E+01  0.12647046735E+02  0.15051033526E+02  0.00000000000E+00 0. -1.
          1    1    5    5  503    0 -0.27051102364E+02  0.88813534698E+00 -0.25023192404E+02  0.36860698332E+02  0.00000000000E+00 0. -1.
         -2    1    5    5    0  503 -0.30361264063E+03 -0.41932145071E+02  0.12442215824E+02  0.30674704412E+03  0.00000000000E+00 0.  1.
         -1    1    6    6    0  502 -0.19622990720E+03  0.22752964509E+03  0.12276867716E+04  0.12639187968E+04  0.00000000000E+00 0.  1.
<mgrwt>
<rscale>  0 0.19805680E+04</rscale>
<asrwt>0</asrwt>
<pdfrwt beam="1">  1        2 0.66961507E+00 0.19805680E+04</pdfrwt>
<pdfrwt beam="2">  1       -2 0.34663115E-01 0.19805680E+04</pdfrwt>
<totfact> 0.12526286E+00</totfact>
</mgrwt>
</event>
<event>
12    1  0.2214165E-007  0.2061958E+04  0.7818608E-02  0.8578189E-01
         -1   -1    0    0    0  501 -0.00000000000E+00  0.00000000000E+00  0.47344760644E+03  0.47344760644E+03  0.00000000000E+00 0.  1.
          1   -1    0    0  501    0  0.00000000000E+00 -0.00000000000E+00 -0.22450578245E+04  0.22450578245E+04  0.00000000000E+00 0. -1.
         23    2    1    2    0    0  0.52335762823E+03  0.60132179591E+03 -0.40719319864E+03  0.89972778269E+03  0.90623797383E+02 0.  0.
        254    2    1    2    0    0 -0.52335762823E+03 -0.60132179591E+03 -0.13644170194E+04  0.18187776482E+04  0.90045945028E+03 0.  0.
        -24    2    4    4    0    0 -0.40742768078E+03 -0.76758300505E+02 -0.87646906273E+02  0.43128864425E+03  0.80241901247E+02 0.  0.
         24    2    4    4    0    0 -0.11592994745E+03 -0.52456349541E+03 -0.12767701131E+04  0.13874890040E+04  0.79857378818E+02 0.  0.
         11    1    3    3    0    0  0.30439555788E+03  0.41576198778E+03 -0.25873767214E+03  0.57659333080E+03  0.00000000000E+00 0. -1.
        -11    1    3    3    0    0  0.21896207035E+03  0.18555980813E+03 -0.14845552649E+03  0.32313445188E+03  0.00000000000E+00 0.  1.
          2    1    6    6  502    0 -0.10146676957E+03 -0.50894790197E+03 -0.12488064219E+04  0.13523464614E+04  0.00000000000E+00 0. -1.
          1    1    5    5  503    0 -0.40094617030E+03 -0.61431686210E+02 -0.83310888637E+02  0.41409224542E+03  0.00000000000E+00 0. -1.
         -2    1    5    5    0  503 -0.64815104816E+01 -0.15326614295E+02 -0.43360176359E+01  0.17196398833E+02  0.00000000000E+00 0.  1.
         -1    1    6    6    0  502 -0.14463177874E+02 -0.15615593443E+02 -0.27963691231E+02  0.35142542595E+02  0.00000000000E+00 0.  1.
<mgrwt>
<rscale>  0 0.20619576E+04</rscale>
<asrwt>0</asrwt>
<pdfrwt beam="1">  1        1 0.34539351E+00 0.20619576E+04</pdfrwt>
<pdfrwt beam="2">  1       -1 0.72838093E-01 0.20619576E+04</pdfrwt>
<totfact> 0.35589425E+00</totfact>
</mgrwt>
</event>
<event>
12    1  0.2214165E-007  0.1595792E+04  0.7818608E-02  0.8823137E-01
         -1   -1    0    0    0  501 -0.00000000000E+00  0.00000000000E+00  0.25037284080E+03  0.25037284080E+03  0.00000000000E+00 0.  1.
          1   -1    0    0  501    0  0.00000000000E+00 -0.00000000000E+00 -0.25427612521E+04  0.25427612521E+04  0.00000000000E+00 0. -1.
         23    2    1    2    0    0  0.21888686673E+03  0.11327112497E+03  0.53640665258E+02  0.26905342274E+03  0.93651562391E+02 0.  0.
        254    2    1    2    0    0 -0.21888686673E+03 -0.11327112497E+03 -0.23460290765E+04  0.25240806701E+04  0.89799164431E+03 0.  0.
        -24    2    4    4    0    0 -0.51639700583E+03 -0.44408808770E+02 -0.19457961245E+04  0.20149494647E+04  0.72531214609E+02 0.  0.
         24    2    4    4    0    0  0.29751013910E+03 -0.68862316198E+02 -0.40023295199E+03  0.50913120544E+03  0.75985966030E+02 0.  0.
         11    1    3    3    0    0  0.12202199320E+03  0.10567375209E+03  0.77677194014E+01  0.16160645460E+03  0.00000000000E+00 0. -1.
        -11    1    3    3    0    0  0.96864873537E+02  0.75973728768E+01  0.45872945857E+02  0.10744696814E+03  0.00000000000E+00 0.  1.
          2    1    6    6  502    0  0.27744759394E+03 -0.58589900458E+02 -0.32860444594E+03  0.43404011993E+03  0.00000000000E+00 0. -1.
          1    1    5    5  503    0 -0.48085711853E+03 -0.31940435013E+02 -0.17289622674E+04  0.17948688759E+04  0.00000000000E+00 0. -1.
         -2    1    5    5    0  503 -0.35539887297E+02 -0.12468373757E+02 -0.21683385717E+03  0.22008058875E+03  0.00000000000E+00 0.  1.
         -1    1    6    6    0  502  0.20062545157E+02 -0.10272415740E+02 -0.71628506055E+02  0.75091085509E+02  0.00000000000E+00 0.  1.
<mgrwt>
<rscale>  0 0.15957924E+04</rscale>
<asrwt>0</asrwt>
<pdfrwt beam="1">  1        1 0.39119404E+00 0.15957924E+04</pdfrwt>
<pdfrwt beam="2">  1       -1 0.38518898E-01 0.15957924E+04</pdfrwt>
<totfact> 0.79419099E+00</totfact>
</mgrwt>
</event>
<event>
12    1  0.2214165E-007  0.1667715E+04  0.7818608E-02  0.8779995E-01
         -2   -1    0    0    0  501 -0.00000000000E+00  0.00000000000E+00  0.35575763657E+03  0.35575763657E+03  0.00000000000E+00 0.  1.
          2   -1    0    0  501    0  0.00000000000E+00 -0.00000000000E+00 -0.19544722360E+04  0.19544722360E+04  0.00000000000E+00 0. -1.
         23    2    1    2    0    0 -0.56857791177E+03 -0.81365563388E+02 -0.73525133594E+03  0.93744113150E+03  0.91105166531E+02 0.  0.
        254    2    1    2    0    0  0.56857791177E+03  0.81365563388E+02 -0.86346326345E+03  0.13727887410E+04  0.89948814530E+03 0.  0.
        -24    2    4    4    0    0  0.11927291279E+03 -0.47996010582E+02  0.17476617231E+03  0.23150808743E+03  0.80765925998E+02 0.  0.
         24    2    4    4    0    0  0.44930499898E+03  0.12936157397E+03 -0.10382294358E+04  0.11412806536E+04  0.77406524962E+02 0.  0.
         11    1    3    3    0    0 -0.44871875923E+03 -0.40268324184E+02 -0.61816865729E+03  0.76491996423E+03  0.00000000000E+00 0. -1.
        -11    1    3    3    0    0 -0.11985915253E+03 -0.41097239204E+02 -0.11708267865E+03  0.17252116727E+03  0.00000000000E+00 0.  1.
          2    1    6    6  502    0  0.30868399411E+03  0.53903446545E+02 -0.72186430760E+03  0.78694311635E+03  0.00000000000E+00 0. -1.
          1    1    5    5  503    0  0.12374113543E+03 -0.29970721794E+02  0.16989799110E+03  0.21230977402E+03  0.00000000000E+00 0. -1.
         -2    1    5    5    0  503 -0.44682226403E+01 -0.18025288788E+02  0.48681812073E+01  0.19198313409E+02  0.00000000000E+00 0.  1.
         -1    1    6    6    0  502  0.14062100486E+03  0.75458127426E+02 -0.31636512816E+03  0.35433753727E+03  0.00000000000E+00 0.  1.
<mgrwt>
<rscale>  0 0.16677151E+04</rscale>
<asrwt>0</asrwt>
<pdfrwt beam="1">  1        2 0.30068803E+00 0.16677151E+04</pdfrwt>
<pdfrwt beam="2">  1       -2 0.54731945E-01 0.16677151E+04</pdfrwt>
<totfact> 0.21221006E+01</totfact>
</mgrwt>
</event>
<event>
12    1  0.2214165E-007  0.5077853E+04  0.7818608E-02  0.7816609E-01
         -2   -1    0    0    0  501 -0.00000000000E+00  0.00000000000E+00  0.13985393266E+04  0.13985393266E+04  0.00000000000E+00 0.  1.
          2   -1    0    0  501    0  0.00000000000E+00 -0.00000000000E+00 -0.46091997702E+04  0.46091997702E+04  0.00000000000E+00 0. -1.
         23    2    1    2    0    0 -0.11254157886E+04  0.13020885594E+04 -0.36321868837E+04  0.40203325370E+04  0.91086973571E+02 0.  0.
        254    2    1    2    0    0  0.11254157886E+04 -0.13020885594E+04  0.42152644005E+03  0.19874065598E+04  0.90005832078E+03 0.  0.
        -24    2    4    4    0    0  0.80401829061E+03 -0.72850515476E+03  0.67251810041E+03  0.12790280381E+04  0.80417378469E+02 0.  0.
         24    2    4    4    0    0  0.32139749797E+03 -0.57358340461E+03 -0.25099166036E+03  0.70837852173E+03  0.80678638602E+02 0.  0.
         13    1    3    3    0    0 -0.16342769848E+03  0.23635031418E+03 -0.57366326772E+03  0.64160706696E+03  0.00000000000E+00 0.  1.
        -13    1    3    3    0    0 -0.96198809009E+03  0.10657382452E+04 -0.30585236159E+04  0.33787254701E+04  0.00000000000E+00 0. -1.
          2    1    6    6  502    0  0.27745836743E+03 -0.46812853883E+03 -0.23603492045E+03  0.59316098843E+03  0.00000000000E+00 0. -1.
          3    1    5    5  503    0  0.66844045431E+03 -0.61579839573E+03  0.52828363475E+03  0.10512392230E+04  0.00000000000E+00 0. -1.
         -4    1    5    5    0  503  0.13557783629E+03 -0.11270675903E+03  0.14423446565E+03  0.22778881515E+03  0.00000000000E+00 0.  1.
         -1    1    6    6    0  502  0.43939130534E+02 -0.10545486579E+03 -0.14956739904E+02  0.11521753329E+03  0.00000000000E+00 0.  1.
<mgrwt>
<rscale>  0 0.50778528E+04</rscale>
<asrwt>0</asrwt>
<pdfrwt beam="1">  1        2 0.70910766E+00 0.50778528E+04</pdfrwt>
<pdfrwt beam="2">  1       -2 0.21515990E+00 0.50778528E+04</pdfrwt>
<totfact> 0.72575056E-03</totfact>
</mgrwt>
</event>
<event>
12    1  0.2214165E-007  0.2770274E+04  0.7818608E-02  0.8312557E-01
         -1   -1    0    0    0  501 -0.00000000000E+00  0.00000000000E+00  0.19493640399E+04  0.19493640399E+04  0.00000000000E+00 0.  1.
          1   -1    0    0  501    0  0.00000000000E+00 -0.00000000000E+00 -0.98422048498E+03  0.98422048498E+03  0.00000000000E+00 0. -1.
         23    2    1    2    0    0  0.86318173468E+03 -0.63141782388E+03 -0.22644393383E+03  0.10967351677E+04  0.88204294707E+02 0.  0.
        254    2    1    2    0    0 -0.86318173468E+03  0.63141782388E+03  0.11915874888E+04  0.18368493572E+04  0.90020200072E+03 0.  0.
        -24    2    4    4    0    0 -0.42529607281E+03  0.33518679031E+03  0.18742997859E+02  0.54786288134E+03  0.81089474242E+02 0.  0.
         24    2    4    4    0    0 -0.43788566187E+03  0.29623103356E+03  0.11728444909E+04  0.12889864758E+04  0.80157699848E+02 0.  0.
         13    1    3    3    0    0  0.16002243800E+03 -0.15584767888E+03 -0.64993237875E+02  0.23263662791E+03  0.00000000000E+00 0. -1.
        -13    1    3    3    0    0  0.70315929669E+03 -0.47557014500E+03 -0.16145069596E+03  0.86409853984E+03  0.00000000000E+00 0.  1.
          4    1    6    6  502    0 -0.12995681323E+02  0.29167725693E+02  0.53795762811E+02  0.62558996568E+02  0.00000000000E+00 0. -1.
          1    1    5    5  503    0 -0.50534508179E+02  0.57637425865E+02 -0.21974333075E+02  0.79741336152E+02  0.00000000000E+00 0. -1.
         -2    1    5    5    0  503 -0.37476156463E+03  0.27754936445E+03  0.40717330934E+02  0.46812154519E+03  0.00000000000E+00 0.  1.
         -3    1    6    6    0  502 -0.42488998055E+03  0.26706330787E+03  0.11190487281E+04  0.12264274793E+04  0.00000000000E+00 0.  1.
<mgrwt>
<rscale>  0 0.27702736E+04</rscale>
<asrwt>0</asrwt>
<pdfrwt beam="1">  1        1 0.15141854E+00 0.27702736E+04</pdfrwt>
<pdfrwt beam="2">  1       -1 0.29990216E+00 0.27702736E+04</pdfrwt>
<totfact> 0.44688793E-01</totfact>
</mgrwt>
</event>
<event>
12    1  0.2214165E-007  0.1399470E+04  0.7818608E-02  0.8954203E-01
         -1   -1    0    0    0  501 -0.00000000000E+00  0.00000000000E+00  0.29332813865E+03  0.29332813865E+03  0.00000000000E+00 0.  1.
          1   -1    0    0  501    0  0.00000000000E+00 -0.00000000000E+00 -0.16692184886E+04  0.16692184886E+04  0.00000000000E+00 0. -1.
         23    2    1    2    0    0 -0.10935280539E+03 -0.13259470831E+03  0.10274267688E+03  0.22120471016E+03  0.94000390545E+02 0.  0.
        254    2    1    2    0    0  0.10935280539E+03  0.13259470831E+03 -0.14786330268E+04  0.17413419171E+04  0.90353563930E+03 0.  0.
        -24    2    4    4    0    0 -0.20753494238E+03 -0.24268300854E+03 -0.99265557750E+03  0.10457566864E+04  0.79222198177E+02 0.  0.
         24    2    4    4    0    0  0.31688774777E+03  0.37527771686E+03 -0.48597744934E+03  0.69558523070E+03  0.80084470670E+02 0.  0.
         11    1    3    3    0    0 -0.27915168403E+02 -0.51052207664E+02 -0.11074811907E+02  0.59230363777E+02  0.00000000000E+00 0. -1.
        -11    1    3    3    0    0 -0.81437636990E+02 -0.81542500648E+02  0.11381748879E+03  0.16197434638E+03  0.00000000000E+00 0.  1.
          4    1    6    6  502    0  0.31548464633E+03  0.36967522559E+03 -0.46068744813E+03  0.66964412888E+03  0.00000000000E+00 0. -1.
          1    1    5    5  503    0 -0.16090380631E+03 -0.13145910666E+03 -0.65853527637E+03  0.69053619879E+03  0.00000000000E+00 0. -1.
         -2    1    5    5    0  503 -0.46631136072E+02 -0.11122390188E+03 -0.33412030113E+03  0.35522048762E+03  0.00000000000E+00 0.  1.
         -3    1    6    6    0  502  0.14031014423E+01  0.56024912629E+01 -0.25290001213E+02  0.25941101814E+02  0.00000000000E+00 0.  1.
<mgrwt>
<rscale>  0 0.13994695E+04</rscale>
<asrwt>0</asrwt>
<pdfrwt beam="1">  1        1 0.25680285E+00 0.13994695E+04</pdfrwt>
<pdfrwt beam="2">  1       -1 0.45127405E-01 0.13994695E+04</pdfrwt>
<totfact> 0.23765541E+01</totfact>
</mgrwt>
</event>
<event>
12    1  0.2214165E-007  0.1617789E+04  0.7818608E-02  0.8809694E-01
          2   -1    0    0  501    0  0.00000000000E+00  0.00000000000E+00  0.67675583284E+03  0.67675583284E+03  0.00000000000E+00 0.  1.
         -2   -1    0    0    0  501 -0.00000000000E+00 -0.00000000000E+00 -0.96683319728E+03  0.96683319728E+03  0.00000000000E+00 0. -1.
         23    2    1    2    0    0  0.51242641501E+03  0.64346762323E+02  0.10253754113E+03  0.53391181088E+03  0.88467722005E+02 0.  0.
        254    2    1    2    0    0 -0.51242641501E+03 -0.64346762323E+02 -0.39261490557E+03  0.11096772192E+04  0.90028647117E+03 0.  0.
        -24    2    4    4    0    0 -0.13675623527E+03  0.38545379528E+03 -0.29421014566E+03  0.51015524644E+03  0.80136567682E+02 0.  0.
         24    2    4    4    0    0 -0.37567017974E+03 -0.44980055760E+03 -0.98404759905E+02  0.59952197279E+03  0.79337718108E+02 0.  0.
         13    1    3    3    0    0  0.34873708091E+03  0.83025358892E+02  0.83354367642E+02  0.36804716060E+03  0.00000000000E+00 0. -1.
        -13    1    3    3    0    0  0.16368933411E+03 -0.18678596569E+02  0.19183173485E+02  0.16586465029E+03  0.00000000000E+00 0.  1.
          4    1    6    6  502    0 -0.29214578981E+03 -0.30772125540E+03 -0.47151026718E+02  0.42692476251E+03  0.00000000000E+00 0. -1.
          3    1    5    5  503    0 -0.53887832887E+02  0.26295384810E+03 -0.17817315032E+03  0.32217122196E+03  0.00000000000E+00 0. -1.
         -4    1    5    5    0  503 -0.82868402380E+02  0.12249994718E+03 -0.11603699534E+03  0.18798402448E+03  0.00000000000E+00 0.  1.
         -3    1    6    6    0  502 -0.83524389939E+02 -0.14207930220E+03 -0.51253733188E+02  0.17259721028E+03  0.00000000000E+00 0.  1.
<mgrwt>
<rscale>  0 0.16177886E+04</rscale>
<asrwt>0</asrwt>
<pdfrwt beam="1">  1        2 0.10411628E+00 0.16177886E+04</pdfrwt>
<pdfrwt beam="2">  1       -2 0.14874357E+00 0.16177886E+04</pdfrwt>
<totfact> 0.12537060E+01</totfact>
</mgrwt>
</event>
<event>
12    1  0.2214165E-007  0.1211301E+04  0.7818608E-02  0.9103022E-01
         -1   -1    0    0    0  501 -0.00000000000E+00  0.00000000000E+00  0.58250867686E+03  0.58250867686E+03  0.00000000000E+00 0.  1.
          1   -1    0    0  501    0  0.00000000000E+00 -0.00000000000E+00 -0.62971136016E+03  0.62971136016E+03  0.00000000000E+00 0. -1.
         23    2    1    2    0    0 -0.16133410712E+03  0.19073290583E+03  0.67314225215E+02  0.27468645888E+03  0.92269769104E+02 0.  0.
        254    2    1    2    0    0  0.16133410712E+03 -0.19073290583E+03 -0.11451690852E+03  0.93753357814E+03  0.89635224790E+03 0.  0.
        -24    2    4    4    0    0 -0.23925500747E+02 -0.41650791940E+03  0.22617583146E+03  0.48151928343E+03  0.81572281280E+02 0.  0.
         24    2    4    4    0    0  0.18525960787E+03  0.22577501357E+03 -0.34069273998E+03  0.45601429471E+03  0.81129617552E+02 0.  0.
         11    1    3    3    0    0 -0.11004248112E+03  0.10060155751E+03  0.81659708269E+02  0.16999508516E+03  0.00000000000E+00 0.  1.
        -11    1    3    3    0    0 -0.51291626001E+02  0.90131348317E+02 -0.14345483054E+02  0.10469137372E+03  0.00000000000E+00 0. -1.
          4    1    6    6  502    0  0.12890997198E+03  0.14337773939E+03 -0.16421942092E+03  0.25326463479E+03  0.00000000000E+00 0. -1.
          3    1    5    5  503    0 -0.15173681562E+02 -0.15426108482E+03  0.40910652380E+02  0.16031345664E+03  0.00000000000E+00 0. -1.
         -4    1    5    5    0  503 -0.87518191842E+01 -0.26224683458E+03  0.18526517908E+03  0.32120582679E+03  0.00000000000E+00 0.  1.
         -3    1    6    6    0  502  0.56349635885E+02  0.82397274181E+02 -0.17647331906E+03  0.20274965992E+03  0.00000000000E+00 0.  1.
<mgrwt>
<rscale>  0 0.12113007E+04</rscale>
<asrwt>0</asrwt>
<pdfrwt beam="1">  1        1 0.96878670E-01 0.12113007E+04</pdfrwt>
<pdfrwt beam="2">  1       -1 0.89616720E-01 0.12113007E+04</pdfrwt>
<totfact> 0.38509263E+01</totfact>
</mgrwt>
</event>
<event>
12    1  0.2214165E-007  0.2032284E+04  0.7818608E-02  0.8591674E-01
          2   -1    0    0  501    0  0.00000000000E+00  0.00000000000E+00  0.18067748915E+04  0.18067748915E+04  0.00000000000E+00 0. -1.
         -2   -1    0    0    0  501 -0.00000000000E+00 -0.00000000000E+00 -0.57148501628E+03  0.57148501628E+03  0.00000000000E+00 0.  1.
         23    2    1    2    0    0  0.56229286734E+02 -0.73679980925E+03  0.89466478315E+03  0.11640917270E+04  0.92998833071E+02 0.  0.
        254    2    1    2    0    0 -0.56229286734E+02  0.73679980925E+03  0.34062509211E+03  0.12141681809E+04  0.90118989477E+03 0.  0.
        -24    2    4    4    0    0  0.67397892999E+02 -0.15354964098E+03 -0.97761347891E+02  0.21125302290E+03  0.83370200413E+02 0.  0.
         24    2    4    4    0    0 -0.12362717973E+03  0.89034945023E+03  0.43838644001E+03  0.10029151580E+04  0.75168611854E+02 0.  0.
         11    1    3    3    0    0  0.82606016061E+01 -0.58780611910E+03  0.69107672401E+03  0.90728788687E+03  0.00000000000E+00 0.  1.
        -11    1    3    3    0    0  0.47968685127E+02 -0.14899369015E+03  0.20358805913E+03  0.25680384008E+03  0.00000000000E+00 0. -1.
          2    1    6    6  502    0 -0.11631735568E+03  0.66764546950E+03  0.30455859204E+03  0.74299134326E+03  0.00000000000E+00 0. -1.
          1    1    5    5  503    0  0.52361095192E+02 -0.32630827958E+02 -0.13640984889E+02  0.63186483457E+02  0.00000000000E+00 0. -1.
         -2    1    5    5    0  503  0.15036797807E+02 -0.12091881302E+03 -0.84120363001E+02  0.14806653944E+03  0.00000000000E+00 0.  1.
         -1    1    6    6    0  502 -0.73098240539E+01  0.22270398073E+03  0.13382784796E+03  0.25992381471E+03  0.00000000000E+00 0.  1.
<mgrwt>
<rscale>  0 0.20322842E+04</rscale>
<asrwt>0</asrwt>
<pdfrwt beam="1">  1        2 0.27796537E+00 0.20322842E+04</pdfrwt>
<pdfrwt beam="2">  1       -2 0.87920773E-01 0.20322842E+04</pdfrwt>
<totfact> 0.88400898E+00</totfact>
</mgrwt>
</event>
<event>
12    1  0.2214165E-007  0.3112169E+04  0.7818608E-02  0.8212406E-01
         -2   -1    0    0    0  501 -0.00000000000E+00  0.00000000000E+00  0.29130676782E+04  0.29130676782E+04  0.00000000000E+00 0.  1.
          2   -1    0    0  501    0  0.00000000000E+00 -0.00000000000E+00 -0.83121952327E+03  0.83121952327E+03  0.00000000000E+00 0. -1.
         23    2    1    2    0    0 -0.93990509324E+03 -0.10690050350E+04  0.91149081230E+03  0.16926711590E+04  0.90148779002E+02 0.  0.
        254    2    1    2    0    0  0.93990509324E+03  0.10690050350E+04  0.11703573426E+04  0.20516160425E+04  0.90177531960E+03 0.  0.
        -24    2    4    4    0    0  0.63475270999E+03  0.46541834474E+03  0.11156207764E+04  0.13678491541E+04  0.82923780745E+02 0.  0.
         24    2    4    4    0    0  0.30515238325E+03  0.60358669030E+03  0.54736566274E+02  0.68376688832E+03  0.84298257213E+02 0.  0.
         11    1    3    3    0    0 -0.43431003081E+03 -0.56048122897E+03  0.44116024490E+03  0.83509686418E+03  0.00000000000E+00 0. -1.
        -11    1    3    3    0    0 -0.50559506243E+03 -0.50852380607E+03  0.47033056740E+03  0.85757429482E+03  0.00000000000E+00 0.  1.
          4    1    6    6  502    0  0.31012853840E+03  0.58744894477E+03  0.49692356094E+02  0.66614210443E+03  0.00000000000E+00 0. -1.
          3    1    5    5  503    0  0.63037905077E+03  0.45962113846E+03  0.11146219309E+04  0.13605187935E+04  0.00000000000E+00 0. -1.
         -4    1    5    5    0  503  0.43736592177E+01  0.57972062830E+01  0.99884548841E+00  0.73303606971E+01  0.00000000000E+00 0.  1.
         -3    1    6    6    0  502 -0.49761551511E+01  0.16137745535E+02  0.50442101802E+01  0.17624783896E+02  0.00000000000E+00 0.  1.
<mgrwt>
<rscale>  0 0.31121688E+04</rscale>
<asrwt>0</asrwt>
<pdfrwt beam="1">  1        2 0.12787993E+00 0.31121688E+04</pdfrwt>
<pdfrwt beam="2">  1       -2 0.44816425E+00 0.31121688E+04</pdfrwt>
<totfact> 0.98906619E-02</totfact>
</mgrwt>
</event>
<event>
12    1  0.2214165E-007  0.1590965E+04  0.7818608E-02  0.8826118E-01
          2   -1    0    0  501    0  0.00000000000E+00  0.00000000000E+00  0.79173027112E+03  0.79173027112E+03  0.00000000000E+00 0. -1.
         -2   -1    0    0    0  501 -0.00000000000E+00 -0.00000000000E+00 -0.79925281773E+03  0.79925281773E+03  0.00000000000E+00 0.  1.
         23    2    1    2    0    0  0.10219942404E+03 -0.27704090954E+03 -0.44891677142E+03  0.54482713613E+03  0.90077482018E+02 0.  0.
        254    2    1    2    0    0 -0.10219942404E+03  0.27704090954E+03  0.44139422480E+03  0.10461559527E+04  0.90134179305E+03 0.  0.
        -24    2    4    4    0    0  0.21449706542E+03  0.33677873095E+03  0.56085024352E+03  0.69315265546E+03  0.80490393316E+02 0.  0.
         24    2    4    4    0    0 -0.31669648946E+03 -0.59737821409E+02 -0.11945601871E+03  0.35300329727E+03  0.80475547440E+02 0.  0.
         11    1    3    3    0    0  0.75128967447E+02 -0.17045528982E+03 -0.35197824395E+03  0.39823115372E+03  0.00000000000E+00 0.  1.
        -11    1    3    3    0    0  0.27070456588E+02 -0.10658561972E+03 -0.96938527472E+02  0.14659598241E+03  0.00000000000E+00 0. -1.
          2    1    6    6  502    0 -0.17874781774E+03 -0.81904581492E+01 -0.32140993511E+02  0.18179909080E+03  0.00000000000E+00 0. -1.
          3    1    5    5  503    0  0.19373394069E+02  0.44249034291E+02  0.31547608516E+02  0.57693648146E+02  0.00000000000E+00 0. -1.
         -4    1    5    5    0  503  0.19512367135E+03  0.29252969666E+03  0.52930263500E+03  0.63545900731E+03  0.00000000000E+00 0.  1.
         -1    1    6    6    0  502 -0.13794867172E+03 -0.51547363260E+02 -0.87315025201E+02  0.17120420647E+03  0.00000000000E+00 0.  1.
<mgrwt>
<rscale>  0 0.15909653E+04</rscale>
<asrwt>0</asrwt>
<pdfrwt beam="1">  1        2 0.12180466E+00 0.15909653E+04</pdfrwt>
<pdfrwt beam="2">  1       -2 0.12296197E+00 0.15909653E+04</pdfrwt>
<totfact> 0.16743959E+01</totfact>
</mgrwt>
</event>
<event>
12    1  0.2214165E-007  0.1589377E+04  0.7818608E-02  0.8827101E-01
          1   -1    0    0  501    0  0.00000000000E+00  0.00000000000E+00  0.33414973137E+03  0.33414973137E+03  0.00000000000E+00 0. -1.
         -1   -1    0    0    0  501 -0.00000000000E+00 -0.00000000000E+00 -0.18899610196E+04  0.18899610196E+04  0.00000000000E+00 0.  1.
         23    2    1    2    0    0 -0.44985062417E+03 -0.95665463376E+02 -0.91323499323E+03  0.10269165832E+04  0.95089699520E+02 0.  0.
        254    2    1    2    0    0  0.44985062417E+03  0.95665463376E+02 -0.64257629505E+03  0.11971941679E+04  0.89936206038E+03 0.  0.
        -24    2    4    4    0    0  0.31778493405E+03 -0.23687431967E+03 -0.71541658971E+03  0.82189259254E+03  0.81177762964E+02 0.  0.
         24    2    4    4    0    0  0.13206569012E+03  0.33253978305E+03  0.72840294668E+02  0.37530157532E+03  0.86726640069E+02 0.  0.
         11    1    3    3    0    0 -0.19619553813E+03 -0.12034465399E+01 -0.43956758769E+03  0.48136659794E+03  0.00000000000E+00 0.  1.
        -11    1    3    3    0    0 -0.25365508604E+03 -0.94462016836E+02 -0.47366740554E+03  0.54554998521E+03  0.00000000000E+00 0. -1.
          2    1    6    6  502    0  0.77649625179E+01 -0.17451191593E+01 -0.60942502741E+01  0.10023969782E+02  0.00000000000E+00 0. -1.
          1    1    5    5  503    0  0.35345379850E+02 -0.37624681302E+02 -0.15586791163E+03  0.16419414848E+03  0.00000000000E+00 0. -1.
         -2    1    5    5    0  503  0.28243955420E+03 -0.19924963837E+03 -0.55954867809E+03  0.65769844406E+03  0.00000000000E+00 0.  1.
         -1    1    6    6    0  502  0.12430072760E+03  0.33428490221E+03  0.78934544942E+02  0.36527760554E+03  0.00000000000E+00 0.  1.
<mgrwt>
<rscale>  0 0.15893772E+04</rscale>
<asrwt>0</asrwt>
<pdfrwt beam="1">  1        1 0.51407651E-01 0.15893772E+04</pdfrwt>
<pdfrwt beam="2">  1       -1 0.29076324E+00 0.15893772E+04</pdfrwt>
<totfact> 0.27758804E+00</totfact>
</mgrwt>
</event>
<event>
12    1  0.2214165E-007  0.2240591E+04  0.7818608E-02  0.8501721E-01
          2   -1    0    0  501    0  0.00000000000E+00  0.00000000000E+00  0.95772788913E+03  0.95772788913E+03  0.00000000000E+00 0.  1.
         -2   -1    0    0    0  501 -0.00000000000E+00 -0.00000000000E+00 -0.13104582219E+04  0.13104582219E+04  0.00000000000E+00 0. -1.
         23    2    1    2    0    0 -0.35454860159E+03 -0.27746053419E+03  0.68354836115E+03  0.82357323744E+03  0.91353469975E+02 0.  0.
        254    2    1    2    0    0  0.35454860159E+03  0.27746053419E+03 -0.10362786939E+04  0.14446128736E+04  0.90019095982E+03 0.  0.
        -24    2    4    4    0    0  0.29205368222E+03 -0.24989630171E+03 -0.72458288382E+03  0.82415203864E+03  0.80390996869E+02 0.  0.
         24    2    4    4    0    0  0.62494919367E+02  0.52735683590E+03 -0.31169581009E+03  0.62046083493E+03  0.76200540266E+02 0.  0.
         11    1    3    3    0    0 -0.30534638733E+02 -0.53150825152E+02  0.58939032540E+02  0.85036368300E+02  0.00000000000E+00 0. -1.
        -11    1    3    3    0    0 -0.32401396285E+03 -0.22430970904E+03  0.62460932861E+03  0.73853686914E+03  0.00000000000E+00 0.  1.
          4    1    6    6  502    0  0.11810531172E+02  0.59274838065E+02 -0.99675788218E+01  0.61256409475E+02  0.00000000000E+00 0. -1.
          1    1    5    5  503    0  0.26350624658E+02 -0.87259576454E+01 -0.10049790831E+03  0.10426086193E+03  0.00000000000E+00 0. -1.
         -2    1    5    5    0  503  0.26570305756E+03 -0.24117034407E+03 -0.62408497551E+03  0.71989117671E+03  0.00000000000E+00 0.  1.
         -3    1    6    6    0  502  0.50684388195E+02  0.46808199784E+03 -0.30172823127E+03  0.55920442545E+03  0.00000000000E+00 0.  1.
<mgrwt>
<rscale>  0 0.22405913E+04</rscale>
<asrwt>0</asrwt>
<pdfrwt beam="1">  1        2 0.14734275E+00 0.22405913E+04</pdfrwt>
<pdfrwt beam="2">  1       -2 0.20160896E+00 0.22405913E+04</pdfrwt>
<totfact> 0.31723606E+00</totfact>
</mgrwt>
</event>
<event>
12    1  0.2214165E-007  0.3210230E+04  0.7818608E-02  0.8186121E-01
         -1   -1    0    0    0  501 -0.00000000000E+00  0.00000000000E+00  0.13300130287E+04  0.13300130287E+04  0.00000000000E+00 0.  1.
          1   -1    0    0  501    0  0.00000000000E+00 -0.00000000000E+00 -0.19371195141E+04  0.19371195141E+04  0.00000000000E+00 0. -1.
         23    2    1    2    0    0 -0.47025647061E+03 -0.11784222270E+04  0.49006277076E+03  0.13622450672E+04  0.75696833262E+02 0.  0.
        254    2    1    2    0    0  0.47025647061E+03  0.11784222270E+04 -0.10971692562E+04  0.19048874757E+04  0.90277119217E+03 0.  0.
        -24    2    4    4    0    0  0.70525737580E+03  0.71982171141E+03 -0.55642941800E+03  0.11537722556E+04  0.77752545585E+02 0.  0.
         24    2    4    4    0    0 -0.23500090519E+03  0.45860051554E+03 -0.54073983815E+03  0.75111522008E+03  0.78959755461E+02 0.  0.
         13    1    3    3    0    0 -0.19999536291E+03 -0.40937704771E+03  0.18929329779E+03  0.49337578474E+03  0.00000000000E+00 0.  1.
        -13    1    3    3    0    0 -0.27026110770E+03 -0.76904517924E+03  0.30076947298E+03  0.86886928242E+03  0.00000000000E+00 0. -1.
          2    1    6    6  502    0 -0.20741101110E+03  0.37232792398E+03 -0.48076864751E+03  0.64248416551E+03  0.00000000000E+00 0. -1.
          3    1    5    5  503    0  0.42523306155E+03  0.42952828361E+03 -0.29005655962E+03  0.67041070311E+03  0.00000000000E+00 0. -1.
         -2    1    5    5    0  503  0.28002431424E+03  0.29029342780E+03 -0.26637285838E+03  0.48336155254E+03  0.00000000000E+00 0.  1.
         -1    1    6    6    0  502 -0.27589894089E+02  0.86272591567E+02 -0.59971190634E+02  0.10863105457E+03  0.00000000000E+00 0.  1.
<mgrwt>
<rscale>  0 0.32102300E+04</rscale>
<asrwt>0</asrwt>
<pdfrwt beam="1">  1        1 0.29801839E+00 0.32102300E+04</pdfrwt>
<pdfrwt beam="2">  1       -1 0.20461739E+00 0.32102300E+04</pdfrwt>
<totfact> 0.38449113E-01</totfact>
</mgrwt>
</event>
<event>
12    1  0.2214165E-007  0.1354059E+04  0.7818608E-02  0.8987761E-01
          2   -1    0    0  501    0  0.00000000000E+00  0.00000000000E+00  0.95453704410E+03  0.95453704410E+03  0.00000000000E+00 0. -1.
         -2   -1    0    0    0  501 -0.00000000000E+00 -0.00000000000E+00 -0.48020000986E+03  0.48020000986E+03  0.00000000000E+00 0.  1.
         23    2    1    2    0    0  0.96195011748E+02  0.24910039087E+03  0.40607917550E+03  0.49435882060E+03  0.90475752059E+02 0.  0.
        254    2    1    2    0    0 -0.96195011748E+02 -0.24910039087E+03  0.68257858739E+02  0.94037823337E+03  0.89908153217E+03 0.  0.
        -24    2    4    4    0    0  0.15386444994E+03  0.15818541065E+02 -0.34328884604E+03  0.38484051069E+03  0.79564386863E+02 0.  0.
         24    2    4    4    0    0 -0.25005946169E+03 -0.26491893194E+03  0.41154670478E+03  0.55553772268E+03  0.80868388266E+02 0.  0.
         13    1    3    3    0    0  0.92673750928E+01  0.56574029818E+02  0.34434490456E+02  0.66874802609E+02  0.00000000000E+00 0.  1.
        -13    1    3    3    0    0  0.86927636656E+02  0.19252636105E+03  0.37164468505E+03  0.42748401799E+03  0.00000000000E+00 0. -1.
          2    1    6    6  502    0 -0.65497858805E+02 -0.10768282003E+03  0.18398853616E+03  0.22301870028E+03  0.00000000000E+00 0. -1.
          1    1    5    5  503    0  0.21312446576E+01 -0.14475839397E+02 -0.63035326328E+02  0.64711239327E+02  0.00000000000E+00 0. -1.
         -2    1    5    5    0  503  0.15173320528E+03  0.30294380462E+02 -0.28025351971E+03  0.32012927136E+03  0.00000000000E+00 0.  1.
         -1    1    6    6    0  502 -0.18456160288E+03 -0.15723611191E+03  0.22755816862E+03  0.33251902239E+03  0.00000000000E+00 0.  1.
<mgrwt>
<rscale>  0 0.13540586E+04</rscale>
<asrwt>0</asrwt>
<pdfrwt beam="1">  1        2 0.14685185E+00 0.13540586E+04</pdfrwt>
<pdfrwt beam="2">  1       -2 0.73876925E-01 0.13540586E+04</pdfrwt>
<totfact> 0.43486033E+01</totfact>
</mgrwt>
</event>
<event>
12    1  0.2214165E-007  0.4033355E+04  0.7818608E-02  0.7997851E-01
         -1   -1    0    0    0  501 -0.00000000000E+00  0.00000000000E+00  0.10632354853E+04  0.10632354853E+04  0.00000000000E+00 0.  1.
          1   -1    0    0  501    0  0.00000000000E+00 -0.00000000000E+00 -0.38251048455E+04  0.38251048455E+04  0.00000000000E+00 0. -1.
         23    2    1    2    0    0  0.14151653345E+04 -0.10856204456E+04 -0.21584501721E+04  0.28015477193E+04  0.92183526444E+02 0.  0.
        254    2    1    2    0    0 -0.14151653345E+04  0.10856204456E+04 -0.60341918816E+03  0.20867926115E+04  0.89962437217E+03 0.  0.
        -24    2    4    4    0    0 -0.71471914385E+03  0.71315482443E+02 -0.42579432880E+03  0.83885713358E+03  0.80443318535E+02 0.  0.
         24    2    4    4    0    0 -0.70044619061E+03  0.10143049631E+04 -0.17762485936E+03  0.12479354779E+04  0.79705345973E+02 0.  0.
         13    1    3    3    0    0  0.32733193554E+03 -0.21317067482E+03 -0.43627285895E+03  0.58559537232E+03  0.00000000000E+00 0.  1.
        -13    1    3    3    0    0  0.10878333989E+04 -0.87244977076E+03 -0.17221773131E+04  0.22159523470E+04  0.00000000000E+00 0. -1.
          2    1    6    6  502    0 -0.18605050645E+03  0.24641705849E+03 -0.76948805968E+02  0.31820948510E+03  0.00000000000E+00 0. -1.
          3    1    5    5  503    0 -0.21097878156E+03  0.58138302767E+02 -0.13014296895E+03  0.25461598710E+03  0.00000000000E+00 0. -1.
         -4    1    5    5    0  503 -0.50374036229E+03  0.13177179676E+02 -0.29565135985E+03  0.58424114649E+03  0.00000000000E+00 0.  1.
         -1    1    6    6    0  502 -0.51439568416E+03  0.76788790464E+03 -0.10067605339E+03  0.92972599281E+03  0.00000000000E+00 0.  1.
<mgrwt>
<rscale>  0 0.40333545E+04</rscale>
<asrwt>0</asrwt>
<pdfrwt beam="1">  1        1 0.58847766E+00 0.40333545E+04</pdfrwt>
<pdfrwt beam="2">  1       -1 0.16357469E+00 0.40333545E+04</pdfrwt>
<totfact> 0.29026495E-02</totfact>
</mgrwt>
</event>
<event>
12    1  0.2214165E-007  0.1755841E+04  0.7818608E-02  0.8730142E-01
         -2   -1    0    0    0  501 -0.00000000000E+00  0.00000000000E+00  0.24964103671E+03  0.24964103671E+03  0.00000000000E+00 0. -1.
          2   -1    0    0  501    0  0.00000000000E+00 -0.00000000000E+00 -0.30874113265E+04  0.30874113265E+04  0.00000000000E+00 0.  1.
         23    2    1    2    0    0 -0.55095522501E+03  0.33332121521E+03 -0.10291686459E+04  0.12174726020E+04  0.91633741052E+02 0.  0.
        254    2    1    2    0    0  0.55095522501E+03 -0.33332121521E+03 -0.18086016439E+04  0.21195797612E+04  0.89828935497E+03 0.  0.
        -24    2    4    4    0    0  0.22187600447E+03 -0.14251577583E+02  0.15946903857E+02  0.23663362809E+03  0.79429851942E+02 0.  0.
         24    2    4    4    0    0  0.32907922055E+03 -0.31906963762E+03 -0.18245485478E+04  0.18829461331E+04  0.80063537174E+02 0.  0.
         11    1    3    3    0    0 -0.32019158031E+03  0.19795129111E+03 -0.51561166341E+03  0.63840641381E+03  0.00000000000E+00 0. -1.
        -11    1    3    3    0    0 -0.23076364470E+03  0.13536992410E+03 -0.51355698244E+03  0.57906618817E+03  0.00000000000E+00 0.  1.
          2    1    6    6  502    0  0.30992555043E+03 -0.26589416495E+03 -0.16279365574E+04  0.16783715288E+04  0.00000000000E+00 0. -1.
          1    1    5    5  503    0  0.22510899102E+03 -0.12989354045E+02  0.54191525418E+01  0.22554854992E+03  0.00000000000E+00 0. -1.
         -2    1    5    5    0  503 -0.32329865538E+01 -0.12622235388E+01  0.10527751315E+02  0.11085078172E+02  0.00000000000E+00 0.  1.
         -1    1    6    6    0  502  0.19153670120E+02 -0.53175472668E+02 -0.19661199033E+03  0.20457460428E+03  0.00000000000E+00 0.  1.
<mgrwt>
<rscale>  0 0.17558412E+04</rscale>
<asrwt>0</asrwt>
<pdfrwt beam="1">  1        2 0.47498640E+00 0.17558412E+04</pdfrwt>
<pdfrwt beam="2">  1       -2 0.38406310E-01 0.17558412E+04</pdfrwt>
<totfact> 0.93457018E+00</totfact>
</mgrwt>
</event>
<event>
12    1  0.2214165E-007  0.3188172E+04  0.7818608E-02  0.8191948E-01
          1   -1    0    0  501    0  0.00000000000E+00  0.00000000000E+00  0.11820326295E+04  0.11820326295E+04  0.00000000000E+00 0. -1.
         -1   -1    0    0    0  501 -0.00000000000E+00 -0.00000000000E+00 -0.21497795903E+04  0.21497795903E+04  0.00000000000E+00 0.  1.
         23    2    1    2    0    0 -0.15549736758E+03  0.14283489700E+04 -0.14256735784E+03  0.14467567923E+04  0.91758123370E+02 0.  0.
        254    2    1    2    0    0  0.15549736758E+03 -0.14283489700E+04 -0.82517960288E+03  0.18850554275E+04  0.89897295630E+03 0.  0.
        -24    2    4    4    0    0 -0.28279966998E+02 -0.10055337696E+01 -0.36269467241E+03  0.37130513339E+03  0.74292052428E+02 0.  0.
         24    2    4    4    0    0  0.18377733458E+03 -0.14273434362E+04 -0.46248493047E+03  0.15137502941E+04  0.80400548660E+02 0.  0.
         11    1    3    3    0    0 -0.64415142546E+02  0.63005666687E+03 -0.17287155262E+02  0.63357679866E+03  0.00000000000E+00 0. -1.
        -11    1    3    3    0    0 -0.91082225032E+02  0.79829230314E+03 -0.12528020258E+03  0.81317999368E+03  0.00000000000E+00 0.  1.
          4    1    6    6  502    0  0.73213701063E+02 -0.87151341506E+03 -0.28776065967E+03  0.92070737800E+03  0.00000000000E+00 0. -1.
          3    1    5    5  503    0 -0.34461769216E+02 -0.30307653488E+02 -0.27059015341E+03  0.27445436510E+03  0.00000000000E+00 0. -1.
         -4    1    5    5    0  503  0.61818022179E+01  0.29302119718E+02 -0.92104519000E+02  0.96850768293E+02  0.00000000000E+00 0.  1.
         -3    1    6    6    0  502  0.11056363351E+03 -0.55583002118E+03 -0.17472427080E+03  0.59304291607E+03  0.00000000000E+00 0.  1.
<mgrwt>
<rscale>  0 0.31881717E+04</rscale>
<asrwt>0</asrwt>
<pdfrwt beam="1">  1        1 0.18185117E+00 0.31881717E+04</pdfrwt>
<pdfrwt beam="2">  1       -1 0.33073532E+00 0.31881717E+04</pdfrwt>
<totfact> 0.19200289E-01</totfact>
</mgrwt>
</event>
<event>
12    1  0.2214165E-007  0.1451143E+04  0.7818608E-02  0.8917609E-01
          1   -1    0    0  501    0  0.00000000000E+00  0.00000000000E+00  0.16032647598E+04  0.16032647598E+04  0.00000000000E+00 0. -1.
         -1   -1    0    0    0  501 -0.00000000000E+00 -0.00000000000E+00 -0.32836367660E+03  0.32836367660E+03  0.00000000000E+00 0.  1.
         23    2    1    2    0    0 -0.15725174777E+03 -0.59762797765E+02 -0.14566499438E+03  0.24341396888E+03  0.98652752042E+02 0.  0.
        254    2    1    2    0    0  0.15725174777E+03  0.59762797765E+02  0.14205660776E+04  0.16882144676E+04  0.89652685593E+03 0.  0.
        -24    2    4    4    0    0 -0.14293885181E+03 -0.11857508041E+03 -0.20797338463E+02  0.20298185083E+03  0.79230912087E+02 0.  0.
         24    2    4    4    0    0  0.30019059958E+03  0.17833787817E+03  0.14413634161E+04  0.14852326167E+04  0.80427816598E+02 0.  0.
         13    1    3    3    0    0 -0.85529731259E+02 -0.40856301390E+02 -0.19063763535E+02  0.96685052477E+02  0.00000000000E+00 0. -1.
        -13    1    3    3    0    0 -0.71722016510E+02 -0.18906496375E+02 -0.12660123084E+03  0.14672891640E+03  0.00000000000E+00 0.  1.
          2    1    6    6  502    0  0.22862461407E+01 -0.56939963441E+01  0.10646398269E+02  0.12287974279E+02  0.00000000000E+00 0. -1.
          1    1    5    5  503    0 -0.26857952737E+02 -0.21578962422E+02 -0.37342828946E+02  0.50808346934E+02  0.00000000000E+00 0. -1.
         -2    1    5    5    0  503 -0.11608089907E+03 -0.96996117986E+02  0.16545490483E+02  0.15217350390E+03  0.00000000000E+00 0.  1.
         -1    1    6    6    0  502  0.29790435344E+03  0.18403187452E+03  0.14307170178E+04  0.14729446424E+04  0.00000000000E+00 0.  1.
<mgrwt>
<rscale>  0 0.14511429E+04</rscale>
<asrwt>0</asrwt>
<pdfrwt beam="1">  1        1 0.24665611E+00 0.14511429E+04</pdfrwt>
<pdfrwt beam="2">  1       -1 0.50517490E-01 0.14511429E+04</pdfrwt>
<totfact> 0.21218283E+01</totfact>
</mgrwt>
</event>
<event>
12    1  0.2214165E-007  0.2199753E+04  0.7818608E-02  0.8518531E-01
         -1   -1    0    0    0  501 -0.00000000000E+00  0.00000000000E+00  0.37673951888E+03  0.37673951888E+03  0.00000000000E+00 0.  1.
          1   -1    0    0  501    0  0.00000000000E+00 -0.00000000000E+00 -0.32110479451E+04  0.32110479451E+04  0.00000000000E+00 0. -1.
         23    2    1    2    0    0  0.77418388925E+03 -0.79391274821E+02 -0.40482812446E+03  0.88193913187E+03  0.90923886195E+02 0.  0.
        254    2    1    2    0    0 -0.77418388925E+03  0.79391274821E+02 -0.24294803018E+04  0.27058483321E+04  0.90198502809E+03 0.  0.
        -24    2    4    4    0    0 -0.87939515389E+03 -0.14196554041E+02 -0.23792539101E+04  0.25378608184E+04  0.79693073311E+02 0.  0.
         24    2    4    4    0    0  0.10521126464E+03  0.93587828862E+02 -0.50226391660E+02  0.16798751373E+03  0.76609545313E+02 0.  0.
         13    1    3    3    0    0  0.51439344791E+03 -0.25208441465E+02 -0.22922353219E+03  0.56371935614E+03  0.00000000000E+00 0.  1.
        -13    1    3    3    0    0  0.25979044134E+03 -0.54182833356E+02 -0.17560459227E+03  0.31821977574E+03  0.00000000000E+00 0. -1.
          4    1    6    6  502    0  0.58508578323E+02  0.33981191482E+02 -0.61493732362E+02  0.91430051032E+02  0.00000000000E+00 0. -1.
          3    1    5    5  503    0 -0.15746224444E+03  0.11024868802E+02 -0.35274939664E+03  0.38645574519E+03  0.00000000000E+00 0. -1.
         -4    1    5    5    0  503 -0.72193290945E+03 -0.25221422843E+02 -0.20265045135E+04  0.21514050732E+04  0.00000000000E+00 0.  1.
         -3    1    6    6    0  502  0.46702686315E+02  0.59606637379E+02  0.11267340701E+02  0.76557462701E+02  0.00000000000E+00 0.  1.
<mgrwt>
<rscale>  0 0.21997533E+04</rscale>
<asrwt>0</asrwt>
<pdfrwt beam="1">  1        1 0.49400737E+00 0.21997533E+04</pdfrwt>
<pdfrwt beam="2">  1       -1 0.57959927E-01 0.21997533E+04</pdfrwt>
<totfact> 0.11484118E+00</totfact>
</mgrwt>
</event>
<event>
12    1  0.2424270E-007  0.2475061E+04  0.7818608E-02  0.8411924E-01
         -2   -1    0    0    0  501 -0.00000000000E+00  0.00000000000E+00  0.62848449262E+03  0.62848449262E+03  0.00000000000E+00 0.  1.
          2   -1    0    0  501    0  0.00000000000E+00 -0.00000000000E+00 -0.24367854732E+04  0.24367854732E+04  0.00000000000E+00 0. -1.
         23    2    1    2    0    0  0.36029874622E+03  0.85843313031E+03 -0.12824192101E+03  0.94421710491E+03  0.91527728864E+02 0.  0.
        254    2    1    2    0    0 -0.36029874622E+03 -0.85843313031E+03 -0.16800590596E+04  0.21210528609E+04  0.89974672515E+03 0.  0.
        -24    2    4    4    0    0 -0.29251694164E+03 -0.83827364770E+03 -0.69502876533E+03  0.11303236840E+04  0.79358530586E+02 0.  0.
         24    2    4    4    0    0 -0.67781804574E+02 -0.20159482613E+02 -0.98503029424E+03  0.99072917693E+03  0.79112854031E+02 0.  0.
         13    1    3    3    0    0  0.21745245154E+03  0.60781524297E+03 -0.64218543541E+02  0.64872872574E+03  0.00000000000E+00 0. -1.
        -13    1    3    3    0    0  0.14284629468E+03  0.25061788734E+03 -0.64023377472E+02  0.29548837917E+03  0.00000000000E+00 0.  1.
          2    1    6    6  502    0 -0.39151879580E+02  0.10420393551E+02 -0.17550164480E+03  0.18011741061E+03  0.00000000000E+00 0. -1.
          3    1    5    5  503    0 -0.19273453529E+02 -0.14132515244E+03 -0.11899825758E+03  0.18575481159E+03  0.00000000000E+00 0. -1.
         -4    1    5    5    0  503 -0.27324348811E+03 -0.69694849526E+03 -0.57603050775E+03  0.94456887240E+03  0.00000000000E+00 0.  1.
         -1    1    6    6    0  502 -0.28629924995E+02 -0.30579876164E+02 -0.80952864944E+03  0.81061176632E+03  0.00000000000E+00 0.  1.
<mgrwt>
<rscale>  0 0.24750611E+04</rscale>
<asrwt>0</asrwt>
<pdfrwt beam="1">  1        2 0.37489007E+00 0.24750611E+04</pdfrwt>
<pdfrwt beam="2">  1       -2 0.96689922E-01 0.24750611E+04</pdfrwt>
<totfact> 0.30258444E+00</totfact>
</mgrwt>
</event>
<event>
12    1  0.2214165E-007  0.2247874E+04  0.7818608E-02  0.8498762E-01
         -1   -1    0    0    0  501 -0.00000000000E+00  0.00000000000E+00  0.71183114378E+03  0.71183114378E+03  0.00000000000E+00 0.  1.
          1   -1    0    0  501    0  0.00000000000E+00 -0.00000000000E+00 -0.17746269769E+04  0.17746269769E+04  0.00000000000E+00 0. -1.
         23    2    1    2    0    0 -0.56587756357E+03 -0.74710133975E+03 -0.33550561046E+03  0.99973784871E+03  0.92379232919E+02 0.  0.
        254    2    1    2    0    0  0.56587756357E+03  0.74710133975E+03 -0.72729022262E+03  0.14867202719E+04  0.89610728725E+03 0.  0.
        -24    2    4    4    0    0 -0.46652732450E+02  0.65280109758E+03 -0.47614651082E+03  0.81326769726E+03  0.79769024006E+02 0.  0.
         24    2    4    4    0    0  0.61253029602E+03  0.94300242168E+02 -0.25114371181E+03  0.67345257468E+03  0.79870564979E+02 0.  0.
         13    1    3    3    0    0 -0.29790125738E+03 -0.40952149468E+03 -0.22887942021E+03  0.55573267202E+03  0.00000000000E+00 0. -1.
        -13    1    3    3    0    0 -0.26797630619E+03 -0.33757984507E+03 -0.10662619025E+03  0.44400517669E+03  0.00000000000E+00 0.  1.
          4    1    6    6  502    0  0.34094078807E+03  0.13886103751E+02 -0.12515438839E+03  0.36345160032E+03  0.00000000000E+00 0. -1.
          3    1    5    5  503    0 -0.23869063329E+02  0.60737343388E+03 -0.42938454921E+03  0.74420649787E+03  0.00000000000E+00 0. -1.
         -4    1    5    5    0  503 -0.22783669122E+02  0.45427663705E+02 -0.46761961605E+02  0.69061199393E+02  0.00000000000E+00 0.  1.
         -3    1    6    6    0  502  0.27158950796E+03  0.80414138417E+02 -0.12598932342E+03  0.31000097436E+03  0.00000000000E+00 0.  1.
<mgrwt>
<rscale>  0 0.22478743E+04</rscale>
<asrwt>0</asrwt>
<pdfrwt beam="1">  1        1 0.27301953E+00 0.22478743E+04</pdfrwt>
<pdfrwt beam="2">  1       -1 0.10951248E+00 0.22478743E+04</pdfrwt>
<totfact> 0.29681653E+00</totfact>
</mgrwt>
</event>
<event>
12    1  0.2214165E-007  0.1860717E+04  0.7818608E-02  0.8674661E-01
          2   -1    0    0  501    0  0.00000000000E+00  0.00000000000E+00  0.32713313996E+04  0.32713313996E+04  0.00000000000E+00 0. -1.
         -2   -1    0    0    0  501 -0.00000000000E+00 -0.00000000000E+00 -0.26459150397E+03  0.26459150397E+03  0.00000000000E+00 0.  1.
         23    2    1    2    0    0 -0.45582222947E+03 -0.21648932928E+03  0.20872710184E+03  0.55329463776E+03  0.89030436152E+02 0.  0.
        254    2    1    2    0    0  0.45582222947E+03  0.21648932928E+03  0.27980127938E+04  0.29826282658E+04  0.90141790708E+03 0.  0.
        -24    2    4    4    0    0 -0.15009873200E+03  0.10313484545E+03  0.17700310783E+04  0.17812104003E+04  0.80833449061E+02 0.  0.
         24    2    4    4    0    0  0.60592096147E+03  0.11335448382E+03  0.10279817155E+04  0.12014178655E+04  0.81664126237E+02 0.  0.
         11    1    3    3    0    0 -0.29021655792E+03 -0.18046768987E+03  0.15707190825E+03  0.37611942510E+03  0.00000000000E+00 0. -1.
        -11    1    3    3    0    0 -0.16560567155E+03 -0.36021639405E+02  0.51655193591E+02  0.17717521266E+03  0.00000000000E+00 0.  1.
          4    1    6    6  502    0  0.87865299378E+02 -0.27694815957E+01  0.10822459238E+03  0.13942934863E+03  0.00000000000E+00 0. -1.
          1    1    5    5  503    0 -0.32834934297E+02 -0.10957263366E+02  0.24621039823E+03  0.24863176532E+03  0.00000000000E+00 0. -1.
         -2    1    5    5    0  503 -0.11726379770E+03  0.11409210882E+03  0.15238206800E+04  0.15325786350E+04  0.00000000000E+00 0.  1.
         -3    1    6    6    0  502  0.51805566209E+03  0.11612396542E+03  0.91975712317E+03  0.10619885169E+04  0.00000000000E+00 0.  1.
<mgrwt>
<rscale>  0 0.18607165E+04</rscale>
<asrwt>0</asrwt>
<pdfrwt beam="1">  1        2 0.50328173E+00 0.18607165E+04</pdfrwt>
<pdfrwt beam="2">  1       -2 0.40706388E-01 0.18607165E+04</pdfrwt>
<totfact> 0.62817672E+00</totfact>
</mgrwt>
</event>
<event>
12    1  0.2214165E-007  0.1665712E+04  0.7818608E-02  0.8781165E-01
          1   -1    0    0  501    0  0.00000000000E+00  0.00000000000E+00  0.79817661122E+03  0.79817661122E+03  0.00000000000E+00 0. -1.
         -1   -1    0    0    0  501 -0.00000000000E+00 -0.00000000000E+00 -0.86904266677E+03  0.86904266677E+03  0.00000000000E+00 0.  1.
         23    2    1    2    0    0 -0.51086324431E+03 -0.17755694946E+03 -0.24938823633E+03  0.60243843309E+03  0.90718512722E+02 0.  0.
        254    2    1    2    0    0  0.51086324431E+03  0.17755694946E+03  0.17852218079E+03  0.10647808449E+04  0.89965568633E+03 0.  0.
        -24    2    4    4    0    0 -0.23133251759E+03  0.11791381980E+03 -0.61718765966E+02  0.27827800568E+03  0.78810150226E+02 0.  0.
         24    2    4    4    0    0  0.74219576190E+03  0.59643129662E+02  0.24024094675E+03  0.78650283922E+03  0.80368847892E+02 0.  0.
         13    1    3    3    0    0 -0.42048422347E+03 -0.16135860798E+03 -0.17114310281E+03  0.48180239124E+03  0.00000000000E+00 0. -1.
        -13    1    3    3    0    0 -0.90379020836E+02 -0.16198341480E+02 -0.78245133520E+02  0.12063604185E+03  0.00000000000E+00 0.  1.
          2    1    6    6  502    0  0.12146743990E+03  0.29579050241E+02  0.64504041845E+02  0.14067704356E+03  0.00000000000E+00 0. -1.
          1    1    5    5  503    0 -0.47023021996E+02  0.60640988194E+01 -0.39187259585E+02  0.61510805603E+02  0.00000000000E+00 0. -1.
         -2    1    5    5    0  503 -0.18430949559E+03  0.11184972098E+03 -0.22531506381E+02  0.21676720008E+03  0.00000000000E+00 0.  1.
         -1    1    6    6    0  502  0.62072832199E+03  0.30064079420E+02  0.17573690491E+03  0.64582579566E+03  0.00000000000E+00 0.  1.
<mgrwt>
<rscale>  0 0.16657125E+04</rscale>
<asrwt>0</asrwt>
<pdfrwt beam="1">  1        1 0.12279640E+00 0.16657125E+04</pdfrwt>
<pdfrwt beam="2">  1       -1 0.13369887E+00 0.16657125E+04</pdfrwt>
<totfact> 0.10002163E+01</totfact>
</mgrwt>
</event>
<event>
12    1  0.2214165E-007  0.3662905E+04  0.7818608E-02  0.8076233E-01
          2   -1    0    0  501    0  0.00000000000E+00  0.00000000000E+00  0.11127645110E+04  0.11127645110E+04  0.00000000000E+00 0. -1.
         -2   -1    0    0    0  501 -0.00000000000E+00 -0.00000000000E+00 -0.30143114526E+04  0.30143114526E+04  0.00000000000E+00 0.  1.
         23    2    1    2    0    0  0.15409412083E+04  0.53848192839E+03 -0.28570926260E+03  0.16597268849E+04  0.92741334154E+02 0.  0.
        254    2    1    2    0    0 -0.15409412083E+04 -0.53848192839E+03 -0.16158376790E+04  0.24673490787E+04  0.90134204207E+03 0.  0.
        -24    2    4    4    0    0 -0.11289864541E+04 -0.35627181124E+03 -0.55082866413E+03  0.13081370701E+04  0.79185604412E+02 0.  0.
         24    2    4    4    0    0 -0.41195475420E+03 -0.18221011714E+03 -0.10650090148E+04  0.11592120086E+04  0.81369729709E+02 0.  0.
         11    1    3    3    0    0  0.12415614917E+04  0.43523774607E+03 -0.26724000815E+03  0.13425066314E+04  0.00000000000E+00 0.  1.
        -11    1    3    3    0    0  0.29937971657E+03  0.10324418232E+03 -0.18469254445E+02  0.31722025351E+03  0.00000000000E+00 0. -1.
          2    1    6    6  502    0 -0.15389886585E+03 -0.26622948172E+02 -0.38105379701E+03  0.41181991027E+03  0.00000000000E+00 0. -1.
          3    1    5    5  503    0 -0.10939073252E+03 -0.51502071934E+02 -0.37235763904E+02  0.12651204642E+03  0.00000000000E+00 0. -1.
         -4    1    5    5    0  503 -0.10195957216E+04 -0.30476973931E+03 -0.51359290023E+03  0.11816250237E+04  0.00000000000E+00 0.  1.
         -1    1    6    6    0  502 -0.25805588835E+03 -0.15558716897E+03 -0.68395521783E+03  0.74739209834E+03  0.00000000000E+00 0.  1.
<mgrwt>
<rscale>  0 0.36629053E+04</rscale>
<asrwt>0</asrwt>
<pdfrwt beam="1">  1        2 0.17119454E+00 0.36629053E+04</pdfrwt>
<pdfrwt beam="2">  1       -2 0.46374022E+00 0.36629053E+04</pdfrwt>
<totfact> 0.48846239E-02</totfact>
</mgrwt>
</event>
<event>
12    1  0.2214165E-007  0.1869224E+04  0.7818608E-02  0.8670329E-01
          2   -1    0    0  501    0  0.00000000000E+00  0.00000000000E+00  0.19720675444E+04  0.19720675444E+04  0.00000000000E+00 0.  1.
         -2   -1    0    0    0  501 -0.00000000000E+00 -0.00000000000E+00 -0.44293588033E+03  0.44293588033E+03  0.00000000000E+00 0. -1.
         23    2    1    2    0    0  0.45635077267E+03 -0.55272276185E+03  0.52840865518E+03  0.89517116790E+03  0.91417907293E+02 0.  0.
        254    2    1    2    0    0 -0.45635077267E+03  0.55272276185E+03  0.10007230089E+04  0.15198322568E+04  0.89145110308E+03 0.  0.
        -24    2    4    4    0    0 -0.29150820557E+03  0.38728761829E+02  0.91910907347E+03  0.96824168947E+03  0.79079260169E+02 0.  0.
         24    2    4    4    0    0 -0.16484256710E+03  0.51399400002E+03  0.81613935416E+02  0.55159056735E+03  0.78920311393E+02 0.  0.
         13    1    3    3    0    0  0.19068768750E+03 -0.17880074920E+03  0.15663775357E+03  0.30474068964E+03  0.00000000000E+00 0. -1.
        -13    1    3    3    0    0  0.26566308517E+03 -0.37392201265E+03  0.37177090161E+03  0.59043047826E+03  0.00000000000E+00 0.  1.
          4    1    6    6  502    0 -0.13394589952E+02  0.15313721104E+03  0.33108856125E+02  0.15724699297E+03  0.00000000000E+00 0. -1.
          1    1    5    5  503    0 -0.17462799398E+03  0.43716172786E+02  0.44776495408E+03  0.48259661639E+03  0.00000000000E+00 0. -1.
         -2    1    5    5    0  503 -0.11688021159E+03 -0.49874109578E+01  0.47134411938E+03  0.48564507308E+03  0.00000000000E+00 0.  1.
         -3    1    6    6    0  502 -0.15144797715E+03  0.36085678898E+03  0.48505079292E+02  0.39434357438E+03  0.00000000000E+00 0.  1.
<mgrwt>
<rscale>  0 0.18692239E+04</rscale>
<asrwt>0</asrwt>
<pdfrwt beam="1">  1        2 0.30339500E+00 0.18692239E+04</pdfrwt>
<pdfrwt beam="2">  1       -2 0.68143982E-01 0.18692239E+04</pdfrwt>
<totfact> 0.12813789E+01</totfact>
</mgrwt>
</event>
<event>
12    1  0.2214165E-007  0.1244949E+04  0.7818608E-02  0.9074397E-01
         -1   -1    0    0    0  501 -0.00000000000E+00  0.00000000000E+00  0.33278581256E+03  0.33278581256E+03  0.00000000000E+00 0.  1.
          1   -1    0    0  501    0  0.00000000000E+00 -0.00000000000E+00 -0.11643365053E+04  0.11643365053E+04  0.00000000000E+00 0. -1.
         23    2    1    2    0    0 -0.13908810016E+03  0.10502973142E+03  0.71176102440E+02  0.20922122801E+03  0.91272890835E+02 0.  0.
        254    2    1    2    0    0  0.13908810016E+03 -0.10502973142E+03 -0.90272679517E+03  0.12879010898E+04  0.90188514037E+03 0.  0.
        -24    2    4    4    0    0 -0.14784239493E+03 -0.40689293494E+03 -0.23711434970E+03  0.49884525002E+03  0.72139686632E+02 0.  0.
         24    2    4    4    0    0  0.28693049509E+03  0.30186320352E+03 -0.66561244547E+03  0.78905583983E+03  0.78222043941E+02 0.  0.
         13    1    3    3    0    0 -0.23258319206E+02  0.20554839294E+02 -0.22173630952E+02  0.38146044884E+02  0.00000000000E+00 0. -1.
        -13    1    3    3    0    0 -0.11582978095E+03  0.84474892127E+02  0.93349733393E+02  0.17107518312E+03  0.00000000000E+00 0.  1.
          4    1    6    6  502    0  0.64875076057E+02  0.77888732948E+02 -0.10587858481E+03  0.14658002911E+03  0.00000000000E+00 0. -1.
          3    1    5    5  503    0 -0.14104429902E+02 -0.13422847445E+02 -0.26672141707E+02  0.33022884787E+02  0.00000000000E+00 0. -1.
         -4    1    5    5    0  503 -0.13373796503E+03 -0.39347008749E+03 -0.21044220800E+03  0.46582236523E+03  0.00000000000E+00 0.  1.
         -3    1    6    6    0  502  0.22205541903E+03  0.22397447057E+03 -0.55973386066E+03  0.64247581071E+03  0.00000000000E+00 0.  1.
<mgrwt>
<rscale>  0 0.12449493E+04</rscale>
<asrwt>0</asrwt>
<pdfrwt beam="1">  1        1 0.17912869E+00 0.12449493E+04</pdfrwt>
<pdfrwt beam="2">  1       -1 0.51197817E-01 0.12449493E+04</pdfrwt>
<totfact> 0.42949961E+01</totfact>
</mgrwt>
</event>
<event>
12    1  0.2214165E-007  0.2041650E+04  0.7818608E-02  0.8587392E-01
          1   -1    0    0  501    0  0.00000000000E+00  0.00000000000E+00  0.71308557654E+03  0.71308557654E+03  0.00000000000E+00 0. -1.
         -1   -1    0    0    0  501 -0.00000000000E+00 -0.00000000000E+00 -0.14613723953E+04  0.14613723953E+04  0.00000000000E+00 0.  1.
         23    2    1    2    0    0  0.50735316892E+03 -0.60841100134E+03 -0.53159994989E+03  0.95682596411E+03  0.73117947994E+02 0.  0.
        254    2    1    2    0    0 -0.50735316892E+03  0.60841100134E+03 -0.21668686887E+03  0.12176320077E+04  0.89894567275E+03 0.  0.
        -24    2    4    4    0    0 -0.25994364173E+03  0.47792530266E+03 -0.54843969764E+03  0.77668435677E+03  0.80431314184E+02 0.  0.
         24    2    4    4    0    0 -0.24740952719E+03  0.13048569867E+03  0.33175282877E+03  0.44094765096E+03  0.78338367297E+02 0.  0.
         13    1    3    3    0    0  0.35967623130E+03 -0.38463383871E+03 -0.37292313112E+03  0.64527656316E+03  0.00000000000E+00 0.  1.
        -13    1    3    3    0    0  0.14767693762E+03 -0.22377716263E+03 -0.15867681877E+03  0.31154940096E+03  0.00000000000E+00 0. -1.
          4    1    6    6  502    0 -0.31515009995E+02 -0.46507610524E+01  0.17190380017E+02  0.36198544149E+02  0.00000000000E+00 0. -1.
          3    1    5    5  503    0 -0.96138530364E+02  0.19348344324E+03 -0.16441648997E+03  0.27149814364E+03  0.00000000000E+00 0. -1.
         -4    1    5    5    0  503 -0.16380511137E+03  0.28444185943E+03 -0.38402320767E+03  0.50518621313E+03  0.00000000000E+00 0.  1.
         -3    1    6    6    0  502 -0.21589451719E+03  0.13513645972E+03  0.31456244875E+03  0.40474910681E+03  0.00000000000E+00 0.  1.
<mgrwt>
<rscale>  0 0.20416499E+04</rscale>
<asrwt>0</asrwt>
<pdfrwt beam="1">  1        1 0.10970547E+00 0.20416499E+04</pdfrwt>
<pdfrwt beam="2">  1       -1 0.22482652E+00 0.20416499E+04</pdfrwt>
<totfact> 0.25007970E+00</totfact>
</mgrwt>
</event>
<event>
12    1  0.2214165E-007  0.1233710E+04  0.7818608E-02  0.9083852E-01
         -1   -1    0    0    0  501 -0.00000000000E+00  0.00000000000E+00  0.43633276400E+03  0.43633276400E+03  0.00000000000E+00 0.  1.
          1   -1    0    0  501    0  0.00000000000E+00 -0.00000000000E+00 -0.87206352723E+03  0.87206352723E+03  0.00000000000E+00 0. -1.
         23    2    1    2    0    0 -0.17563849337E+03 -0.48426497705E+02 -0.32972632164E+03  0.38727252635E+03  0.89814010314E+02 0.  0.
        254    2    1    2    0    0  0.17563849337E+03  0.48426497705E+02 -0.10600444159E+03  0.92112376488E+03  0.89668168408E+03 0.  0.
        -24    2    4    4    0    0 -0.30490330370E+03  0.13272614992E+03  0.13948703194E+03  0.36887427950E+03  0.77648866802E+02 0.  0.
         24    2    4    4    0    0  0.48054179707E+03 -0.84299652214E+02 -0.24549147353E+03  0.55224948539E+03  0.81771513622E+02 0.  0.
         13    1    3    3    0    0 -0.85756171104E+02  0.58116450169E+01 -0.21614070161E+03  0.23260416805E+03  0.00000000000E+00 0. -1.
        -13    1    3    3    0    0 -0.89882322268E+02 -0.54238142722E+02 -0.11358562003E+03  0.15466835830E+03  0.00000000000E+00 0.  1.
          2    1    6    6  502    0  0.19248196343E+03  0.40899516540E+01 -0.80069546156E+02  0.20851178905E+03  0.00000000000E+00 0. -1.
          3    1    5    5  503    0  0.11996005431E+01 -0.35330607688E+01 -0.29877971131E+01  0.47800095656E+01  0.00000000000E+00 0. -1.
         -4    1    5    5    0  503 -0.30610290424E+03  0.13625921069E+03  0.14247482905E+03  0.36409426993E+03  0.00000000000E+00 0.  1.
         -1    1    6    6    0  502  0.28805983364E+03 -0.88389603868E+02 -0.16542192737E+03  0.34373769634E+03  0.00000000000E+00 0.  1.
<mgrwt>
<rscale>  0 0.12337097E+04</rscale>
<asrwt>0</asrwt>
<pdfrwt beam="1">  1        1 0.13416362E+00 0.12337097E+04</pdfrwt>
<pdfrwt beam="2">  1       -1 0.67128118E-01 0.12337097E+04</pdfrwt>
<totfact> 0.42603732E+01</totfact>
</mgrwt>
</event>
<event>
12    1  0.2214165E-007  0.2731180E+04  0.7818608E-02  0.8324958E-01
          2   -1    0    0  501    0  0.00000000000E+00  0.00000000000E+00  0.13735795785E+04  0.13735795785E+04  0.00000000000E+00 0. -1.
         -2   -1    0    0    0  501 -0.00000000000E+00 -0.00000000000E+00 -0.13576470513E+04  0.13576470513E+04  0.00000000000E+00 0.  1.
         23    2    1    2    0    0  0.91032550546E+03  0.79868475079E+03  0.10607761598E+03  0.12191238756E+04  0.91764407590E+02 0.  0.
        254    2    1    2    0    0 -0.91032550546E+03 -0.79868475079E+03 -0.90145088748E+02  0.15121027542E+04  0.90096545167E+03 0.  0.
        -24    2    4    4    0    0 -0.41855042317E+03 -0.67573301256E+03 -0.41959876681E+03  0.90225214953E+03  0.78716295785E+02 0.  0.
         24    2    4    4    0    0 -0.49177508229E+03 -0.12295173823E+03  0.32945367806E+03  0.60985060464E+03  0.80113497593E+02 0.  0.
         11    1    3    3    0    0  0.70958207647E+03  0.64495723495E+03  0.11723749542E+03  0.96603374087E+03  0.00000000000E+00 0. -1.
        -11    1    3    3    0    0  0.20074342899E+03  0.15372751584E+03 -0.11159879431E+02  0.25309013477E+03  0.00000000000E+00 0.  1.
          2    1    6    6  502    0 -0.11410960524E+03 -0.17003280900E+02  0.39036169126E+02  0.12179464712E+03  0.00000000000E+00 0. -1.
          3    1    5    5  503    0 -0.74268607983E+01 -0.40257910516E+02 -0.31674170220E+02  0.51760126348E+02  0.00000000000E+00 0. -1.
         -4    1    5    5    0  503 -0.41112356238E+03 -0.63547510205E+03 -0.38792459659E+03  0.85049202318E+03  0.00000000000E+00 0.  1.
         -1    1    6    6    0  502 -0.37766547706E+03 -0.10594845733E+03  0.29041750893E+03  0.48805595751E+03  0.00000000000E+00 0.  1.
<mgrwt>
<rscale>  0 0.27311802E+04</rscale>
<asrwt>0</asrwt>
<pdfrwt beam="1">  1        2 0.21131994E+00 0.27311802E+04</pdfrwt>
<pdfrwt beam="2">  1       -2 0.20886878E+00 0.27311802E+04</pdfrwt>
<totfact> 0.15270648E+00</totfact>
</mgrwt>
</event>
<event>
12    1  0.2214165E-007  0.1852953E+04  0.7818608E-02  0.8678636E-01
          4   -1    0    0  501    0  0.00000000000E+00  0.00000000000E+00  0.11862466629E+04  0.11862466629E+04  0.00000000000E+00 0. -1.
         -4   -1    0    0    0  501 -0.00000000000E+00 -0.00000000000E+00 -0.72359196374E+03  0.72359196374E+03  0.00000000000E+00 0.  1.
         23    2    1    2    0    0  0.64068074142E+03 -0.23203952345E+03  0.34359052002E+03  0.76873014037E+03  0.92614417918E+02 0.  0.
        254    2    1    2    0    0 -0.64068074142E+03  0.23203952345E+03  0.11906417915E+03  0.11411084863E+04  0.90754512055E+03 0.  0.
        -24    2    4    4    0    0 -0.46243679053E+03 -0.15334822296E+03 -0.26718411171E+03  0.56152849490E+03  0.81015049909E+02 0.  0.
         24    2    4    4    0    0 -0.17824395088E+03  0.38538774642E+03  0.38624829086E+03  0.57957999138E+03  0.80191041242E+02 0.  0.
         13    1    3    3    0    0  0.50352401712E+02 -0.32342215544E+02  0.57560183234E+02  0.83033474927E+02  0.00000000000E+00 0. -1.
        -13    1    3    3    0    0  0.59032833971E+03 -0.19969730791E+03  0.28603033678E+03  0.68569666545E+03  0.00000000000E+00 0.  1.
          4    1    6    6  502    0 -0.18538916389E+03  0.38104283529E+03  0.37834392101E+03  0.56807297681E+03  0.00000000000E+00 0. -1.
          1    1    5    5  503    0 -0.45407399805E+03 -0.14887094673E+03 -0.27305982109E+03  0.55037025754E+03  0.00000000000E+00 0. -1.
         -2    1    5    5    0  503 -0.83627924799E+01 -0.44772762346E+01  0.58757093721E+01  0.11158237368E+02  0.00000000000E+00 0.  1.
         -3    1    6    6    0  502  0.71452130020E+01  0.43449111232E+01  0.79043698566E+01  0.11507014571E+02  0.00000000000E+00 0.  1.
<mgrwt>
<rscale>  0 0.18529528E+04</rscale>
<asrwt>0</asrwt>
<pdfrwt beam="1">  1        4 0.18249949E+00 0.18529528E+04</pdfrwt>
<pdfrwt beam="2">  1       -4 0.11132184E+00 0.18529528E+04</pdfrwt>
<totfact> 0.20693812E-01</totfact>
</mgrwt>
</event>
<event>
12    1  0.2214165E-007  0.1710597E+04  0.7818608E-02  0.8755343E-01
          1   -1    0    0  501    0  0.00000000000E+00  0.00000000000E+00  0.12690480665E+04  0.12690480665E+04  0.00000000000E+00 0. -1.
         -1   -1    0    0    0  501 -0.00000000000E+00 -0.00000000000E+00 -0.57644435537E+03  0.57644435537E+03  0.00000000000E+00 0.  1.
         23    2    1    2    0    0  0.39121325373E+03 -0.46929413264E+03  0.21668236592E+03  0.65469233109E+03  0.91575148708E+02 0.  0.
        254    2    1    2    0    0 -0.39121325373E+03  0.46929413264E+03  0.47592134516E+03  0.11908000907E+04  0.90455455141E+03 0.  0.
        -24    2    4    4    0    0 -0.21619507552E+03  0.57068049459E+03  0.66301217588E+03  0.90436903599E+03  0.76692048566E+02 0.  0.
         24    2    4    4    0    0 -0.17501817821E+03 -0.10138636195E+03 -0.18709083071E+03  0.28643105474E+03  0.78289291034E+02 0.  0.
         13    1    3    3    0    0  0.84855512390E+02 -0.13789032411E+03  0.93091892804E+02  0.18676268356E+03  0.00000000000E+00 0. -1.
        -13    1    3    3    0    0  0.30635774134E+03 -0.33140380853E+03  0.12359047312E+03  0.46792964753E+03  0.00000000000E+00 0.  1.
          2    1    6    6  502    0  0.24948118706E+01  0.48799434550E+01 -0.19270234958E+02  0.20034467543E+02  0.00000000000E+00 0. -1.
          1    1    5    5  503    0 -0.45472642022E+02  0.64327369809E+02  0.11073132652E+03  0.13589407033E+03  0.00000000000E+00 0. -1.
         -2    1    5    5    0  503 -0.17072243350E+03  0.50635312478E+03  0.55228084936E+03  0.76847496566E+03  0.00000000000E+00 0.  1.
         -1    1    6    6    0  502 -0.17751299008E+03 -0.10626630541E+03 -0.16782059575E+03  0.26639658720E+03  0.00000000000E+00 0.  1.
<mgrwt>
<rscale>  0 0.17105971E+04</rscale>
<asrwt>0</asrwt>
<pdfrwt beam="1">  1        1 0.19523816E+00 0.17105971E+04</pdfrwt>
<pdfrwt beam="2">  1       -1 0.88683747E-01 0.17105971E+04</pdfrwt>
<totfact> 0.11295939E+01</totfact>
</mgrwt>
</event>
<event>
12    1  0.2214165E-007  0.1856230E+04  0.7818608E-02  0.8676955E-01
         -2   -1    0    0    0  501 -0.00000000000E+00  0.00000000000E+00  0.36151192005E+03  0.36151192005E+03  0.00000000000E+00 0.  1.
          2   -1    0    0  501    0  0.00000000000E+00 -0.00000000000E+00 -0.23827646406E+04  0.23827646406E+04  0.00000000000E+00 0. -1.
         23    2    1    2    0    0  0.57958595962E+02 -0.70779907353E+03 -0.73308755428E+03  0.10247037363E+04  0.90893660451E+02 0.  0.
        254    2    1    2    0    0 -0.57958595962E+02  0.70779907353E+03 -0.12881651663E+04  0.17195728244E+04  0.89063038096E+03 0.  0.
        -24    2    4    4    0    0 -0.13630182393E+03  0.69219286091E+03 -0.38148752945E+03  0.80597441695E+03  0.79704966937E+02 0.  0.
         24    2    4    4    0    0  0.78343227973E+02  0.15606212627E+02 -0.90667763684E+03  0.91359840747E+03  0.78844769898E+02 0.  0.
         11    1    3    3    0    0 -0.51840924022E+01 -0.34859918114E+03 -0.31460002768E+03  0.46959710532E+03  0.00000000000E+00 0.  1.
        -11    1    3    3    0    0  0.63142688364E+02 -0.35919989239E+03 -0.41848752660E+03  0.55510663094E+03  0.00000000000E+00 0. -1.
          2    1    6    6  502    0  0.79524936367E+02 -0.34244121068E+01 -0.48488465258E+03  0.49137467213E+03  0.00000000000E+00 0. -1.
          3    1    5    5  503    0 -0.11503398114E+03  0.60448079291E+03 -0.36105859796E+03  0.71343756347E+03  0.00000000000E+00 0. -1.
         -4    1    5    5    0  503 -0.21267842794E+02  0.87712068000E+02 -0.20428931487E+02  0.92536853478E+02  0.00000000000E+00 0.  1.
         -1    1    6    6    0  502 -0.11817083935E+01  0.19030624733E+02 -0.42179298426E+03  0.42222373534E+03  0.00000000000E+00 0.  1.
<mgrwt>
<rscale>  0 0.18562304E+04</rscale>
<asrwt>0</asrwt>
<pdfrwt beam="1">  1        2 0.36657918E+00 0.18562304E+04</pdfrwt>
<pdfrwt beam="2">  1       -2 0.55617218E-01 0.18562304E+04</pdfrwt>
<totfact> 0.11617125E+01</totfact>
</mgrwt>
</event>
<event>
12    1  0.2214165E-007  0.2679823E+04  0.7818608E-02  0.8341581E-01
         -2   -1    0    0    0  501 -0.00000000000E+00  0.00000000000E+00  0.85973125158E+03  0.85973125158E+03  0.00000000000E+00 0.  1.
          2   -1    0    0  501    0  0.00000000000E+00 -0.00000000000E+00 -0.20882845023E+04  0.20882845023E+04  0.00000000000E+00 0. -1.
         23    2    1    2    0    0 -0.33363820212E+03  0.11162133051E+04 -0.81769847792E+03  0.14261549018E+04  0.89668337762E+02 0.  0.
        254    2    1    2    0    0  0.33363820212E+03 -0.11162133051E+04 -0.41085477282E+03  0.15218608520E+04  0.88882631384E+03 0.  0.
        -24    2    4    4    0    0  0.37271417513E+03 -0.88071916399E+03  0.87569559884E+02  0.96360862257E+03  0.79316123958E+02 0.  0.
         24    2    4    4    0    0 -0.39075973007E+02 -0.23549414114E+03 -0.49842433270E+03  0.55825222947E+03  0.78957672841E+02 0.  0.
         11    1    3    3    0    0 -0.30274601452E+03  0.10135558676E+04 -0.70866930737E+03  0.12732489282E+04  0.00000000000E+00 0. -1.
        -11    1    3    3    0    0 -0.30892187605E+02  0.10265743758E+03 -0.10902917055E+03  0.15290597364E+03  0.00000000000E+00 0.  1.
          4    1    6    6  502    0 -0.10309126397E+02  0.29680569517E+01 -0.29536908777E+02  0.31424774131E+02  0.00000000000E+00 0. -1.
          3    1    5    5  503    0  0.14258503277E+03 -0.40157141664E+03  0.85439731781E+01  0.42621953698E+03  0.00000000000E+00 0. -1.
         -4    1    5    5    0  503  0.23012914236E+03 -0.47914774735E+03  0.79025586706E+02  0.53738908559E+03  0.00000000000E+00 0.  1.
         -3    1    6    6    0  502 -0.28766846610E+02 -0.23846219809E+03 -0.46888742393E+03  0.52682745534E+03  0.00000000000E+00 0.  1.
<mgrwt>
<rscale>  0 0.26798235E+04</rscale>
<asrwt>0</asrwt>
<pdfrwt beam="1">  1        2 0.32127453E+00 0.26798235E+04</pdfrwt>
<pdfrwt beam="2">  1       -2 0.13226635E+00 0.26798235E+04</pdfrwt>
<totfact> 0.21787664E+00</totfact>
</mgrwt>
</event>
<event>
12    1  0.2214165E-007  0.1935438E+04  0.7818608E-02  0.8637415E-01
         -2   -1    0    0    0  501 -0.00000000000E+00  0.00000000000E+00  0.12528629833E+04  0.12528629833E+04  0.00000000000E+00 0.  1.
          2   -1    0    0  501    0  0.00000000000E+00 -0.00000000000E+00 -0.74747220583E+03  0.74747220583E+03  0.00000000000E+00 0. -1.
         23    2    1    2    0    0  0.35320356336E+03  0.94671394859E+02  0.88257838599E+03  0.95951424065E+03  0.89484861391E+02 0.  0.
        254    2    1    2    0    0 -0.35320356336E+03 -0.94671394859E+02 -0.37718760852E+03  0.10408209485E+04  0.89851117111E+03 0.  0.
        -24    2    4    4    0    0  0.25466634211E+03 -0.19592472263E+03 -0.38341039705E+02  0.33317294533E+03  0.79326751078E+02 0.  0.
         24    2    4    4    0    0 -0.60786990547E+03  0.10125332777E+03 -0.33884656882E+03  0.70764800315E+03  0.78680625377E+02 0.  0.
         11    1    3    3    0    0  0.19594052917E+03  0.52867538812E+02  0.60046983292E+03  0.63383885008E+03  0.00000000000E+00 0.  1.
        -11    1    3    3    0    0  0.15726303420E+03  0.41803856047E+02  0.28210855307E+03  0.32567539057E+03  0.00000000000E+00 0. -1.
          2    1    6    6  502    0 -0.33922112559E+03  0.89936327937E+02 -0.16805170510E+03  0.38910267375E+03  0.00000000000E+00 0. -1.
          1    1    5    5  503    0  0.25372917135E+03 -0.20230553339E+03 -0.37723807519E+02  0.32669421006E+03  0.00000000000E+00 0. -1.
         -2    1    5    5    0  503  0.93717075650E+00  0.63808107678E+01 -0.61723218581E+00  0.64787352664E+01  0.00000000000E+00 0.  1.
         -1    1    6    6    0  502 -0.26864877988E+03  0.11316999831E+02 -0.17079486371E+03  0.31854532941E+03  0.00000000000E+00 0.  1.
<mgrwt>
<rscale>  0 0.19354382E+04</rscale>
<asrwt>0</asrwt>
<pdfrwt beam="1">  1        2 0.11499572E+00 0.19354382E+04</pdfrwt>
<pdfrwt beam="2">  1       -2 0.19274815E+00 0.19354382E+04</pdfrwt>
<totfact> 0.52227094E+00</totfact>
</mgrwt>
</event>
<event>
12    1  0.2214165E-007  0.2264241E+04  0.7818608E-02  0.8492155E-01
         -1   -1    0    0    0  501 -0.00000000000E+00  0.00000000000E+00  0.73032434797E+03  0.73032434797E+03  0.00000000000E+00 0.  1.
          1   -1    0    0  501    0  0.00000000000E+00 -0.00000000000E+00 -0.17549687271E+04  0.17549687271E+04  0.00000000000E+00 0. -1.
         23    2    1    2    0    0  0.83536419085E+02  0.83438291128E+03 -0.93495534881E+03  0.12588953501E+04  0.86618832694E+02 0.  0.
        254    2    1    2    0    0 -0.83536419085E+02 -0.83438291128E+03 -0.89689030354E+02  0.12263977250E+04  0.89041231004E+03 0.  0.
        -24    2    4    4    0    0 -0.34279979447E+03 -0.77146244876E+03 -0.27561665506E+03  0.89161208635E+03  0.79633931476E+02 0.  0.
         24    2    4    4    0    0  0.25926337538E+03 -0.62920462523E+02  0.18592762471E+03  0.33478563870E+03  0.79598114493E+02 0.  0.
         13    1    3    3    0    0  0.44384940092E+02  0.29903963643E+03 -0.27977603553E+03  0.41190940402E+03  0.00000000000E+00 0.  1.
        -13    1    3    3    0    0  0.39151478992E+02  0.53534327485E+03 -0.65517931328E+03  0.84698594603E+03  0.00000000000E+00 0. -1.
          4    1    6    6  502    0  0.24897567110E+03 -0.60605813627E+02  0.19408707984E+03  0.32145255327E+03  0.00000000000E+00 0. -1.
          3    1    5    5  503    0 -0.15221833893E+03 -0.25006131624E+03 -0.90309944295E+02  0.30636085034E+03  0.00000000000E+00 0. -1.
         -4    1    5    5    0  503 -0.19058145554E+03 -0.52140113252E+03 -0.18530671076E+03  0.58525123600E+03  0.00000000000E+00 0.  1.
         -3    1    6    6    0  502  0.10287704283E+02 -0.23146488954E+01 -0.81594551324E+01  0.13333085427E+02  0.00000000000E+00 0.  1.
<mgrwt>
<rscale>  0 0.22642406E+04</rscale>
<asrwt>0</asrwt>
<pdfrwt beam="1">  1        1 0.26999519E+00 0.22642406E+04</pdfrwt>
<pdfrwt beam="2">  1       -1 0.11235759E+00 0.22642406E+04</pdfrwt>
<totfact> 0.28761889E+00</totfact>
</mgrwt>
</event>
<event>
12    1  0.2214165E-007  0.2017820E+04  0.7818608E-02  0.8598334E-01
          1   -1    0    0  501    0  0.00000000000E+00  0.00000000000E+00  0.21586115709E+04  0.21586115709E+04  0.00000000000E+00 0.  1.
         -1   -1    0    0    0  501 -0.00000000000E+00 -0.00000000000E+00 -0.47155271651E+03  0.47155271651E+03  0.00000000000E+00 0. -1.
         23    2    1    2    0    0 -0.23653622490E+03 -0.56006084943E+03 -0.86990120994E+01  0.61493720316E+03  0.91948628386E+02 0.  0.
        254    2    1    2    0    0  0.23653622490E+03  0.56006084943E+03  0.16957578665E+04  0.20152270843E+04  0.90328728462E+03 0.  0.
        -24    2    4    4    0    0  0.39510881916E+03  0.66614695174E+03  0.88675477186E+03  0.11800197432E+04  0.79055857305E+02 0.  0.
         24    2    4    4    0    0 -0.15857259426E+03 -0.10608610230E+03  0.80900309467E+03  0.83520734111E+03  0.81766537817E+02 0.  0.
         13    1    3    3    0    0 -0.12664816527E+03 -0.24578358853E+03  0.36706049708E+02  0.27892053392E+03  0.00000000000E+00 0.  1.
        -13    1    3    3    0    0 -0.10988805963E+03 -0.31427726091E+03 -0.45405061807E+02  0.33601666924E+03  0.00000000000E+00 0. -1.
          4    1    6    6  502    0 -0.87761864171E+02 -0.10414368803E+03  0.50291918372E+03  0.52103335586E+03  0.00000000000E+00 0. -1.
          3    1    5    5  503    0  0.17247615058E+03  0.35306017491E+03  0.41270997858E+03  0.56985001189E+03  0.00000000000E+00 0. -1.
         -4    1    5    5    0  503  0.22263266857E+03  0.31308677682E+03  0.47404479329E+03  0.61016973129E+03  0.00000000000E+00 0.  1.
         -3    1    6    6    0  502 -0.70810730085E+02 -0.19424142710E+01  0.30608391094E+03  0.31417398525E+03  0.00000000000E+00 0.  1.
<mgrwt>
<rscale>  0 0.20178198E+04</rscale>
<asrwt>0</asrwt>
<pdfrwt beam="1">  1        1 0.33209408E+00 0.20178198E+04</pdfrwt>
<pdfrwt beam="2">  1       -1 0.72546573E-01 0.20178198E+04</pdfrwt>
<totfact> 0.41264477E+00</totfact>
</mgrwt>
</event>
<event>
12    1  0.2214165E-007  0.1825142E+04  0.7818608E-02  0.8693042E-01
         -1   -1    0    0    0  501 -0.00000000000E+00  0.00000000000E+00  0.24241311864E+03  0.24241311864E+03  0.00000000000E+00 0.  1.
          1   -1    0    0  501    0  0.00000000000E+00 -0.00000000000E+00 -0.34353983619E+04  0.34353983619E+04  0.00000000000E+00 0. -1.
         23    2    1    2    0    0 -0.20032969256E+03 -0.65331000494E+03 -0.10893280739E+04  0.12891748274E+04  0.91597678851E+02 0.  0.
        254    2    1    2    0    0  0.20032969256E+03  0.65331000494E+03 -0.21036571693E+04  0.23886366531E+04  0.90181241187E+03 0.  0.
        -24    2    4    4    0    0  0.53386976687E+03  0.41084663446E+03 -0.10054133780E+04  0.12128344577E+04  0.79369238568E+02 0.  0.
         24    2    4    4    0    0 -0.33354007431E+03  0.24246337048E+03 -0.10982437913E+04  0.11758021954E+04  0.79585868017E+02 0.  0.
         13    1    3    3    0    0  0.84842033505E+01 -0.21768483504E+02 -0.50438318813E+02  0.55586622358E+02  0.00000000000E+00 0. -1.
        -13    1    3    3    0    0 -0.20881389591E+03 -0.63154152144E+03 -0.10388897551E+04  0.12335882051E+04  0.00000000000E+00 0.  1.
          4    1    6    6  502    0 -0.96677697921E+02  0.10528903005E+03 -0.44945735781E+03  0.47163998305E+03  0.00000000000E+00 0. -1.
          1    1    5    5  503    0  0.17938140277E+03  0.10962503247E+03 -0.36650635739E+03  0.42251892906E+03  0.00000000000E+00 0. -1.
         -2    1    5    5    0  503  0.35448836410E+03  0.30122160199E+03 -0.63890702062E+03  0.79031552862E+03  0.00000000000E+00 0.  1.
         -3    1    6    6    0  502 -0.23686237639E+03  0.13717434043E+03 -0.64878643352E+03  0.70416221238E+03  0.00000000000E+00 0.  1.
<mgrwt>
<rscale>  0 0.18251418E+04</rscale>
<asrwt>0</asrwt>
<pdfrwt beam="1">  1        1 0.52852280E+00 0.18251418E+04</pdfrwt>
<pdfrwt beam="2">  1       -1 0.37294328E-01 0.18251418E+04</pdfrwt>
<totfact> 0.18403285E+00</totfact>
</mgrwt>
</event>
<event>
12    1  0.2214165E-007  0.1312306E+04  0.7818608E-02  0.9019863E-01
          1   -1    0    0  501    0  0.00000000000E+00  0.00000000000E+00  0.11652104521E+04  0.11652104521E+04  0.00000000000E+00 0. -1.
         -1   -1    0    0    0  501 -0.00000000000E+00 -0.00000000000E+00 -0.36949285742E+03  0.36949285742E+03  0.00000000000E+00 0.  1.
         23    2    1    2    0    0  0.25376605501E+02  0.27885520552E+03 -0.11186192608E+02  0.29451052944E+03  0.90593174649E+02 0.  0.
        254    2    1    2    0    0 -0.25376605501E+02 -0.27885520552E+03  0.80690378727E+03  0.12401927801E+04  0.89921088297E+03 0.  0.
        -24    2    4    4    0    0 -0.95343512423E+02 -0.59386833105E+03  0.56191352998E+03  0.82668657732E+03  0.76771752451E+02 0.  0.
         24    2    4    4    0    0  0.69966906921E+02  0.31501312553E+03  0.24499025729E+03  0.41350620274E+03  0.82695321607E+02 0.  0.
         11    1    3    3    0    0  0.22768910636E+02  0.80218633092E+02 -0.42188512644E+02  0.93452249763E+02  0.00000000000E+00 0.  1.
        -11    1    3    3    0    0  0.26076948654E+01  0.19863657243E+03  0.31002320036E+02  0.20105827968E+03  0.00000000000E+00 0. -1.
          2    1    6    6  502    0  0.10815671770E+02  0.23608408232E+02 -0.32332841537E+01  0.26168489095E+02  0.00000000000E+00 0. -1.
          3    1    5    5  503    0  0.11296885196E+02 -0.33958171460E+02  0.42304160330E+02  0.55411361698E+02  0.00000000000E+00 0. -1.
         -4    1    5    5    0  503 -0.10664039762E+03 -0.55991015959E+03  0.51960936965E+03  0.77127521563E+03  0.00000000000E+00 0.  1.
         -1    1    6    6    0  502  0.59151235151E+02  0.29140471730E+03  0.24822354145E+03  0.38733771364E+03  0.00000000000E+00 0.  1.
<mgrwt>
<rscale>  0 0.13123063E+04</rscale>
<asrwt>0</asrwt>
<pdfrwt beam="1">  1        1 0.17926314E+00 0.13123063E+04</pdfrwt>
<pdfrwt beam="2">  1       -1 0.56845056E-01 0.13123063E+04</pdfrwt>
<totfact> 0.34853013E+01</totfact>
</mgrwt>
</event>
<event>
12    1  0.2214165E-007  0.3172834E+04  0.7818608E-02  0.8196029E-01
          2   -1    0    0  501    0  0.00000000000E+00  0.00000000000E+00  0.44945306276E+04  0.44945306276E+04  0.00000000000E+00 0. -1.
         -2   -1    0    0    0  501 -0.00000000000E+00 -0.00000000000E+00 -0.55995133481E+03  0.55995133481E+03  0.00000000000E+00 0.  1.
         23    2    1    2    0    0 -0.59560247072E+03  0.13120354087E+04  0.21881074006E+04  0.26215264299E+04  0.91693016855E+02 0.  0.
        254    2    1    2    0    0  0.59560247072E+03 -0.13120354087E+04  0.17464718921E+04  0.24329555325E+04  0.89046579720E+03 0.  0.
        -24    2    4    4    0    0  0.30472833761E+03 -0.12837108058E+04  0.16501736203E+04  0.21142441439E+04  0.78629066701E+02 0.  0.
         24    2    4    4    0    0  0.29087413311E+03 -0.28324602963E+02  0.96298271806E+02  0.31871138857E+03  0.83027390689E+02 0.  0.
         13    1    3    3    0    0 -0.32319698134E+03  0.69016711115E+03  0.10754812667E+04  0.13181224849E+04  0.00000000000E+00 0.  1.
        -13    1    3    3    0    0 -0.27240548938E+03  0.62186829757E+03  0.11126261339E+04  0.13034039451E+04  0.00000000000E+00 0. -1.
          2    1    6    6  502    0  0.22098238561E+03 -0.89592029046E-01  0.10144800324E+03  0.24315616410E+03  0.00000000000E+00 0. -1.
          3    1    5    5  503    0  0.18693082196E+03 -0.90987266400E+03  0.11954711688E+04  0.15139229545E+04  0.00000000000E+00 0. -1.
         -4    1    5    5    0  503  0.11779751564E+03 -0.37383814175E+03  0.45470245155E+03  0.60032118934E+03  0.00000000000E+00 0.  1.
         -1    1    6    6    0  502  0.69891747497E+02 -0.28235010934E+02 -0.51497314355E+01  0.75555224469E+02  0.00000000000E+00 0.  1.
<mgrwt>
<rscale>  0 0.31728337E+04</rscale>
<asrwt>0</asrwt>
<pdfrwt beam="1">  1        2 0.69146623E+00 0.31728337E+04</pdfrwt>
<pdfrwt beam="2">  1       -2 0.86146362E-01 0.31728337E+04</pdfrwt>
<totfact> 0.12258552E-01</totfact>
</mgrwt>
</event>
<event>
12    1  0.2214165E-007  0.1636155E+04  0.7818608E-02  0.8798639E-01
         -2   -1    0    0    0  501 -0.00000000000E+00  0.00000000000E+00  0.22066264465E+03  0.22066264465E+03  0.00000000000E+00 0.  1.
          2   -1    0    0  501    0  0.00000000000E+00 -0.00000000000E+00 -0.30329135581E+04  0.30329135581E+04  0.00000000000E+00 0. -1.
         23    2    1    2    0    0  0.50149558352E+03 -0.21121833084E+03 -0.66595107175E+03  0.86373065185E+03  0.80179831634E+02 0.  0.
        254    2    1    2    0    0 -0.50149558352E+03  0.21121833084E+03 -0.21462998417E+04  0.23898455510E+04  0.89924843238E+03 0.  0.
        -24    2    4    4    0    0 -0.50390312559E+03  0.41502776348E+03 -0.20448737157E+04  0.21481763253E+04  0.83585925726E+02 0.  0.
         24    2    4    4    0    0  0.24075420692E+01 -0.20380943264E+03 -0.10142612606E+03  0.24166922566E+03  0.81072032740E+02 0.  0.
         13    1    3    3    0    0  0.39014484231E+03 -0.18659179726E+03 -0.48470012469E+03  0.64958733644E+03  0.00000000000E+00 0.  1.
        -13    1    3    3    0    0  0.11135074122E+03 -0.24626533578E+02 -0.18125094706E+03  0.21414331541E+03  0.00000000000E+00 0. -1.
          4    1    6    6  502    0 -0.32061799717E+01 -0.76193588829E+02  0.35289506876E+01  0.76342622837E+02  0.00000000000E+00 0. -1.
          3    1    5    5  503    0 -0.17581477066E+03  0.98576535881E+02 -0.67505416146E+03  0.70450428524E+03  0.00000000000E+00 0. -1.
         -4    1    5    5    0  503 -0.32808835493E+03  0.31645122760E+03 -0.13698195542E+04  0.14436720401E+04  0.00000000000E+00 0.  1.
         -3    1    6    6    0  502  0.56137220409E+01 -0.12761584381E+03 -0.10495507675E+03  0.16532660282E+03  0.00000000000E+00 0.  1.
<mgrwt>
<rscale>  0 0.16361549E+04</rscale>
<asrwt>0</asrwt>
<pdfrwt beam="1">  1        2 0.46660209E+00 0.16361549E+04</pdfrwt>
<pdfrwt beam="2">  1       -2 0.33948099E-01 0.16361549E+04</pdfrwt>
<totfact> 0.12967223E+01</totfact>
</mgrwt>
</event>
<event>
12    1  0.2214165E-007  0.1443083E+04  0.7818608E-02  0.8923210E-01
          2   -1    0    0  501    0  0.00000000000E+00  0.00000000000E+00  0.65161841060E+03  0.65161841060E+03  0.00000000000E+00 0.  1.
         -2   -1    0    0    0  501 -0.00000000000E+00 -0.00000000000E+00 -0.79896745695E+03  0.79896745695E+03  0.00000000000E+00 0. -1.
         23    2    1    2    0    0  0.35053501751E+03  0.24639311657E+03  0.44071495135E+02  0.43767468357E+03  0.77668948518E+02 0.  0.
        254    2    1    2    0    0 -0.35053501751E+03 -0.24639311657E+03 -0.19142054148E+03  0.10129111840E+04  0.89764295604E+03 0.  0.
        -24    2    4    4    0    0 -0.33402649724E+03  0.28231495496E+03 -0.17506466510E+03  0.47778344664E+03  0.79711669611E+02 0.  0.
         24    2    4    4    0    0 -0.16508520271E+02 -0.52870807153E+03 -0.16355876389E+02  0.53512773733E+03  0.79305891509E+02 0.  0.
         11    1    3    3    0    0  0.18182175021E+03  0.87106652504E+02  0.40404168956E+02  0.20561910084E+03  0.00000000000E+00 0. -1.
        -11    1    3    3    0    0  0.16871326729E+03  0.15928646407E+03  0.36673261790E+01  0.23205558273E+03  0.00000000000E+00 0.  1.
          2    1    6    6  502    0 -0.29141975741E+02 -0.37737327644E+03  0.19826111312E+02  0.37901572423E+03  0.00000000000E+00 0. -1.
          3    1    5    5  503    0 -0.21448277804E+03  0.22759209403E+03 -0.13184990385E+03  0.33938977664E+03  0.00000000000E+00 0. -1.
         -4    1    5    5    0  503 -0.11954371920E+03  0.54722860923E+02 -0.43214761242E+02  0.13839367000E+03  0.00000000000E+00 0.  1.
         -1    1    6    6    0  502  0.12633455470E+02 -0.15133479508E+03 -0.36181987701E+02  0.15611201310E+03  0.00000000000E+00 0.  1.
<mgrwt>
<rscale>  0 0.14430827E+04</rscale>
<asrwt>0</asrwt>
<pdfrwt beam="1">  1        2 0.10024899E+00 0.14430827E+04</pdfrwt>
<pdfrwt beam="2">  1       -2 0.12291807E+00 0.14430827E+04</pdfrwt>
<totfact> 0.21745381E+01</totfact>
</mgrwt>
</event>
<event>
12    1  0.2214165E-007  0.2169873E+04  0.7818608E-02  0.8531073E-01
         -2   -1    0    0    0  501 -0.00000000000E+00  0.00000000000E+00  0.75592858290E+03  0.75592858290E+03  0.00000000000E+00 0. -1.
          2   -1    0    0  501    0  0.00000000000E+00 -0.00000000000E+00 -0.15571408612E+04  0.15571408612E+04  0.00000000000E+00 0.  1.
         23    2    1    2    0    0  0.17410556382E+02 -0.76417816108E+03  0.16439465325E+03  0.78659964820E+03  0.86267115336E+02 0.  0.
        254    2    1    2    0    0 -0.17410556382E+02  0.76417816108E+03 -0.96560693154E+03  0.15264697959E+04  0.90191014084E+03 0.  0.
        -24    2    4    4    0    0 -0.30754926646E+03  0.48837734636E+03 -0.13151256935E+03  0.59739238136E+03  0.80517809711E+02 0.  0.
         24    2    4    4    0    0  0.29013871007E+03  0.27580081472E+03 -0.83409436219E+03  0.92907741452E+03  0.84999274373E+02 0.  0.
         13    1    3    3    0    0 -0.51856858007E+01 -0.74943625393E+01  0.10839907233E+02  0.14161934752E+02  0.00000000000E+00 0. -1.
        -13    1    3    3    0    0  0.22596242183E+02 -0.75668379854E+03  0.15355474601E+03  0.77243771345E+03  0.00000000000E+00 0.  1.
          2    1    6    6  502    0  0.14565131055E+03  0.81289588672E+02 -0.32868235958E+03  0.36858431192E+03  0.00000000000E+00 0. -1.
          3    1    5    5  503    0 -0.10409468265E+02  0.45486003560E+02 -0.27014791581E+02  0.53917831129E+02  0.00000000000E+00 0. -1.
         -4    1    5    5    0  503 -0.29713979819E+03  0.44289134280E+03 -0.10449777777E+03  0.54347455023E+03  0.00000000000E+00 0.  1.
         -1    1    6    6    0  502  0.14448739952E+03  0.19451122605E+03 -0.50541200262E+03  0.56049310261E+03  0.00000000000E+00 0.  1.
<mgrwt>
<rscale>  0 0.21698731E+04</rscale>
<asrwt>0</asrwt>
<pdfrwt beam="1">  1        2 0.23956013E+00 0.21698731E+04</pdfrwt>
<pdfrwt beam="2">  1       -2 0.11629670E+00 0.21698731E+04</pdfrwt>
<totfact> 0.61968720E+00</totfact>
</mgrwt>
</event>
<event>
12    1  0.2214165E-007  0.1789683E+04  0.7818608E-02  0.8711805E-01
          1   -1    0    0  501    0  0.00000000000E+00  0.00000000000E+00  0.11957663116E+04  0.11957663116E+04  0.00000000000E+00 0. -1.
         -1   -1    0    0    0  501 -0.00000000000E+00 -0.00000000000E+00 -0.66964665568E+03  0.66964665568E+03  0.00000000000E+00 0.  1.
         23    2    1    2    0    0 -0.24231238898E+03  0.60270112512E+03  0.52074699945E+02  0.65724755555E+03  0.85432047984E+02 0.  0.
        254    2    1    2    0    0  0.24231238898E+03 -0.60270112512E+03  0.47404495598E+03  0.12081654117E+04  0.90165464662E+03 0.  0.
        -24    2    4    4    0    0  0.14345701303E+02 -0.59554699918E+03 -0.77490861110E+02  0.60595757062E+03  0.79358153096E+02 0.  0.
         24    2    4    4    0    0  0.22796668768E+03 -0.71541259429E+01  0.55153581709E+03  0.60220784112E+03  0.80265398305E+02 0.  0.
         11    1    3    3    0    0 -0.69619732748E+02  0.22552587609E+03 -0.17284177118E+02  0.23665918692E+03  0.00000000000E+00 0.  1.
        -11    1    3    3    0    0 -0.17269265624E+03  0.37717524903E+03  0.69358877063E+02  0.42058836863E+03  0.00000000000E+00 0. -1.
          4    1    6    6  502    0  0.12081217116E+01 -0.14786496665E+02  0.30567181718E+02  0.33977237085E+02  0.00000000000E+00 0. -1.
          3    1    5    5  503    0  0.30017067460E+02 -0.11049173692E+03 -0.29803851199E+02  0.11831195127E+03  0.00000000000E+00 0. -1.
         -4    1    5    5    0  503 -0.15671366157E+02 -0.48505526225E+03 -0.47687009911E+02  0.48764561935E+03  0.00000000000E+00 0.  1.
         -3    1    6    6    0  502  0.22675856597E+03  0.76323707225E+01  0.52096863538E+03  0.56823060404E+03  0.00000000000E+00 0.  1.
<mgrwt>
<rscale>  0 0.17896826E+04</rscale>
<asrwt>0</asrwt>
<pdfrwt beam="1">  1        1 0.18396405E+00 0.17896826E+04</pdfrwt>
<pdfrwt beam="2">  1       -1 0.10302256E+00 0.17896826E+04</pdfrwt>
<totfact> 0.90456777E+00</totfact>
</mgrwt>
</event>
<event>
12    1  0.2214165E-007  0.1706441E+04  0.7818608E-02  0.8757699E-01
         -1   -1    0    0    0  501 -0.00000000000E+00  0.00000000000E+00  0.82176088025E+03  0.82176088025E+03  0.00000000000E+00 0.  1.
          1   -1    0    0  501    0  0.00000000000E+00 -0.00000000000E+00 -0.88588439018E+03  0.88588439018E+03  0.00000000000E+00 0. -1.
         23    2    1    2    0    0  0.26671329955E+03 -0.53178754709E+03 -0.16863318888E+03  0.62541340158E+03  0.93652501765E+02 0.  0.
        254    2    1    2    0    0 -0.26671329955E+03  0.53178754709E+03  0.10450967895E+03  0.10822318689E+04  0.89798082695E+03 0.  0.
        -24    2    4    4    0    0 -0.37332974283E+02  0.56280064753E+03 -0.27317363224E+03  0.63172258324E+03  0.79443495576E+02 0.  0.
         24    2    4    4    0    0 -0.22938032527E+03 -0.31013100443E+02  0.37768331119E+03  0.45050928561E+03  0.82077931582E+02 0.  0.
         13    1    3    3    0    0  0.17526388052E+03 -0.28155356479E+03 -0.56814785386E+02  0.33647846514E+03  0.00000000000E+00 0.  1.
        -13    1    3    3    0    0  0.91449419031E+02 -0.25023398230E+03 -0.11181840349E+03  0.28893493644E+03  0.00000000000E+00 0. -1.
          4    1    6    6  502    0 -0.46046304670E+02  0.22356403777E+02  0.51916553761E+02  0.72906786502E+02  0.00000000000E+00 0. -1.
          1    1    5    5  503    0 -0.25538930064E+02  0.14107132690E+03 -0.10427809875E+03  0.17727740437E+03  0.00000000000E+00 0. -1.
         -2    1    5    5    0  503 -0.11794044218E+02  0.42172932064E+03 -0.16889553349E+03  0.45444517887E+03  0.00000000000E+00 0.  1.
         -3    1    6    6    0  502 -0.18333402060E+03 -0.53369504220E+02  0.32576675743E+03  0.37760249911E+03  0.00000000000E+00 0.  1.
<mgrwt>
<rscale>  0 0.17064409E+04</rscale>
<asrwt>0</asrwt>
<pdfrwt beam="1">  1        1 0.13628991E+00 0.17064409E+04</pdfrwt>
<pdfrwt beam="2">  1       -1 0.12642475E+00 0.17064409E+04</pdfrwt>
<totfact> 0.96727010E+00</totfact>
</mgrwt>
</event>
<event>
12    1  0.2214165E-007  0.1551378E+04  0.7818608E-02  0.8850988E-01
          2   -1    0    0  501    0  0.00000000000E+00  0.00000000000E+00  0.29665396391E+04  0.29665396391E+04  0.00000000000E+00 0. -1.
         -2   -1    0    0    0  501 -0.00000000000E+00 -0.00000000000E+00 -0.20282662475E+03  0.20282662475E+03  0.00000000000E+00 0.  1.
         23    2    1    2    0    0  0.42163978705E+03 -0.12103621403E+03  0.39470048389E+03  0.59733241937E+03  0.92669693614E+02 0.  0.
        254    2    1    2    0    0 -0.42163978705E+03  0.12103621403E+03  0.23690125305E+04  0.25720338445E+04  0.90039316553E+03 0.  0.
        -24    2    4    4    0    0 -0.42901907263E+03  0.10092878152E+03  0.24284886160E+04  0.24694724936E+04  0.80581976636E+02 0.  0.
         24    2    4    4    0    0  0.73792855788E+01  0.20107432504E+02 -0.59476085487E+02  0.10256135093E+03  0.80763006773E+02 0.  0.
         11    1    3    3    0    0  0.24690963035E+03 -0.66221885974E+02  0.28921029404E+03  0.38599520453E+03  0.00000000000E+00 0. -1.
        -11    1    3    3    0    0  0.17473015671E+03 -0.54814328054E+02  0.10549018985E+03  0.21133721484E+03  0.00000000000E+00 0.  1.
          4    1    6    6  502    0  0.28975852098E+01 -0.29443350787E+02 -0.38531076985E+02  0.48579324813E+02  0.00000000000E+00 0. -1.
          3    1    5    5  503    0 -0.29737915998E+03  0.39212649058E+02  0.17575404141E+04  0.17829526925E+04  0.00000000000E+00 0. -1.
         -4    1    5    5    0  503 -0.13163991265E+03  0.61716132466E+02  0.67094820192E+03  0.68651980108E+03  0.00000000000E+00 0.  1.
         -3    1    6    6    0  502  0.44817003690E+01  0.49550783291E+02 -0.20945008502E+02  0.53982026121E+02  0.00000000000E+00 0.  1.
<mgrwt>
<rscale>  0 0.15513777E+04</rscale>
<asrwt>0</asrwt>
<pdfrwt beam="1">  1        2 0.45639068E+00 0.15513777E+04</pdfrwt>
<pdfrwt beam="2">  1       -2 0.31204098E-01 0.15513777E+04</pdfrwt>
<totfact> 0.16855717E+01</totfact>
</mgrwt>
</event>
<event>
12    1  0.2214165E-007  0.3431463E+04  0.7818608E-02  0.8130227E-01
         -2   -1    0    0    0  501 -0.00000000000E+00  0.00000000000E+00  0.10919149098E+04  0.10919149098E+04  0.00000000000E+00 0.  1.
          2   -1    0    0  501    0  0.00000000000E+00 -0.00000000000E+00 -0.26959372575E+04  0.26959372575E+04  0.00000000000E+00 0. -1.
         23    2    1    2    0    0 -0.14331903246E+03  0.10454618463E+04 -0.20688014072E+04  0.23241303721E+04  0.90066124263E+02 0.  0.
        254    2    1    2    0    0  0.14331903246E+03 -0.10454618463E+04  0.46477905948E+03  0.14637217952E+04  0.90162691981E+03 0.  0.
        -24    2    4    4    0    0 -0.56074918321E+02 -0.46989675981E+03 -0.23341199032E+03  0.53355721219E+03  0.79087167733E+02 0.  0.
         24    2    4    4    0    0  0.19939395078E+03 -0.57556508651E+03  0.69819104980E+03  0.93016458304E+03  0.81867533927E+02 0.  0.
         13    1    3    3    0    0 -0.10365178718E+03  0.71255942966E+03 -0.15000524691E+04  0.16639236893E+04  0.00000000000E+00 0. -1.
        -13    1    3    3    0    0 -0.39667245281E+02  0.33290241666E+03 -0.56874893809E+03  0.66020668275E+03  0.00000000000E+00 0.  1.
          2    1    6    6  502    0  0.69739593616E+02 -0.22800918451E+03  0.33349316177E+03  0.40996278866E+03  0.00000000000E+00 0. -1.
          1    1    5    5  503    0  0.12437541802E+02 -0.49842503390E+02 -0.44279078360E+02  0.67820383151E+02  0.00000000000E+00 0. -1.
         -2    1    5    5    0  503 -0.68512460122E+02 -0.42005425642E+03 -0.18913291196E+03  0.46573682904E+03  0.00000000000E+00 0.  1.
         -1    1    6    6    0  502  0.12965435716E+03 -0.34755590200E+03  0.36469788803E+03  0.52020179438E+03  0.00000000000E+00 0.  1.
<mgrwt>
<rscale>  0 0.34314627E+04</rscale>
<asrwt>0</asrwt>
<pdfrwt beam="1">  1        2 0.41475958E+00 0.34314627E+04</pdfrwt>
<pdfrwt beam="2">  1       -2 0.16798691E+00 0.34314627E+04</pdfrwt>
<totfact> 0.48597551E-01</totfact>
</mgrwt>
</event>
<event>
12    1  0.2214165E-007  0.1489736E+04  0.7818608E-02  0.8891307E-01
          2   -1    0    0  501    0  0.00000000000E+00  0.00000000000E+00  0.63280409535E+03  0.63280409535E+03  0.00000000000E+00 0. -1.
         -2   -1    0    0    0  501 -0.00000000000E+00 -0.00000000000E+00 -0.87677718464E+03  0.87677718464E+03  0.00000000000E+00 0.  1.
         23    2    1    2    0    0  0.46965355813E+03  0.57706664593E+02 -0.11854379330E+03  0.49669035264E+03  0.93510168798E+02 0.  0.
        254    2    1    2    0    0 -0.46965355813E+03 -0.57706664593E+02 -0.12542929599E+03  0.10128909273E+04  0.88674178801E+03 0.  0.
        -24    2    4    4    0    0 -0.39808696031E+03 -0.42148359398E+03 -0.21106349349E+03  0.62191369463E+03  0.78148559300E+02 0.  0.
         24    2    4    4    0    0 -0.71566597826E+02  0.36377692939E+03  0.85634197503E+02  0.39097723272E+03  0.89858491230E+02 0.  0.
         11    1    3    3    0    0  0.22509406083E+03  0.63174447462E+02 -0.89560966065E+02  0.25035876992E+03  0.00000000000E+00 0.  1.
        -11    1    3    3    0    0  0.24455949730E+03 -0.54677828684E+01 -0.28982827237E+02  0.24633158272E+03  0.00000000000E+00 0. -1.
          2    1    6    6  502    0 -0.44849602192E+02  0.32328319156E+03  0.98256588837E+02  0.34084874359E+03  0.00000000000E+00 0. -1.
          1    1    5    5  503    0 -0.39635117585E+03 -0.39882449890E+03 -0.20264487887E+03  0.59767899616E+03  0.00000000000E+00 0. -1.
         -2    1    5    5    0  503 -0.17357844529E+01 -0.22659095079E+02 -0.84186146262E+01  0.24234698465E+02  0.00000000000E+00 0.  1.
         -1    1    6    6    0  502 -0.26716995634E+02  0.40493737828E+02 -0.12622391334E+02  0.50128489126E+02  0.00000000000E+00 0.  1.
<mgrwt>
<rscale>  0 0.14897358E+04</rscale>
<asrwt>0</asrwt>
<pdfrwt beam="1">  1        2 0.97354477E-01 0.14897358E+04</pdfrwt>
<pdfrwt beam="2">  1       -2 0.13488880E+00 0.14897358E+04</pdfrwt>
<totfact> 0.17758263E+01</totfact>
</mgrwt>
</event>
<event>
12    1  0.2214165E-007  0.1784338E+04  0.7818608E-02  0.8714673E-01
          2   -1    0    0  501    0  0.00000000000E+00  0.00000000000E+00  0.19476514475E+04  0.19476514475E+04  0.00000000000E+00 0. -1.
         -2   -1    0    0    0  501 -0.00000000000E+00 -0.00000000000E+00 -0.40867968327E+03  0.40867968327E+03  0.00000000000E+00 0.  1.
         23    2    1    2    0    0  0.59656258717E+03 -0.18632180241E+03  0.29022440870E+03  0.69512496289E+03  0.91464595174E+02 0.  0.
        254    2    1    2    0    0 -0.59656258717E+03  0.18632180241E+03  0.12487473556E+04  0.16612061679E+04  0.89979622129E+03 0.  0.
        -24    2    4    4    0    0 -0.12026653060E+03 -0.12554269702E+03 -0.84824257573E+02  0.20887588768E+03  0.78797047050E+02 0.  0.
         24    2    4    4    0    0 -0.47629605656E+03  0.31186449943E+03  0.13335716131E+04  0.14523302802E+04  0.82052397945E+02 0.  0.
         11    1    3    3    0    0  0.27693608862E+03 -0.43156432459E+02  0.10836280670E+03  0.30049720917E+03  0.00000000000E+00 0. -1.
        -11    1    3    3    0    0  0.31962649855E+03 -0.14316536995E+03  0.18186160200E+03  0.39462775373E+03  0.00000000000E+00 0.  1.
          4    1    6    6  502    0 -0.41189748221E+03  0.29379249009E+03  0.12162033378E+04  0.13172411025E+04  0.00000000000E+00 0. -1.
          3    1    5    5  503    0 -0.12838469825E+03 -0.11322963978E+03 -0.62736693469E+02  0.18231696239E+03  0.00000000000E+00 0. -1.
         -4    1    5    5    0  503  0.81181676445E+01 -0.12313057246E+02 -0.22087564104E+02  0.26558925293E+02  0.00000000000E+00 0.  1.
         -3    1    6    6    0  502 -0.64398574350E+02  0.18072009342E+02  0.11736827532E+03  0.13508917777E+03  0.00000000000E+00 0.  1.
<mgrwt>
<rscale>  0 0.17843381E+04</rscale>
<asrwt>0</asrwt>
<pdfrwt beam="1">  1        2 0.29963868E+00 0.17843381E+04</pdfrwt>
<pdfrwt beam="2">  1       -2 0.62873799E-01 0.17843381E+04</pdfrwt>
<totfact> 0.15833046E+01</totfact>
</mgrwt>
</event>
<event>
12    1  0.2214165E-007  0.1801692E+04  0.7818608E-02  0.8705400E-01
         -2   -1    0    0    0  501 -0.00000000000E+00  0.00000000000E+00  0.66209815166E+03  0.66209815166E+03  0.00000000000E+00 0.  1.
          2   -1    0    0  501    0  0.00000000000E+00 -0.00000000000E+00 -0.12256851612E+04  0.12256851612E+04  0.00000000000E+00 0. -1.
         23    2    1    2    0    0  0.26748428470E+03 -0.44816002917E+03  0.23284647410E+03  0.57883735793E+03  0.91869212083E+02 0.  0.
        254    2    1    2    0    0 -0.26748428470E+03  0.44816002917E+03 -0.79643348361E+03  0.13089459549E+04  0.89813026042E+03 0.  0.
        -24    2    4    4    0    0 -0.10543688605E+03 -0.18449114854E+03 -0.57009029075E+03  0.61357929559E+03  0.79515354175E+02 0.  0.
         24    2    4    4    0    0 -0.16204739865E+03  0.63265117771E+03 -0.22634319287E+03  0.69536665929E+03  0.76135916809E+02 0.  0.
         13    1    3    3    0    0  0.10726732025E+03 -0.19490440707E+03  0.50806418907E+02  0.22820012728E+03  0.00000000000E+00 0. -1.
        -13    1    3    3    0    0  0.16021696445E+03 -0.25325562210E+03  0.18204005520E+03  0.35063723065E+03  0.00000000000E+00 0.  1.
          2    1    6    6  502    0 -0.15904206551E+03  0.57259877703E+03 -0.22432563444E+03  0.63520526472E+03  0.00000000000E+00 0. -1.
          1    1    5    5  503    0 -0.56020811449E+02 -0.12237446705E+03 -0.44944854002E+03  0.46916716810E+03  0.00000000000E+00 0. -1.
         -2    1    5    5    0  503 -0.49416074599E+02 -0.62116681485E+02 -0.12064175073E+03  0.14441212749E+03  0.00000000000E+00 0.  1.
         -1    1    6    6    0  502 -0.30053331358E+01  0.60052400683E+02 -0.20175584241E+01  0.60161394573E+02  0.00000000000E+00 0.  1.
<mgrwt>
<rscale>  0 0.18016924E+04</rscale>
<asrwt>0</asrwt>
<pdfrwt beam="1">  1        2 0.18856694E+00 0.18016924E+04</pdfrwt>
<pdfrwt beam="2">  1       -2 0.10186126E+00 0.18016924E+04</pdfrwt>
<totfact> 0.13646017E+01</totfact>
</mgrwt>
</event>
<event>
12    1  0.2214165E-007  0.2036748E+04  0.7818608E-02  0.8589630E-01
          2   -1    0    0  501    0  0.00000000000E+00  0.00000000000E+00  0.29579749989E+04  0.29579749989E+04  0.00000000000E+00 0. -1.
         -2   -1    0    0    0  501 -0.00000000000E+00 -0.00000000000E+00 -0.35060664815E+03  0.35060664815E+03  0.00000000000E+00 0.  1.
         23    2    1    2    0    0  0.69578204822E+03  0.39746923012E+03  0.78203150889E+03  0.11233982935E+04  0.91411145410E+02 0.  0.
        254    2    1    2    0    0 -0.69578204822E+03 -0.39746923012E+03  0.18253368418E+04  0.21851833535E+04  0.89502919208E+03 0.  0.
        -24    2    4    4    0    0  0.15782838849E+02 -0.43956952736E+03  0.45138617006E+03  0.63522584686E+03  0.79321715952E+02 0.  0.
         24    2    4    4    0    0 -0.71156488707E+03  0.42100297232E+02  0.13739506718E+04  0.15499575066E+04  0.80813367258E+02 0.  0.
         13    1    3    3    0    0  0.60368516257E+03  0.37499508149E+03  0.70756706826E+03  0.10028500600E+04  0.00000000000E+00 0. -1.
        -13    1    3    3    0    0  0.92096885648E+02  0.22474148630E+02  0.74464440623E+02  0.12054823358E+03  0.00000000000E+00 0.  1.
          2    1    6    6  502    0 -0.39935323809E+03 -0.16497738073E+02  0.75997038762E+03  0.85866767390E+03  0.00000000000E+00 0. -1.
          3    1    5    5  503    0  0.20177709202E+02 -0.14668006322E+03  0.10459781340E+03  0.18128122755E+03  0.00000000000E+00 0. -1.
         -4    1    5    5    0  503 -0.43948703535E+01 -0.29288946413E+03  0.34678835666E+03  0.45394461931E+03  0.00000000000E+00 0.  1.
         -1    1    6    6    0  502 -0.31221164897E+03  0.58598035306E+02  0.61398028416E+03  0.69128983273E+03  0.00000000000E+00 0.  1.
<mgrwt>
<rscale>  0 0.20367481E+04</rscale>
<asrwt>0</asrwt>
<pdfrwt beam="1">  1        2 0.45507306E+00 0.20367481E+04</pdfrwt>
<pdfrwt beam="2">  1       -2 0.53939486E-01 0.20367481E+04</pdfrwt>
<totfact> 0.55576614E+00</totfact>
</mgrwt>
</event>
<event>
12    1  0.2214165E-007  0.2116283E+04  0.7818608E-02  0.8554104E-01
          2   -1    0    0  501    0  0.00000000000E+00  0.00000000000E+00  0.17721189202E+04  0.17721189202E+04  0.00000000000E+00 0. -1.
         -2   -1    0    0    0  501 -0.00000000000E+00 -0.00000000000E+00 -0.63182181837E+03  0.63182181837E+03  0.00000000000E+00 0.  1.
         23    2    1    2    0    0  0.70102089131E+03  0.51268691690E+03  0.38691911233E+03  0.95505288248E+03  0.90229950829E+02 0.  0.
        254    2    1    2    0    0 -0.70102089131E+03 -0.51268691690E+03  0.75337798946E+03  0.14488878560E+04  0.88171393296E+03 0.  0.
        -24    2    4    4    0    0 -0.13403126516E+03  0.21849380492E+03  0.30641507509E+02  0.27220865217E+03  0.86340752283E+02 0.  0.
         24    2    4    4    0    0 -0.56698962615E+03 -0.73118072182E+03  0.72273648195E+03  0.11766792039E+04  0.78252427189E+02 0.  0.
         11    1    3    3    0    0  0.49731889018E+03  0.32102311198E+03  0.28899390426E+03  0.65871040196E+03  0.00000000000E+00 0. -1.
        -11    1    3    3    0    0  0.20370200114E+03  0.19166380493E+03  0.97925208074E+02  0.29634248052E+03  0.00000000000E+00 0.  1.
          2    1    6    6  502    0 -0.33752639074E+03 -0.45776697758E+03  0.39854141843E+03  0.69448537235E+03  0.00000000000E+00 0. -1.
          1    1    5    5  503    0 -0.10687908567E+03  0.12221981479E+03  0.50892854970E+02  0.17014965403E+03  0.00000000000E+00 0. -1.
         -2    1    5    5    0  503 -0.27152179493E+02  0.96273990130E+02 -0.20251347460E+02  0.10205899814E+03  0.00000000000E+00 0.  1.
         -1    1    6    6    0  502 -0.22946323542E+03 -0.27341374425E+03  0.32419506352E+03  0.48219383153E+03  0.00000000000E+00 0.  1.
<mgrwt>
<rscale>  0 0.21162830E+04</rscale>
<asrwt>0</asrwt>
<pdfrwt beam="1">  1        2 0.27263368E+00 0.21162830E+04</pdfrwt>
<pdfrwt beam="2">  1       -2 0.97203357E-01 0.21162830E+04</pdfrwt>
<totfact> 0.72684309E+00</totfact>
</mgrwt>
</event>
<event>
12    1  0.2214165E-007  0.1909848E+04  0.7818608E-02  0.8649970E-01
         -2   -1    0    0    0  501 -0.00000000000E+00  0.00000000000E+00  0.98848136965E+03  0.98848136965E+03  0.00000000000E+00 0.  1.
          2   -1    0    0  501    0  0.00000000000E+00 -0.00000000000E+00 -0.92250561333E+03  0.92250561333E+03  0.00000000000E+00 0. -1.
         23    2    1    2    0    0  0.14536004763E+03  0.35396901801E+03 -0.60631419772E+03  0.72280857372E+03  0.91715422571E+02 0.  0.
        254    2    1    2    0    0 -0.14536004763E+03 -0.35396901801E+03  0.67228995403E+03  0.11881784092E+04  0.90187057871E+03 0.  0.
        -24    2    4    4    0    0 -0.27781385310E+03 -0.55250494682E+03  0.69736242965E+03  0.93573030995E+03  0.82671648405E+02 0.  0.
         24    2    4    4    0    0  0.13245380547E+03  0.19853592881E+03 -0.25072475614E+02  0.25244809929E+03  0.78363819420E+02 0.  0.
         11    1    3    3    0    0  0.59882665531E+02  0.14347616142E+03 -0.16661742474E+03  0.22788749144E+03  0.00000000000E+00 0.  1.
        -11    1    3    3    0    0  0.85477382102E+02  0.21049285660E+03 -0.43969677297E+03  0.49492108229E+03  0.00000000000E+00 0. -1.
          4    1    6    6  502    0  0.60948442857E+02  0.46193572121E+02 -0.34494786386E+02  0.83895465192E+02  0.00000000000E+00 0. -1.
          1    1    5    5  503    0 -0.21171444549E+03 -0.45549757578E+03  0.60517568294E+03  0.78647228508E+03  0.00000000000E+00 0. -1.
         -2    1    5    5    0  503 -0.66099407610E+02 -0.97007371035E+02  0.92186746708E+02  0.14925802488E+03  0.00000000000E+00 0.  1.
         -3    1    6    6    0  502  0.71505362610E+02  0.15234235669E+03  0.94223107714E+01  0.16855263410E+03  0.00000000000E+00 0.  1.
<mgrwt>
<rscale>  0 0.19098478E+04</rscale>
<asrwt>0</asrwt>
<pdfrwt beam="1">  1        2 0.14192394E+00 0.19098478E+04</pdfrwt>
<pdfrwt beam="2">  1       -2 0.15207406E+00 0.19098478E+04</pdfrwt>
<totfact> 0.76531383E+00</totfact>
</mgrwt>
</event>
<event>
12    1  0.2214165E-007  0.2454267E+04  0.7818608E-02  0.8419462E-01
          1   -1    0    0  501    0  0.00000000000E+00  0.00000000000E+00  0.24226833608E+04  0.24226833608E+04  0.00000000000E+00 0. -1.
         -1   -1    0    0    0  501 -0.00000000000E+00 -0.00000000000E+00 -0.62156547167E+03  0.62156547167E+03  0.00000000000E+00 0.  1.
         23    2    1    2    0    0  0.81457598108E+03  0.33996516780E+03  0.54705805664E+02  0.88915555122E+03  0.92165746474E+02 0.  0.
        254    2    1    2    0    0 -0.81457598108E+03 -0.33996516780E+03  0.17464120835E+04  0.21550932813E+04  0.90297372131E+03 0.  0.
        -24    2    4    4    0    0 -0.13729304627E+03 -0.37564310548E+03  0.17881338517E+03  0.44514826047E+03  0.78902622489E+02 0.  0.
         24    2    4    4    0    0 -0.67728293481E+03  0.35677937681E+02  0.15675986983E+04  0.17099450208E+04  0.81001272645E+02 0.  0.
         13    1    3    3    0    0  0.31530124063E+03  0.16769532861E+03 -0.85279766336E+01  0.35722447000E+03  0.00000000000E+00 0. -1.
        -13    1    3    3    0    0  0.49927474045E+03  0.17226983919E+03  0.63233782298E+02  0.53193108122E+03  0.00000000000E+00 0.  1.
          2    1    6    6  502    0 -0.65640546391E+03  0.48287758238E+02  0.14987199987E+04  0.16368755222E+04  0.00000000000E+00 0. -1.
          3    1    5    5  503    0 -0.17473186090E+02 -0.90168917573E+02  0.96623635882E+01  0.92353165612E+02  0.00000000000E+00 0. -1.
         -4    1    5    5    0  503 -0.11981986018E+03 -0.28547418790E+03  0.16915102158E+03  0.35279509485E+03  0.00000000000E+00 0.  1.
         -1    1    6    6    0  502 -0.20877470899E+02 -0.12609820557E+02  0.68878699673E+02  0.73069498659E+02  0.00000000000E+00 0.  1.
<mgrwt>
<rscale>  0 0.24542668E+04</rscale>
<asrwt>0</asrwt>
<pdfrwt beam="1">  1        1 0.37272051E+00 0.24542668E+04</pdfrwt>
<pdfrwt beam="2">  1       -1 0.95625459E-01 0.24542668E+04</pdfrwt>
<totfact> 0.14416807E+00</totfact>
</mgrwt>
</event>
<event>
12    1  0.2214165E-007  0.2997242E+04  0.7818608E-02  0.8244519E-01
          2   -1    0    0  501    0  0.00000000000E+00  0.00000000000E+00  0.89105199158E+03  0.89105199158E+03  0.00000000000E+00 0. -1.
         -2   -1    0    0    0  501 -0.00000000000E+00 -0.00000000000E+00 -0.25204651870E+04  0.25204651870E+04  0.00000000000E+00 0.  1.
         23    2    1    2    0    0 -0.13150770044E+04  0.23766975127E+03 -0.44225495738E+03  0.14103684963E+04  0.87380831896E+02 0.  0.
        254    2    1    2    0    0  0.13150770044E+04 -0.23766975127E+03 -0.11871582380E+04  0.20011486823E+04  0.89963155143E+03 0.  0.
        -24    2    4    4    0    0  0.65288006324E+03 -0.17578915328E+03 -0.51406338646E+02  0.68260794783E+03  0.78465249701E+02 0.  0.
         24    2    4    4    0    0  0.66219694117E+03 -0.61880597988E+02 -0.11357518994E+04  0.13185407345E+04  0.79267232639E+02 0.  0.
         13    1    3    3    0    0 -0.81073909091E+03  0.11265368201E+03 -0.24252757323E+03  0.85370272892E+03  0.00000000000E+00 0. -1.
        -13    1    3    3    0    0 -0.50433791350E+03  0.12501606926E+03 -0.19972738415E+03  0.55666576736E+03  0.00000000000E+00 0.  1.
          2    1    6    6  502    0  0.53954160129E+03 -0.20461532965E+02 -0.89768881413E+03  0.10475538272E+04  0.00000000000E+00 0. -1.
          1    1    5    5  503    0  0.56282522846E+03 -0.15889456329E+03 -0.70361346050E+02  0.58904196714E+03  0.00000000000E+00 0. -1.
         -4    1    5    5    0  503  0.90054834780E+02 -0.16894589990E+02  0.18955007404E+02  0.93565980697E+02  0.00000000000E+00 0.  1.
         -1    1    6    6    0  502  0.12265533988E+03 -0.41419065024E+02 -0.23806308526E+03  0.27098690727E+03  0.00000000000E+00 0.  1.
<mgrwt>
<rscale>  0 0.29972424E+04</rscale>
<asrwt>0</asrwt>
<pdfrwt beam="1">  1        2 0.13708492E+00 0.29972424E+04</pdfrwt>
<pdfrwt beam="2">  1       -2 0.38776387E+00 0.29972424E+04</pdfrwt>
<totfact> 0.22692445E-01</totfact>
</mgrwt>
</event>
<event>
12    1  0.2214165E-007  0.2242939E+04  0.7818608E-02  0.8500765E-01
         -1   -1    0    0    0  501 -0.00000000000E+00  0.00000000000E+00  0.87193818640E+03  0.87193818640E+03  0.00000000000E+00 0.  1.
          1   -1    0    0  501    0  0.00000000000E+00 -0.00000000000E+00 -0.14424121130E+04  0.14424121130E+04  0.00000000000E+00 0. -1.
         23    2    1    2    0    0  0.22955781416E+03  0.90460645339E+03 -0.17851362168E+03  0.95465811484E+03  0.92170372426E+02 0.  0.
        254    2    1    2    0    0 -0.22955781416E+03 -0.90460645339E+03 -0.39196030491E+03  0.13596921846E+04  0.90781073500E+03 0.  0.
        -24    2    4    4    0    0 -0.41727677188E+03 -0.98268444185E+03 -0.25005477088E+03  0.10993156950E+04  0.78606565501E+02 0.  0.
         24    2    4    4    0    0  0.18771895772E+03  0.78077988464E+02 -0.14190553403E+03  0.26037648960E+03  0.79524564636E+02 0.  0.
         11    1    3    3    0    0  0.17403993577E+03  0.69597000450E+03 -0.17631707946E+03  0.73875020062E+03  0.00000000000E+00 0. -1.
        -11    1    3    3    0    0  0.55517878389E+02  0.20863644888E+03 -0.21965422201E+01  0.21590791422E+03  0.00000000000E+00 0.  1.
          2    1    6    6  502    0  0.72351383451E+02  0.36111494641E+02 -0.12184889489E+02  0.81775511397E+02  0.00000000000E+00 0. -1.
          1    1    5    5  503    0 -0.20959260072E+03 -0.42281991437E+03 -0.13870274752E+03  0.49187822724E+03  0.00000000000E+00 0. -1.
         -2    1    5    5    0  503 -0.20768417115E+03 -0.55986452749E+03 -0.11135202336E+03  0.60743746772E+03  0.00000000000E+00 0.  1.
         -1    1    6    6    0  502  0.11536757427E+03  0.41966493824E+02 -0.12972064454E+03  0.17860097821E+03  0.00000000000E+00 0.  1.
<mgrwt>
<rscale>  0 0.22429393E+04</rscale>
<asrwt>0</asrwt>
<pdfrwt beam="1">  1        1 0.22190956E+00 0.22429393E+04</pdfrwt>
<pdfrwt beam="2">  1       -1 0.13414434E+00 0.22429393E+04</pdfrwt>
<totfact> 0.30513878E+00</totfact>
</mgrwt>
</event>
<event>
12    1  0.2214165E-007  0.3265507E+04  0.7818608E-02  0.8171728E-01
         -1   -1    0    0    0  501 -0.00000000000E+00  0.00000000000E+00  0.80700172485E+03  0.80700172485E+03  0.00000000000E+00 0.  1.
          1   -1    0    0  501    0  0.00000000000E+00 -0.00000000000E+00 -0.33034431199E+04  0.33034431199E+04  0.00000000000E+00 0. -1.
         23    2    1    2    0    0 -0.12116931427E+04  0.88902520737E+03 -0.10123972020E+04  0.18147212033E+04  0.98482788633E+02 0.  0.
        254    2    1    2    0    0  0.12116931427E+04 -0.88902520737E+03 -0.14840441931E+04  0.22957236415E+04  0.89966314788E+03 0.  0.
        -24    2    4    4    0    0  0.62180136818E+03  0.50606386908E+02 -0.65841230981E+03  0.91043342326E+03  0.78640324403E+02 0.  0.
         24    2    4    4    0    0  0.58989177452E+03 -0.93963159428E+03 -0.82563188325E+03  0.13852902182E+04  0.80505548917E+02 0.  0.
         11    1    3    3    0    0 -0.92940881344E+03  0.62983531186E+03 -0.74430041242E+03  0.13470250059E+04  0.00000000000E+00 0.  1.
        -11    1    3    3    0    0 -0.28228432926E+03  0.25918989552E+03 -0.26809678962E+03  0.46769619743E+03  0.00000000000E+00 0. -1.
          2    1    6    6  502    0  0.20275463145E+03 -0.27651190958E+03 -0.22070418025E+03  0.40777274540E+03  0.00000000000E+00 0. -1.
          3    1    5    5  503    0  0.22892852435E+03  0.19111758750E+02 -0.29875259004E+03  0.37686421777E+03  0.00000000000E+00 0. -1.
         -4    1    5    5    0  503  0.39287284383E+03  0.31494628157E+02 -0.35965971977E+03  0.53356920549E+03  0.00000000000E+00 0.  1.
         -1    1    6    6    0  502  0.38713714307E+03 -0.66311968471E+03 -0.60492770300E+03  0.97751747281E+03  0.00000000000E+00 0.  1.
<mgrwt>
<rscale>  0 0.32655072E+04</rscale>
<asrwt>0</asrwt>
<pdfrwt beam="1">  1        1 0.50822202E+00 0.32655072E+04</pdfrwt>
<pdfrwt beam="2">  1       -1 0.12415411E+00 0.32655072E+04</pdfrwt>
<totfact> 0.16790614E-01</totfact>
</mgrwt>
</event>
<event>
12    1  0.2214165E-007  0.3078294E+04  0.7818608E-02  0.8221720E-01
          2   -1    0    0  501    0  0.00000000000E+00  0.00000000000E+00  0.13594828815E+04  0.13594828815E+04  0.00000000000E+00 0. -1.
         -2   -1    0    0    0  501 -0.00000000000E+00 -0.00000000000E+00 -0.17425545361E+04  0.17425545361E+04  0.00000000000E+00 0.  1.
         23    2    1    2    0    0  0.32527994732E+03  0.11631913564E+04  0.54887325914E+03  0.13298349103E+04  0.91530640999E+02 0.  0.
        254    2    1    2    0    0 -0.32527994732E+03 -0.11631913564E+04 -0.93194491376E+03  0.17722025074E+04  0.90186430750E+03 0.  0.
        -24    2    4    4    0    0  0.17378361998E+03 -0.93038331589E+03 -0.62035143262E+03  0.11345043113E+04  0.80313581714E+02 0.  0.
         24    2    4    4    0    0 -0.49906356730E+03 -0.23280804053E+03 -0.31159348114E+03  0.63769819606E+03  0.79400653834E+02 0.  0.
         13    1    3    3    0    0  0.23735177157E+03  0.86416717835E+03  0.36271629891E+03  0.96679050942E+03  0.00000000000E+00 0.  1.
        -13    1    3    3    0    0  0.87928175753E+02  0.29902417806E+03  0.18615696022E+03  0.36304440086E+03  0.00000000000E+00 0. -1.
          4    1    6    6  502    0 -0.31253941611E+03 -0.13129317926E+03 -0.14927104221E+03  0.37040603340E+03  0.00000000000E+00 0. -1.
          1    1    5    5  503    0  0.15274592132E+03 -0.79705285768E+03 -0.49697623455E+03  0.95163540924E+03  0.00000000000E+00 0. -1.
         -2    1    5    5    0  503  0.21037698659E+02 -0.13333045821E+03 -0.12337519806E+03  0.18286890208E+03  0.00000000000E+00 0.  1.
         -3    1    6    6    0  502 -0.18652415120E+03 -0.10151486126E+03 -0.16232243894E+03  0.26729216266E+03  0.00000000000E+00 0.  1.
<mgrwt>
<rscale>  0 0.30782937E+04</rscale>
<asrwt>0</asrwt>
<pdfrwt beam="1">  1        2 0.20915121E+00 0.30782937E+04</pdfrwt>
<pdfrwt beam="2">  1       -2 0.26808531E+00 0.30782937E+04</pdfrwt>
<totfact> 0.64656795E-01</totfact>
</mgrwt>
</event>
<event>
12    1  0.2214165E-007  0.1324095E+04  0.7818608E-02  0.9010673E-01
         -2   -1    0    0    0  501 -0.00000000000E+00  0.00000000000E+00  0.52149725363E+03  0.52149725363E+03  0.00000000000E+00 0.  1.
          2   -1    0    0  501    0  0.00000000000E+00 -0.00000000000E+00 -0.84047815844E+03  0.84047815844E+03  0.00000000000E+00 0. -1.
         23    2    1    2    0    0  0.60863755407E+02  0.13156368199E+03  0.23712074855E+03  0.29430461920E+03  0.96827477236E+02 0.  0.
        254    2    1    2    0    0 -0.60863755407E+02 -0.13156368199E+03 -0.55610165335E+03  0.10676707929E+04  0.89981024330E+03 0.  0.
        -24    2    4    4    0    0 -0.42135570994E+03 -0.21202718378E+03 -0.48851013813E+03  0.68375687951E+03  0.79907160247E+02 0.  0.
         24    2    4    4    0    0  0.36049195454E+03  0.80463501786E+02 -0.67591515221E+02  0.38391391336E+03  0.79952833209E+02 0.  0.
         13    1    3    3    0    0  0.60486652477E+02  0.14505536232E+03  0.19721034717E+03  0.25217377797E+03  0.00000000000E+00 0.  1.
        -13    1    3    3    0    0  0.37710293079E+00 -0.13491680322E+02  0.39910401383E+02  0.42130841234E+02  0.00000000000E+00 0. -1.
          4    1    6    6  502    0  0.53301820425E+02 -0.12394733237E+02  0.47939031130E+01  0.54933550583E+02  0.00000000000E+00 0. -1.
          3    1    5    5  503    0 -0.13386016579E+03 -0.35378920563E+02 -0.11127501842E+03  0.17762978840E+03  0.00000000000E+00 0. -1.
         -4    1    5    5    0  503 -0.28749554416E+03 -0.17664826322E+03 -0.37723511971E+03  0.50612709111E+03  0.00000000000E+00 0.  1.
         -3    1    6    6    0  502  0.30719013411E+03  0.92858235022E+02 -0.72385418334E+02  0.32898036278E+03  0.00000000000E+00 0.  1.
<mgrwt>
<rscale>  0 0.13240952E+04</rscale>
<asrwt>0</asrwt>
<pdfrwt beam="1">  1        2 0.12930433E+00 0.13240952E+04</pdfrwt>
<pdfrwt beam="2">  1       -2 0.80230348E-01 0.13240952E+04</pdfrwt>
<totfact> 0.43331484E+01</totfact>
</mgrwt>
</event>
<event>
12    1  0.2214165E-007  0.5835129E+04  0.7818608E-02  0.7711187E-01
         -1   -1    0    0    0  501 -0.00000000000E+00  0.00000000000E+00  0.20402663465E+04  0.20402663465E+04  0.00000000000E+00 0.  1.
          1   -1    0    0  501    0  0.00000000000E+00 -0.00000000000E+00 -0.41720943228E+04  0.41720943228E+04  0.00000000000E+00 0. -1.
         23    2    1    2    0    0  0.14664290042E+04 -0.31007802518E+02  0.15574408394E+04  0.21411661832E+04  0.87150144486E+02 0.  0.
        254    2    1    2    0    0 -0.14664290042E+04  0.31007802518E+02 -0.36892688157E+04  0.40711944862E+04  0.90141258144E+03 0.  0.
        -24    2    4    4    0    0 -0.97204795222E+03 -0.32886888509E+03 -0.28470651337E+04  0.30276123666E+04  0.87320110749E+02 0.  0.
         24    2    4    4    0    0 -0.49438105198E+03  0.35987668761E+03 -0.84220368191E+03  0.10435821196E+04  0.76372400786E+02 0.  0.
         11    1    3    3    0    0  0.69550854620E+03  0.28776877718E+02  0.74059508494E+03  0.10163864060E+04  0.00000000000E+00 0. -1.
        -11    1    3    3    0    0  0.77092045800E+03 -0.59784680236E+02  0.81684575443E+03  0.11247797772E+04  0.00000000000E+00 0.  1.
          2    1    6    6  502    0 -0.48520084353E+03  0.35299348272E+03 -0.80101008258E+03  0.10008203684E+04  0.00000000000E+00 0. -1.
          1    1    5    5  503    0 -0.87197401805E+03 -0.31027296137E+03 -0.24952310783E+04  0.26613504340E+04  0.00000000000E+00 0. -1.
         -2    1    5    5    0  503 -0.10007393417E+03 -0.18595923718E+02 -0.35183405545E+03  0.36626193258E+03  0.00000000000E+00 0.  1.
         -1    1    6    6    0  502 -0.91802084566E+01  0.68832048834E+01 -0.41193599334E+02  0.42761751167E+02  0.00000000000E+00 0.  1.
<mgrwt>
<rscale>  0 0.58351294E+04</rscale>
<asrwt>0</asrwt>
<pdfrwt beam="1">  1        1 0.64186066E+00 0.58351294E+04</pdfrwt>
<pdfrwt beam="2">  1       -1 0.31388713E+00 0.58351294E+04</pdfrwt>
<totfact> 0.12120174E-03</totfact>
</mgrwt>
</event>
<event>
12    1  0.2214165E-007  0.1745305E+04  0.7818608E-02  0.8735939E-01
         -1   -1    0    0    0  501 -0.00000000000E+00  0.00000000000E+00  0.13393119114E+04  0.13393119114E+04  0.00000000000E+00 0.  1.
          1   -1    0    0  501    0  0.00000000000E+00 -0.00000000000E+00 -0.56859251975E+03  0.56859251975E+03  0.00000000000E+00 0. -1.
         23    2    1    2    0    0  0.60400224652E+03 -0.82801303019E+02  0.83299222917E+02  0.62163791189E+03  0.88431687635E+02 0.  0.
        254    2    1    2    0    0 -0.60400224652E+03  0.82801303019E+02  0.68742016871E+03  0.12862665192E+04  0.90014459982E+03 0.  0.
        -24    2    4    4    0    0 -0.51390837244E+03  0.61345900045E+02  0.90174230777E+03  0.10426691997E+04  0.78452123304E+02 0.  0.
         24    2    4    4    0    0 -0.90093874088E+02  0.21455402974E+02 -0.21432213906E+03  0.24359731955E+03  0.69486936428E+02 0.  0.
         11    1    3    3    0    0  0.33740917989E+03 -0.59569523667E+02  0.44366721370E+01  0.34265604750E+03  0.00000000000E+00 0. -1.
        -11    1    3    3    0    0  0.26659306663E+03 -0.23231779352E+02  0.78862550780E+02  0.27898186440E+03  0.00000000000E+00 0.  1.
          2    1    6    6  502    0 -0.46754675567E+02 -0.24301278100E+02 -0.93497580181E+02  0.10732357292E+03  0.00000000000E+00 0. -1.
          3    1    5    5  503    0 -0.78825069904E+02  0.37312260832E+02  0.13375924720E+03  0.15967821600E+03  0.00000000000E+00 0. -1.
         -4    1    5    5    0  503 -0.43508330253E+03  0.24033639213E+02  0.76798306057E+03  0.88299098369E+03  0.00000000000E+00 0.  1.
         -1    1    6    6    0  502 -0.43339198521E+02  0.45756681074E+02 -0.12082455888E+03  0.13627374663E+03  0.00000000000E+00 0.  1.
<mgrwt>
<rscale>  0 0.17453054E+04</rscale>
<asrwt>0</asrwt>
<pdfrwt beam="1">  1        1 0.87475773E-01 0.17453054E+04</pdfrwt>
<pdfrwt beam="2">  1       -1 0.20604799E+00 0.17453054E+04</pdfrwt>
<totfact> 0.47968059E+00</totfact>
</mgrwt>
</event>
<event>
12    1  0.2214165E-007  0.1507921E+04  0.7818608E-02  0.8879203E-01
         -2   -1    0    0    0  501 -0.00000000000E+00  0.00000000000E+00  0.14969396702E+04  0.14969396702E+04  0.00000000000E+00 0.  1.
          2   -1    0    0  501    0  0.00000000000E+00 -0.00000000000E+00 -0.37974569909E+03  0.37974569909E+03  0.00000000000E+00 0. -1.
         23    2    1    2    0    0  0.13454878101E+03 -0.40948178123E+03  0.61454018941E+03  0.75609581977E+03  0.90788438916E+02 0.  0.
        254    2    1    2    0    0 -0.13454878101E+03  0.40948178123E+03  0.50265378169E+03  0.11205895495E+04  0.90403617770E+03 0.  0.
        -24    2    4    4    0    0  0.78430323084E+02  0.59340706912E+03  0.55877879357E+03  0.82278205331E+03  0.80332445786E+02 0.  0.
         24    2    4    4    0    0 -0.21297910409E+03 -0.18392528789E+03 -0.56125011874E+02  0.29780749620E+03  0.79691138320E+02 0.  0.
         11    1    3    3    0    0  0.13822374790E+03 -0.41150470216E+03  0.59748619140E+03  0.73853346119E+03  0.00000000000E+00 0. -1.
        -11    1    3    3    0    0 -0.36749668922E+01  0.20229209277E+01  0.17053998012E+02  0.17562358581E+02  0.00000000000E+00 0.  1.
          2    1    6    6  502    0 -0.48249208250E+02 -0.51959658557E+01 -0.83988129230E+00  0.48535446413E+02  0.00000000000E+00 0. -1.
          3    1    5    5  503    0  0.34370588635E+02  0.63575823818E+02  0.66129224476E+02  0.97960691438E+02  0.00000000000E+00 0. -1.
         -4    1    5    5    0  503  0.44059734449E+02  0.52983124531E+03  0.49264956909E+03  0.72482136187E+03  0.00000000000E+00 0.  1.
         -1    1    6    6    0  502 -0.16472989584E+03 -0.17872932204E+03 -0.55285130581E+02  0.24927204978E+03  0.00000000000E+00 0.  1.
<mgrwt>
<rscale>  0 0.15079210E+04</rscale>
<asrwt>0</asrwt>
<pdfrwt beam="1">  1        2 0.58422416E-01 0.15079210E+04</pdfrwt>
<pdfrwt beam="2">  1       -2 0.23029841E+00 0.15079210E+04</pdfrwt>
<totfact> 0.69295248E+00</totfact>
</mgrwt>
</event>
<event>
12    1  0.2214165E-007  0.1565487E+04  0.7818608E-02  0.8842036E-01
          2   -1    0    0  501    0  0.00000000000E+00  0.00000000000E+00  0.22561228718E+04  0.22561228718E+04  0.00000000000E+00 0. -1.
         -2   -1    0    0    0  501 -0.00000000000E+00 -0.00000000000E+00 -0.27156659965E+03  0.27156659965E+03  0.00000000000E+00 0.  1.
         23    2    1    2    0    0  0.31040696160E+03 -0.38023060780E+03  0.94593102306E+03  0.10695893376E+04  0.91148526263E+02 0.  0.
        254    2    1    2    0    0 -0.31040696160E+03  0.38023060780E+03  0.10386252491E+04  0.14581001338E+04  0.89798986370E+03 0.  0.
        -24    2    4    4    0    0 -0.11218479980E+03  0.44332404236E+03  0.11267824429E+04  0.12186399962E+04  0.79518116385E+02 0.  0.
         24    2    4    4    0    0 -0.19822216180E+03 -0.63093434562E+02 -0.88157193796E+02  0.23946013765E+03  0.79351495220E+02 0.  0.
         11    1    3    3    0    0  0.18411217416E+03 -0.25034908711E+03  0.68202199930E+03  0.74948379944E+03  0.00000000000E+00 0. -1.
        -11    1    3    3    0    0  0.12629478744E+03 -0.12988152069E+03  0.26390902376E+03  0.32010553818E+03  0.00000000000E+00 0.  1.
          4    1    6    6  502    0 -0.16656881687E+03 -0.42756627937E+02 -0.36910504022E+02  0.17588543229E+03  0.00000000000E+00 0. -1.
          3    1    5    5  503    0 -0.10297593675E+03  0.42532604033E+03  0.10192496526E+04  0.11092232140E+04  0.00000000000E+00 0. -1.
         -4    1    5    5    0  503 -0.92088630483E+01  0.17998002028E+02  0.10753279030E+03  0.10941678219E+03  0.00000000000E+00 0.  1.
         -3    1    6    6    0  502 -0.31653344933E+02 -0.20336806625E+02 -0.51246689774E+02  0.63574705362E+02  0.00000000000E+00 0.  1.
<mgrwt>
<rscale>  0 0.15654873E+04</rscale>
<asrwt>0</asrwt>
<pdfrwt beam="1">  1        2 0.34709581E+00 0.15654873E+04</pdfrwt>
<pdfrwt beam="2">  1       -2 0.41779478E-01 0.15654873E+04</pdfrwt>
<totfact> 0.25084238E+01</totfact>
</mgrwt>
</event>
<event>
12    1  0.2214165E-007  0.1382748E+04  0.7818608E-02  0.8966402E-01
          1   -1    0    0  501    0  0.00000000000E+00  0.00000000000E+00  0.11954169869E+04  0.11954169869E+04  0.00000000000E+00 0. -1.
         -1   -1    0    0    0  501 -0.00000000000E+00 -0.00000000000E+00 -0.39985869690E+03  0.39985869690E+03  0.00000000000E+00 0.  1.
         23    2    1    2    0    0  0.58477353494E+02  0.37921116613E+03  0.20600541977E+03  0.45119979163E+03  0.11799283707E+03 0.  0.
        254    2    1    2    0    0 -0.58477353494E+02 -0.37921116613E+03  0.58955287019E+03  0.11440758921E+04  0.90228396353E+03 0.  0.
        -24    2    4    4    0    0  0.54500618975E+02  0.25727698764E+03  0.15326907031E+02  0.27591272308E+03  0.82043591086E+02 0.  0.
         24    2    4    4    0    0 -0.11297797247E+03 -0.63648815377E+03  0.57422596316E+03  0.86816316906E+03  0.78042547361E+02 0.  0.
         11    1    3    3    0    0  0.62357299681E+01  0.31860632096E+03  0.18500045237E+03  0.36847529017E+03  0.00000000000E+00 0.  1.
        -11    1    3    3    0    0  0.52241623526E+02  0.60604845161E+02  0.21004967403E+02  0.82724501457E+02  0.00000000000E+00 0. -1.
          2    1    6    6  502    0 -0.61231720680E+02 -0.48536984758E+03  0.46253585889E+03  0.67325525124E+03  0.00000000000E+00 0. -1.
          3    1    5    5  503    0  0.50112846487E+02  0.26315364679E+03  0.12920848095E+02  0.26819412283E+03  0.00000000000E+00 0. -1.
         -4    1    5    5    0  503  0.43877724888E+01 -0.58766591525E+01  0.24060589357E+01  0.77186002494E+01  0.00000000000E+00 0.  1.
         -1    1    6    6    0  502 -0.51746251789E+02 -0.15111830618E+03  0.11169010426E+03  0.19490791782E+03  0.00000000000E+00 0.  1.
<mgrwt>
<rscale>  0 0.13827478E+04</rscale>
<asrwt>0</asrwt>
<pdfrwt beam="1">  1        1 0.18391030E+00 0.13827478E+04</pdfrwt>
<pdfrwt beam="2">  1       -1 0.61516723E-01 0.13827478E+04</pdfrwt>
<totfact> 0.28178733E+01</totfact>
</mgrwt>
</event>
<event>
12    1  0.2214165E-007  0.2785189E+04  0.7818608E-02  0.8307882E-01
         -1   -1    0    0    0  501 -0.00000000000E+00  0.00000000000E+00  0.95150551647E+03  0.95150551647E+03  0.00000000000E+00 0.  1.
          1   -1    0    0  501    0  0.00000000000E+00 -0.00000000000E+00 -0.20381582273E+04  0.20381582273E+04  0.00000000000E+00 0. -1.
         23    2    1    2    0    0  0.29216255565E+03 -0.11759080827E+04 -0.17976812905E+03  0.12283394809E+04  0.91556114463E+02 0.  0.
        254    2    1    2    0    0 -0.29216255565E+03  0.11759080827E+04 -0.90688458178E+03  0.17613242629E+04  0.90094657809E+03 0.  0.
        -24    2    4    4    0    0 -0.10991466117E+03 -0.12395893300E+03 -0.18339496669E+03  0.26042685063E+03  0.82105912757E+02 0.  0.
         24    2    4    4    0    0 -0.18224789448E+03  0.12998670157E+04 -0.72348961509E+03  0.15008974123E+04  0.79920369806E+02 0.  0.
         13    1    3    3    0    0  0.12911864203E+03 -0.58873382425E+03 -0.13249844429E+03  0.61711828467E+03  0.00000000000E+00 0.  1.
        -13    1    3    3    0    0  0.16304391362E+03 -0.58717425846E+03 -0.47269684759E+02  0.61122119618E+03  0.00000000000E+00 0. -1.
          2    1    6    6  502    0 -0.14494850177E+03  0.10778991473E+04 -0.56488434960E+03  0.12255492517E+04  0.00000000000E+00 0. -1.
          1    1    5    5  503    0 -0.45699299513E+02 -0.91426366669E+02 -0.14889255654E+03  0.18059955673E+03  0.00000000000E+00 0. -1.
         -2    1    5    5    0  503 -0.64215361656E+02 -0.32532566332E+02 -0.34502410152E+02  0.79827293898E+02  0.00000000000E+00 0.  1.
         -1    1    6    6    0  502 -0.37299392706E+02  0.22196786845E+03 -0.15860526549E+03  0.27534816063E+03  0.00000000000E+00 0.  1.
<mgrwt>
<rscale>  0 0.27851885E+04</rscale>
<asrwt>0</asrwt>
<pdfrwt beam="1">  1        1 0.31356280E+00 0.27851885E+04</pdfrwt>
<pdfrwt beam="2">  1       -1 0.14638546E+00 0.27851885E+04</pdfrwt>
<totfact> 0.90641766E-01</totfact>
</mgrwt>
</event>
<event>
12    1  0.2214165E-007  0.1626726E+04  0.7818608E-02  0.8804296E-01
          1   -1    0    0  501    0  0.00000000000E+00  0.00000000000E+00  0.54621890167E+03  0.54621890167E+03  0.00000000000E+00 0. -1.
         -1   -1    0    0    0  501 -0.00000000000E+00 -0.00000000000E+00 -0.12111611466E+04  0.12111611466E+04  0.00000000000E+00 0.  1.
         23    2    1    2    0    0  0.12983518411E+03  0.15406633556E+03  0.33395273100E+03  0.39964489420E+03  0.87166531047E+02 0.  0.
        254    2    1    2    0    0 -0.12983518411E+03 -0.15406633556E+03 -0.99889497595E+03  0.13577351541E+04  0.89725133875E+03 0.  0.
        -24    2    4    4    0    0 -0.29144250835E+02 -0.37780789356E+03 -0.69898634555E+02  0.39358997069E+03  0.80243717045E+02 0.  0.
         24    2    4    4    0    0 -0.10069093327E+03  0.22374155800E+03 -0.92899634140E+03  0.96414518340E+03  0.79641594172E+02 0.  0.
         11    1    3    3    0    0  0.91747452344E+02  0.15241784482E+03  0.24418893221E+03  0.30212088482E+03  0.00000000000E+00 0.  1.
        -11    1    3    3    0    0  0.38087731762E+02  0.16484907384E+01  0.89763798791E+02  0.97524009382E+02  0.00000000000E+00 0. -1.
          2    1    6    6  502    0 -0.75636058676E+01  0.88066454172E+02 -0.23971382824E+03  0.25549095470E+03  0.00000000000E+00 0. -1.
          1    1    5    5  503    0 -0.44411932400E+02 -0.10533787052E+03 -0.16202515565E+02  0.11545998535E+03  0.00000000000E+00 0. -1.
         -2    1    5    5    0  503  0.15267681565E+02 -0.27247002304E+03 -0.53696118990E+02  0.27812998535E+03  0.00000000000E+00 0.  1.
         -1    1    6    6    0  502 -0.93127327405E+02  0.13567510383E+03 -0.68928251316E+03  0.70865422870E+03  0.00000000000E+00 0.  1.
<mgrwt>
<rscale>  0 0.16267257E+04</rscale>
<asrwt>0</asrwt>
<pdfrwt beam="1">  1        1 0.84033678E-01 0.16267257E+04</pdfrwt>
<pdfrwt beam="2">  1       -1 0.18633248E+00 0.16267257E+04</pdfrwt>
<totfact> 0.70324419E+00</totfact>
</mgrwt>
</event>
<event>
12    1  0.2214165E-007  0.1819468E+04  0.7818608E-02  0.8696014E-01
         -2   -1    0    0    0  501 -0.00000000000E+00  0.00000000000E+00  0.53414782673E+03  0.53414782673E+03  0.00000000000E+00 0. -1.
          2   -1    0    0  501    0  0.00000000000E+00 -0.00000000000E+00 -0.15494141887E+04  0.15494141887E+04  0.00000000000E+00 0.  1.
         23    2    1    2    0    0  0.74801352306E+02  0.48080209661E+03  0.16465337454E+03  0.52184902851E+03  0.91922665326E+02 0.  0.
        254    2    1    2    0    0 -0.74801352306E+02 -0.48080209661E+03 -0.11799197366E+04  0.15617129870E+04  0.89998387236E+03 0.  0.
        -24    2    4    4    0    0 -0.39579197138E+03 -0.52340072413E+03 -0.94603049186E+03  0.11541163821E+04  0.80070776855E+02 0.  0.
         24    2    4    4    0    0  0.32099061908E+03  0.42598627521E+02 -0.23388924469E+03  0.40759660484E+03  0.81124551740E+02 0.  0.
         11    1    3    3    0    0  0.81297234754E+02  0.23064565972E+03  0.70926204843E+02  0.25463147343E+03  0.00000000000E+00 0.  1.
        -11    1    3    3    0    0 -0.64958824478E+01  0.25015643689E+03  0.93727169699E+02  0.26721755508E+03  0.00000000000E+00 0. -1.
          2    1    6    6  502    0  0.53758815573E+02 -0.17971203727E+02 -0.62617886003E+02  0.84462856113E+02  0.00000000000E+00 0. -1.
          1    1    5    5  503    0 -0.15847871004E+02 -0.21069092600E+01 -0.21564668593E+02  0.26844534146E+02  0.00000000000E+00 0. -1.
         -2    1    5    5    0  503 -0.37994410038E+03 -0.52129381487E+03 -0.92446582327E+03  0.11272718480E+04  0.00000000000E+00 0.  1.
         -1    1    6    6    0  502  0.26723180350E+03  0.60569831249E+02 -0.17127135869E+03  0.32313374873E+03  0.00000000000E+00 0.  1.
<mgrwt>
<rscale>  0 0.18194683E+04</rscale>
<asrwt>0</asrwt>
<pdfrwt beam="1">  1        2 0.23837141E+00 0.18194683E+04</pdfrwt>
<pdfrwt beam="2">  1       -2 0.82176589E-01 0.18194683E+04</pdfrwt>
<totfact> 0.14599436E+01</totfact>
</mgrwt>
</event>
<event>
12    1  0.2214165E-007  0.2557497E+04  0.7818608E-02  0.8382783E-01
         -2   -1    0    0    0  501 -0.00000000000E+00  0.00000000000E+00  0.19223821873E+04  0.19223821873E+04  0.00000000000E+00 0. -1.
          2   -1    0    0  501    0  0.00000000000E+00 -0.00000000000E+00 -0.85061033954E+03  0.85061033954E+03  0.00000000000E+00 0.  1.
         23    2    1    2    0    0 -0.79070223523E+02  0.11116313625E+04  0.57698493419E+03  0.12582274124E+04  0.90819715156E+02 0.  0.
        254    2    1    2    0    0  0.79070223523E+02 -0.11116313625E+04  0.49478691359E+03  0.15147651145E+04  0.89873404061E+03 0.  0.
        -24    2    4    4    0    0  0.14604687898E+03 -0.50081752817E+03  0.68672512618E+03  0.86612234556E+03  0.80178745048E+02 0.  0.
         24    2    4    4    0    0 -0.66976655460E+02 -0.61081383434E+03 -0.19193821259E+03  0.64864276890E+03  0.79484285230E+02 0.  0.
         13    1    3    3    0    0 -0.50619450250E+02  0.82345779250E+03  0.38224314148E+03  0.90926062489E+03  0.00000000000E+00 0. -1.
        -13    1    3    3    0    0 -0.28450773273E+02  0.28817357001E+03  0.19474179272E+03  0.34896678751E+03  0.00000000000E+00 0.  1.
          4    1    6    6  502    0  0.18902147707E+01 -0.19022341603E+03 -0.89906123229E+02  0.21040825058E+03  0.00000000000E+00 0. -1.
          3    1    5    5  503    0  0.58568882513E+02 -0.28938158221E+03  0.43730437985E+03  0.52764299935E+03  0.00000000000E+00 0. -1.
         -4    1    5    5    0  503  0.87477996470E+02 -0.21143594596E+03  0.24942074633E+03  0.33847934620E+03  0.00000000000E+00 0.  1.
         -3    1    6    6    0  502 -0.68866870230E+02 -0.42059041831E+03 -0.10203208936E+03  0.43823451832E+03  0.00000000000E+00 0.  1.
<mgrwt>
<rscale>  0 0.25574973E+04</rscale>
<asrwt>0</asrwt>
<pdfrwt beam="1">  1        2 0.13086313E+00 0.25574973E+04</pdfrwt>
<pdfrwt beam="2">  1       -2 0.29575110E+00 0.25574973E+04</pdfrwt>
<totfact> 0.94986238E-01</totfact>
</mgrwt>
</event>
<event>
12    1  0.2214165E-007  0.1369950E+04  0.7818608E-02  0.8975862E-01
         -1   -1    0    0    0  501 -0.00000000000E+00  0.00000000000E+00  0.38471797331E+03  0.38471797331E+03  0.00000000000E+00 0. -1.
          1   -1    0    0  501    0  0.00000000000E+00 -0.00000000000E+00 -0.12195701412E+04  0.12195701412E+04  0.00000000000E+00 0.  1.
         23    2    1    2    0    0 -0.14422383829E+03 -0.28477824636E+03 -0.47761761904E+03  0.58199843542E+03  0.93297500916E+02 0.  0.
        254    2    1    2    0    0  0.14422383829E+03  0.28477824636E+03 -0.35723454882E+03  0.10222896791E+04  0.90308388311E+03 0.  0.
        -24    2    4    4    0    0  0.48623326311E+03  0.32453112114E+03 -0.13650618522E+03  0.60569024332E+03  0.80520168290E+02 0.  0.
         24    2    4    4    0    0 -0.34200942483E+03 -0.39752874781E+02 -0.22072836360E+03  0.41659943575E+03  0.79267532132E+02 0.  0.
         11    1    3    3    0    0 -0.95934894365E+02 -0.18196900756E+03 -0.22410225544E+03  0.30420066496E+03  0.00000000000E+00 0. -1.
        -11    1    3    3    0    0 -0.48288943923E+02 -0.10280923880E+03 -0.25351536360E+03  0.27779777046E+03  0.00000000000E+00 0.  1.
          4    1    6    6  502    0 -0.30446918390E+03 -0.20568353080E+02 -0.16560414430E+03  0.34720206466E+03  0.00000000000E+00 0. -1.
          1    1    5    5  503    0  0.43693292875E+03  0.30995287525E+03 -0.10658524061E+03  0.54620653842E+03  0.00000000000E+00 0. -1.
         -2    1    5    5    0  503  0.49300334361E+02  0.14578245898E+02 -0.29920944618E+02  0.59483704898E+02  0.00000000000E+00 0.  1.
         -3    1    6    6    0  502 -0.37540240924E+02 -0.19184521701E+02 -0.55124219299E+02  0.69397371095E+02  0.00000000000E+00 0.  1.
<mgrwt>
<rscale>  0 0.13699497E+04</rscale>
<asrwt>0</asrwt>
<pdfrwt beam="1">  1        1 0.18762618E+00 0.13699497E+04</pdfrwt>
<pdfrwt beam="2">  1       -1 0.59187380E-01 0.13699497E+04</pdfrwt>
<totfact> 0.29238880E+01</totfact>
</mgrwt>
</event>
<event>
12    1  0.2214165E-007  0.2075234E+04  0.7818608E-02  0.8572232E-01
         -2   -1    0    0    0  501 -0.00000000000E+00  0.00000000000E+00  0.12831148510E+04  0.12831148510E+04  0.00000000000E+00 0.  1.
          2   -1    0    0  501    0  0.00000000000E+00 -0.00000000000E+00 -0.83909045035E+03  0.83909045035E+03  0.00000000000E+00 0. -1.
         23    2    1    2    0    0  0.93701530571E+02 -0.82849232627E+03  0.25319142843E+03  0.87903186475E+03  0.11580849844E+03 0.  0.
        254    2    1    2    0    0 -0.93701530571E+02  0.82849232627E+03  0.19083297219E+03  0.12431734366E+04  0.90215489722E+03 0.  0.
        -24    2    4    4    0    0  0.27588643236E+03  0.79150137620E+03  0.73037297229E+02  0.84516078045E+03  0.79840753540E+02 0.  0.
         24    2    4    4    0    0 -0.36958796294E+03  0.36990950063E+02  0.11779567496E+03  0.39801265611E+03  0.81084281149E+02 0.  0.
         13    1    3    3    0    0  0.31657021009E+02 -0.14967742460E+03  0.92236164803E+02  0.17864212412E+03  0.00000000000E+00 0.  1.
        -13    1    3    3    0    0  0.62044509562E+02 -0.67881490167E+03  0.16095526362E+03  0.70038974063E+03  0.00000000000E+00 0. -1.
          2    1    6    6  502    0 -0.69004245675E+02  0.22940327561E+02  0.53579413676E+02  0.90324958453E+02  0.00000000000E+00 0. -1.
          3    1    5    5  503    0  0.10796521756E+03  0.29944080264E+03 -0.10941821391E+02  0.31849804700E+03  0.00000000000E+00 0. -1.
         -4    1    5    5    0  503  0.16792121481E+03  0.49206057356E+03  0.83979118619E+02  0.52666273345E+03  0.00000000000E+00 0.  1.
         -1    1    6    6    0  502 -0.30058371726E+03  0.14050622503E+02  0.64216261288E+02  0.30768769766E+03  0.00000000000E+00 0.  1.
<mgrwt>
<rscale>  0 0.20752344E+04</rscale>
<asrwt>0</asrwt>
<pdfrwt beam="1">  1        2 0.12909084E+00 0.20752344E+04</pdfrwt>
<pdfrwt beam="2">  1       -2 0.19740228E+00 0.20752344E+04</pdfrwt>
<totfact> 0.41249341E+00</totfact>
</mgrwt>
</event>
<event>
12    1  0.2214165E-007  0.1565159E+04  0.7818608E-02  0.8842243E-01
         -2   -1    0    0    0  501 -0.00000000000E+00  0.00000000000E+00  0.14789167473E+03  0.14789167473E+03  0.00000000000E+00 0.  1.
          2   -1    0    0  501    0  0.00000000000E+00 -0.00000000000E+00 -0.41410751500E+04  0.41410751500E+04  0.00000000000E+00 0. -1.
         23    2    1    2    0    0 -0.29699523661E+03 -0.17705767970E+03 -0.24005228090E+04  0.24270637128E+04  0.92590047499E+02 0.  0.
        254    2    1    2    0    0  0.29699523661E+03  0.17705767970E+03 -0.15926606663E+04  0.18619031119E+04  0.90031083957E+03 0.  0.
        -24    2    4    4    0    0 -0.30036049779E+03  0.16207172967E+03 -0.45158126938E+03  0.57138569082E+03  0.77924903765E+02 0.  0.
         24    2    4    4    0    0  0.59735573440E+03  0.14985950028E+02 -0.11410793969E+04  0.12905174211E+04  0.79464281828E+02 0.  0.
         11    1    3    3    0    0 -0.25200839718E+02 -0.47121286276E+02 -0.49469818444E+03  0.49757591545E+03  0.00000000000E+00 0.  1.
        -11    1    3    3    0    0 -0.27179439689E+03 -0.12993639342E+03 -0.19058246246E+04  0.19294877973E+04  0.00000000000E+00 0. -1.
          4    1    6    6  502    0  0.53649473471E+03  0.81582282746E+01 -0.10677100186E+04  0.11949467941E+04  0.00000000000E+00 0. -1.
          3    1    5    5  503    0 -0.26089162547E+02  0.22074489086E+02 -0.15463777876E+02  0.37510743755E+02  0.00000000000E+00 0. -1.
         -4    1    5    5    0  503 -0.27427133524E+03  0.13999724058E+03 -0.43611749150E+03  0.53387494706E+03  0.00000000000E+00 0.  1.
         -3    1    6    6    0  502  0.60860999685E+02  0.68277217537E+01 -0.73369378341E+02  0.95570627000E+02  0.00000000000E+00 0.  1.
<mgrwt>
<rscale>  0 0.15651588E+04</rscale>
<asrwt>0</asrwt>
<pdfrwt beam="1">  1        2 0.63708843E+00 0.15651588E+04</pdfrwt>
<pdfrwt beam="2">  1       -2 0.22752567E-01 0.15651588E+04</pdfrwt>
<totfact> 0.43759966E+00</totfact>
</mgrwt>
</event>
<event>
12    1  0.2214165E-007  0.1925804E+04  0.7818608E-02  0.8642117E-01
         -2   -1    0    0    0  501 -0.00000000000E+00  0.00000000000E+00  0.43653979847E+03  0.43653979847E+03  0.00000000000E+00 0.  1.
          2   -1    0    0  501    0  0.00000000000E+00 -0.00000000000E+00 -0.21239314501E+04  0.21239314501E+04  0.00000000000E+00 0. -1.
         23    2    1    2    0    0 -0.31877362936E+03  0.56732744988E+03 -0.11545071186E+04  0.13290106511E+04  0.99526687925E+02 0.  0.
        254    2    1    2    0    0  0.31877362936E+03 -0.56732744988E+03 -0.53288453296E+03  0.12314605974E+04  0.89947329888E+03 0.  0.
        -24    2    4    4    0    0  0.23947712719E+03 -0.48273962477E+03  0.12474720460E+03  0.55885880590E+03  0.79840216121E+02 0.  0.
         24    2    4    4    0    0  0.79296502169E+02 -0.84587825113E+02 -0.65763173756E+03  0.67260179153E+03  0.80440240565E+02 0.  0.
         11    1    3    3    0    0 -0.12848899548E+03  0.15569461377E+03 -0.41582398864E+03  0.46223351701E+03  0.00000000000E+00 0. -1.
        -11    1    3    3    0    0 -0.19028463388E+03  0.41163283611E+03 -0.73868312999E+03  0.86677713409E+03  0.00000000000E+00 0.  1.
          2    1    6    6  502    0  0.54540982383E+02 -0.38390158453E+02 -0.53632714518E+03  0.54045844399E+03  0.00000000000E+00 0. -1.
          3    1    5    5  503    0  0.14470179667E+03 -0.25178873998E+03  0.10356334474E+03  0.30832052464E+03  0.00000000000E+00 0. -1.
         -4    1    5    5    0  503  0.94775330520E+02 -0.23095088479E+03  0.21183859865E+02  0.25053828127E+03  0.00000000000E+00 0.  1.
         -1    1    6    6    0  502  0.24755519787E+02 -0.46197666660E+02 -0.12130459239E+03  0.13214334754E+03  0.00000000000E+00 0.  1.
<mgrwt>
<rscale>  0 0.19258044E+04</rscale>
<asrwt>0</asrwt>
<pdfrwt beam="1">  1        2 0.32675868E+00 0.19258044E+04</pdfrwt>
<pdfrwt beam="2">  1       -2 0.67159970E-01 0.19258044E+04</pdfrwt>
<totfact> 0.10832917E+01</totfact>
</mgrwt>
</event>
<event>
12    1  0.3151142E-007  0.2716063E+04  0.7818608E-02  0.8329812E-01
         -1   -1    0    0    0  501 -0.00000000000E+00  0.00000000000E+00  0.93709528397E+03  0.93709528397E+03  0.00000000000E+00 0.  1.
          1   -1    0    0  501    0  0.00000000000E+00 -0.00000000000E+00 -0.19680495445E+04  0.19680495445E+04  0.00000000000E+00 0. -1.
         23    2    1    2    0    0 -0.45629606475E+03 -0.11113308525E+04 -0.33490487172E+03  0.12503159589E+04  0.88692511297E+02 0.  0.
        254    2    1    2    0    0  0.45629606475E+03  0.11113308525E+04 -0.69604938884E+03  0.16548288696E+04  0.90039517636E+03 0.  0.
        -24    2    4    4    0    0 -0.25454794208E+03  0.46776272055E+03 -0.22627617584E+03  0.58415357840E+03  0.80236387321E+02 0.  0.
         24    2    4    4    0    0  0.71084400683E+03  0.64356813193E+03 -0.46977321300E+03  0.10706752912E+04  0.78610209790E+02 0.  0.
         13    1    3    3    0    0 -0.22886744123E+03 -0.55375288110E+03 -0.12103230465E+03  0.61128665759E+03  0.00000000000E+00 0.  1.
        -13    1    3    3    0    0 -0.22742862352E+03 -0.55757797138E+03 -0.21387256707E+03  0.63902930129E+03  0.00000000000E+00 0. -1.
          2    1    6    6  502    0  0.51626015135E+03  0.48271725376E+03 -0.30904967479E+03  0.77139626162E+03  0.00000000000E+00 0. -1.
          1    1    5    5  503    0 -0.18015333192E+03  0.31726350773E+03 -0.19393092350E+03  0.41318344524E+03  0.00000000000E+00 0. -1.
         -2    1    5    5    0  503 -0.74394610165E+02  0.15049921282E+03 -0.32345252341E+02  0.17097013315E+03  0.00000000000E+00 0.  1.
         -1    1    6    6    0  502  0.19458385548E+03  0.16085087816E+03 -0.16072353821E+03  0.29927902959E+03  0.00000000000E+00 0.  1.
<mgrwt>
<rscale>  0 0.27160633E+04</rscale>
<asrwt>0</asrwt>
<pdfrwt beam="1">  1        1 0.30277685E+00 0.27160633E+04</pdfrwt>
<pdfrwt beam="2">  1       -1 0.14416851E+00 0.27160633E+04</pdfrwt>
<totfact> 0.10595993E+00</totfact>
</mgrwt>
</event>
<event>
12    1  0.2214165E-007  0.1188026E+04  0.7818608E-02  0.9123403E-01
         -2   -1    0    0    0  501 -0.00000000000E+00  0.00000000000E+00  0.24932701210E+03  0.24932701210E+03  0.00000000000E+00 0.  1.
          2   -1    0    0  501    0  0.00000000000E+00 -0.00000000000E+00 -0.14152144519E+04  0.14152144519E+04  0.00000000000E+00 0. -1.
         23    2    1    2    0    0 -0.23733975581E+03 -0.31067676026E+02 -0.24896358710E+03  0.35700880173E+03  0.90427079077E+02 0.  0.
        254    2    1    2    0    0  0.23733975581E+03  0.31067676026E+02 -0.91692385270E+03  0.13075326623E+04  0.90088675816E+03 0.  0.
        -24    2    4    4    0    0  0.39342721967E+03 -0.33118711540E+03 -0.42210462221E+03  0.66988095093E+03  0.78091572800E+02 0.  0.
         24    2    4    4    0    0 -0.15608746386E+03  0.36225479143E+03 -0.49481923049E+03  0.63765171133E+03  0.78497157949E+02 0.  0.
         11    1    3    3    0    0 -0.42658803661E+02  0.18737571922E+02 -0.87868062405E+02  0.99456857592E+02  0.00000000000E+00 0. -1.
        -11    1    3    3    0    0 -0.19468095215E+03 -0.49805247948E+02 -0.16109552469E+03  0.25755194414E+03  0.00000000000E+00 0.  1.
          4    1    6    6  502    0 -0.74677583931E+02  0.18938951428E+03 -0.31633224311E+03  0.37617976779E+03  0.00000000000E+00 0. -1.
          1    1    5    5  503    0  0.37863405420E+03 -0.30322660352E+03 -0.41266641318E+03  0.63687022906E+03  0.00000000000E+00 0. -1.
         -2    1    5    5    0  503  0.14793165470E+02 -0.27960511880E+02 -0.94382090242E+01  0.33010721876E+02  0.00000000000E+00 0.  1.
         -3    1    6    6    0  502 -0.81409879925E+02  0.17286527715E+03 -0.17848698738E+03  0.26147194354E+03  0.00000000000E+00 0.  1.
<mgrwt>
<rscale>  0 0.11880256E+04</rscale>
<asrwt>0</asrwt>
<pdfrwt beam="1">  1        2 0.21772530E+00 0.11880256E+04</pdfrwt>
<pdfrwt beam="2">  1       -2 0.38358003E-01 0.11880256E+04</pdfrwt>
<totfact> 0.89845101E+01</totfact>
</mgrwt>
</event>
<event>
12    1  0.2214165E-007  0.1751292E+04  0.7818608E-02  0.8732639E-01
         -2   -1    0    0    0  501 -0.00000000000E+00  0.00000000000E+00  0.58937185019E+03  0.58937185019E+03  0.00000000000E+00 0.  1.
          2   -1    0    0  501    0  0.00000000000E+00 -0.00000000000E+00 -0.13009719139E+04  0.13009719139E+04  0.00000000000E+00 0. -1.
         23    2    1    2    0    0 -0.55389029758E+02  0.61485395030E+03 -0.82848871342E+02  0.63006347539E+03  0.94882678753E+02 0.  0.
        254    2    1    2    0    0  0.55389029758E+02 -0.61485395030E+03 -0.62875119241E+03  0.12602802887E+04  0.90103552617E+03 0.  0.
        -24    2    4    4    0    0  0.46131850559E+03 -0.21170106349E+03 -0.31441664553E+03  0.60241044887E+03  0.80052595387E+02 0.  0.
         24    2    4    4    0    0 -0.40592947584E+03 -0.40315288681E+03 -0.31433454688E+03  0.65786983988E+03  0.81703912786E+02 0.  0.
         11    1    3    3    0    0 -0.22033740883E+02  0.29516093045E+03 -0.87353754363E+02  0.30860353045E+03  0.00000000000E+00 0. -1.
        -11    1    3    3    0    0 -0.33355288875E+02  0.31969301984E+03  0.45048830217E+01  0.32145994495E+03  0.00000000000E+00 0.  1.
          2    1    6    6  502    0 -0.95006017241E+02 -0.14457068207E+03 -0.81466716730E+02  0.19121624241E+03  0.00000000000E+00 0. -1.
          3    1    5    5  503    0  0.22362568024E+02 -0.20766663014E+02 -0.15634584052E+01  0.30557865494E+02  0.00000000000E+00 0. -1.
         -4    1    5    5    0  503  0.43895593757E+03 -0.19093440048E+03 -0.31285318713E+03  0.57185258337E+03  0.00000000000E+00 0.  1.
         -1    1    6    6    0  502 -0.31092345859E+03 -0.25858220474E+03 -0.23286783015E+03  0.46665359747E+03  0.00000000000E+00 0.  1.
<mgrwt>
<rscale>  0 0.17512924E+04</rscale>
<asrwt>0</asrwt>
<pdfrwt beam="1">  1        2 0.20014952E+00 0.17512924E+04</pdfrwt>
<pdfrwt beam="2">  1       -2 0.90672594E-01 0.17512924E+04</pdfrwt>
<totfact> 0.16255513E+01</totfact>
</mgrwt>
</event>
<event>
12    1  0.2214165E-007  0.1890463E+04  0.7818608E-02  0.8659618E-01
          2   -1    0    0  501    0  0.00000000000E+00  0.00000000000E+00  0.14288236869E+04  0.14288236869E+04  0.00000000000E+00 0. -1.
         -2   -1    0    0    0  501 -0.00000000000E+00 -0.00000000000E+00 -0.62531369548E+03  0.62531369548E+03  0.00000000000E+00 0.  1.
         23    2    1    2    0    0  0.36114295893E+03 -0.60546268492E+03  0.11818014547E+03  0.72054089843E+03  0.90572291075E+02 0.  0.
        254    2    1    2    0    0 -0.36114295893E+03  0.60546268492E+03  0.68532984600E+03  0.13335964840E+04  0.90099571845E+03 0.  0.
        -24    2    4    4    0    0 -0.52303861686E+03  0.63940639507E+03  0.76922705944E+03  0.11316443450E+04  0.80614649828E+02 0.  0.
         24    2    4    4    0    0  0.16189565793E+03 -0.33943710143E+02 -0.83897213444E+02  0.20195213901E+03  0.79897086992E+02 0.  0.
         13    1    3    3    0    0  0.23423666423E+03 -0.31928916971E+03  0.90971034198E+02  0.40631037130E+03  0.00000000000E+00 0. -1.
        -13    1    3    3    0    0  0.12690629470E+03 -0.28617351522E+03  0.27209111269E+02  0.31423052713E+03  0.00000000000E+00 0.  1.
          2    1    6    6  502    0 -0.53626338826E+01  0.94354968546E+01 -0.38072499010E+01  0.11501373608E+02  0.00000000000E+00 0. -1.
          3    1    5    5  503    0 -0.17727701363E+02  0.49134391877E+02  0.60784098480E+02  0.80144659765E+02  0.00000000000E+00 0. -1.
         -4    1    5    5    0  503 -0.50531091550E+03  0.59027200319E+03  0.70844296096E+03  0.10514996852E+04  0.00000000000E+00 0.  1.
         -1    1    6    6    0  502  0.16725829181E+03 -0.43379206998E+02 -0.80089963543E+02  0.19045076540E+03  0.00000000000E+00 0.  1.
<mgrwt>
<rscale>  0 0.18904635E+04</rscale>
<asrwt>0</asrwt>
<pdfrwt beam="1">  1        2 0.21981903E+00 0.18904635E+04</pdfrwt>
<pdfrwt beam="2">  1       -2 0.96202107E-01 0.18904635E+04</pdfrwt>
<totfact> 0.11818138E+01</totfact>
</mgrwt>
</event>
<event>
12    1  0.2214165E-007  0.2580917E+04  0.7818608E-02  0.8374712E-01
          1   -1    0    0  501    0  0.00000000000E+00  0.00000000000E+00  0.68818036008E+03  0.68818036008E+03  0.00000000000E+00 0. -1.
         -1   -1    0    0    0  501 -0.00000000000E+00 -0.00000000000E+00 -0.24198355335E+04  0.24198355335E+04  0.00000000000E+00 0.  1.
         23    2    1    2    0    0  0.96783130198E+03  0.53749134854E+03 -0.48115548292E+03  0.12104732384E+04  0.90224627337E+02 0.  0.
        254    2    1    2    0    0 -0.96783130198E+03 -0.53749134854E+03 -0.12504996905E+04  0.18975426552E+04  0.90073540698E+03 0.  0.
        -24    2    4    4    0    0 -0.81505486689E+03 -0.11792771648E+03 -0.11761394589E+04  0.14379756385E+04  0.79047629105E+02 0.  0.
         24    2    4    4    0    0 -0.15277643508E+03 -0.41956363206E+03 -0.74360231636E+02  0.45956701672E+03  0.79360685140E+02 0.  0.
         11    1    3    3    0    0  0.26912188340E+03  0.18913350248E+03 -0.16703086407E+03  0.36891378321E+03  0.00000000000E+00 0.  1.
        -11    1    3    3    0    0  0.69870941857E+03  0.34835784605E+03 -0.31412461884E+03  0.84155945522E+03  0.00000000000E+00 0. -1.
          2    1    6    6  502    0 -0.39013780786E+02 -0.76467536493E+02  0.15180518865E+02  0.87176874122E+02  0.00000000000E+00 0. -1.
          1    1    5    5  503    0 -0.26762590610E+03 -0.69472150262E+02 -0.43173199167E+03  0.51268169258E+03  0.00000000000E+00 0. -1.
         -2    1    5    5    0  503 -0.54742896079E+03 -0.48455566213E+02 -0.74440746722E+03  0.92529394587E+03  0.00000000000E+00 0.  1.
         -3    1    6    6    0  502 -0.11376265430E+03 -0.34309609557E+03 -0.89540750501E+02  0.37239014260E+03  0.00000000000E+00 0.  1.
<mgrwt>
<rscale>  0 0.25809171E+04</rscale>
<asrwt>0</asrwt>
<pdfrwt beam="1">  1        1 0.10587390E+00 0.25809171E+04</pdfrwt>
<pdfrwt beam="2">  1       -1 0.37228239E+00 0.25809171E+04</pdfrwt>
<totfact> 0.27206475E-01</totfact>
</mgrwt>
</event>
<event>
12    1  0.2214165E-007  0.2024853E+04  0.7818608E-02  0.8595088E-01
          1   -1    0    0  501    0  0.00000000000E+00  0.00000000000E+00  0.12920915361E+04  0.12920915361E+04  0.00000000000E+00 0. -1.
         -1   -1    0    0    0  501 -0.00000000000E+00 -0.00000000000E+00 -0.79329334745E+03  0.79329334745E+03  0.00000000000E+00 0.  1.
         23    2    1    2    0    0 -0.76242688530E+03 -0.26641199917E+03  0.14850209568E+03  0.82644031712E+03  0.93169826720E+02 0.  0.
        254    2    1    2    0    0  0.76242688530E+03  0.26641199917E+03  0.35029609298E+03  0.12589445664E+04  0.89997997749E+03 0.  0.
        -24    2    4    4    0    0  0.63244908859E+03  0.49741615748E+03 -0.49054695920E+01  0.80890507992E+03  0.82998080167E+02 0.  0.
         24    2    4    4    0    0  0.12997779671E+03 -0.23100415830E+03  0.35520156258E+03  0.45003948652E+03  0.78168027872E+02 0.  0.
         11    1    3    3    0    0 -0.47075755066E+03 -0.12622529057E+03  0.60852042684E+02  0.49117050663E+03  0.00000000000E+00 0.  1.
        -11    1    3    3    0    0 -0.29166933465E+03 -0.14018670860E+03  0.87650052995E+02  0.33526981050E+03  0.00000000000E+00 0. -1.
          2    1    6    6  502    0  0.98907664683E+02 -0.22323785606E+03  0.31865722205E+03  0.40144774464E+03  0.00000000000E+00 0. -1.
          1    1    5    5  503    0  0.53699575712E+03  0.45508425308E+03  0.59913071237E+01  0.70391904104E+03  0.00000000000E+00 0. -1.
         -2    1    5    5    0  503  0.95453331467E+02  0.42331904393E+02 -0.10896776716E+02  0.10498603888E+03  0.00000000000E+00 0.  1.
         -1    1    6    6    0  502  0.31070132029E+02 -0.77663022447E+01  0.36544340531E+02  0.48591741887E+02  0.00000000000E+00 0.  1.
<mgrwt>
<rscale>  0 0.20248532E+04</rscale>
<asrwt>0</asrwt>
<pdfrwt beam="1">  1        1 0.19878331E+00 0.20248532E+04</pdfrwt>
<pdfrwt beam="2">  1       -1 0.12204513E+00 0.20248532E+04</pdfrwt>
<totfact> 0.50380883E+00</totfact>
</mgrwt>
</event>
<event>
12    1  0.2214165E-007  0.7328752E+04  0.7818608E-02  0.7544450E-01
         -1   -1    0    0    0  501 -0.00000000000E+00  0.00000000000E+00  0.43759638526E+04  0.43759638526E+04  0.00000000000E+00 0.  1.
          1   -1    0    0  501    0  0.00000000000E+00 -0.00000000000E+00 -0.30685016376E+04  0.30685016376E+04  0.00000000000E+00 0. -1.
         23    2    1    2    0    0  0.23766062171E+04  0.27098898742E+04  0.49082751411E+03  0.36388597498E+04  0.92889120270E+02 0.  0.
        254    2    1    2    0    0 -0.23766062171E+04 -0.27098898742E+04  0.81663470082E+03  0.38056057404E+04  0.90773485953E+03 0.  0.
        -24    2    4    4    0    0 -0.12190346640E+04 -0.20368486425E+04  0.55798614845E+03  0.24397929012E+04  0.80268015247E+02 0.  0.
         24    2    4    4    0    0 -0.11575715531E+04 -0.67304123164E+03  0.25864855237E+03  0.13658128392E+04  0.74761206122E+02 0.  0.
         11    1    3    3    0    0  0.21047034048E+04  0.23548651052E+04  0.43754079708E+03  0.31885118841E+04  0.00000000000E+00 0. -1.
        -11    1    3    3    0    0  0.27190281229E+03  0.35502476897E+03  0.53286717028E+02  0.45034786568E+03  0.00000000000E+00 0.  1.
          2    1    6    6  502    0 -0.41326553773E+03 -0.20187424269E+03  0.10148782468E+03  0.47100041730E+03  0.00000000000E+00 0. -1.
          1    1    5    5  503    0 -0.18873398569E+03 -0.26393050586E+03  0.68169602297E+02  0.33155229445E+03  0.00000000000E+00 0. -1.
         -4    1    5    5    0  503 -0.10303006783E+04 -0.17729181367E+04  0.48981654615E+03  0.21082406068E+04  0.00000000000E+00 0.  1.
         -1    1    6    6    0  502 -0.74430601538E+03 -0.47116698895E+03  0.15716072768E+03  0.89481242187E+03  0.00000000000E+00 0.  1.
<mgrwt>
<rscale>  0 0.73287522E+04</rscale>
<asrwt>0</asrwt>
<pdfrwt beam="1">  1        1 0.47207718E+00 0.73287522E+04</pdfrwt>
<pdfrwt beam="2">  1       -1 0.67322521E+00 0.73287522E+04</pdfrwt>
<totfact> 0.81745825E-05</totfact>
</mgrwt>
</event>
<event>
12    1  0.2214165E-007  0.2025421E+04  0.7818608E-02  0.8594827E-01
          2   -1    0    0  501    0  0.00000000000E+00  0.00000000000E+00  0.16062502507E+04  0.16062502507E+04  0.00000000000E+00 0.  1.
         -2   -1    0    0    0  501 -0.00000000000E+00 -0.00000000000E+00 -0.63849505926E+03  0.63849505926E+03  0.00000000000E+00 0. -1.
         23    2    1    2    0    0  0.74847188930E+03  0.98522187363E+02  0.67038747400E+02  0.76358950461E+03  0.93048091930E+02 0.  0.
        254    2    1    2    0    0 -0.74847188930E+03 -0.98522187363E+02  0.90071644403E+03  0.14811558053E+04  0.90145194917E+03 0.  0.
        -24    2    4    4    0    0 -0.81593868809E+03  0.94759376385E+02  0.36554352219E+03  0.90265679751E+03  0.80199409792E+02 0.  0.
         24    2    4    4    0    0  0.67466798789E+02 -0.19328156375E+03  0.53517292185E+03  0.57849900783E+03  0.79633623315E+02 0.  0.
         11    1    3    3    0    0  0.40404679759E+03  0.89808083917E+01  0.20258711985E+02  0.40465403121E+03  0.00000000000E+00 0. -1.
        -11    1    3    3    0    0  0.34442509172E+03  0.89541378971E+02  0.46780035415E+02  0.35893547340E+03  0.00000000000E+00 0.  1.
          2    1    6    6  502    0 -0.29321143958E+01 -0.92824186883E+02  0.28722223959E+03  0.30186344907E+03  0.00000000000E+00 0. -1.
          3    1    5    5  503    0 -0.81735658456E+03  0.96548752516E+02  0.36434331266E+03  0.90007749523E+03  0.00000000000E+00 0. -1.
         -4    1    5    5    0  503  0.14178964676E+01 -0.17893761304E+01  0.12002095280E+01  0.25793022778E+01  0.00000000000E+00 0.  1.
         -1    1    6    6    0  502  0.70398913185E+02 -0.10045737687E+03  0.24795068225E+03  0.27663555877E+03  0.00000000000E+00 0.  1.
<mgrwt>
<rscale>  0 0.20254213E+04</rscale>
<asrwt>0</asrwt>
<pdfrwt beam="1">  1        2 0.24711542E+00 0.20254213E+04</pdfrwt>
<pdfrwt beam="2">  1       -2 0.98230010E-01 0.20254213E+04</pdfrwt>
<totfact> 0.88378555E+00</totfact>
</mgrwt>
</event>
<event>
12    1  0.2214165E-007  0.1888765E+04  0.7818608E-02  0.8660469E-01
         -1   -1    0    0    0  501 -0.00000000000E+00  0.00000000000E+00  0.33949826921E+03  0.33949826921E+03  0.00000000000E+00 0.  1.
          1   -1    0    0  501    0  0.00000000000E+00 -0.00000000000E+00 -0.26269903136E+04  0.26269903136E+04  0.00000000000E+00 0. -1.
         23    2    1    2    0    0 -0.44786550407E+02 -0.72491034279E+03 -0.87420358361E+03  0.11402074484E+04  0.91325131168E+02 0.  0.
        254    2    1    2    0    0  0.44786550407E+02  0.72491034279E+03 -0.14132884608E+04  0.18262811344E+04  0.90023200810E+03 0.  0.
        -24    2    4    4    0    0 -0.39236431539E+03  0.21941030069E+03 -0.76910012553E+03  0.89442263347E+03  0.79913754410E+02 0.  0.
         24    2    4    4    0    0  0.43715086579E+03  0.50550004209E+03 -0.64418833525E+03  0.93185850095E+03  0.82161319995E+02 0.  0.
         13    1    3    3    0    0 -0.29248604255E+02 -0.66857718323E+03 -0.76540316908E+03  0.10167069106E+04  0.00000000000E+00 0.  1.
        -13    1    3    3    0    0 -0.15537946152E+02 -0.56333159554E+02 -0.10880041452E+03  0.12350053780E+03  0.00000000000E+00 0. -1.
          2    1    6    6  502    0  0.16931729087E+03  0.20736700781E+03 -0.20416538535E+03  0.33667926205E+03  0.00000000000E+00 0. -1.
          1    1    5    5  503    0 -0.13377405575E+03  0.81936530792E+02 -0.34545367740E+03  0.37940392236E+03  0.00000000000E+00 0. -1.
         -2    1    5    5    0  503 -0.25859025963E+03  0.13747376990E+03 -0.42364644812E+03  0.51501871111E+03  0.00000000000E+00 0.  1.
         -1    1    6    6    0  502  0.26783357492E+03  0.29813303428E+03 -0.44002294990E+03  0.59517923890E+03  0.00000000000E+00 0.  1.
<mgrwt>
<rscale>  0 0.18887654E+04</rscale>
<asrwt>0</asrwt>
<pdfrwt beam="1">  1        1 0.40415236E+00 0.18887654E+04</pdfrwt>
<pdfrwt beam="2">  1       -1 0.52230502E-01 0.18887654E+04</pdfrwt>
<totfact> 0.38238796E+00</totfact>
</mgrwt>
</event>
<event>
12    1  0.2214165E-007  0.2211029E+04  0.7818608E-02  0.8513851E-01
          1   -1    0    0  501    0  0.00000000000E+00  0.00000000000E+00  0.76269886866E+03  0.76269886866E+03  0.00000000000E+00 0. -1.
         -1   -1    0    0    0  501 -0.00000000000E+00 -0.00000000000E+00 -0.16024185415E+04  0.16024185415E+04  0.00000000000E+00 0.  1.
         23    2    1    2    0    0  0.62333088320E+03 -0.57123900206E+03 -0.73752965113E+03  0.11256798861E+04  0.91377415900E+02 0.  0.
        254    2    1    2    0    0 -0.62333088320E+03  0.57123900206E+03 -0.10219002169E+03  0.12394375241E+04  0.90050385241E+03 0.  0.
        -24    2    4    4    0    0  0.37007751332E+02  0.47492863633E+03  0.17309797609E+03  0.51307780637E+03  0.79744233654E+02 0.  0.
         24    2    4    4    0    0 -0.66033863453E+03  0.96310365732E+02 -0.27528799779E+03  0.72635971773E+03  0.80573935095E+02 0.  0.
         13    1    3    3    0    0  0.23396620372E+03 -0.16350699338E+03 -0.22005312591E+03  0.36041378940E+03  0.00000000000E+00 0. -1.
        -13    1    3    3    0    0  0.38936467948E+03 -0.40773200868E+03 -0.51747652522E+03  0.76526609665E+03  0.00000000000E+00 0.  1.
          4    1    6    6  502    0 -0.56138841706E+03  0.57516946341E+02 -0.24933023249E+03  0.61695276867E+03  0.00000000000E+00 0. -1.
          1    1    5    5  503    0  0.36297952469E+02  0.32138719566E+03  0.78804449076E+02  0.33289249328E+03  0.00000000000E+00 0. -1.
         -2    1    5    5    0  503  0.70979886296E+00  0.15354144066E+03  0.94293527017E+02  0.18018531309E+03  0.00000000000E+00 0.  1.
         -3    1    6    6    0  502 -0.98950217471E+02  0.38793419391E+02 -0.25957765293E+02  0.10940694907E+03  0.00000000000E+00 0.  1.
<mgrwt>
<rscale>  0 0.22110295E+04</rscale>
<asrwt>0</asrwt>
<pdfrwt beam="1">  1        1 0.11733829E+00 0.22110295E+04</pdfrwt>
<pdfrwt beam="2">  1       -1 0.24652593E+00 0.22110295E+04</pdfrwt>
<totfact> 0.15962290E+00</totfact>
</mgrwt>
</event>
<event>
12    1  0.2214165E-007  0.2337949E+04  0.7818608E-02  0.8463107E-01
         -1   -1    0    0    0  501 -0.00000000000E+00  0.00000000000E+00  0.94406579088E+03  0.94406579088E+03  0.00000000000E+00 0.  1.
          1   -1    0    0  501    0  0.00000000000E+00 -0.00000000000E+00 -0.14474643883E+04  0.14474643883E+04  0.00000000000E+00 0. -1.
         23    2    1    2    0    0 -0.69996703309E+03  0.51053196375E+03 -0.70953319735E+03  0.11237470665E+04  0.93666311180E+02 0.  0.
        254    2    1    2    0    0  0.69996703309E+03 -0.51053196375E+03  0.20613459992E+03  0.12677831127E+04  0.90232245575E+03 0.  0.
        -24    2    4    4    0    0  0.94633981156E+02 -0.43991635502E+03 -0.23238468558E+03  0.51254617080E+03  0.78860289775E+02 0.  0.
         24    2    4    4    0    0  0.60533305194E+03 -0.70615608735E+02  0.43851928550E+03  0.75523694191E+03  0.81663986557E+02 0.  0.
         11    1    3    3    0    0 -0.26772114082E+03  0.18650602980E+03 -0.32599390007E+03  0.46122785180E+03  0.00000000000E+00 0.  1.
        -11    1    3    3    0    0 -0.43224589228E+03  0.32402593396E+03 -0.38353929728E+03  0.66251921468E+03  0.00000000000E+00 0. -1.
          4    1    6    6  502    0  0.49522096501E+03 -0.27793216972E+02  0.36843692672E+03  0.61786894732E+03  0.00000000000E+00 0. -1.
          1    1    5    5  503    0  0.71573355927E+02 -0.32286088968E+03 -0.13000641690E+03  0.35533585212E+03  0.00000000000E+00 0. -1.
         -2    1    5    5    0  503  0.23060625229E+02 -0.11705546534E+03 -0.10237826868E+03  0.15721031868E+03  0.00000000000E+00 0.  1.
         -3    1    6    6    0  502  0.11011208693E+03 -0.42822391764E+02  0.70082358783E+02  0.13736799459E+03  0.00000000000E+00 0.  1.
<mgrwt>
<rscale>  0 0.23379492E+04</rscale>
<asrwt>0</asrwt>
<pdfrwt beam="1">  1        1 0.22268683E+00 0.23379492E+04</pdfrwt>
<pdfrwt beam="2">  1       -1 0.14524089E+00 0.23379492E+04</pdfrwt>
<totfact> 0.24389911E+00</totfact>
</mgrwt>
</event>
<event>
12    1  0.2214165E-007  0.3145507E+04  0.7818608E-02  0.8203359E-01
         -2   -1    0    0    0  501 -0.00000000000E+00  0.00000000000E+00  0.62271177506E+03  0.62271177506E+03  0.00000000000E+00 0.  1.
          2   -1    0    0  501    0  0.00000000000E+00 -0.00000000000E+00 -0.39722295457E+04  0.39722295457E+04  0.00000000000E+00 0. -1.
         23    2    1    2    0    0  0.10986753998E+03 -0.91812478870E+02 -0.36355023983E+04  0.36394571370E+04  0.90940399198E+02 0.  0.
        254    2    1    2    0    0 -0.10986753998E+03  0.91812478870E+02  0.28598462772E+03  0.95548418374E+03  0.90036793061E+03 0.  0.
        -24    2    4    4    0    0 -0.37691258115E+03 -0.23047107126E+03  0.27789283779E+03  0.52790936093E+03  0.79270773589E+02 0.  0.
         24    2    4    4    0    0  0.26704504117E+03  0.32228355013E+03  0.80917899293E+01  0.42757482281E+03  0.87034541079E+02 0.  0.
         13    1    3    3    0    0 -0.13564424124E+02 -0.16974046230E+02 -0.27548155501E+03  0.27633711115E+03  0.00000000000E+00 0.  1.
        -13    1    3    3    0    0  0.12343196410E+03 -0.74838432640E+02 -0.33600208433E+04  0.33631200259E+04  0.00000000000E+00 0. -1.
          4    1    6    6  502    0  0.74122981974E+02  0.14252155738E+03  0.28267553097E+02  0.16311243157E+03  0.00000000000E+00 0. -1.
          1    1    5    5  503    0 -0.37457752439E+02 -0.42139160061E+02  0.61657046184E+02  0.83548688635E+02  0.00000000000E+00 0. -1.
         -2    1    5    5    0  503 -0.33945482871E+03 -0.18833191120E+03  0.21623579160E+03  0.44436067229E+03  0.00000000000E+00 0.  1.
         -3    1    6    6    0  502  0.19292205920E+03  0.17976199275E+03 -0.20175763167E+02  0.26446239124E+03  0.00000000000E+00 0.  1.
<mgrwt>
<rscale>  0 0.31455073E+04</rscale>
<asrwt>0</asrwt>
<pdfrwt beam="1">  1        2 0.61111224E+00 0.31455073E+04</pdfrwt>
<pdfrwt beam="2">  1       -2 0.95801811E-01 0.31455073E+04</pdfrwt>
<totfact> 0.27806300E-01</totfact>
</mgrwt>
</event>
<event>
12    1  0.2214165E-007  0.1740893E+04  0.7818608E-02  0.8738379E-01
         -2   -1    0    0    0  501 -0.00000000000E+00  0.00000000000E+00  0.14773248062E+04  0.14773248062E+04  0.00000000000E+00 0.  1.
          2   -1    0    0  501    0  0.00000000000E+00 -0.00000000000E+00 -0.51287093365E+03  0.51287093365E+03  0.00000000000E+00 0. -1.
         23    2    1    2    0    0 -0.53731806617E+03 -0.24709320306E+02  0.73378650919E+03  0.91429223677E+03  0.90368127122E+02 0.  0.
        254    2    1    2    0    0  0.53731806617E+03  0.24709320306E+02  0.23066736340E+03  0.10759035031E+04  0.90279547005E+03 0.  0.
        -24    2    4    4    0    0 -0.11793341851E+03 -0.25246762460E+03 -0.71980655573E+02  0.29870743788E+03  0.79979534872E+02 0.  0.
         24    2    4    4    0    0  0.65525148468E+03  0.27717694491E+03  0.30264801897E+03  0.77719606524E+03  0.79096987751E+02 0.  0.
         13    1    3    3    0    0 -0.28757700149E+03 -0.58256505756E+02  0.39883405743E+03  0.49513933152E+03  0.00000000000E+00 0.  1.
        -13    1    3    3    0    0 -0.24974106468E+03  0.33547185451E+02  0.33495245176E+03  0.41915290525E+03  0.00000000000E+00 0. -1.
          2    1    6    6  502    0  0.19570311908E+01 -0.32375013368E+01  0.54691460739E+01  0.66500334409E+01  0.00000000000E+00 0. -1.
          1    1    5    5  503    0 -0.37151264531E+02 -0.24217911785E+02  0.50297490834E+01  0.44632074602E+02  0.00000000000E+00 0. -1.
         -2    1    5    5    0  503 -0.80782153975E+02 -0.22824971282E+03 -0.77010404656E+02  0.25407536328E+03  0.00000000000E+00 0.  1.
         -1    1    6    6    0  502  0.65329445349E+03  0.28041444624E+03  0.29717887290E+03  0.77054603180E+03  0.00000000000E+00 0.  1.
<mgrwt>
<rscale>  0 0.17408928E+04</rscale>
<asrwt>0</asrwt>
<pdfrwt beam="1">  1        2 0.78903221E-01 0.17408928E+04</pdfrwt>
<pdfrwt beam="2">  1       -2 0.22728074E+00 0.17408928E+04</pdfrwt>
<totfact> 0.50389878E+00</totfact>
</mgrwt>
</event>
<event>
12    1  0.2214165E-007  0.2824211E+04  0.7818608E-02  0.8295791E-01
         -3   -1    0    0    0  501 -0.00000000000E+00  0.00000000000E+00  0.28795583889E+04  0.28795583889E+04  0.00000000000E+00 0.  1.
          3   -1    0    0  501    0  0.00000000000E+00 -0.00000000000E+00 -0.69248177334E+03  0.69248177334E+03  0.00000000000E+00 0. -1.
         23    2    1    2    0    0  0.71859913941E+03  0.98577033115E+03  0.54939078057E+03  0.13412080689E+04  0.94238979916E+02 0.  0.
        254    2    1    2    0    0 -0.71859913941E+03 -0.98577033115E+03  0.16376858350E+04  0.22308320934E+04  0.89803622738E+03 0.  0.
        -24    2    4    4    0    0 -0.39115710271E+02 -0.80026762066E+03  0.81974736550E+03  0.11490355970E+04  0.79616308056E+02 0.  0.
         24    2    4    4    0    0 -0.67948342914E+03 -0.18550271049E+03  0.81793846951E+03  0.10817964964E+04  0.71772791078E+02 0.  0.
         11    1    3    3    0    0  0.45811098626E+03  0.55401495896E+03  0.33948542141E+03  0.79501484378E+03  0.00000000000E+00 0.  1.
        -11    1    3    3    0    0  0.26048815315E+03  0.43175537219E+03  0.20990535915E+03  0.54619322510E+03  0.00000000000E+00 0. -1.
          2    1    6    6  502    0 -0.21230915739E+03 -0.41128853957E+02  0.20796281503E+03  0.30002548788E+03  0.00000000000E+00 0. -1.
          1    1    5    5  503    0 -0.46448129037E+02 -0.79418556656E+03  0.80798768740E+03  0.11339013387E+04  0.00000000000E+00 0. -1.
         -2    1    5    5    0  503  0.73324187658E+01 -0.60820540908E+01  0.11759678102E+02  0.15134258356E+02  0.00000000000E+00 0.  1.
         -3    1    6    6    0  502 -0.46717427175E+03 -0.14437385654E+03  0.60997565448E+03  0.78177100847E+03  0.00000000000E+00 0.  1.
<mgrwt>
<rscale>  0 0.28242108E+04</rscale>
<asrwt>0</asrwt>
<pdfrwt beam="1">  1        3 0.10653566E+00 0.28242108E+04</pdfrwt>
<pdfrwt beam="2">  1       -3 0.44300898E+00 0.28242108E+04</pdfrwt>
<totfact> 0.10449303E-02</totfact>
</mgrwt>
</event>
<event>
12    1  0.2214165E-007  0.2457609E+04  0.7818608E-02  0.8418245E-01
          2   -1    0    0  501    0  0.00000000000E+00  0.00000000000E+00  0.30894116282E+04  0.30894116282E+04  0.00000000000E+00 0. -1.
         -2   -1    0    0    0  501 -0.00000000000E+00 -0.00000000000E+00 -0.48875350295E+03  0.48875350295E+03  0.00000000000E+00 0.  1.
         23    2    1    2    0    0  0.81953418305E+03 -0.61605756841E+03  0.15287583524E+04  0.18430008639E+04  0.91579907901E+02 0.  0.
        254    2    1    2    0    0 -0.81953418305E+03  0.61605756841E+03  0.10718997729E+04  0.17351642673E+04  0.90036809504E+03 0.  0.
        -24    2    4    4    0    0 -0.10063330130E+04  0.50109216842E+03  0.83898586109E+03  0.14050361033E+04  0.80185299823E+02 0.  0.
         24    2    4    4    0    0  0.18679882995E+03  0.11496540000E+03  0.23291391179E+03  0.33012816393E+03  0.81393293610E+02 0.  0.
         13    1    3    3    0    0  0.36945048627E+03 -0.22339527561E+03  0.66386236127E+03  0.79190425285E+03  0.00000000000E+00 0. -1.
        -13    1    3    3    0    0  0.45008369677E+03 -0.39266229281E+03  0.86489599113E+03  0.10510966111E+04  0.00000000000E+00 0.  1.
          2    1    6    6  502    0  0.10546210746E+02  0.33425333152E+02  0.62976353550E+02  0.72072855943E+02  0.00000000000E+00 0. -1.
          3    1    5    5  503    0 -0.15235333381E+03  0.58912366178E+02  0.15263903321E+03  0.22356403931E+03  0.00000000000E+00 0. -1.
         -4    1    5    5    0  503 -0.85397967919E+03  0.44217980224E+03  0.68634682788E+03  0.11814720640E+04  0.00000000000E+00 0.  1.
         -1    1    6    6    0  502  0.17625261921E+03  0.81540066846E+02  0.16993755824E+03  0.25805530799E+03  0.00000000000E+00 0.  1.
<mgrwt>
<rscale>  0 0.24576092E+04</rscale>
<asrwt>0</asrwt>
<pdfrwt beam="1">  1        2 0.47529408E+00 0.24576092E+04</pdfrwt>
<pdfrwt beam="2">  1       -2 0.75192849E-01 0.24576092E+04</pdfrwt>
<totfact> 0.21729524E+00</totfact>
</mgrwt>
</event>
<event>
12    1  0.2214165E-007  0.2217589E+04  0.7818608E-02  0.8511143E-01
         -2   -1    0    0    0  501 -0.00000000000E+00  0.00000000000E+00  0.45262681626E+03  0.45262681626E+03  0.00000000000E+00 0.  1.
          2   -1    0    0  501    0  0.00000000000E+00 -0.00000000000E+00 -0.27162014647E+04  0.27162014647E+04  0.00000000000E+00 0. -1.
         23    2    1    2    0    0 -0.12201032082E+03 -0.91536954156E+03 -0.91090179027E+03  0.13005092366E+04  0.93777859656E+02 0.  0.
        254    2    1    2    0    0  0.12201032082E+03  0.91536954156E+03 -0.13526728581E+04  0.18683190443E+04  0.89894620207E+03 0.  0.
        -24    2    4    4    0    0 -0.36343687684E+03  0.23477798211E+03 -0.57017949996E+03  0.72006374631E+03  0.78613435457E+02 0.  0.
         24    2    4    4    0    0  0.48544719767E+03  0.68059155945E+03 -0.78249335816E+03  0.11482552980E+04  0.85618463599E+02 0.  0.
         13    1    3    3    0    0 -0.10539122993E+02 -0.41089698214E+03 -0.42571397805E+03  0.59175991259E+03  0.00000000000E+00 0. -1.
        -13    1    3    3    0    0 -0.11147119783E+03 -0.50447255942E+03 -0.48518781223E+03  0.70874932401E+03  0.00000000000E+00 0.  1.
          2    1    6    6  502    0  0.20835618139E+03  0.23712185162E+03 -0.25878394260E+03  0.40817667717E+03  0.00000000000E+00 0. -1.
          3    1    5    5  503    0 -0.15576799943E+03  0.78745584180E+02 -0.17503456679E+03  0.24718745164E+03  0.00000000000E+00 0. -1.
         -4    1    5    5    0  503 -0.20766887741E+03  0.15603239793E+03 -0.39514493317E+03  0.47287629467E+03  0.00000000000E+00 0.  1.
         -1    1    6    6    0  502  0.27709101627E+03  0.44346970783E+03 -0.52370941556E+03  0.74007862083E+03  0.00000000000E+00 0.  1.
<mgrwt>
<rscale>  0 0.22175893E+04</rscale>
<asrwt>0</asrwt>
<pdfrwt beam="1">  1        2 0.41787715E+00 0.22175893E+04</pdfrwt>
<pdfrwt beam="2">  1       -2 0.69634894E-01 0.22175893E+04</pdfrwt>
<totfact> 0.44587855E+00</totfact>
</mgrwt>
</event>
<event>
12    1  0.2377002E-007  0.2261616E+04  0.7818608E-02  0.8493211E-01
          4   -1    0    0  501    0  0.00000000000E+00  0.00000000000E+00  0.10627883932E+04  0.10627883932E+04  0.00000000000E+00 0. -1.
         -4   -1    0    0    0  501 -0.00000000000E+00 -0.00000000000E+00 -0.12031811502E+04  0.12031811502E+04  0.00000000000E+00 0.  1.
         23    2    1    2    0    0  0.90928730692E+03  0.80035238250E+02  0.19806241366E+03  0.93852058141E+03  0.91559358512E+02 0.  0.
        254    2    1    2    0    0 -0.90928730692E+03 -0.80035238250E+02 -0.33845517073E+03  0.13274489620E+04  0.90241885959E+03 0.  0.
        -24    2    4    4    0    0 -0.15061096795E+03  0.25885327584E+03  0.16663276374E+03  0.35181806194E+03  0.79503387840E+02 0.  0.
         24    2    4    4    0    0 -0.75867633897E+03 -0.33888851409E+03 -0.50508793447E+03  0.97563090002E+03  0.79414225585E+02 0.  0.
         11    1    3    3    0    0  0.38644547731E+03  0.78843602844E+02  0.77235521182E+02  0.40189768148E+03  0.00000000000E+00 0. -1.
        -11    1    3    3    0    0  0.52284182961E+03  0.11916354060E+01  0.12082689248E+03  0.53662289993E+03  0.00000000000E+00 0.  1.
          2    1    6    6  502    0 -0.63842880733E+03 -0.28748142846E+03 -0.45788460346E+03  0.83659740845E+03  0.00000000000E+00 0. -1.
          1    1    5    5  503    0 -0.84490964232E+02  0.73760479524E+02  0.75266021473E+02  0.13507148243E+03  0.00000000000E+00 0. -1.
         -2    1    5    5    0  503 -0.66120003714E+02  0.18509279632E+03  0.91366742269E+02  0.21674657952E+03  0.00000000000E+00 0.  1.
         -1    1    6    6    0  502 -0.12024753164E+03 -0.51407085633E+02 -0.47203331002E+02  0.13903349157E+03  0.00000000000E+00 0.  1.
<mgrwt>
<rscale>  0 0.22616162E+04</rscale>
<asrwt>0</asrwt>
<pdfrwt beam="1">  1        4 0.16350591E+00 0.22616162E+04</pdfrwt>
<pdfrwt beam="2">  1       -4 0.18510479E+00 0.22616162E+04</pdfrwt>
<totfact> 0.70991508E-02</totfact>
</mgrwt>
</event>
<event>
12    1  0.2214165E-007  0.2008313E+04  0.7818608E-02  0.8602744E-01
          2   -1    0    0  501    0  0.00000000000E+00  0.00000000000E+00  0.17837425861E+04  0.17837425861E+04  0.00000000000E+00 0. -1.
         -2   -1    0    0    0  501 -0.00000000000E+00 -0.00000000000E+00 -0.56528884704E+03  0.56528884704E+03  0.00000000000E+00 0.  1.
         23    2    1    2    0    0  0.77092449640E+03  0.93963280167E+02  0.25115034325E+03  0.82143551195E+03  0.92337035951E+02 0.  0.
        254    2    1    2    0    0 -0.77092449640E+03 -0.93963280167E+02  0.96730339585E+03  0.15275959212E+04  0.89147056136E+03 0.  0.
        -24    2    4    4    0    0 -0.42146223214E+03  0.39016519368E+03  0.46063066595E+03  0.74054310656E+03  0.79775878465E+02 0.  0.
         24    2    4    4    0    0 -0.34946226426E+03 -0.48412847385E+03  0.50667272989E+03  0.78705281466E+03  0.78934305112E+02 0.  0.
         13    1    3    3    0    0  0.16405117313E+03 -0.13062907329E+02  0.72430062937E+02  0.17980417395E+03  0.00000000000E+00 0.  1.
        -13    1    3    3    0    0  0.60687332327E+03  0.10702618750E+03  0.17872028031E+03  0.64163133800E+03  0.00000000000E+00 0. -1.
          4    1    6    6  502    0 -0.25881937390E+03 -0.29478787745E+03  0.32428014819E+03  0.50896461125E+03  0.00000000000E+00 0. -1.
          3    1    5    5  503    0 -0.27661667404E+03  0.26144061558E+03  0.25586683979E+03  0.45862383228E+03  0.00000000000E+00 0. -1.
         -4    1    5    5    0  503 -0.14484555810E+03  0.12872457810E+03  0.20476382616E+03  0.28191927429E+03  0.00000000000E+00 0.  1.
         -3    1    6    6    0  502 -0.90642890363E+02 -0.18934059640E+03  0.18239258171E+03  0.27808820342E+03  0.00000000000E+00 0.  1.
<mgrwt>
<rscale>  0 0.20083125E+04</rscale>
<asrwt>0</asrwt>
<pdfrwt beam="1">  1        2 0.27442193E+00 0.20083125E+04</pdfrwt>
<pdfrwt beam="2">  1       -2 0.86967516E-01 0.20083125E+04</pdfrwt>
<totfact> 0.93530078E+00</totfact>
</mgrwt>
</event>
<event>
12    1  0.2214165E-007  0.1433351E+04  0.7818608E-02  0.8930025E-01
         -1   -1    0    0    0  501 -0.00000000000E+00  0.00000000000E+00  0.11994816816E+03  0.11994816816E+03  0.00000000000E+00 0.  1.
          1   -1    0    0  501    0  0.00000000000E+00 -0.00000000000E+00 -0.42820474572E+04  0.42820474572E+04  0.00000000000E+00 0. -1.
         23    2    1    2    0    0  0.19118160281E+03  0.98800126778E+02 -0.23952620599E+04  0.24066252475E+04  0.90845339737E+02 0.  0.
        254    2    1    2    0    0 -0.19118160281E+03 -0.98800126778E+02 -0.17668372291E+04  0.19953703779E+04  0.90192975362E+03 0.  0.
        -24    2    4    4    0    0 -0.39957671363E+03 -0.32024725428E+02 -0.29199062807E+03  0.50224620987E+03  0.79407778772E+02 0.  0.
         24    2    4    4    0    0  0.20839511083E+03 -0.66775401350E+02 -0.14748466010E+04  0.14931241680E+04  0.79748404864E+02 0.  0.
         11    1    3    3    0    0  0.10859837256E+03  0.61239972232E+02 -0.89752347027E+03  0.90614144613E+03  0.00000000000E+00 0.  1.
        -11    1    3    3    0    0  0.82583230243E+02  0.37560154546E+02 -0.14977385897E+04  0.15004838013E+04  0.00000000000E+00 0. -1.
          4    1    6    6  502    0  0.66865265687E+02 -0.11698396879E+02 -0.25577663028E+03  0.26463087659E+03  0.00000000000E+00 0. -1.
          1    1    5    5  503    0 -0.65495172087E+02  0.13823063828E+02 -0.78363103902E+02  0.10306051966E+03  0.00000000000E+00 0. -1.
         -2    1    5    5    0  503 -0.33408154155E+03 -0.45847789256E+02 -0.21362752417E+03  0.39918569021E+03  0.00000000000E+00 0.  1.
         -3    1    6    6    0  502  0.14152984514E+03 -0.55077004471E+02 -0.12190699707E+04  0.12284932914E+04  0.00000000000E+00 0.  1.
<mgrwt>
<rscale>  0 0.14333510E+04</rscale>
<asrwt>0</asrwt>
<pdfrwt beam="1">  1        1 0.65877651E+00 0.14333510E+04</pdfrwt>
<pdfrwt beam="2">  1       -1 0.18453565E-01 0.14333510E+04</pdfrwt>
<totfact> 0.12387615E+00</totfact>
</mgrwt>
</event>
<event>
12    1  0.2214165E-007  0.3592181E+04  0.7818608E-02  0.8092285E-01
         -2   -1    0    0    0  501 -0.00000000000E+00  0.00000000000E+00  0.23634706091E+04  0.23634706091E+04  0.00000000000E+00 0.  1.
          2   -1    0    0  501    0  0.00000000000E+00 -0.00000000000E+00 -0.13649170297E+04  0.13649170297E+04  0.00000000000E+00 0. -1.
         23    2    1    2    0    0 -0.96829355096E+03 -0.10257770036E+04 -0.48254929580E+03  0.14936723585E+04  0.91610205369E+02 0.  0.
        254    2    1    2    0    0  0.96829355096E+03  0.10257770036E+04  0.14811028751E+04  0.22347152803E+04  0.90026429201E+03 0.  0.
        -24    2    4    4    0    0  0.14536763411E+03  0.11382178927E+03 -0.10472192312E+03  0.22721247423E+03  0.81065889880E+02 0.  0.
         24    2    4    4    0    0  0.82292591685E+03  0.91195521430E+03  0.15858247982E+04  0.20075028061E+04  0.79736115992E+02 0.  0.
         13    1    3    3    0    0 -0.56735427146E+03 -0.57506245413E+03 -0.23210361389E+03  0.84051161983E+03  0.00000000000E+00 0.  1.
        -13    1    3    3    0    0 -0.40093927951E+03 -0.45071454944E+03 -0.25044568191E+03  0.65316073865E+03  0.00000000000E+00 0. -1.
          2    1    6    6  502    0  0.14925165676E+03  0.21364107406E+03  0.34196736465E+03  0.42995376967E+03  0.00000000000E+00 0. -1.
          3    1    5    5  503    0  0.15354133622E+03  0.98008261958E+02 -0.86194926662E+02  0.20151954427E+03  0.00000000000E+00 0. -1.
         -4    1    5    5    0  503 -0.81737021037E+01  0.15813527314E+02 -0.18526996460E+02  0.25692929962E+02  0.00000000000E+00 0.  1.
         -1    1    6    6    0  502  0.67367426010E+03  0.69831414024E+03  0.12438574336E+04  0.15775490364E+04  0.00000000000E+00 0.  1.
<mgrwt>
<rscale>  0 0.35921811E+04</rscale>
<asrwt>0</asrwt>
<pdfrwt beam="1">  1        2 0.20998724E+00 0.35921811E+04</pdfrwt>
<pdfrwt beam="2">  1       -2 0.36361086E+00 0.35921811E+04</pdfrwt>
<totfact> 0.15759025E-01</totfact>
</mgrwt>
</event>
<event>
12    1  0.2214165E-007  0.1734304E+04  0.7818608E-02  0.8742038E-01
         -2   -1    0    0    0  501 -0.00000000000E+00  0.00000000000E+00  0.19981491541E+04  0.19981491541E+04  0.00000000000E+00 0.  1.
          2   -1    0    0  501    0  0.00000000000E+00 -0.00000000000E+00 -0.37632463494E+03  0.37632463494E+03  0.00000000000E+00 0. -1.
         23    2    1    2    0    0  0.60805553984E+03  0.14965718704E+03  0.51688191995E+03  0.81774041719E+03  0.96972457804E+02 0.  0.
        254    2    1    2    0    0 -0.60805553984E+03 -0.14965718704E+03  0.11049425992E+04  0.15567333718E+04  0.90021765720E+03 0.  0.
        -24    2    4    4    0    0 -0.78280715652E+03 -0.29105425715E+03  0.72935479486E+03  0.11117470389E+04  0.80767795202E+02 0.  0.
         24    2    4    4    0    0  0.17475161668E+03  0.14139707010E+03  0.37558780434E+03  0.44498633298E+03  0.80096059843E+02 0.  0.
         13    1    3    3    0    0  0.24110366540E+03  0.10824301836E+03  0.20854911332E+03  0.33666045381E+03  0.00000000000E+00 0.  1.
        -13    1    3    3    0    0  0.36695187444E+03  0.41414168687E+02  0.30833280663E+03  0.48107996338E+03  0.00000000000E+00 0. -1.
          4    1    6    6  502    0  0.78973691950E+02  0.47006142386E+02  0.22527614831E+03  0.24330179703E+03  0.00000000000E+00 0. -1.
          3    1    5    5  503    0 -0.44021561075E+03 -0.19080516417E+03  0.37709420742E+03  0.61024293187E+03  0.00000000000E+00 0. -1.
         -2    1    5    5    0  503 -0.34259154577E+03 -0.10024909297E+03  0.35226058744E+03  0.50150410700E+03  0.00000000000E+00 0.  1.
         -3    1    6    6    0  502  0.95777924733E+02  0.94390927715E+02  0.15031165603E+03  0.20168453595E+03  0.00000000000E+00 0.  1.
<mgrwt>
<rscale>  0 0.17343042E+04</rscale>
<asrwt>0</asrwt>
<pdfrwt beam="1">  1        2 0.57896099E-01 0.17343042E+04</pdfrwt>
<pdfrwt beam="2">  1       -2 0.30740756E+00 0.17343042E+04</pdfrwt>
<totfact> 0.23196136E+00</totfact>
</mgrwt>
</event>
<event>
12    1  0.2214165E-007  0.1509168E+04  0.7818608E-02  0.8878379E-01
          1   -1    0    0  501    0  0.00000000000E+00  0.00000000000E+00  0.78748468881E+03  0.78748468881E+03  0.00000000000E+00 0. -1.
         -1   -1    0    0    0  501 -0.00000000000E+00 -0.00000000000E+00 -0.72305809804E+03  0.72305809804E+03  0.00000000000E+00 0.  1.
         23    2    1    2    0    0 -0.28700498539E+03 -0.15077981601E+03 -0.33317714821E+03  0.47393314721E+03  0.92191113352E+02 0.  0.
        254    2    1    2    0    0  0.28700498539E+03  0.15077981601E+03  0.39760373898E+03  0.10366096396E+04  0.90075767950E+03 0.  0.
        -24    2    4    4    0    0 -0.26883042420E+03 -0.12069401403E+03  0.25289851399E+03  0.39630451145E+03  0.79137635893E+02 0.  0.
         24    2    4    4    0    0  0.55583540959E+03  0.27147383005E+03  0.14470522499E+03  0.64030512819E+03  0.80000075575E+02 0.  0.
         13    1    3    3    0    0 -0.35811799146E+02 -0.10987063655E+02 -0.52244023561E+01  0.37821883954E+02  0.00000000000E+00 0. -1.
        -13    1    3    3    0    0 -0.25119318624E+03 -0.13979275236E+03 -0.32795274585E+03  0.43611126326E+03  0.00000000000E+00 0.  1.
          4    1    6    6  502    0  0.28298510710E+02  0.16495200829E+01  0.20255911910E+02  0.34840042943E+02  0.00000000000E+00 0. -1.
          3    1    5    5  503    0 -0.29765837648E+01 -0.10391581582E+02 -0.29478099233E+01  0.11204222509E+02  0.00000000000E+00 0. -1.
         -4    1    5    5    0  503 -0.26585384044E+03 -0.11030243245E+03  0.25584632392E+03  0.38510028894E+03  0.00000000000E+00 0.  1.
         -1    1    6    6    0  502  0.52753689888E+03  0.26982430996E+03  0.12444931308E+03  0.60546508525E+03  0.00000000000E+00 0.  1.
<mgrwt>
<rscale>  0 0.15091682E+04</rscale>
<asrwt>0</asrwt>
<pdfrwt beam="1">  1        1 0.12115149E+00 0.15091682E+04</pdfrwt>
<pdfrwt beam="2">  1       -1 0.11123971E+00 0.15091682E+04</pdfrwt>
<totfact> 0.16294834E+01</totfact>
</mgrwt>
</event>
<event>
12    1  0.2214165E-007  0.2619729E+04  0.7818608E-02  0.8361530E-01
          2   -1    0    0  501    0  0.00000000000E+00  0.00000000000E+00  0.25551151217E+04  0.25551151217E+04  0.00000000000E+00 0. -1.
         -2   -1    0    0    0  501 -0.00000000000E+00 -0.00000000000E+00 -0.67149442712E+03  0.67149442712E+03  0.00000000000E+00 0.  1.
         23    2    1    2    0    0  0.86998138758E+03 -0.22395086776E+03 -0.57273727521E+02  0.90648070975E+03  0.10679602700E+03 0.  0.
        254    2    1    2    0    0 -0.86998138758E+03  0.22395086776E+03  0.19408944221E+04  0.23201288390E+04  0.89939149775E+03 0.  0.
        -24    2    4    4    0    0 -0.47378105871E+03 -0.26022092452E+03  0.47344183668E+03  0.72289062728E+03  0.78995348865E+02 0.  0.
         24    2    4    4    0    0 -0.39620032886E+03  0.48417179228E+03  0.14674525854E+04  0.15972382117E+04  0.79723206779E+02 0.  0.
         13    1    3    3    0    0  0.55898482205E+03 -0.18504778135E+03 -0.68960649286E+02  0.59284254555E+03  0.00000000000E+00 0. -1.
        -13    1    3    3    0    0  0.31099656553E+03 -0.38903086409E+02  0.11686921765E+02  0.31363816420E+03  0.00000000000E+00 0.  1.
          2    1    6    6  502    0 -0.29640736708E+03  0.40585734139E+03  0.11295668268E+04  0.12363246843E+04  0.00000000000E+00 0. -1.
          1    1    5    5  503    0 -0.40294660211E+03 -0.23668695180E+03  0.43707786256E+03  0.63986227834E+03  0.00000000000E+00 0. -1.
         -2    1    5    5    0  503 -0.70834456603E+02 -0.23533972724E+02  0.36363974118E+02  0.83028348942E+02  0.00000000000E+00 0.  1.
         -1    1    6    6    0  502 -0.99792961783E+02  0.78314450890E+02  0.33788575854E+03  0.36091352740E+03  0.00000000000E+00 0.  1.
<mgrwt>
<rscale>  0 0.26197294E+04</rscale>
<asrwt>0</asrwt>
<pdfrwt beam="1">  1        2 0.39309463E+00 0.26197294E+04</pdfrwt>
<pdfrwt beam="2">  1       -2 0.10330684E+00 0.26197294E+04</pdfrwt>
<totfact> 0.21818481E+00</totfact>
</mgrwt>
</event>
<event>
12    1  0.2214165E-007  0.5149160E+04  0.7818608E-02  0.7805901E-01
          1   -1    0    0  501    0  0.00000000000E+00  0.00000000000E+00  0.17816638846E+04  0.17816638846E+04  0.00000000000E+00 0. -1.
         -1   -1    0    0    0  501 -0.00000000000E+00 -0.00000000000E+00 -0.37203774005E+04  0.37203774005E+04  0.00000000000E+00 0.  1.
         23    2    1    2    0    0 -0.65148371524E+03  0.19240462453E+04  0.60752596895E+03  0.21221309064E+04  0.89256909641E+02 0.  0.
        254    2    1    2    0    0  0.65148371524E+03 -0.19240462453E+04 -0.25462394849E+04  0.33799103787E+04  0.90226031058E+03 0.  0.
        -24    2    4    4    0    0  0.22111969154E+03 -0.55511833394E+03 -0.14566572603E+04  0.15764228237E+04  0.78792526643E+02 0.  0.
         24    2    4    4    0    0  0.43036402370E+03 -0.13689279113E+04 -0.10895822246E+04  0.18034875550E+04  0.78747174776E+02 0.  0.
         13    1    3    3    0    0 -0.92422337909E+02  0.25920623907E+03  0.11429879806E+03  0.29798318435E+03  0.00000000000E+00 0. -1.
        -13    1    3    3    0    0 -0.55906137733E+03  0.16648400062E+04  0.49322717089E+03  0.18241477221E+04  0.00000000000E+00 0.  1.
          4    1    6    6  502    0  0.39099700944E+03 -0.12530404325E+04 -0.10227843128E+04  0.16640543072E+04  0.00000000000E+00 0. -1.
          1    1    5    5  503    0  0.17643866115E+03 -0.49280367682E+03 -0.13149175800E+04  0.14152718139E+04  0.00000000000E+00 0. -1.
         -2    1    5    5    0  503  0.44681030389E+02 -0.62314657117E+02 -0.14173968030E+03  0.16115100974E+03  0.00000000000E+00 0.  1.
         -3    1    6    6    0  502  0.39367014257E+02 -0.11588747887E+03 -0.66797911767E+02  0.13943324778E+03  0.00000000000E+00 0.  1.
<mgrwt>
<rscale>  0 0.51491600E+04</rscale>
<asrwt>0</asrwt>
<pdfrwt beam="1">  1        1 0.27410214E+00 0.51491600E+04</pdfrwt>
<pdfrwt beam="2">  1       -1 0.57236575E+00 0.51491600E+04</pdfrwt>
<totfact> 0.17566125E-03</totfact>
</mgrwt>
</event>
<event>
12    1  0.2214165E-007  0.1976296E+04  0.7818608E-02  0.8617784E-01
         -2   -1    0    0    0  501 -0.00000000000E+00  0.00000000000E+00  0.14303746788E+04  0.14303746788E+04  0.00000000000E+00 0.  1.
          2   -1    0    0  501    0  0.00000000000E+00 -0.00000000000E+00 -0.68264384372E+03  0.68264384372E+03  0.00000000000E+00 0. -1.
         23    2    1    2    0    0  0.38843732814E+03 -0.61675608676E+03  0.21716108562E+01  0.73494954818E+03  0.94204532916E+02 0.  0.
        254    2    1    2    0    0 -0.38843732814E+03  0.61675608676E+03  0.74555922421E+03  0.13780689743E+04  0.90107930435E+03 0.  0.
        -24    2    4    4    0    0 -0.63886209106E+03  0.51667703575E+03  0.35892169546E+03  0.89996964319E+03  0.77592812401E+02 0.  0.
         24    2    4    4    0    0  0.25042476292E+03  0.10007905101E+03  0.38663752875E+03  0.47809933113E+03  0.79762230735E+02 0.  0.
         13    1    3    3    0    0  0.21719505853E+03 -0.34442019842E+03 -0.45571120458E+02  0.40972636424E+03  0.00000000000E+00 0.  1.
        -13    1    3    3    0    0  0.17124226960E+03 -0.27233588834E+03  0.47742731314E+02  0.32522318394E+03  0.00000000000E+00 0. -1.
          2    1    6    6  502    0  0.42258963076E+02 -0.90477536919E+01  0.88230926911E+02  0.98246517856E+02  0.00000000000E+00 0. -1.
          3    1    5    5  503    0 -0.84614442992E+02  0.97797661812E+02  0.38674905720E+02  0.13498049841E+03  0.00000000000E+00 0. -1.
         -4    1    5    5    0  503 -0.55424764807E+03  0.41887937394E+03  0.32024678974E+03  0.76498914478E+03  0.00000000000E+00 0.  1.
         -1    1    6    6    0  502  0.20816579985E+03  0.10912680471E+03  0.29840660183E+03  0.37985281327E+03  0.00000000000E+00 0.  1.
<mgrwt>
<rscale>  0 0.19762960E+04</rscale>
<asrwt>0</asrwt>
<pdfrwt beam="1">  1        2 0.10502213E+00 0.19762960E+04</pdfrwt>
<pdfrwt beam="2">  1       -2 0.22005764E+00 0.19762960E+04</pdfrwt>
<totfact> 0.38855685E+00</totfact>
</mgrwt>
</event>
<event>
12    1  0.2214165E-007  0.3055648E+04  0.7818608E-02  0.8228016E-01
          1   -1    0    0  501    0  0.00000000000E+00  0.00000000000E+00  0.20116243649E+04  0.20116243649E+04  0.00000000000E+00 0. -1.
         -1   -1    0    0    0  501 -0.00000000000E+00 -0.00000000000E+00 -0.11603790221E+04  0.11603790221E+04  0.00000000000E+00 0.  1.
         23    2    1    2    0    0  0.11624999573E+04 -0.26663537973E+03 -0.35918637388E+03  0.12491736165E+04  0.94442027832E+02 0.  0.
        254    2    1    2    0    0 -0.11624999573E+04  0.26663537973E+03  0.12104317167E+04  0.19228297705E+04  0.89979375935E+03 0.  0.
        -24    2    4    4    0    0 -0.92800391482E+03  0.11506662583E+03  0.32833899410E+03  0.99418402545E+03  0.78509790005E+02 0.  0.
         24    2    4    4    0    0 -0.23449604246E+03  0.15156875390E+03  0.88209272258E+03  0.92864574509E+03  0.79585598948E+02 0.  0.
         13    1    3    3    0    0  0.18672429813E+03 -0.57607865365E+02 -0.92754971423E+02  0.21630560416E+03  0.00000000000E+00 0.  1.
        -13    1    3    3    0    0  0.97577565914E+03 -0.20902751436E+03 -0.26643140246E+03  0.10328680124E+04  0.00000000000E+00 0. -1.
          2    1    6    6  502    0 -0.19879277485E+03  0.15121967513E+03  0.70363698346E+03  0.74665317382E+03  0.00000000000E+00 0. -1.
          1    1    5    5  503    0 -0.51865070828E+03  0.25071453167E+02  0.17888806123E+03  0.54920676745E+03  0.00000000000E+00 0. -1.
         -2    1    5    5    0  503 -0.40935320654E+03  0.89995172660E+02  0.14945093287E+03  0.44497725800E+03  0.00000000000E+00 0.  1.
         -1    1    6    6    0  502 -0.35703267609E+02  0.34907877095E+00  0.17845573913E+03  0.18199257128E+03  0.00000000000E+00 0.  1.
<mgrwt>
<rscale>  0 0.30556484E+04</rscale>
<asrwt>0</asrwt>
<pdfrwt beam="1">  1        1 0.30948067E+00 0.30556484E+04</pdfrwt>
<pdfrwt beam="2">  1       -1 0.17851985E+00 0.30556484E+04</pdfrwt>
<totfact> 0.52865438E-01</totfact>
</mgrwt>
</event>
<event>
12    1  0.2214165E-007  0.3537255E+04  0.7818608E-02  0.8105017E-01
         -1   -1    0    0    0  501 -0.00000000000E+00  0.00000000000E+00  0.14743385875E+04  0.14743385875E+04  0.00000000000E+00 0.  1.
          1   -1    0    0  501    0  0.00000000000E+00 -0.00000000000E+00 -0.21216591694E+04  0.21216591694E+04  0.00000000000E+00 0. -1.
         23    2    1    2    0    0 -0.86711085758E+03 -0.84001047036E+03 -0.14529015876E+04  0.18912051089E+04  0.90746408923E+02 0.  0.
        254    2    1    2    0    0  0.86711085758E+03  0.84001047036E+03  0.80558100570E+03  0.17047926481E+04  0.89434802321E+03 0.  0.
        -24    2    4    4    0    0  0.67732767902E+03  0.83610199331E+03  0.96254133465E+03  0.14459267760E+04  0.79869222652E+02 0.  0.
         24    2    4    4    0    0  0.18978317856E+03  0.39084770555E+01 -0.15696032894E+03  0.25886587208E+03  0.79637075591E+02 0.  0.
         13    1    3    3    0    0 -0.13939336219E+03 -0.15164001740E+03 -0.30020598013E+03  0.36407256805E+03  0.00000000000E+00 0.  1.
        -13    1    3    3    0    0 -0.72771749539E+03 -0.68837045296E+03 -0.11526956075E+04  0.15271325408E+04  0.00000000000E+00 0. -1.
          4    1    6    6  502    0  0.18673021825E+02 -0.10032339962E+02  0.61359236898E+01  0.22067604054E+02  0.00000000000E+00 0. -1.
          3    1    5    5  503    0  0.14296003382E+03  0.15076799834E+03  0.15063011953E+03  0.25662812297E+03  0.00000000000E+00 0. -1.
         -4    1    5    5    0  503  0.53436764520E+03  0.68533399497E+03  0.81191121512E+03  0.11892986530E+04  0.00000000000E+00 0.  1.
         -3    1    6    6    0  502  0.17111015674E+03  0.13940817017E+02 -0.16309625263E+03  0.23679826803E+03  0.00000000000E+00 0.  1.
<mgrwt>
<rscale>  0 0.35372554E+04</rscale>
<asrwt>0</asrwt>
<pdfrwt beam="1">  1        1 0.32640910E+00 0.35372554E+04</pdfrwt>
<pdfrwt beam="2">  1       -1 0.22682132E+00 0.35372554E+04</pdfrwt>
<totfact> 0.19855347E-01</totfact>
</mgrwt>
</event>
<event>
12    1  0.2214165E-007  0.1204048E+04  0.7818608E-02  0.9109321E-01
          1   -1    0    0  501    0  0.00000000000E+00  0.00000000000E+00  0.84341318974E+03  0.84341318974E+03  0.00000000000E+00 0. -1.
         -1   -1    0    0    0  501 -0.00000000000E+00 -0.00000000000E+00 -0.42972172229E+03  0.42972172229E+03  0.00000000000E+00 0.  1.
         23    2    1    2    0    0  0.72181465752E+02 -0.14336139945E+03  0.29817662272E+03  0.35068854435E+03  0.91161954535E+02 0.  0.
        254    2    1    2    0    0 -0.72181465752E+02  0.14336139945E+03  0.11551484474E+03  0.92244636767E+03  0.90099998170E+03 0.  0.
        -24    2    4    4    0    0  0.36276802401E+03  0.20524350491E+03  0.19779977820E+03  0.46837748205E+03  0.80790951757E+02 0.  0.
         24    2    4    4    0    0 -0.43494948976E+03 -0.61882105461E+02 -0.82284933460E+02  0.45406888562E+03  0.79983054439E+02 0.  0.
         13    1    3    3    0    0  0.52389038385E+02 -0.12129320708E+03  0.29186896907E+03  0.32038125496E+03  0.00000000000E+00 0. -1.
        -13    1    3    3    0    0  0.19792427367E+02 -0.22068192374E+02  0.63076536504E+01  0.30307289393E+02  0.00000000000E+00 0.  1.
          4    1    6    6  502    0 -0.41083529608E+03 -0.65334824118E+02 -0.58622404276E+02  0.42010815992E+03  0.00000000000E+00 0. -1.
          3    1    5    5  503    0  0.34207364725E+03  0.19271274896E+03  0.16102863655E+03  0.42436164476E+03  0.00000000000E+00 0. -1.
         -4    1    5    5    0  503  0.20694376753E+02  0.12530755957E+02  0.36771141650E+02  0.44015837290E+02  0.00000000000E+00 0.  1.
         -3    1    6    6    0  502 -0.24114193682E+02  0.34527186567E+01 -0.23662529184E+02  0.33960725706E+02  0.00000000000E+00 0.  1.
<mgrwt>
<rscale>  0 0.12040481E+04</rscale>
<asrwt>0</asrwt>
<pdfrwt beam="1">  1        1 0.12975588E+00 0.12040481E+04</pdfrwt>
<pdfrwt beam="2">  1       -1 0.66111034E-01 0.12040481E+04</pdfrwt>
<totfact> 0.46552883E+01</totfact>
</mgrwt>
</event>
<event>
12    1  0.2214165E-007  0.1346418E+04  0.7818608E-02  0.8993544E-01
         -2   -1    0    0    0  501 -0.00000000000E+00  0.00000000000E+00  0.37364790585E+03  0.37364790585E+03  0.00000000000E+00 0.  1.
          2   -1    0    0  501    0  0.00000000000E+00 -0.00000000000E+00 -0.12129334466E+04  0.12129334466E+04  0.00000000000E+00 0. -1.
         23    2    1    2    0    0 -0.48872149213E+02 -0.23210509155E+03  0.91768714386E+02  0.26994209153E+03  0.90476380063E+02 0.  0.
        254    2    1    2    0    0  0.48872149213E+02  0.23210509155E+03 -0.93105425514E+03  0.13166392609E+04  0.90023089089E+03 0.  0.
        -24    2    4    4    0    0  0.16186103070E+03  0.37084955161E+03 -0.51503339430E+02  0.41552201162E+03  0.79231085918E+02 0.  0.
         24    2    4    4    0    0 -0.11298888148E+03 -0.13874446007E+03 -0.87955091571E+03  0.90111724931E+03  0.79912271559E+02 0.  0.
         13    1    3    3    0    0 -0.25475323188E+02 -0.48467580799E+02 -0.14293096352E+02  0.56589672939E+02  0.00000000000E+00 0. -1.
        -13    1    3    3    0    0 -0.23396826025E+02 -0.18363751075E+03  0.10606181074E+03  0.21335241859E+03  0.00000000000E+00 0.  1.
          4    1    6    6  502    0 -0.11620277031E+03 -0.14564996744E+03 -0.81018000434E+03  0.83132943908E+03  0.00000000000E+00 0. -1.
          3    1    5    5  503    0  0.49369040450E+02  0.21167092106E+03 -0.30373877501E+02  0.21946401393E+03  0.00000000000E+00 0. -1.
         -4    1    5    5    0  503  0.11249199025E+03  0.15917863056E+03 -0.21129461929E+02  0.19605799769E+03  0.00000000000E+00 0.  1.
         -3    1    6    6    0  502  0.32138888274E+01  0.69055073694E+01 -0.69370911370E+02  0.69787810237E+02  0.00000000000E+00 0.  1.
<mgrwt>
<rscale>  0 0.13464175E+04</rscale>
<asrwt>0</asrwt>
<pdfrwt beam="1">  1        2 0.18660515E+00 0.13464175E+04</pdfrwt>
<pdfrwt beam="2">  1       -2 0.57484293E-01 0.13464175E+04</pdfrwt>
<totfact> 0.51528972E+01</totfact>
</mgrwt>
</event>
<event>
12    1  0.2214165E-007  0.1775738E+04  0.7818608E-02  0.8719309E-01
         -1   -1    0    0    0  501 -0.00000000000E+00  0.00000000000E+00  0.43933410305E+03  0.43933410305E+03  0.00000000000E+00 0.  1.
          1   -1    0    0  501    0  0.00000000000E+00 -0.00000000000E+00 -0.17943323661E+04  0.17943323661E+04  0.00000000000E+00 0. -1.
         23    2    1    2    0    0 -0.59378950094E+02 -0.65056556713E+03 -0.57315542999E+03  0.87373774294E+03  0.90272252940E+02 0.  0.
        254    2    1    2    0    0  0.59378950094E+02  0.65056556713E+03 -0.78184283308E+03  0.13599287262E+04  0.90075885116E+03 0.  0.
        -24    2    4    4    0    0  0.63158244030E+02 -0.10345729232E+03 -0.54764925381E+03  0.56641732653E+03  0.78844831626E+02 0.  0.
         24    2    4    4    0    0 -0.37792939356E+01  0.75402285946E+03 -0.23419357927E+03  0.79351139970E+03  0.79050320915E+02 0.  0.
         13    1    3    3    0    0 -0.80094146401E+02 -0.40792123730E+03 -0.34998591538E+03  0.54341968044E+03  0.00000000000E+00 0. -1.
        -13    1    3    3    0    0  0.20715196306E+02 -0.24264432983E+03 -0.22316951462E+03  0.33031806250E+03  0.00000000000E+00 0.  1.
          4    1    6    6  502    0  0.11681821398E+02  0.29197202181E+03 -0.53059606175E+02  0.29698391922E+03  0.00000000000E+00 0. -1.
          1    1    5    5  503    0  0.96670005843E+01  0.66652130654E+01 -0.14730193862E+03  0.14776920209E+03  0.00000000000E+00 0. -1.
         -4    1    5    5    0  503  0.53491243445E+02 -0.11012250539E+03 -0.40034731519E+03  0.41864812444E+03  0.00000000000E+00 0.  1.
         -3    1    6    6    0  502 -0.15461115334E+02  0.46205083765E+03 -0.18113397310E+03  0.49652748048E+03  0.00000000000E+00 0.  1.
<mgrwt>
<rscale>  0 0.17757380E+04</rscale>
<asrwt>0</asrwt>
<pdfrwt beam="1">  1        1 0.27605113E+00 0.17757380E+04</pdfrwt>
<pdfrwt beam="2">  1       -1 0.67589863E-01 0.17757380E+04</pdfrwt>
<totfact> 0.86153290E+00</totfact>
</mgrwt>
</event>
<event>
12    1  0.2214165E-007  0.1632120E+04  0.7818608E-02  0.8801055E-01
          1   -1    0    0  501    0  0.00000000000E+00  0.00000000000E+00  0.55416238829E+03  0.55416238829E+03  0.00000000000E+00 0. -1.
         -1   -1    0    0    0  501 -0.00000000000E+00 -0.00000000000E+00 -0.12017308173E+04  0.12017308173E+04  0.00000000000E+00 0.  1.
         23    2    1    2    0    0  0.13498926416E+03 -0.54260995011E+03 -0.16493543144E+03  0.59079709647E+03  0.95863722336E+02 0.  0.
        254    2    1    2    0    0 -0.13498926416E+03  0.54260995011E+03 -0.48263299756E+03  0.11650961091E+04  0.90103644418E+03 0.  0.
        -24    2    4    4    0    0  0.32682923890E+03 -0.71477560674E+00 -0.21497097225E+03  0.39917201242E+03  0.79422379000E+02 0.  0.
         24    2    4    4    0    0 -0.46181850306E+03  0.54332472571E+03 -0.26766202531E+03  0.76592409669E+03  0.80738310379E+02 0.  0.
         11    1    3    3    0    0  0.31819171246E+02 -0.30715869106E+03 -0.69009826980E+02  0.31641946427E+03  0.00000000000E+00 0. -1.
        -11    1    3    3    0    0  0.10317009291E+03 -0.23545125905E+03 -0.95925604459E+02  0.27437763220E+03  0.00000000000E+00 0.  1.
          2    1    6    6  502    0 -0.24004302264E+03  0.27300150008E+03 -0.17898559536E+03  0.40519910552E+03  0.00000000000E+00 0. -1.
          3    1    5    5  503    0  0.18023702540E+03  0.11105908526E+02 -0.73054126427E+02  0.19479638579E+03  0.00000000000E+00 0. -1.
         -4    1    5    5    0  503  0.14659221350E+03 -0.11820684132E+02 -0.14191684582E+03  0.20437562663E+03  0.00000000000E+00 0.  1.
         -1    1    6    6    0  502 -0.22177548041E+03  0.27032322563E+03 -0.88676429950E+02  0.36072499117E+03  0.00000000000E+00 0.  1.
<mgrwt>
<rscale>  0 0.16321201E+04</rscale>
<asrwt>0</asrwt>
<pdfrwt beam="1">  1        1 0.85255754E-01 0.16321201E+04</pdfrwt>
<pdfrwt beam="2">  1       -1 0.18488166E+00 0.16321201E+04</pdfrwt>
<totfact> 0.70523573E+00</totfact>
</mgrwt>
</event>
<event>
12    1  0.2214165E-007  0.1774433E+04  0.7818608E-02  0.8720015E-01
          2   -1    0    0  501    0  0.00000000000E+00  0.00000000000E+00  0.17239647108E+04  0.17239647108E+04  0.00000000000E+00 0. -1.
         -2   -1    0    0    0  501 -0.00000000000E+00 -0.00000000000E+00 -0.45659443943E+03  0.45659443943E+03  0.00000000000E+00 0.  1.
         23    2    1    2    0    0 -0.57979160282E+03  0.26676435208E+03  0.65007983414E+03  0.91557543143E+03  0.91395063524E+02 0.  0.
        254    2    1    2    0    0  0.57979160282E+03 -0.26676435208E+03  0.61729043728E+03  0.12649837188E+04  0.90100765964E+03 0.  0.
        -24    2    4    4    0    0  0.46400745345E+03 -0.58663286666E+03  0.46127847893E+03  0.88221400727E+03  0.77991553353E+02 0.  0.
         24    2    4    4    0    0  0.11578414938E+03  0.31986851458E+03  0.15601195834E+03  0.38276971158E+03  0.80318647204E+02 0.  0.
         13    1    3    3    0    0 -0.29151157830E+03  0.13354081765E+03  0.39146091524E+03  0.50601758707E+03  0.00000000000E+00 0. -1.
        -13    1    3    3    0    0 -0.28828002452E+03  0.13322353442E+03  0.25861891890E+03  0.40955784436E+03  0.00000000000E+00 0.  1.
          4    1    6    6  502    0  0.10222264580E+03  0.28981547516E+03  0.11051604570E+03  0.32658272354E+03  0.00000000000E+00 0. -1.
          1    1    5    5  503    0  0.25150113435E+03 -0.33592454439E+03  0.30189599986E+03  0.51695194635E+03  0.00000000000E+00 0. -1.
         -2    1    5    5    0  503  0.21250631909E+03 -0.25070832227E+03  0.15938247907E+03  0.36526206092E+03  0.00000000000E+00 0.  1.
         -3    1    6    6    0  502  0.13561503579E+02  0.30053039415E+02  0.45495912642E+02  0.56186988036E+02  0.00000000000E+00 0.  1.
<mgrwt>
<rscale>  0 0.17744325E+04</rscale>
<asrwt>0</asrwt>
<pdfrwt beam="1">  1        2 0.26522534E+00 0.17744325E+04</pdfrwt>
<pdfrwt beam="2">  1       -2 0.70245299E-01 0.17744325E+04</pdfrwt>
<totfact> 0.16594902E+01</totfact>
</mgrwt>
</event>
<event>
12    1  0.2214165E-007  0.3202859E+04  0.7818608E-02  0.8188063E-01
         -1   -1    0    0    0  501 -0.00000000000E+00  0.00000000000E+00  0.27901580200E+04  0.27901580200E+04  0.00000000000E+00 0.  1.
          1   -1    0    0  501    0  0.00000000000E+00 -0.00000000000E+00 -0.91915094473E+03  0.91915094473E+03  0.00000000000E+00 0. -1.
         23    2    1    2    0    0 -0.91942511401E+03  0.11023459734E+04  0.12487192396E+04  0.19048092772E+04  0.92138253216E+02 0.  0.
        254    2    1    2    0    0  0.91942511401E+03 -0.11023459734E+04  0.62228783567E+03  0.18044996876E+04  0.89914836753E+03 0.  0.
        -24    2    4    4    0    0  0.97154271428E+02 -0.18721034537E+03  0.52090017520E+03  0.56726960171E+03  0.77273168924E+02 0.  0.
         24    2    4    4    0    0  0.82227084258E+03 -0.91513562799E+03  0.10138766047E+03  0.12372300859E+04  0.82802605790E+02 0.  0.
         13    1    3    3    0    0 -0.30020311633E+03  0.31274080525E+03  0.33804566769E+03  0.54973047557E+03  0.00000000000E+00 0. -1.
        -13    1    3    3    0    0 -0.61922199768E+03  0.78960516810E+03  0.91067357194E+03  0.13550788016E+04  0.00000000000E+00 0.  1.
          2    1    6    6  502    0  0.70674821604E+03 -0.74384843277E+03  0.96200646987E+02  0.10305620293E+04  0.00000000000E+00 0. -1.
          3    1    5    5  503    0  0.23270861590E+02 -0.42362464842E+02  0.21998535834E+03  0.22523247837E+03  0.00000000000E+00 0. -1.
         -4    1    5    5    0  503  0.73883409837E+02 -0.14484788053E+03  0.30091481685E+03  0.34203712334E+03  0.00000000000E+00 0.  1.
         -1    1    6    6    0  502  0.11552262655E+03 -0.17128719522E+03  0.51870134868E+01  0.20666805655E+03  0.00000000000E+00 0.  1.
<mgrwt>
<rscale>  0 0.32028590E+04</rscale>
<asrwt>0</asrwt>
<pdfrwt beam="1">  1        1 0.14140784E+00 0.32028590E+04</pdfrwt>
<pdfrwt beam="2">  1       -1 0.42925508E+00 0.32028590E+04</pdfrwt>
<totfact> 0.66011811E-02</totfact>
</mgrwt>
</event>
<event>
12    1  0.2214165E-007  0.1856797E+04  0.7818608E-02  0.8676665E-01
         -1   -1    0    0    0  501 -0.00000000000E+00  0.00000000000E+00  0.63634641669E+03  0.63634641669E+03  0.00000000000E+00 0.  1.
          1   -1    0    0  501    0  0.00000000000E+00 -0.00000000000E+00 -0.13544883481E+04  0.13544883481E+04  0.00000000000E+00 0. -1.
         23    2    1    2    0    0  0.36177893672E+03  0.63092198893E+01  0.37479894629E+03  0.52925485694E+03  0.93341567042E+02 0.  0.
        254    2    1    2    0    0 -0.36177893672E+03 -0.63092198893E+01 -0.10929408777E+04  0.14615799079E+04  0.90042893092E+03 0.  0.
        -24    2    4    4    0    0 -0.11734647989E+03 -0.34987136480E+03 -0.11849707096E+03  0.39669364654E+03  0.84522926669E+02 0.  0.
         24    2    4    4    0    0 -0.24443245684E+03  0.34356214491E+03 -0.97444380677E+03  0.10648862614E+04  0.81607865461E+02 0.  0.
         11    1    3    3    0    0  0.13784291544E+03 -0.54984746476E+01  0.82122596472E+02  0.16054601649E+03  0.00000000000E+00 0. -1.
        -11    1    3    3    0    0  0.22393602129E+03  0.11807694537E+02  0.29267634982E+03  0.36870884044E+03  0.00000000000E+00 0.  1.
          2    1    6    6  502    0 -0.14507185152E+03  0.22576287787E+03 -0.70703553106E+03  0.75624993310E+03  0.00000000000E+00 0. -1.
          3    1    5    5  503    0 -0.30518216214E+02 -0.98725420923E+02  0.54460194142E+01  0.10347815897E+03  0.00000000000E+00 0. -1.
         -4    1    5    5    0  503 -0.86828263671E+02 -0.25114594387E+03 -0.12394309038E+03  0.29321548757E+03  0.00000000000E+00 0.  1.
         -1    1    6    6    0  502 -0.99360605320E+02  0.11779926703E+03 -0.26740827571E+03  0.30863632825E+03  0.00000000000E+00 0.  1.
<mgrwt>
<rscale>  0 0.18567970E+04</rscale>
<asrwt>0</asrwt>
<pdfrwt beam="1">  1        1 0.20838282E+00 0.18567970E+04</pdfrwt>
<pdfrwt beam="2">  1       -1 0.97899450E-01 0.18567970E+04</pdfrwt>
<totfact> 0.77717849E+00</totfact>
</mgrwt>
</event>
<event>
12    1  0.2214165E-007  0.1443315E+04  0.7818608E-02  0.8923048E-01
          1   -1    0    0  501    0  0.00000000000E+00  0.00000000000E+00  0.11177795904E+04  0.11177795904E+04  0.00000000000E+00 0. -1.
         -1   -1    0    0    0  501 -0.00000000000E+00 -0.00000000000E+00 -0.46591423999E+03  0.46591423999E+03  0.00000000000E+00 0.  1.
         23    2    1    2    0    0 -0.39215158576E+02  0.35599091418E+03 -0.73914349728E+02  0.37650402205E+03  0.89580064111E+02 0.  0.
        254    2    1    2    0    0  0.39215158576E+02 -0.35599091418E+03  0.72577970016E+03  0.12071898084E+04  0.89570290867E+03 0.  0.
        -24    2    4    4    0    0  0.20801909767E+03 -0.57539327513E+03  0.28364385292E+03  0.67919525668E+03  0.80641151683E+02 0.  0.
         24    2    4    4    0    0 -0.16880393910E+03  0.21940236095E+03  0.44213584724E+03  0.52799455167E+03  0.81620912383E+02 0.  0.
         11    1    3    3    0    0 -0.86097895134E+00  0.18027800424E+03  0.44214732891E+01  0.18033427163E+03  0.00000000000E+00 0. -1.
        -11    1    3    3    0    0 -0.38354179624E+02  0.17571290994E+03 -0.78335823017E+02  0.19616975042E+03  0.00000000000E+00 0.  1.
          4    1    6    6  502    0 -0.14506615564E+03  0.17154371793E+03  0.40431806717E+03  0.46254138854E+03  0.00000000000E+00 0. -1.
          3    1    5    5  503    0  0.19016575563E+03 -0.42757436878E+03  0.20630639486E+03  0.51141488442E+03  0.00000000000E+00 0. -1.
         -4    1    5    5    0  503  0.17853342040E+02 -0.14781890635E+03  0.77337458062E+02  0.16778037226E+03  0.00000000000E+00 0.  1.
         -3    1    6    6    0  502 -0.23737783458E+02  0.47858643014E+02  0.37817780074E+02  0.65453163135E+02  0.00000000000E+00 0.  1.
<mgrwt>
<rscale>  0 0.14433148E+04</rscale>
<asrwt>0</asrwt>
<pdfrwt beam="1">  1        1 0.17196609E+00 0.14433148E+04</pdfrwt>
<pdfrwt beam="2">  1       -1 0.71679114E-01 0.14433148E+04</pdfrwt>
<totfact> 0.23475216E+01</totfact>
</mgrwt>
</event>
<event>
12    1  0.2214165E-007  0.3223835E+04  0.7818608E-02  0.8182551E-01
          2   -1    0    0  501    0  0.00000000000E+00  0.00000000000E+00  0.38081407981E+04  0.38081407981E+04  0.00000000000E+00 0. -1.
         -2   -1    0    0    0  501 -0.00000000000E+00 -0.00000000000E+00 -0.68229570016E+03  0.68229570016E+03  0.00000000000E+00 0.  1.
         23    2    1    2    0    0  0.20226710913E+03 -0.11867949408E+04  0.23101172565E+03  0.12293248453E+04  0.92081175884E+02 0.  0.
        254    2    1    2    0    0 -0.20226710913E+03  0.11867949408E+04  0.28948333723E+04  0.32611116530E+04  0.89743787805E+03 0.  0.
        -24    2    4    4    0    0  0.16022907099E+03  0.81431569880E+02  0.75796465843E+02  0.21049039568E+03  0.79098967609E+02 0.  0.
         24    2    4    4    0    0 -0.36249618011E+03  0.11053633709E+04  0.28190369065E+04  0.30506212573E+04  0.78034051727E+02 0.  0.
         11    1    3    3    0    0  0.15396100546E+03 -0.73550377416E+03  0.10872203141E+03  0.75926956551E+03  0.00000000000E+00 0.  1.
        -11    1    3    3    0    0  0.48306103662E+02 -0.45129116663E+03  0.12228969424E+03  0.47005527977E+03  0.00000000000E+00 0. -1.
          4    1    6    6  502    0 -0.73636031805E+02  0.13929256762E+03  0.37690099607E+03  0.40850831743E+03  0.00000000000E+00 0. -1.
          1    1    5    5  503    0  0.20318008830E+02  0.32926665420E+02  0.44810411805E+02  0.59202700822E+02  0.00000000000E+00 0. -1.
         -2    1    5    5    0  503  0.13991106216E+03  0.48504904460E+02  0.30986054038E+02  0.15128769486E+03  0.00000000000E+00 0.  1.
         -3    1    6    6    0  502 -0.28886014831E+03  0.96607080328E+03  0.24421359104E+04  0.26421129399E+04  0.00000000000E+00 0.  1.
<mgrwt>
<rscale>  0 0.32238350E+04</rscale>
<asrwt>0</asrwt>
<pdfrwt beam="1">  1        2 0.58586780E+00 0.32238350E+04</pdfrwt>
<pdfrwt beam="2">  1       -2 0.10496857E+00 0.32238350E+04</pdfrwt>
<totfact> 0.29882682E-01</totfact>
</mgrwt>
</event>
<event>
12    1  0.2214165E-007  0.2473523E+04  0.7818608E-02  0.8412479E-01
          2   -1    0    0  501    0  0.00000000000E+00  0.00000000000E+00  0.25258107597E+04  0.25258107597E+04  0.00000000000E+00 0. -1.
         -2   -1    0    0    0  501 -0.00000000000E+00 -0.00000000000E+00 -0.60557919039E+03  0.60557919039E+03  0.00000000000E+00 0.  1.
         23    2    1    2    0    0 -0.38505405111E+03 -0.14904827188E+03 -0.41614981519E+03  0.59307273489E+03  0.89847596295E+02 0.  0.
        254    2    1    2    0    0  0.38505405111E+03  0.14904827188E+03  0.23363813845E+04  0.25383172152E+04  0.90216090664E+03 0.  0.
        -24    2    4    4    0    0 -0.24132157986E+03  0.17260511621E+03  0.41752124080E+03  0.51811663068E+03  0.78052709240E+02 0.  0.
         24    2    4    4    0    0  0.62637563097E+03 -0.23556844332E+02  0.19188601437E+04  0.20202005845E+04  0.79276696402E+02 0.  0.
         11    1    3    3    0    0 -0.14384276669E+03 -0.65458458417E+02 -0.22124093756E+03  0.27188803534E+03  0.00000000000E+00 0.  1.
        -11    1    3    3    0    0 -0.24121128443E+03 -0.83589813465E+02 -0.19490887763E+03  0.32118469956E+03  0.00000000000E+00 0. -1.
          2    1    6    6  502    0  0.29253239689E+03 -0.47152017039E+02  0.84965382030E+03  0.89983894687E+03  0.00000000000E+00 0. -1.
          3    1    5    5  503    0 -0.60022057102E+02  0.73227034978E+02  0.17871013353E+03  0.20224281895E+03  0.00000000000E+00 0. -1.
         -4    1    5    5    0  503 -0.18129952275E+03  0.99378081235E+02  0.23881110727E+03  0.31587381173E+03  0.00000000000E+00 0.  1.
         -1    1    6    6    0  502  0.33384323408E+03  0.23595172707E+02  0.10692063234E+04  0.11203616377E+04  0.00000000000E+00 0.  1.
<mgrwt>
<rscale>  0 0.24735225E+04</rscale>
<asrwt>0</asrwt>
<pdfrwt beam="1">  1        2 0.38858626E+00 0.24735225E+04</pdfrwt>
<pdfrwt beam="2">  1       -2 0.93166031E-01 0.24735225E+04</pdfrwt>
<totfact> 0.29314551E+00</totfact>
</mgrwt>
</event>
<event>
12    1  0.2214165E-007  0.2221797E+04  0.7818608E-02  0.8509410E-01
          1   -1    0    0  501    0  0.00000000000E+00  0.00000000000E+00  0.34643760435E+04  0.34643760435E+04  0.00000000000E+00 0. -1.
         -1   -1    0    0    0  501 -0.00000000000E+00 -0.00000000000E+00 -0.35622445749E+03  0.35622445749E+03  0.00000000000E+00 0.  1.
         23    2    1    2    0    0  0.64511317012E+03 -0.21040839951E+03  0.21869359132E+03  0.71863149266E+03  0.90341787213E+02 0.  0.
        254    2    1    2    0    0 -0.64511317012E+03  0.21040839951E+03  0.28894579947E+04  0.31019690083E+04  0.90155506138E+03 0.  0.
        -24    2    4    4    0    0 -0.53162964326E+03  0.53466759168E+03  0.16984037690E+04  0.18597274574E+04  0.74238413461E+02 0.  0.
         24    2    4    4    0    0 -0.11348352685E+03 -0.32425919217E+03  0.11910542257E+04  0.12422415510E+04  0.80816877970E+02 0.  0.
         13    1    3    3    0    0  0.25427255192E+03 -0.10417283389E+03  0.47243513184E+02  0.27881617513E+03  0.00000000000E+00 0.  1.
        -13    1    3    3    0    0  0.39084061820E+03 -0.10623556562E+03  0.17145007814E+03  0.43981531753E+03  0.00000000000E+00 0. -1.
          2    1    6    6  502    0 -0.44023657324E+02 -0.16445072523E+03  0.72385543242E+03  0.74360527867E+03  0.00000000000E+00 0. -1.
          3    1    5    5  503    0 -0.43811961590E+03  0.47301557232E+03  0.14136250133E+04  0.15537143263E+04  0.00000000000E+00 0. -1.
         -4    1    5    5    0  503 -0.93510027359E+02  0.61652019352E+02  0.28477875561E+03  0.30601313102E+03  0.00000000000E+00 0.  1.
         -1    1    6    6    0  502 -0.69459869530E+02 -0.15980846693E+03  0.46719879331E+03  0.49863627230E+03  0.00000000000E+00 0.  1.
<mgrwt>
<rscale>  0 0.22217970E+04</rscale>
<asrwt>0</asrwt>
<pdfrwt beam="1">  1        1 0.53298091E+00 0.22217970E+04</pdfrwt>
<pdfrwt beam="2">  1       -1 0.54803765E-01 0.22217970E+04</pdfrwt>
<totfact> 0.81799532E-01</totfact>
</mgrwt>
</event>
<event>
12    1  0.2214165E-007  0.1961663E+04  0.7818608E-02  0.8624757E-01
          2   -1    0    0  501    0  0.00000000000E+00  0.00000000000E+00  0.13851619372E+04  0.13851619372E+04  0.00000000000E+00 0.  1.
         -2   -1    0    0    0  501 -0.00000000000E+00 -0.00000000000E+00 -0.69452558964E+03  0.69452558964E+03  0.00000000000E+00 0. -1.
         23    2    1    2    0    0  0.11952836993E+03  0.40007335572E+03  0.95956124025E+03  0.10506448650E+04  0.93547513500E+02 0.  0.
        254    2    1    2    0    0 -0.11952836993E+03 -0.40007335572E+03 -0.26892489268E+03  0.10290426619E+04  0.90125605736E+03 0.  0.
        -24    2    4    4    0    0 -0.15916590455E+03 -0.22528028892E+03  0.30732141330E+03  0.42030535282E+03  0.78263304253E+02 0.  0.
         24    2    4    4    0    0  0.39637534622E+02 -0.17479306680E+03 -0.57624630598E+03  0.60873730907E+03  0.79859601513E+02 0.  0.
         11    1    3    3    0    0  0.39929868504E+02  0.76469096639E+02  0.12378483639E+03  0.15087943153E+03  0.00000000000E+00 0. -1.
        -11    1    3    3    0    0  0.79598501427E+02  0.32360425909E+03  0.83577640386E+03  0.89976543342E+03  0.00000000000E+00 0.  1.
          2    1    6    6  502    0  0.59182140024E+02 -0.82291462909E+02 -0.28100369161E+03  0.29872643884E+03  0.00000000000E+00 0. -1.
          3    1    5    5  503    0 -0.87097594163E+02 -0.14045911076E+03  0.12713512084E+03  0.20851400829E+03  0.00000000000E+00 0. -1.
         -4    1    5    5    0  503 -0.72068310390E+02 -0.84821178160E+02  0.18018629246E+03  0.21179134453E+03  0.00000000000E+00 0.  1.
         -1    1    6    6    0  502 -0.19544605402E+02 -0.92501603896E+02 -0.29524261437E+03  0.31001087023E+03  0.00000000000E+00 0.  1.
<mgrwt>
<rscale>  0 0.19616630E+04</rscale>
<asrwt>0</asrwt>
<pdfrwt beam="1">  1        2 0.21310184E+00 0.19616630E+04</pdfrwt>
<pdfrwt beam="2">  1       -2 0.10685009E+00 0.19616630E+04</pdfrwt>
<totfact> 0.96947809E+00</totfact>
</mgrwt>
</event>
<event>
12    1  0.2214165E-007  0.2055459E+04  0.7818608E-02  0.8581122E-01
         -2   -1    0    0    0  501 -0.00000000000E+00  0.00000000000E+00  0.14396967466E+04  0.14396967466E+04  0.00000000000E+00 0.  1.
          2   -1    0    0  501    0  0.00000000000E+00 -0.00000000000E+00 -0.73364601380E+03  0.73364601380E+03  0.00000000000E+00 0. -1.
         23    2    1    2    0    0 -0.76505775865E+03 -0.17539091622E+03  0.70501739415E+01  0.79029911326E+03  0.91911021637E+02 0.  0.
        254    2    1    2    0    0  0.76505775865E+03  0.17539091622E+03  0.69900055882E+03  0.13830436471E+04  0.89896195750E+03 0.  0.
        -24    2    4    4    0    0  0.24096041427E+03 -0.35816932003E+03  0.29617592135E+03  0.52937251429E+03  0.78535975522E+02 0.  0.
         24    2    4    4    0    0  0.52409734438E+03  0.53356023625E+03  0.40282463747E+03  0.85367113282E+03  0.84392904706E+02 0.  0.
         13    1    3    3    0    0 -0.57685360839E+03 -0.14517632067E+03 -0.32096837610E+02  0.59570668670E+03  0.00000000000E+00 0. -1.
        -13    1    3    3    0    0 -0.18820415026E+03 -0.30214595553E+02  0.39147011552E+02  0.19459242655E+03  0.00000000000E+00 0.  1.
          4    1    6    6  502    0  0.47869262849E+01  0.14286576919E+00  0.11872390682E+02  0.12801903545E+02  0.00000000000E+00 0. -1.
          3    1    5    5  503    0  0.21363933368E+02 -0.26919375806E+02  0.11100517652E+01  0.34384628218E+02  0.00000000000E+00 0. -1.
         -4    1    5    5    0  503  0.21959648090E+03 -0.33124994422E+03  0.29506586958E+03  0.49498788608E+03  0.00000000000E+00 0.  1.
         -3    1    6    6    0  502  0.51931041809E+03  0.53341737048E+03  0.39095224679E+03  0.84086922928E+03  0.00000000000E+00 0.  1.
<mgrwt>
<rscale>  0 0.20554589E+04</rscale>
<asrwt>0</asrwt>
<pdfrwt beam="1">  1        2 0.11286862E+00 0.20554589E+04</pdfrwt>
<pdfrwt beam="2">  1       -2 0.22149181E+00 0.20554589E+04</pdfrwt>
<totfact> 0.34496355E+00</totfact>
</mgrwt>
</event>
<event>
12    1  0.2214165E-007  0.1193004E+04  0.7818608E-02  0.9119002E-01
          2   -1    0    0  501    0  0.00000000000E+00  0.00000000000E+00  0.15799198663E+03  0.15799198663E+03  0.00000000000E+00 0. -1.
         -2   -1    0    0    0  501 -0.00000000000E+00 -0.00000000000E+00 -0.22521062450E+04  0.22521062450E+04  0.00000000000E+00 0.  1.
         23    2    1    2    0    0  0.14696493375E+03 -0.54307501904E+01 -0.80916799588E+03  0.82748817888E+03  0.91409276549E+02 0.  0.
        254    2    1    2    0    0 -0.14696493375E+03  0.54307501904E+01 -0.12849462625E+04  0.15826100527E+04  0.91210717394E+03 0.  0.
        -24    2    4    4    0    0 -0.23916571844E+03  0.27029060135E+03 -0.12320321036E+04  0.12862507703E+04  0.79250802446E+02 0.  0.
         24    2    4    4    0    0  0.92200784688E+02 -0.26485985116E+03 -0.52914158850E+02  0.29635928243E+03  0.79857314141E+02 0.  0.
         13    1    3    3    0    0  0.80722110652E+02 -0.31398927248E+02 -0.26764374449E+03  0.28130966166E+03  0.00000000000E+00 0. -1.
        -13    1    3    3    0    0  0.66242823096E+02  0.25968177057E+02 -0.54152425139E+03  0.54617851722E+03  0.00000000000E+00 0.  1.
          4    1    6    6  502    0  0.38335115187E+02 -0.21073962271E+03 -0.49945050048E+02  0.21994380569E+03  0.00000000000E+00 0. -1.
          3    1    5    5  503    0 -0.19901319530E+03  0.26049506880E+03 -0.10751433176E+04  0.11240093799E+04  0.00000000000E+00 0. -1.
         -4    1    5    5    0  503 -0.40152523137E+02  0.97955325515E+01 -0.15688878609E+03  0.16224139044E+03  0.00000000000E+00 0.  1.
         -3    1    6    6    0  502  0.53865669501E+02 -0.54120228443E+02 -0.29691088022E+01  0.76415476735E+02  0.00000000000E+00 0.  1.
<mgrwt>
<rscale>  0 0.11930042E+04</rscale>
<asrwt>0</asrwt>
<pdfrwt beam="1">  1        2 0.24306460E-01 0.11930042E+04</pdfrwt>
<pdfrwt beam="2">  1       -2 0.34647787E+00 0.11930042E+04</pdfrwt>
<totfact> 0.37161073E+00</totfact>
</mgrwt>
</event>
<event>
12    1  0.2214165E-007  0.1499008E+04  0.7818608E-02  0.8885113E-01
         -1   -1    0    0    0  501 -0.00000000000E+00  0.00000000000E+00  0.47496662653E+03  0.47496662653E+03  0.00000000000E+00 0.  1.
          1   -1    0    0  501    0  0.00000000000E+00 -0.00000000000E+00 -0.11827273731E+04  0.11827273731E+04  0.00000000000E+00 0. -1.
         23    2    1    2    0    0 -0.19934053800E+03 -0.42128324536E+03 -0.31749300853E+03  0.57104760685E+03  0.89874000178E+02 0.  0.
        254    2    1    2    0    0  0.19934053800E+03  0.42128324536E+03 -0.39026773806E+03  0.10866463928E+04  0.90070819510E+03 0.  0.
        -24    2    4    4    0    0  0.31273557837E+03  0.16797552791E+03 -0.61843437972E+03  0.71781978065E+03  0.82370113007E+02 0.  0.
         24    2    4    4    0    0 -0.11339504036E+03  0.25330771745E+03  0.22816664166E+03  0.36882661216E+03  0.83365571865E+02 0.  0.
         13    1    3    3    0    0 -0.13154768169E+03 -0.26944963515E+03 -0.15092457029E+03  0.33568753977E+03  0.00000000000E+00 0.  1.
        -13    1    3    3    0    0 -0.67792856309E+02 -0.15183361021E+03 -0.16656843824E+03  0.23536006707E+03  0.00000000000E+00 0. -1.
          4    1    6    6  502    0 -0.12259263200E+03  0.23800726010E+03  0.22687905560E+03  0.35092807689E+03  0.00000000000E+00 0. -1.
          1    1    5    5  503    0  0.14186043866E+03  0.10607832133E+03 -0.36774817857E+03  0.40818588554E+03  0.00000000000E+00 0. -1.
         -2    1    5    5    0  503  0.17087513971E+03  0.61897206583E+02 -0.25068620115E+03  0.30963389511E+03  0.00000000000E+00 0.  1.
         -3    1    6    6    0  502  0.91975916336E+01  0.15300457345E+02  0.12875860609E+01  0.17898535266E+02  0.00000000000E+00 0.  1.
<mgrwt>
<rscale>  0 0.14990077E+04</rscale>
<asrwt>0</asrwt>
<pdfrwt beam="1">  1        1 0.18195806E+00 0.14990077E+04</pdfrwt>
<pdfrwt beam="2">  1       -1 0.73071789E-01 0.14990077E+04</pdfrwt>
<totfact> 0.20095156E+01</totfact>
</mgrwt>
</event>
<event>
12    1  0.2214165E-007  0.3279336E+04  0.7818608E-02  0.8168173E-01
         -2   -1    0    0    0  501 -0.00000000000E+00  0.00000000000E+00  0.93367541315E+03  0.93367541315E+03  0.00000000000E+00 0.  1.
          2   -1    0    0  501    0  0.00000000000E+00 -0.00000000000E+00 -0.28794923214E+04  0.28794923214E+04  0.00000000000E+00 0. -1.
         23    2    1    2    0    0 -0.21350343065E+03  0.12102894938E+04  0.12836530293E+03  0.12390875157E+04  0.92064362467E+02 0.  0.
        254    2    1    2    0    0  0.21350343065E+03 -0.12102894938E+04 -0.20741822112E+04  0.25740802189E+04  0.90181636382E+03 0.  0.
        -24    2    4    4    0    0  0.17492113871E+03 -0.63375712218E+03 -0.18219418325E+04  0.19385540651E+04  0.79210653918E+02 0.  0.
         24    2    4    4    0    0  0.38582291937E+02 -0.57653237165E+03 -0.25224037869E+03  0.63552615372E+03  0.79938192409E+02 0.  0.
         13    1    3    3    0    0 -0.21159535072E+03  0.10009016598E+04  0.10702146948E+03  0.10286060081E+04  0.00000000000E+00 0. -1.
        -13    1    3    3    0    0 -0.19080799301E+01  0.20938783405E+03  0.21343833450E+02  0.21048150761E+03  0.00000000000E+00 0.  1.
          4    1    6    6  502    0  0.25363272250E+02 -0.45750944224E+03 -0.16362656855E+03  0.48655096264E+03  0.00000000000E+00 0. -1.
          3    1    5    5  503    0  0.15308277365E+03 -0.61025126136E+03 -0.17085264558E+04  0.18206876689E+04  0.00000000000E+00 0. -1.
         -4    1    5    5    0  503  0.21838365060E+02 -0.23505860816E+02 -0.11341537670E+03  0.11786639620E+03  0.00000000000E+00 0.  1.
         -3    1    6    6    0  502  0.13219019688E+02 -0.11902292942E+03 -0.88613810142E+02  0.14897519108E+03  0.00000000000E+00 0.  1.
<mgrwt>
<rscale>  0 0.32793360E+04</rscale>
<asrwt>0</asrwt>
<pdfrwt beam="1">  1        2 0.44299881E+00 0.32793360E+04</pdfrwt>
<pdfrwt beam="2">  1       -2 0.14364237E+00 0.32793360E+04</pdfrwt>
<totfact> 0.58082418E-01</totfact>
</mgrwt>
</event>
<event>
12    1  0.2214165E-007  0.2134622E+04  0.7818608E-02  0.8546144E-01
         -2   -1    0    0    0  501 -0.00000000000E+00  0.00000000000E+00  0.67677852282E+03  0.67677852282E+03  0.00000000000E+00 0. -1.
          2   -1    0    0  501    0  0.00000000000E+00 -0.00000000000E+00 -0.16831981177E+04  0.16831981177E+04  0.00000000000E+00 0.  1.
         23    2    1    2    0    0  0.67329142698E+03  0.21048221881E+03  0.15695186032E+03  0.72860354401E+03  0.92763828115E+02 0.  0.
        254    2    1    2    0    0 -0.67329142698E+03 -0.21048221881E+03 -0.11633714552E+04  0.16313730965E+04  0.90017827521E+03 0.  0.
        -24    2    4    4    0    0 -0.36040993197E+03 -0.44683240630E+02 -0.12095774401E+04  0.12654657066E+04  0.80211968390E+02 0.  0.
         24    2    4    4    0    0 -0.31288149501E+03 -0.16579897818E+03  0.46205984903E+02  0.36590738992E+03  0.79806602947E+02 0.  0.
         13    1    3    3    0    0  0.50745092212E+03  0.11775324490E+03  0.12773226515E+03  0.53636535738E+03  0.00000000000E+00 0.  1.
        -13    1    3    3    0    0  0.16584050486E+03  0.92728973909E+02  0.29219595176E+02  0.19223818663E+03  0.00000000000E+00 0. -1.
          2    1    6    6  502    0 -0.23271272872E+02 -0.37547736591E+02  0.18728227326E+02  0.47980528998E+02  0.00000000000E+00 0. -1.
          3    1    5    5  503    0 -0.13578843421E+03 -0.46928980122E+02 -0.38846090739E+03  0.41417714158E+03  0.00000000000E+00 0. -1.
         -4    1    5    5    0  503 -0.22462149776E+03  0.22457394914E+01 -0.82111653274E+03  0.85128856502E+03  0.00000000000E+00 0.  1.
         -1    1    6    6    0  502 -0.28961022213E+03 -0.12825124159E+03  0.27477757577E+02  0.31792686092E+03  0.00000000000E+00 0.  1.
<mgrwt>
<rscale>  0 0.21346216E+04</rscale>
<asrwt>0</asrwt>
<pdfrwt beam="1">  1        2 0.25895355E+00 0.21346216E+04</pdfrwt>
<pdfrwt beam="2">  1       -2 0.10411977E+00 0.21346216E+04</pdfrwt>
<totfact> 0.69075300E+00</totfact>
</mgrwt>
</event>
<event>
12    1  0.2214165E-007  0.2081162E+04  0.7818608E-02  0.8569587E-01
          1   -1    0    0  501    0  0.00000000000E+00  0.00000000000E+00  0.10151234707E+04  0.10151234707E+04  0.00000000000E+00 0. -1.
         -1   -1    0    0    0  501 -0.00000000000E+00 -0.00000000000E+00 -0.10666773031E+04  0.10666773031E+04  0.00000000000E+00 0.  1.
         23    2    1    2    0    0  0.77696127885E+03 -0.26743641665E+03 -0.20829596338E+03  0.85284276566E+03  0.93608273148E+02 0.  0.
        254    2    1    2    0    0 -0.77696127885E+03  0.26743641665E+03  0.15674213101E+03  0.12289580082E+04  0.90032140061E+03 0.  0.
        -24    2    4    4    0    0 -0.64153274806E+03  0.55845776999E+03  0.24125329380E+03  0.88769335595E+03  0.79730764045E+02 0.  0.
         24    2    4    4    0    0 -0.13542853079E+03 -0.29102135334E+03 -0.84511162786E+02  0.34126465221E+03  0.79278692962E+02 0.  0.
         13    1    3    3    0    0  0.57139630636E+03 -0.20120504034E+03 -0.19526389948E+03  0.63647874876E+03  0.00000000000E+00 0.  1.
        -13    1    3    3    0    0  0.20556497248E+03 -0.66231376304E+02 -0.13032063904E+02  0.21636401690E+03  0.00000000000E+00 0. -1.
          4    1    6    6  502    0 -0.67434644016E+02 -0.12087445222E+03 -0.75843600301E+02  0.15783002287E+03  0.00000000000E+00 0. -1.
          1    1    5    5  503    0 -0.17432689181E+03  0.10899756231E+03  0.69485970394E+02  0.21702219674E+03  0.00000000000E+00 0. -1.
         -2    1    5    5    0  503 -0.46720585625E+03  0.44946020768E+03  0.17176732340E+03  0.67067115921E+03  0.00000000000E+00 0.  1.
         -3    1    6    6    0  502 -0.67993886769E+02 -0.17014690112E+03 -0.86675624851E+01  0.18343462933E+03  0.00000000000E+00 0.  1.
<mgrwt>
<rscale>  0 0.20811623E+04</rscale>
<asrwt>0</asrwt>
<pdfrwt beam="1">  1        1 0.15617284E+00 0.20811623E+04</pdfrwt>
<pdfrwt beam="2">  1       -1 0.16410420E+00 0.20811623E+04</pdfrwt>
<totfact> 0.36918184E+00</totfact>
</mgrwt>
</event>
<event>
12    1  0.2214165E-007  0.2113164E+04  0.7818608E-02  0.8555467E-01
         -2   -1    0    0    0  501 -0.00000000000E+00  0.00000000000E+00  0.59138829058E+03  0.59138829058E+03  0.00000000000E+00 0.  1.
          2   -1    0    0  501    0  0.00000000000E+00 -0.00000000000E+00 -0.18877024096E+04  0.18877024096E+04  0.00000000000E+00 0. -1.
         23    2    1    2    0    0  0.74572026392E+03 -0.18183070949E+03 -0.99236058541E+03  0.12577454674E+04  0.89347693751E+02 0.  0.
        254    2    1    2    0    0 -0.74572026392E+03  0.18183070949E+03 -0.30395353362E+03  0.12213452328E+04  0.90007516802E+03 0.  0.
        -24    2    4    4    0    0 -0.16663395663E+03  0.39896356783E+03 -0.39475857008E+03  0.59080509156E+03  0.79230824852E+02 0.  0.
         24    2    4    4    0    0 -0.57908630730E+03 -0.21713285834E+03  0.90805036460E+02  0.63054014121E+03  0.82750743586E+02 0.  0.
         11    1    3    3    0    0  0.37087882607E+03 -0.79128365173E+02 -0.56063837367E+03  0.67685137795E+03  0.00000000000E+00 0. -1.
        -11    1    3    3    0    0  0.37484143785E+03 -0.10270234432E+03 -0.43172221173E+03  0.58089408945E+03  0.00000000000E+00 0.  1.
          2    1    6    6  502    0 -0.24426867082E+03 -0.53413567770E+02  0.17134953239E+02  0.25062681299E+03  0.00000000000E+00 0. -1.
          1    1    5    5  503    0 -0.97381763948E+01  0.48310105753E+02 -0.80947993556E+02  0.94769594587E+02  0.00000000000E+00 0. -1.
         -2    1    5    5    0  503 -0.15689578023E+03  0.35065346208E+03 -0.31381057653E+03  0.49603549698E+03  0.00000000000E+00 0.  1.
         -1    1    6    6    0  502 -0.33481763648E+03 -0.16371929057E+03  0.73670083221E+02  0.37991332823E+03  0.00000000000E+00 0.  1.
<mgrwt>
<rscale>  0 0.21131636E+04</rscale>
<asrwt>0</asrwt>
<pdfrwt beam="1">  1        2 0.29041575E+00 0.21131636E+04</pdfrwt>
<pdfrwt beam="2">  1       -2 0.90982816E-01 0.21131636E+04</pdfrwt>
<totfact> 0.73178545E+00</totfact>
</mgrwt>
</event>
<event>
12    1  0.2214165E-007  0.1324321E+04  0.7818608E-02  0.9010498E-01
         -2   -1    0    0    0  501 -0.00000000000E+00  0.00000000000E+00  0.38287533641E+03  0.38287533641E+03  0.00000000000E+00 0.  1.
          2   -1    0    0  501    0  0.00000000000E+00 -0.00000000000E+00 -0.11451680130E+04  0.11451680130E+04  0.00000000000E+00 0. -1.
         23    2    1    2    0    0 -0.15578791456E+02 -0.33737491309E+03 -0.23365108894E+03  0.42076104770E+03  0.91555978332E+02 0.  0.
        254    2    1    2    0    0  0.15578791456E+02  0.33737491309E+03 -0.52864158765E+03  0.11072823017E+04  0.91244048395E+03 0.  0.
        -24    2    4    4    0    0  0.37753096027E+03  0.41538881903E+03 -0.44162690666E+03  0.71873820348E+03  0.80453610959E+02 0.  0.
         24    2    4    4    0    0 -0.36195216882E+03 -0.78013905940E+02 -0.87014680991E+02  0.38854409823E+03  0.79368882626E+02 0.  0.
         13    1    3    3    0    0 -0.24647876223E+02 -0.29844488090E+03 -0.23516239408E+03  0.38076005086E+03  0.00000000000E+00 0. -1.
        -13    1    3    3    0    0  0.90690847670E+01 -0.38930032191E+02  0.15113051415E+01  0.40000996839E+02  0.00000000000E+00 0.  1.
          2    1    6    6  502    0 -0.34434882363E+02  0.15845853311E+02 -0.10940981414E+02  0.39453228826E+02  0.00000000000E+00 0. -1.
          1    1    5    5  503    0  0.10976232475E+03  0.16003197169E+03 -0.18768054220E+03  0.26996663834E+03  0.00000000000E+00 0. -1.
         -2    1    5    5    0  503  0.26776863553E+03  0.25535684734E+03 -0.25394636446E+03  0.44877156514E+03  0.00000000000E+00 0.  1.
         -1    1    6    6    0  502 -0.32751728645E+03 -0.93859759251E+02 -0.76073699577E+02  0.34909086940E+03  0.00000000000E+00 0.  1.
<mgrwt>
<rscale>  0 0.13243211E+04</rscale>
<asrwt>0</asrwt>
<pdfrwt beam="1">  1        2 0.17617969E+00 0.13243211E+04</pdfrwt>
<pdfrwt beam="2">  1       -2 0.58903899E-01 0.13243211E+04</pdfrwt>
<totfact> 0.53860491E+01</totfact>
</mgrwt>
</event>
<event>
12    1  0.2214165E-007  0.1338932E+04  0.7818608E-02  0.8999249E-01
         -2   -1    0    0    0  501 -0.00000000000E+00  0.00000000000E+00  0.61476316875E+03  0.61476316875E+03  0.00000000000E+00 0.  1.
          2   -1    0    0  501    0  0.00000000000E+00 -0.00000000000E+00 -0.72903685476E+03  0.72903685476E+03  0.00000000000E+00 0. -1.
         23    2    1    2    0    0 -0.25944190640E+03 -0.21545231809E+03  0.93562178234E+02  0.36039705093E+03  0.86036904604E+02 0.  0.
        254    2    1    2    0    0  0.25944190640E+03  0.21545231809E+03 -0.20783586425E+03  0.98340297258E+03  0.90008658242E+03 0.  0.
        -24    2    4    4    0    0  0.24131142270E+03  0.55458960035E+03 -0.10693764793E+03  0.61944781349E+03  0.80492891290E+02 0.  0.
         24    2    4    4    0    0  0.18130483694E+02 -0.33913728226E+03 -0.10089821632E+03  0.36395515910E+03  0.83307245319E+02 0.  0.
         13    1    3    3    0    0 -0.14089495351E+03 -0.16874823252E+03  0.47473958086E+02  0.22490249131E+03  0.00000000000E+00 0. -1.
        -13    1    3    3    0    0 -0.11854695289E+03 -0.46704085577E+02  0.46088220148E+02  0.13549455962E+03  0.00000000000E+00 0.  1.
          2    1    6    6  502    0 -0.64219738848E+01 -0.29890867333E+03 -0.68384520324E+02  0.30669867845E+03  0.00000000000E+00 0. -1.
          3    1    5    5  503    0  0.24142165834E+03  0.51168908753E+03 -0.11023126205E+03  0.57642091439E+03  0.00000000000E+00 0. -1.
         -4    1    5    5    0  503 -0.11023563752E+00  0.42900512821E+02  0.32936141190E+01  0.43026899100E+02  0.00000000000E+00 0.  1.
         -1    1    6    6    0  502  0.24552457579E+02 -0.40228608922E+02 -0.32513695995E+02  0.57256480648E+02  0.00000000000E+00 0.  1.
<mgrwt>
<rscale>  0 0.13389324E+04</rscale>
<asrwt>0</asrwt>
<pdfrwt beam="1">  1        2 0.11215952E+00 0.13389324E+04</pdfrwt>
<pdfrwt beam="2">  1       -2 0.94578949E-01 0.13389324E+04</pdfrwt>
<totfact> 0.35821879E+01</totfact>
</mgrwt>
</event>
<event>
12    1  0.2214165E-007  0.2246400E+04  0.7818608E-02  0.8499360E-01
          1   -1    0    0  501    0  0.00000000000E+00  0.00000000000E+00  0.43653518006E+04  0.43653518006E+04  0.00000000000E+00 0. -1.
         -1   -1    0    0    0  501 -0.00000000000E+00 -0.00000000000E+00 -0.28899816838E+03  0.28899816838E+03  0.00000000000E+00 0.  1.
         23    2    1    2    0    0 -0.92607199037E+03  0.30578279944E+02  0.13727275923E+04  0.16580951490E+04  0.79712722115E+02 0.  0.
        254    2    1    2    0    0  0.92607199037E+03 -0.30578279944E+02  0.27036260400E+04  0.29962548200E+04  0.89966928350E+03 0.  0.
        -24    2    4    4    0    0 -0.76263843145E+02  0.22560593762E+03  0.60943017640E+03  0.65915849631E+03  0.79815853625E+02 0.  0.
         24    2    4    4    0    0  0.10023358335E+04 -0.25618421756E+03  0.20941958636E+04  0.23370963237E+04  0.77816673176E+02 0.  0.
         11    1    3    3    0    0 -0.30653459727E+03 -0.27364395785E+02  0.45182737417E+03  0.54668111869E+03  0.00000000000E+00 0. -1.
        -11    1    3    3    0    0 -0.61953739310E+03  0.57942675729E+02  0.92090021810E+03  0.11114140303E+04  0.00000000000E+00 0.  1.
          2    1    6    6  502    0  0.84324927453E+03 -0.19123030789E+03  0.17835286413E+04  0.19820728504E+04  0.00000000000E+00 0. -1.
          3    1    5    5  503    0 -0.91508692212E+02  0.18151445166E+03  0.46824721432E+03  0.51046722777E+03  0.00000000000E+00 0. -1.
         -4    1    5    5    0  503  0.15244849068E+02  0.44091485953E+02  0.14118296208E+03  0.14869126854E+03  0.00000000000E+00 0.  1.
         -1    1    6    6    0  502  0.15908655898E+03 -0.64953909673E+02  0.31066722227E+03  0.35502347334E+03  0.00000000000E+00 0.  1.
<mgrwt>
<rscale>  0 0.22464004E+04</rscale>
<asrwt>0</asrwt>
<pdfrwt beam="1">  1        1 0.67159254E+00 0.22464004E+04</pdfrwt>
<pdfrwt beam="2">  1       -1 0.44461260E-01 0.22464004E+04</pdfrwt>
<totfact> 0.20153560E-01</totfact>
</mgrwt>
</event>
<event>
12    1  0.2214165E-007  0.3276290E+04  0.7818608E-02  0.8168955E-01
          2   -1    0    0  501    0  0.00000000000E+00  0.00000000000E+00  0.17149550593E+04  0.17149550593E+04  0.00000000000E+00 0. -1.
         -2   -1    0    0    0  501 -0.00000000000E+00 -0.00000000000E+00 -0.15647750079E+04  0.15647750079E+04  0.00000000000E+00 0.  1.
         23    2    1    2    0    0 -0.72558661091E+03 -0.91600060117E+03  0.10312525802E+04  0.15614008360E+04  0.94644889782E+02 0.  0.
        254    2    1    2    0    0  0.72558661091E+03  0.91600060117E+03 -0.88107252879E+03  0.17183292312E+04  0.90046294453E+03 0.  0.
        -24    2    4    4    0    0  0.99255750758E+02  0.35698102797E+03 -0.78230716910E+03  0.86926459117E+03  0.79556673177E+02 0.  0.
         24    2    4    4    0    0  0.62633086015E+03  0.55901957320E+03 -0.98765359697E+02  0.84906464002E+03  0.79768020222E+02 0.  0.
         13    1    3    3    0    0 -0.37935439194E+03 -0.55373625539E+03  0.59810617434E+03  0.89903536694E+03  0.00000000000E+00 0. -1.
        -13    1    3    3    0    0 -0.34623221897E+03 -0.36226434578E+03  0.43314640588E+03  0.66236546906E+03  0.00000000000E+00 0.  1.
          2    1    6    6  502    0  0.34649902814E+03  0.36169112269E+03 -0.56648773729E+02  0.50407452653E+03  0.00000000000E+00 0. -1.
          1    1    5    5  503    0  0.71854273390E+01  0.12608647982E+03 -0.32666947416E+03  0.35023188905E+03  0.00000000000E+00 0. -1.
         -2    1    5    5    0  503  0.92070323419E+02  0.23089454814E+03 -0.45563769494E+03  0.51903270211E+03  0.00000000000E+00 0.  1.
         -1    1    6    6    0  502  0.27983183201E+03  0.19732845051E+03 -0.42116585969E+02  0.34499011348E+03  0.00000000000E+00 0.  1.
<mgrwt>
<rscale>  0 0.32762899E+04</rscale>
<asrwt>0</asrwt>
<pdfrwt beam="1">  1        2 0.26383924E+00 0.32762899E+04</pdfrwt>
<pdfrwt beam="2">  1       -2 0.24073462E+00 0.32762899E+04</pdfrwt>
<totfact> 0.59018783E-01</totfact>
</mgrwt>
</event>
<event>
12    1  0.2214165E-007  0.2133529E+04  0.7818608E-02  0.8546616E-01
         -2   -1    0    0    0  501 -0.00000000000E+00  0.00000000000E+00  0.62975071418E+03  0.62975071418E+03  0.00000000000E+00 0.  1.
          2   -1    0    0  501    0  0.00000000000E+00 -0.00000000000E+00 -0.18070434467E+04  0.18070434467E+04  0.00000000000E+00 0. -1.
         23    2    1    2    0    0 -0.53211866435E+03 -0.21090969243E+03  0.27042003728E+03  0.63923272354E+03  0.88647092363E+02 0.  0.
        254    2    1    2    0    0  0.53211866435E+03  0.21090969243E+03 -0.14477127698E+04  0.17975614373E+04  0.89873337863E+03 0.  0.
        -24    2    4    4    0    0 -0.12659722627E+02  0.44260030255E+03 -0.78461846402E+03  0.90446047511E+03  0.79795492145E+02 0.  0.
         24    2    4    4    0    0  0.54477838697E+03 -0.23169061012E+03 -0.66309430578E+03  0.89310096223E+03  0.86436338663E+02 0.  0.
         13    1    3    3    0    0 -0.17738763440E+03 -0.40414114816E+02  0.52518598951E+02  0.18936176158E+03  0.00000000000E+00 0. -1.
        -13    1    3    3    0    0 -0.35473102995E+03 -0.17049557761E+03  0.21790143832E+03  0.44987096196E+03  0.00000000000E+00 0.  1.
          2    1    6    6  502    0  0.27578885071E+03 -0.11906804025E+03 -0.27189900719E+03  0.40517373865E+03  0.00000000000E+00 0. -1.
          3    1    5    5  503    0  0.20825802358E+02  0.40670864789E+02 -0.98433099937E+02  0.10852146539E+03  0.00000000000E+00 0. -1.
         -4    1    5    5    0  503 -0.33485524985E+02  0.40192943776E+03 -0.68618536408E+03  0.79593900972E+03  0.00000000000E+00 0.  1.
         -1    1    6    6    0  502  0.26898953627E+03 -0.11262256987E+03 -0.39119529860E+03  0.48792722358E+03  0.00000000000E+00 0.  1.
<mgrwt>
<rscale>  0 0.21335294E+04</rscale>
<asrwt>0</asrwt>
<pdfrwt beam="1">  1        2 0.27800668E+00 0.21335294E+04</pdfrwt>
<pdfrwt beam="2">  1       -2 0.96884726E-01 0.21335294E+04</pdfrwt>
<totfact> 0.69949068E+00</totfact>
</mgrwt>
</event>
<event>
12    1  0.2214165E-007  0.1858945E+04  0.7818608E-02  0.8675566E-01
          2   -1    0    0  501    0  0.00000000000E+00  0.00000000000E+00  0.98276000618E+03  0.98276000618E+03  0.00000000000E+00 0. -1.
         -2   -1    0    0    0  501 -0.00000000000E+00 -0.00000000000E+00 -0.87907472523E+03  0.87907472523E+03  0.00000000000E+00 0.  1.
         23    2    1    2    0    0  0.56173976602E+03 -0.41314023767E+03 -0.80710086227E+02  0.70764722269E+03  0.89521243588E+02 0.  0.
        254    2    1    2    0    0 -0.56173976602E+03  0.41314023767E+03  0.18439536719E+03  0.11541875087E+04  0.90106089314E+03 0.  0.
        -24    2    4    4    0    0 -0.78967939616E+03  0.29139180967E+03  0.23906210229E+03  0.87868929131E+03  0.80258622244E+02 0.  0.
         24    2    4    4    0    0  0.22793963015E+03  0.12174842800E+03 -0.54666735104E+02  0.27549821741E+03  0.78304924236E+02 0.  0.
         13    1    3    3    0    0  0.44013666736E+03 -0.28094380414E+03 -0.78408287784E+02  0.52801284703E+03  0.00000000000E+00 0.  1.
        -13    1    3    3    0    0  0.12160309866E+03 -0.13219643353E+03 -0.23017984426E+01  0.17963437565E+03  0.00000000000E+00 0. -1.
          4    1    6    6  502    0  0.20019541684E+03  0.12977332898E+03 -0.36435478870E+02  0.24134387491E+03  0.00000000000E+00 0. -1.
          3    1    5    5  503    0 -0.58814091921E+03  0.17901256684E+03  0.17574913050E+03  0.63940831774E+03  0.00000000000E+00 0. -1.
         -4    1    5    5    0  503 -0.20153847696E+03  0.11237924283E+03  0.63312971793E+02  0.23928097357E+03  0.00000000000E+00 0.  1.
         -3    1    6    6    0  502  0.27744213308E+02 -0.80249009797E+01 -0.18231256234E+02  0.34154342501E+02  0.00000000000E+00 0.  1.
<mgrwt>
<rscale>  0 0.18589454E+04</rscale>
<asrwt>0</asrwt>
<pdfrwt beam="1">  1        2 0.15119385E+00 0.18589454E+04</pdfrwt>
<pdfrwt beam="2">  1       -2 0.13524227E+00 0.18589454E+04</pdfrwt>
<totfact> 0.95357340E+00</totfact>
</mgrwt>
</event>
<event>
12    1  0.2214165E-007  0.2833640E+04  0.7818608E-02  0.8292900E-01
         -2   -1    0    0    0  501 -0.00000000000E+00  0.00000000000E+00  0.83888389574E+03  0.83888389574E+03  0.00000000000E+00 0.  1.
          2   -1    0    0  501    0  0.00000000000E+00 -0.00000000000E+00 -0.23929159270E+04  0.23929159270E+04  0.00000000000E+00 0. -1.
         23    2    1    2    0    0 -0.52494987049E+02 -0.12669402087E+04 -0.65600755703E+03  0.14308192377E+04  0.94892360927E+02 0.  0.
        254    2    1    2    0    0  0.52494987049E+02  0.12669402087E+04 -0.89802447424E+03  0.18009805850E+04  0.91059864662E+03 0.  0.
        -24    2    4    4    0    0 -0.33909377276E+03  0.96744600218E+03 -0.77246896892E+03  0.12860536920E+04  0.79305970966E+02 0.  0.
         24    2    4    4    0    0  0.39158875981E+03  0.29949420651E+03 -0.12555550532E+03  0.51492689297E+03  0.79667958706E+02 0.  0.
         13    1    3    3    0    0 -0.37283942257E+02 -0.10175229704E+04 -0.48346658963E+03  0.11271570570E+04  0.00000000000E+00 0.  1.
        -13    1    3    3    0    0 -0.15211044792E+02 -0.24941723823E+03 -0.17254096739E+03  0.30366218079E+03  0.00000000000E+00 0. -1.
          2    1    6    6  502    0  0.33140588238E+03  0.22643424016E+03 -0.77569013410E+02  0.40880224539E+03  0.00000000000E+00 0. -1.
          1    1    5    5  503    0 -0.25173524357E+03  0.76156595099E+03 -0.63985663740E+03  0.10260457334E+04  0.00000000000E+00 0. -1.
         -2    1    5    5    0  503 -0.87358529190E+02  0.20588005119E+03 -0.13261233152E+03  0.26000795866E+03  0.00000000000E+00 0.  1.
         -1    1    6    6    0  502  0.60182877433E+02  0.73059966342E+02 -0.47986491909E+02  0.10612464758E+03  0.00000000000E+00 0.  1.
<mgrwt>
<rscale>  0 0.28336398E+04</rscale>
<asrwt>0</asrwt>
<pdfrwt beam="1">  1        2 0.36814091E+00 0.28336398E+04</pdfrwt>
<pdfrwt beam="2">  1       -2 0.12905906E+00 0.28336398E+04</pdfrwt>
<totfact> 0.15401535E+00</totfact>
</mgrwt>
</event>
<event>
12    1  0.2214165E-007  0.1721276E+04  0.7818608E-02  0.8749322E-01
          1   -1    0    0  501    0  0.00000000000E+00  0.00000000000E+00  0.17181887712E+04  0.17181887712E+04  0.00000000000E+00 0. -1.
         -1   -1    0    0    0  501 -0.00000000000E+00 -0.00000000000E+00 -0.43109223856E+03  0.43109223856E+03  0.00000000000E+00 0.  1.
         23    2    1    2    0    0  0.27633511042E+03 -0.48353763818E+03  0.12502715551E+03  0.57782317361E+03  0.89878192865E+02 0.  0.
        254    2    1    2    0    0 -0.27633511042E+03  0.48353763818E+03  0.11620693771E+04  0.15714578361E+04  0.89939132347E+03 0.  0.
        -24    2    4    4    0    0  0.94564700766E+02  0.57532135148E+03  0.38993934249E+03  0.70614107337E+03  0.81519228286E+02 0.  0.
         24    2    4    4    0    0 -0.37089981119E+03 -0.91783713297E+02  0.77213003459E+03  0.86531676274E+03  0.81224316500E+02 0.  0.
         11    1    3    3    0    0  0.21812401308E+03 -0.41535264778E+03  0.13350485469E+03  0.48776987743E+03  0.00000000000E+00 0. -1.
        -11    1    3    3    0    0  0.58211097342E+02 -0.68184990401E+02 -0.84776991741E+01  0.90053296181E+02  0.00000000000E+00 0.  1.
          4    1    6    6  502    0 -0.18997360389E+02 -0.26636102115E+02  0.61908529293E+02  0.70021765451E+02  0.00000000000E+00 0. -1.
          3    1    5    5  503    0 -0.14579893283E+02  0.74960818937E+02  0.44206068407E+02  0.88237600533E+02  0.00000000000E+00 0. -1.
         -4    1    5    5    0  503  0.10914459405E+03  0.50036053255E+03  0.34573327408E+03  0.61790347284E+03  0.00000000000E+00 0.  1.
         -3    1    6    6    0  502 -0.35190245080E+03 -0.65147611182E+02  0.71022150530E+03  0.79529499729E+03  0.00000000000E+00 0.  1.
<mgrwt>
<rscale>  0 0.17212761E+04</rscale>
<asrwt>0</asrwt>
<pdfrwt beam="1">  1        1 0.26433673E+00 0.17212761E+04</pdfrwt>
<pdfrwt beam="2">  1       -1 0.66321884E-01 0.17212761E+04</pdfrwt>
<totfact> 0.10135919E+01</totfact>
</mgrwt>
</event>
<event>
12    1  0.2214165E-007  0.1827466E+04  0.7818608E-02  0.8691828E-01
          2   -1    0    0  501    0  0.00000000000E+00  0.00000000000E+00  0.23708653790E+04  0.23708653790E+04  0.00000000000E+00 0. -1.
         -2   -1    0    0    0  501 -0.00000000000E+00 -0.00000000000E+00 -0.35215310022E+03  0.35215310022E+03  0.00000000000E+00 0.  1.
         23    2    1    2    0    0 -0.61097999332E+03  0.28413522648E+03  0.97744179776E+03  0.11903691304E+04  0.86929968793E+02 0.  0.
        254    2    1    2    0    0  0.61097999332E+03 -0.28413522648E+03  0.10412704810E+04  0.15326493488E+04  0.90041125745E+03 0.  0.
        -24    2    4    4    0    0  0.34041165326E+03  0.13669139748E+03  0.94537020424E+03  0.10171117814E+04  0.78910841584E+02 0.  0.
         24    2    4    4    0    0  0.27056834006E+03 -0.42082662396E+03  0.95900276732E+02  0.51553756739E+03  0.79245480821E+02 0.  0.
         11    1    3    3    0    0 -0.11732172208E+03  0.49752199801E+02  0.24917615999E+03  0.27987216111E+03  0.00000000000E+00 0. -1.
        -11    1    3    3    0    0 -0.49365827124E+03  0.23438302668E+03  0.72826563777E+03  0.91049696931E+03  0.00000000000E+00 0.  1.
          2    1    6    6  502    0  0.45237518960E+02 -0.10878669845E+03 -0.40187272096E+01  0.11788608505E+03  0.00000000000E+00 0. -1.
          3    1    5    5  503    0  0.42723012425E+02  0.37830023185E+02  0.96103455513E+02  0.11176869242E+03  0.00000000000E+00 0. -1.
         -4    1    5    5    0  503  0.29768864084E+03  0.98861374295E+02  0.84926674873E+03  0.90534308895E+03  0.00000000000E+00 0.  1.
         -1    1    6    6    0  502  0.22533082110E+03 -0.31203992552E+03  0.99919003942E+02  0.39765148233E+03  0.00000000000E+00 0.  1.
<mgrwt>
<rscale>  0 0.18274656E+04</rscale>
<asrwt>0</asrwt>
<pdfrwt beam="1">  1        2 0.36474851E+00 0.18274656E+04</pdfrwt>
<pdfrwt beam="2">  1       -2 0.54177401E-01 0.18274656E+04</pdfrwt>
<totfact> 0.12491812E+01</totfact>
</mgrwt>
</event>
<event>
12    1  0.2214165E-007  0.1452396E+04  0.7818608E-02  0.8916741E-01
          2   -1    0    0  501    0  0.00000000000E+00  0.00000000000E+00  0.16153771772E+04  0.16153771772E+04  0.00000000000E+00 0. -1.
         -2   -1    0    0    0  501 -0.00000000000E+00 -0.00000000000E+00 -0.32646459806E+03  0.32646459806E+03  0.00000000000E+00 0.  1.
         23    2    1    2    0    0  0.22395860352E+03  0.35125761297E+03  0.56907250511E+03  0.71117398432E+03  0.91572665950E+02 0.  0.
        254    2    1    2    0    0 -0.22395860352E+03 -0.35125761297E+03  0.71984007404E+03  0.12306677909E+04  0.90710204096E+03 0.  0.
        -24    2    4    4    0    0 -0.25362386723E+03 -0.53528487120E+03  0.13561581843E+03  0.61223821912E+03  0.74759797865E+02 0.  0.
         24    2    4    4    0    0  0.29665263718E+02  0.18402725823E+03  0.58422425560E+03  0.61842957182E+03  0.79944323290E+02 0.  0.
         11    1    3    3    0    0  0.62572302682E+02  0.16852343528E+03  0.28348959568E+03  0.33568108698E+03  0.00000000000E+00 0. -1.
        -11    1    3    3    0    0  0.16138630083E+03  0.18273417769E+03  0.28558290943E+03  0.37549289734E+03  0.00000000000E+00 0.  1.
          4    1    6    6  502    0 -0.21444460865E+01  0.45921427653E+00  0.93568730948E+02  0.93594427921E+02  0.00000000000E+00 0. -1.
          3    1    5    5  503    0 -0.51076327077E+02 -0.16015780059E+03  0.12840943082E+02  0.16859478668E+03  0.00000000000E+00 0. -1.
         -4    1    5    5    0  503 -0.20254754016E+03 -0.37512707061E+03  0.12277487535E+03  0.44364343244E+03  0.00000000000E+00 0.  1.
         -1    1    6    6    0  502  0.31809709805E+02  0.18356804395E+03  0.49065552466E+03  0.52483514390E+03  0.00000000000E+00 0.  1.
<mgrwt>
<rscale>  0 0.14523959E+04</rscale>
<asrwt>0</asrwt>
<pdfrwt beam="1">  1        2 0.24851956E+00 0.14523959E+04</pdfrwt>
<pdfrwt beam="2">  1       -2 0.50225324E-01 0.14523959E+04</pdfrwt>
<totfact> 0.39742138E+01</totfact>
</mgrwt>
</event>
<event>
12    1  0.2214165E-007  0.2467567E+04  0.7818608E-02  0.8414632E-01
         -2   -1    0    0    0  501 -0.00000000000E+00  0.00000000000E+00  0.65870262723E+03  0.65870262723E+03  0.00000000000E+00 0.  1.
          2   -1    0    0  501    0  0.00000000000E+00 -0.00000000000E+00 -0.23109386086E+04  0.23109386086E+04  0.00000000000E+00 0. -1.
         23    2    1    2    0    0 -0.74057747090E+01 -0.73025393979E+03  0.21936954327E+03  0.76782380706E+03  0.90026329959E+02 0.  0.
        254    2    1    2    0    0  0.74057747090E+01  0.73025393979E+03 -0.18716055246E+04  0.22018174287E+04  0.90098118051E+03 0.  0.
        -24    2    4    4    0    0  0.39880229354E+03  0.62716710536E+03 -0.12212162314E+04  0.14317598092E+04  0.78646169942E+02 0.  0.
         24    2    4    4    0    0 -0.39139651883E+03  0.10308683443E+03 -0.65038929327E+03  0.77005761957E+03  0.78513529291E+02 0.  0.
         13    1    3    3    0    0  0.13802251725E+02 -0.49305777540E+03  0.18692176425E+03  0.52748101196E+03  0.00000000000E+00 0.  1.
        -13    1    3    3    0    0 -0.21208026434E+02 -0.23719616440E+03  0.32447779020E+02  0.24034279509E+03  0.00000000000E+00 0. -1.
          4    1    6    6  502    0 -0.44020784666E+02  0.60734130170E+01 -0.12602836154E+03  0.13363331823E+03  0.00000000000E+00 0. -1.
          3    1    5    5  503    0  0.68071557154E+02  0.82286848788E+02 -0.22541123104E+03  0.24942952002E+03  0.00000000000E+00 0. -1.
         -4    1    5    5    0  503  0.33073073639E+03  0.54488025658E+03 -0.99580500031E+03  0.11823302892E+04  0.00000000000E+00 0.  1.
         -3    1    6    6    0  502 -0.34737573416E+03  0.97013421412E+02 -0.52436093172E+03  0.63642430134E+03  0.00000000000E+00 0.  1.
<mgrwt>
<rscale>  0 0.24675667E+04</rscale>
<asrwt>0</asrwt>
<pdfrwt beam="1">  1        2 0.35552901E+00 0.24675667E+04</pdfrwt>
<pdfrwt beam="2">  1       -2 0.10133887E+00 0.24675667E+04</pdfrwt>
<totfact> 0.31978781E+00</totfact>
</mgrwt>
</event>
<event>
12    1  0.2214165E-007  0.2173489E+04  0.7818608E-02  0.8529544E-01
          1   -1    0    0  501    0  0.00000000000E+00  0.00000000000E+00  0.27684723636E+04  0.27684723636E+04  0.00000000000E+00 0. -1.
         -1   -1    0    0    0  501 -0.00000000000E+00 -0.00000000000E+00 -0.42659391067E+03  0.42659391067E+03  0.00000000000E+00 0.  1.
         23    2    1    2    0    0 -0.30042944747E+03  0.69265246623E+03  0.25879349332E+03  0.80336649145E+03  0.91642542059E+02 0.  0.
        254    2    1    2    0    0  0.30042944747E+03 -0.69265246623E+03  0.20830849597E+04  0.23916997829E+04  0.90053295904E+03 0.  0.
        -24    2    4    4    0    0  0.12061737681E+03 -0.57567622997E+03  0.45697063587E+03  0.74954841665E+03  0.83958284388E+02 0.  0.
         24    2    4    4    0    0  0.17981207065E+03 -0.11697623626E+03  0.16261143238E+04  0.16421513662E+04  0.79984341791E+02 0.  0.
         13    1    3    3    0    0 -0.21852402515E+03  0.40018912234E+03  0.17399032422E+03  0.48803351947E+03  0.00000000000E+00 0. -1.
        -13    1    3    3    0    0 -0.81905422314E+02  0.29246334389E+03  0.84803169101E+02  0.31533297197E+03  0.00000000000E+00 0.  1.
          2    1    6    6  502    0  0.88178712620E+02 -0.46826022367E+02  0.48200942669E+03  0.49224104781E+03  0.00000000000E+00 0. -1.
          1    1    5    5  503    0  0.50955612826E+02 -0.42394220672E+03  0.33684128552E+03  0.54386167427E+03  0.00000000000E+00 0. -1.
         -2    1    5    5    0  503  0.69661763988E+02 -0.15173402325E+03  0.12012935036E+03  0.20568674238E+03  0.00000000000E+00 0.  1.
         -1    1    6    6    0  502  0.91633358033E+02 -0.70150213896E+02  0.11441048971E+04  0.11499103184E+04  0.00000000000E+00 0.  1.
<mgrwt>
<rscale>  0 0.21734889E+04</rscale>
<asrwt>0</asrwt>
<pdfrwt beam="1">  1        1 0.42591881E+00 0.21734889E+04</pdfrwt>
<pdfrwt beam="2">  1       -1 0.65629834E-01 0.21734889E+04</pdfrwt>
<totfact> 0.18883098E+00</totfact>
</mgrwt>
</event>
<event>
12    1  0.2214165E-007  0.2037366E+04  0.7818608E-02  0.8589348E-01
          2   -1    0    0  501    0  0.00000000000E+00  0.00000000000E+00  0.16545017660E+04  0.16545017660E+04  0.00000000000E+00 0. -1.
         -2   -1    0    0    0  501 -0.00000000000E+00 -0.00000000000E+00 -0.62720671452E+03  0.62720671452E+03  0.00000000000E+00 0.  1.
         23    2    1    2    0    0  0.38616530359E+03 -0.26675770644E+03 -0.33037167989E+03  0.58635641678E+03  0.11993783798E+03 0.  0.
        254    2    1    2    0    0 -0.38616530359E+03  0.26675770644E+03  0.13576667314E+04  0.16953520638E+04  0.90037567212E+03 0.  0.
        -24    2    4    4    0    0 -0.39967685251E+02  0.45602711937E+03  0.11544955631E+04  0.12445181769E+04  0.80045848992E+02 0.  0.
         24    2    4    4    0    0 -0.34619761833E+03 -0.18926941293E+03  0.20317116827E+03  0.45083388685E+03  0.79353439128E+02 0.  0.
         11    1    3    3    0    0  0.32012729056E+03 -0.19673793796E+03 -0.31194124917E+03  0.48835913151E+03  0.00000000000E+00 0.  1.
        -11    1    3    3    0    0  0.66038013021E+02 -0.70019768486E+02 -0.18430430721E+02  0.97997285264E+02  0.00000000000E+00 0. -1.
          2    1    6    6  502    0 -0.11400838915E+03 -0.96059242744E+02  0.48902870581E+02  0.15689736028E+03  0.00000000000E+00 0. -1.
          3    1    5    5  503    0 -0.23371288474E+02  0.16763350456E+03  0.53171941162E+03  0.55800783298E+03  0.00000000000E+00 0. -1.
         -4    1    5    5    0  503 -0.16596396776E+02  0.28839361481E+03  0.62277615150E+03  0.68651034394E+03  0.00000000000E+00 0.  1.
         -1    1    6    6    0  502 -0.23218922919E+03 -0.93210170185E+02  0.15426829769E+03  0.29393652656E+03  0.00000000000E+00 0.  1.
<mgrwt>
<rscale>  0 0.20373656E+04</rscale>
<asrwt>0</asrwt>
<pdfrwt beam="1">  1        2 0.25453873E+00 0.20373656E+04</pdfrwt>
<pdfrwt beam="2">  1       -2 0.96493341E-01 0.20373656E+04</pdfrwt>
<totfact> 0.86533057E+00</totfact>
</mgrwt>
</event>
<event>
12    1  0.2214165E-007  0.2761601E+04  0.7818608E-02  0.8315290E-01
          2   -1    0    0  501    0  0.00000000000E+00  0.00000000000E+00  0.17407343245E+04  0.17407343245E+04  0.00000000000E+00 0. -1.
         -2   -1    0    0    0  501 -0.00000000000E+00 -0.00000000000E+00 -0.10952903808E+04  0.10952903808E+04  0.00000000000E+00 0.  1.
         23    2    1    2    0    0  0.98806965881E+03 -0.72818252199E+03  0.36649010682E+03  0.12841107070E+04  0.89965957350E+02 0.  0.
        254    2    1    2    0    0 -0.98806965881E+03  0.72818252199E+03  0.27895383680E+03  0.15519139983E+04  0.90779423829E+03 0.  0.
        -24    2    4    4    0    0 -0.11536576513E+04  0.61706755021E+03  0.22450948003E+03  0.13299030124E+04  0.80865183700E+02 0.  0.
         24    2    4    4    0    0  0.16558799249E+03  0.11111497178E+03  0.54444356769E+02  0.22201098587E+03  0.80986231257E+02 0.  0.
         11    1    3    3    0    0  0.63626361446E+03 -0.47202132975E+03  0.28110649370E+03  0.84062856460E+03  0.00000000000E+00 0. -1.
        -11    1    3    3    0    0  0.35180604435E+03 -0.25616119224E+03  0.85383613128E+02  0.44348214241E+03  0.00000000000E+00 0.  1.
          2    1    6    6  502    0  0.52296866949E+02  0.46089474206E+02 -0.18870367116E+02  0.72216983323E+02  0.00000000000E+00 0. -1.
          1    1    5    5  503    0 -0.73786839870E+02  0.56635026732E+02  0.16980691138E+01  0.93031754953E+02  0.00000000000E+00 0. -1.
         -2    1    5    5    0  503 -0.10798708114E+04  0.56043252348E+03  0.22281141092E+03  0.12368712575E+04  0.00000000000E+00 0.  1.
         -1    1    6    6    0  502  0.11329112554E+03  0.65025497572E+02  0.73314723885E+02  0.14979400255E+03  0.00000000000E+00 0.  1.
<mgrwt>
<rscale>  0 0.27616007E+04</rscale>
<asrwt>0</asrwt>
<pdfrwt beam="1">  1        2 0.26780528E+00 0.27616007E+04</pdfrwt>
<pdfrwt beam="2">  1       -2 0.16850621E+00 0.27616007E+04</pdfrwt>
<totfact> 0.17750768E+00</totfact>
</mgrwt>
</event>
<event>
12    1  0.2214165E-007  0.1506396E+04  0.7818608E-02  0.8880211E-01
         -1   -1    0    0    0  501 -0.00000000000E+00  0.00000000000E+00  0.13583809017E+04  0.13583809017E+04  0.00000000000E+00 0.  1.
          1   -1    0    0  501    0  0.00000000000E+00 -0.00000000000E+00 -0.41763468506E+03  0.41763468506E+03  0.00000000000E+00 0. -1.
         23    2    1    2    0    0 -0.13678766327E+03 -0.40375864822E+03  0.55916932303E+03  0.70902930750E+03  0.91215767507E+02 0.  0.
        254    2    1    2    0    0  0.13678766327E+03  0.40375864822E+03  0.38157689362E+03  0.10669862793E+04  0.90062582884E+03 0.  0.
        -24    2    4    4    0    0 -0.18989651619E+03  0.44974682506E+03  0.50369185915E+03  0.70583607179E+03  0.78525013554E+02 0.  0.
         24    2    4    4    0    0  0.32668417946E+03 -0.45988176845E+02 -0.12211496553E+03  0.36115020748E+03  0.81730912392E+02 0.  0.
         13    1    3    3    0    0 -0.98889505603E+02 -0.24265980242E+03  0.40790882197E+03  0.48482215406E+03  0.00000000000E+00 0.  1.
        -13    1    3    3    0    0 -0.37898157666E+02 -0.16109884579E+03  0.15126050106E+03  0.22420715344E+03  0.00000000000E+00 0. -1.
          4    1    6    6  502    0  0.26639600269E+03 -0.69264021880E+02 -0.98888221283E+02  0.29247771759E+03  0.00000000000E+00 0. -1.
          1    1    5    5  503    0 -0.64558073107E+02  0.25188938419E+03  0.25444355465E+03  0.36380974310E+03  0.00000000000E+00 0. -1.
         -2    1    5    5    0  503 -0.12533844308E+03  0.19785744087E+03  0.24924830450E+03  0.34202632869E+03  0.00000000000E+00 0.  1.
         -3    1    6    6    0  502  0.60288176768E+02  0.23275845035E+02 -0.23226744243E+02  0.68672489894E+02  0.00000000000E+00 0.  1.
<mgrwt>
<rscale>  0 0.15063957E+04</rscale>
<asrwt>0</asrwt>
<pdfrwt beam="1">  1        1 0.64251491E-01 0.15063957E+04</pdfrwt>
<pdfrwt beam="2">  1       -1 0.20898168E+00 0.15063957E+04</pdfrwt>
<totfact> 0.71512405E+00</totfact>
</mgrwt>
</event>
<event>
12    1  0.2214165E-007  0.2401267E+04  0.7818608E-02  0.8439029E-01
          1   -1    0    0  501    0  0.00000000000E+00  0.00000000000E+00  0.21119757805E+04  0.21119757805E+04  0.00000000000E+00 0. -1.
         -1   -1    0    0    0  501 -0.00000000000E+00 -0.00000000000E+00 -0.68254608340E+03  0.68254608340E+03  0.00000000000E+00 0.  1.
         23    2    1    2    0    0  0.41961379547E+03 -0.92861104754E+03  0.78298664028E+03  0.12882278858E+04  0.89826454365E+02 0.  0.
        254    2    1    2    0    0 -0.41961379547E+03  0.92861104754E+03  0.64644305677E+03  0.15062939781E+04  0.90146475681E+03 0.  0.
        -24    2    4    4    0    0  0.18201491405E+03  0.28854775471E+03 -0.82920748804E+02  0.36202543251E+03  0.88302477380E+02 0.  0.
         24    2    4    4    0    0 -0.60162870952E+03  0.64006329282E+03  0.72936380558E+03  0.11442685456E+04  0.75768202752E+02 0.  0.
         11    1    3    3    0    0  0.30650779632E+03 -0.73892195186E+03  0.57827829209E+03  0.98709597469E+03  0.00000000000E+00 0.  1.
        -11    1    3    3    0    0  0.11310599914E+03 -0.18968909568E+03  0.20470834819E+03  0.30113191109E+03  0.00000000000E+00 0. -1.
          2    1    6    6  502    0 -0.33277334461E+03  0.40825815103E+03  0.43435941298E+03  0.68270119116E+03  0.00000000000E+00 0. -1.
          1    1    5    5  503    0  0.17191763890E+03  0.27871789840E+03 -0.97568054180E+02  0.34169996584E+03  0.00000000000E+00 0. -1.
         -2    1    5    5    0  503  0.10097275150E+02  0.98298563093E+01  0.14647305377E+02  0.20325466669E+02  0.00000000000E+00 0.  1.
         -1    1    6    6    0  502 -0.26885536492E+03  0.23180514179E+03  0.29500439260E+03  0.46156735441E+03  0.00000000000E+00 0.  1.
<mgrwt>
<rscale>  0 0.24012670E+04</rscale>
<asrwt>0</asrwt>
<pdfrwt beam="1">  1        1 0.32491935E+00 0.24012670E+04</pdfrwt>
<pdfrwt beam="2">  1       -1 0.10500709E+00 0.24012670E+04</pdfrwt>
<totfact> 0.19071977E+00</totfact>
</mgrwt>
</event>
<event>
12    1  0.2214165E-007  0.1810896E+04  0.7818608E-02  0.8700526E-01
         -1   -1    0    0    0  501 -0.00000000000E+00  0.00000000000E+00  0.95914726101E+03  0.95914726101E+03  0.00000000000E+00 0.  1.
          1   -1    0    0  501    0  0.00000000000E+00 -0.00000000000E+00 -0.85475559441E+03  0.85475559441E+03  0.00000000000E+00 0. -1.
         23    2    1    2    0    0 -0.61086091082E+02 -0.64157790829E+03 -0.16925715173E+03  0.67273712898E+03  0.92593403455E+02 0.  0.
        254    2    1    2    0    0  0.61086091082E+02  0.64157790829E+03  0.27364881834E+03  0.11411657264E+04  0.90112253134E+03 0.  0.
        -24    2    4    4    0    0 -0.28619809807E+03  0.41149151335E+03 -0.16258838383E+03  0.53267214394E+03  0.77910291151E+02 0.  0.
         24    2    4    4    0    0  0.34728418916E+03  0.23008639494E+03  0.43623720217E+03  0.60849358250E+03  0.80096730378E+02 0.  0.
         13    1    3    3    0    0 -0.48363917703E+02 -0.58381720852E+03 -0.12535517736E+03  0.59907889463E+03  0.00000000000E+00 0.  1.
        -13    1    3    3    0    0 -0.12722173379E+02 -0.57760699773E+02 -0.43901974376E+02  0.73658234352E+02  0.00000000000E+00 0. -1.
          4    1    6    6  502    0  0.32573349342E+03  0.22018889393E+03  0.37712399521E+03  0.54480084940E+03  0.00000000000E+00 0. -1.
          3    1    5    5  503    0 -0.17630374552E+03  0.29325017983E+03 -0.80210605148E+02  0.35144333801E+03  0.00000000000E+00 0. -1.
         -4    1    5    5    0  503 -0.10989435255E+03  0.11824133352E+03 -0.82377778685E+02  0.18122880593E+03  0.00000000000E+00 0.  1.
         -3    1    6    6    0  502  0.21550695740E+02  0.98975010073E+01  0.59113206962E+02  0.63692733105E+02  0.00000000000E+00 0.  1.
<mgrwt>
<rscale>  0 0.18108964E+04</rscale>
<asrwt>0</asrwt>
<pdfrwt beam="1">  1        1 0.13150086E+00 0.18108964E+04</pdfrwt>
<pdfrwt beam="2">  1       -1 0.14756112E+00 0.18108964E+04</pdfrwt>
<totfact> 0.68218679E+00</totfact>
</mgrwt>
</event>
<event>
12    1  0.2214165E-007  0.1415948E+04  0.7818608E-02  0.8942355E-01
         -1   -1    0    0    0  501 -0.00000000000E+00  0.00000000000E+00  0.16291763966E+03  0.16291763966E+03  0.00000000000E+00 0.  1.
          1   -1    0    0  501    0  0.00000000000E+00 -0.00000000000E+00 -0.30765668586E+04  0.30765668586E+04  0.00000000000E+00 0. -1.
         23    2    1    2    0    0  0.32611656302E+03 -0.25724980456E+03 -0.89432386265E+03  0.99000842396E+03  0.88159137797E+02 0.  0.
        254    2    1    2    0    0 -0.32611656302E+03  0.25724980456E+03 -0.20193253563E+04  0.22494760743E+04  0.89996568803E+03 0.  0.
        -24    2    4    4    0    0 -0.10934540836E+03 -0.17355086995E+03 -0.57176490217E+02  0.22696320694E+03  0.78529125037E+02 0.  0.
         24    2    4    4    0    0 -0.21677115467E+03  0.43080067452E+03 -0.19621488660E+04  0.20225128673E+04  0.89169340800E+02 0.  0.
         11    1    3    3    0    0  0.25654209686E+03 -0.23862222656E+03 -0.70046627752E+03  0.78320330720E+03  0.00000000000E+00 0.  1.
        -11    1    3    3    0    0  0.69574466165E+02 -0.18627578005E+02 -0.19385758513E+03  0.20680511676E+03  0.00000000000E+00 0. -1.
          4    1    6    6  502    0 -0.21077377394E+03  0.34489253672E+03 -0.16344402917E+04  0.16836779718E+04  0.00000000000E+00 0. -1.
          1    1    5    5  503    0 -0.58169407932E+02 -0.15167291013E+03 -0.30660136879E+02  0.16531302332E+03  0.00000000000E+00 0. -1.
         -2    1    5    5    0  503 -0.51176000424E+02 -0.21877959825E+02 -0.26516353338E+02  0.61650183615E+02  0.00000000000E+00 0.  1.
         -3    1    6    6    0  502 -0.59973807224E+01  0.85908137793E+02 -0.32770857434E+03  0.33883489550E+03  0.00000000000E+00 0.  1.
<mgrwt>
<rscale>  0 0.14159478E+04</rscale>
<asrwt>0</asrwt>
<pdfrwt beam="1">  1        1 0.47331796E+00 0.14159478E+04</pdfrwt>
<pdfrwt beam="2">  1       -1 0.25064253E-01 0.14159478E+04</pdfrwt>
<totfact> 0.71930838E+00</totfact>
</mgrwt>
</event>
<event>
12    1  0.2214165E-007  0.2296151E+04  0.7818608E-02  0.8479440E-01
         -2   -1    0    0    0  501 -0.00000000000E+00  0.00000000000E+00  0.56444921828E+03  0.56444921828E+03  0.00000000000E+00 0.  1.
          2   -1    0    0  501    0  0.00000000000E+00 -0.00000000000E+00 -0.23351570947E+04  0.23351570947E+04  0.00000000000E+00 0. -1.
         23    2    1    2    0    0  0.90461637976E+03  0.33773490043E+03 -0.63814158022E+03  0.11597659197E+04  0.73733673966E+02 0.  0.
        254    2    1    2    0    0 -0.90461637976E+03 -0.33773490043E+03 -0.11325662962E+04  0.17398403933E+04  0.90107853221E+03 0.  0.
        -24    2    4    4    0    0 -0.59735031236E+03  0.24854941834E+03 -0.60973333961E+03  0.89257412744E+03  0.79433107097E+02 0.  0.
         24    2    4    4    0    0 -0.30726606740E+03 -0.58628431877E+03 -0.52283295663E+03  0.84726626584E+03  0.79775222237E+02 0.  0.
         11    1    3    3    0    0  0.52620291598E+03  0.16855247578E+03 -0.39497218398E+03  0.67919251468E+03  0.00000000000E+00 0.  1.
        -11    1    3    3    0    0  0.37841346378E+03  0.16918242465E+03 -0.24316939623E+03  0.48057340505E+03  0.00000000000E+00 0. -1.
          4    1    6    6  502    0 -0.91085043871E+02 -0.11887449830E+03 -0.91395225991E+02  0.17544434701E+03  0.00000000000E+00 0. -1.
          3    1    5    5  503    0 -0.31754744069E+01  0.26684133635E+01 -0.18776919879E+02  0.19229581059E+02  0.00000000000E+00 0. -1.
         -4    1    5    5    0  503 -0.59417483796E+03  0.24588100497E+03 -0.59095641973E+03  0.87334454638E+03  0.00000000000E+00 0.  1.
         -3    1    6    6    0  502 -0.21618102353E+03 -0.46740982047E+03 -0.43143773064E+03  0.67182191883E+03  0.00000000000E+00 0.  1.
<mgrwt>
<rscale>  0 0.22961512E+04</rscale>
<asrwt>0</asrwt>
<pdfrwt beam="1">  1        2 0.35925494E+00 0.22961512E+04</pdfrwt>
<pdfrwt beam="2">  1       -2 0.86838340E-01 0.22961512E+04</pdfrwt>
<totfact> 0.45048265E+00</totfact>
</mgrwt>
</event>
<event>
12    1  0.2214165E-007  0.1167871E+04  0.7818608E-02  0.9141453E-01
         -2   -1    0    0    0  501 -0.00000000000E+00  0.00000000000E+00  0.54798413752E+03  0.54798413752E+03  0.00000000000E+00 0. -1.
          2   -1    0    0  501    0  0.00000000000E+00 -0.00000000000E+00 -0.62224585888E+03  0.62224585888E+03  0.00000000000E+00 0.  1.
         23    2    1    2    0    0  0.12898863019E+03  0.96882936995E+02 -0.17350630002E+03  0.25065151330E+03  0.81837490052E+02 0.  0.
        254    2    1    2    0    0 -0.12898863019E+03 -0.96882936995E+02  0.99244578659E+02  0.91957848310E+03  0.89986150601E+03 0.  0.
        -24    2    4    4    0    0  0.10803892275E+02 -0.13456982458E+03  0.47959850321E+03  0.50474457539E+03  0.80787377293E+02 0.  0.
         24    2    4    4    0    0 -0.13979252246E+03  0.37686887587E+02 -0.38035392455E+03  0.41483390771E+03  0.80348069248E+02 0.  0.
         11    1    3    3    0    0  0.12082507034E+03  0.95274049252E+02 -0.18229255859E+03  0.23855066338E+03  0.00000000000E+00 0.  1.
        -11    1    3    3    0    0  0.81635598420E+01  0.16088877433E+01  0.87862585723E+01  0.12100849919E+02  0.00000000000E+00 0. -1.
          2    1    6    6  502    0 -0.73731746863E+02 -0.18219265220E+02 -0.13842009922E+03  0.15788741555E+03  0.00000000000E+00 0. -1.
          1    1    5    5  503    0  0.43783241620E+02 -0.69893567870E+02  0.21214543257E+03  0.22761319741E+03  0.00000000000E+00 0. -1.
         -2    1    5    5    0  503 -0.32979349345E+02 -0.64676256712E+02  0.26745307064E+03  0.27713137798E+03  0.00000000000E+00 0.  1.
         -1    1    6    6    0  502 -0.66060775598E+02  0.55906152807E+02 -0.24193382533E+03  0.25694649216E+03  0.00000000000E+00 0.  1.
<mgrwt>
<rscale>  0 0.11678713E+04</rscale>
<asrwt>0</asrwt>
<pdfrwt beam="1">  1        2 0.95730132E-01 0.11678713E+04</pdfrwt>
<pdfrwt beam="2">  1       -2 0.84305252E-01 0.11678713E+04</pdfrwt>
<totfact> 0.57621250E+01</totfact>
</mgrwt>
</event>
<event>
12    1  0.2214165E-007  0.4400767E+04  0.7818608E-02  0.7928244E-01
          2   -1    0    0  501    0  0.00000000000E+00  0.00000000000E+00  0.32902748173E+04  0.32902748173E+04  0.00000000000E+00 0. -1.
         -2   -1    0    0    0  501 -0.00000000000E+00 -0.00000000000E+00 -0.14715143352E+04  0.14715143352E+04  0.00000000000E+00 0.  1.
         23    2    1    2    0    0  0.18123202654E+04 -0.62792302741E+03 -0.72857329191E+02  0.19214405516E+04  0.88507232288E+02 0.  0.
        254    2    1    2    0    0 -0.18123202654E+04  0.62792302741E+03  0.18916178112E+04  0.28403486009E+04  0.90031669887E+03 0.  0.
        -24    2    4    4    0    0 -0.18349269906E+04  0.42957540373E+03  0.15723727117E+04  0.24557216682E+04  0.81980965523E+02 0.  0.
         24    2    4    4    0    0  0.22606725186E+02  0.19834762368E+03  0.31924509950E+03  0.38462693275E+03  0.78534068996E+02 0.  0.
         13    1    3    3    0    0  0.10223300334E+04 -0.37397759356E+03 -0.16323688856E+01  0.10885865157E+04  0.00000000000E+00 0.  1.
        -13    1    3    3    0    0  0.78999023203E+03 -0.25394543385E+03 -0.71224960306E+02  0.83285403586E+03  0.00000000000E+00 0. -1.
          4    1    6    6  502    0  0.32510666913E+02  0.18588803770E+03  0.24804264741E+03  0.31166722792E+03  0.00000000000E+00 0. -1.
          1    1    5    5  503    0 -0.15888414778E+04  0.39751539637E+03  0.13810999280E+04  0.21423988291E+04  0.00000000000E+00 0. -1.
         -2    1    5    5    0  503 -0.24608551280E+03  0.32060007362E+02  0.19127278370E+03  0.31332283904E+03  0.00000000000E+00 0.  1.
         -3    1    6    6    0  502 -0.99039417276E+01  0.12459585978E+02  0.71202452091E+02  0.72959704826E+02  0.00000000000E+00 0.  1.
<mgrwt>
<rscale>  0 0.44007666E+04</rscale>
<asrwt>0</asrwt>
<pdfrwt beam="1">  1        2 0.50619612E+00 0.44007666E+04</pdfrwt>
<pdfrwt beam="2">  1       -2 0.22638682E+00 0.44007666E+04</pdfrwt>
<totfact> 0.77692292E-02</totfact>
</mgrwt>
</event>
<event>
12    1  0.2214165E-007  0.1448575E+04  0.7818608E-02  0.8919389E-01
          2   -1    0    0  501    0  0.00000000000E+00  0.00000000000E+00  0.55583214769E+03  0.55583214769E+03  0.00000000000E+00 0. -1.
         -2   -1    0    0    0  501 -0.00000000000E+00 -0.00000000000E+00 -0.94379634558E+03  0.94379634558E+03  0.00000000000E+00 0.  1.
         23    2    1    2    0    0  0.34579148882E+03 -0.13774081771E+03  0.11845267509E+03  0.40114055290E+03  0.91314951364E+02 0.  0.
        254    2    1    2    0    0 -0.34579148882E+03  0.13774081771E+03 -0.50641687298E+03  0.10984879404E+04  0.90092919772E+03 0.  0.
        -24    2    4    4    0    0 -0.60571892823E+02 -0.32331499199E+03  0.20517226674E+02  0.33883584175E+03  0.78658965265E+02 0.  0.
         24    2    4    4    0    0 -0.28521959600E+03  0.46105580970E+03 -0.52693409965E+03  0.75965209863E+03  0.74088379511E+02 0.  0.
         13    1    3    3    0    0  0.21317555578E+03 -0.11881646343E+03  0.10767259667E+03  0.26674811646E+03  0.00000000000E+00 0. -1.
        -13    1    3    3    0    0  0.13261593304E+03 -0.18924354281E+02  0.10780078420E+02  0.13439243644E+03  0.00000000000E+00 0.  1.
          2    1    6    6  502    0 -0.14477421931E+03  0.28074435330E+03 -0.34288517656E+03  0.46620511665E+03  0.00000000000E+00 0. -1.
          3    1    5    5  503    0 -0.74826937022E+02 -0.30890166458E+03  0.17257460791E+02  0.31830351685E+03  0.00000000000E+00 0. -1.
         -4    1    5    5    0  503  0.14255044200E+02 -0.14413327408E+02  0.32597658827E+01  0.20532324898E+02  0.00000000000E+00 0.  1.
         -1    1    6    6    0  502 -0.14044537669E+03  0.18031145639E+03 -0.18404892309E+03  0.29344698198E+03  0.00000000000E+00 0.  1.
<mgrwt>
<rscale>  0 0.14485750E+04</rscale>
<asrwt>0</asrwt>
<pdfrwt beam="1">  1        2 0.85512639E-01 0.14485750E+04</pdfrwt>
<pdfrwt beam="2">  1       -2 0.14519944E+00 0.14485750E+04</pdfrwt>
<totfact> 0.17202891E+01</totfact>
</mgrwt>
</event>
<event>
12    1  0.2214165E-007  0.1875625E+04  0.7818608E-02  0.8667085E-01
         -2   -1    0    0    0  501 -0.00000000000E+00  0.00000000000E+00  0.14149333345E+04  0.14149333345E+04  0.00000000000E+00 0.  1.
          2   -1    0    0  501    0  0.00000000000E+00 -0.00000000000E+00 -0.62157883145E+03  0.62157883145E+03  0.00000000000E+00 0. -1.
         23    2    1    2    0    0  0.26211304887E+03  0.27436660950E+03  0.96939033252E+03  0.10452987087E+04  0.94612297814E+02 0.  0.
        254    2    1    2    0    0 -0.26211304887E+03 -0.27436660950E+03 -0.17603582947E+03  0.99121345723E+03  0.89862963324E+03 0.  0.
        -24    2    4    4    0    0 -0.25549089885E+03  0.17910144768E+03 -0.37100104627E+03  0.49122118929E+03  0.79394914879E+02 0.  0.
         24    2    4    4    0    0 -0.66221500163E+01 -0.45346805719E+03  0.19496521681E+03  0.49999226794E+03  0.79395846748E+02 0.  0.
         13    1    3    3    0    0  0.15208480843E+03  0.11390359068E+03  0.57397967476E+03  0.60461267268E+03  0.00000000000E+00 0.  1.
        -13    1    3    3    0    0  0.11002824044E+03  0.16046301882E+03  0.39541065775E+03  0.44068603605E+03  0.00000000000E+00 0. -1.
          4    1    6    6  502    0 -0.32817755123E+02 -0.38886919474E+03  0.17325223447E+03  0.42698078694E+03  0.00000000000E+00 0. -1.
          1    1    5    5  503    0 -0.11789905265E+03  0.10329342292E+03 -0.24010740831E+03  0.28674254195E+03  0.00000000000E+00 0. -1.
         -2    1    5    5    0  503 -0.13759184620E+03  0.75808024764E+02 -0.13089363796E+03  0.20447864734E+03  0.00000000000E+00 0.  1.
         -3    1    6    6    0  502  0.26195605106E+02 -0.64598862451E+02  0.21712982337E+02  0.73011481007E+02  0.00000000000E+00 0.  1.
<mgrwt>
<rscale>  0 0.18756253E+04</rscale>
<asrwt>0</asrwt>
<pdfrwt beam="1">  1        2 0.95627513E-01 0.18756253E+04</pdfrwt>
<pdfrwt beam="2">  1       -2 0.21768205E+00 0.18756253E+04</pdfrwt>
<totfact> 0.45550560E+00</totfact>
</mgrwt>
</event>
<event>
12    1  0.2214165E-007  0.3499439E+04  0.7818608E-02  0.8113923E-01
         -2   -1    0    0    0  501 -0.00000000000E+00  0.00000000000E+00  0.25634473539E+04  0.25634473539E+04  0.00000000000E+00 0.  1.
          2   -1    0    0  501    0  0.00000000000E+00 -0.00000000000E+00 -0.11942972233E+04  0.11942972233E+04  0.00000000000E+00 0. -1.
         23    2    1    2    0    0 -0.12871846513E+04 -0.97250732130E+03  0.91451468450E+03  0.18566048835E+04  0.89608977067E+02 0.  0.
        254    2    1    2    0    0  0.12871846513E+04  0.97250732130E+03  0.45463544609E+03  0.19011396936E+04  0.89723125743E+03 0.  0.
        -24    2    4    4    0    0  0.80590364884E+03  0.99921725919E+02  0.37473131452E+03  0.89816104071E+03  0.82490329314E+02 0.  0.
         24    2    4    4    0    0  0.48128100248E+03  0.87258559538E+03  0.79904131567E+02  0.10029786529E+04  0.80897981314E+02 0.  0.
         13    1    3    3    0    0 -0.80025704932E+03 -0.65696056656E+03  0.57435816846E+03  0.11840168228E+04  0.00000000000E+00 0.  1.
        -13    1    3    3    0    0 -0.48692760200E+03 -0.31554675473E+03  0.34015651603E+03  0.67258806071E+03  0.00000000000E+00 0. -1.
          4    1    6    6  502    0  0.43698597167E+03  0.73735156984E+03  0.78087449610E+02  0.86066353865E+03  0.00000000000E+00 0. -1.
          1    1    5    5  503    0  0.47164841482E+03  0.27270805408E+02  0.18815049587E+03  0.50852387665E+03  0.00000000000E+00 0. -1.
         -2    1    5    5    0  503  0.33425523403E+03  0.72650920511E+02  0.18658081866E+03  0.38963716406E+03  0.00000000000E+00 0.  1.
         -3    1    6    6    0  502  0.44295030808E+02  0.13523402554E+03  0.18166819575E+01  0.14231511428E+03  0.00000000000E+00 0.  1.
<mgrwt>
<rscale>  0 0.34994388E+04</rscale>
<asrwt>0</asrwt>
<pdfrwt beam="1">  1        2 0.18373803E+00 0.34994388E+04</pdfrwt>
<pdfrwt beam="2">  1       -2 0.39437652E+00 0.34994388E+04</pdfrwt>
<totfact> 0.12661197E-01</totfact>
</mgrwt>
</event>
<event>
12    1  0.2214165E-007  0.2475542E+04  0.7818608E-02  0.8411751E-01
         -2   -1    0    0    0  501 -0.00000000000E+00  0.00000000000E+00  0.10270409187E+04  0.10270409187E+04  0.00000000000E+00 0.  1.
          2   -1    0    0  501    0  0.00000000000E+00 -0.00000000000E+00 -0.14917386264E+04  0.14917386264E+04  0.00000000000E+00 0. -1.
         23    2    1    2    0    0 -0.62302103962E+03 -0.87400750754E+03 -0.15533665725E+03  0.10882149723E+04  0.89654948040E+02 0.  0.
        254    2    1    2    0    0  0.62302103962E+03  0.87400750754E+03 -0.30936105047E+03  0.14305645728E+04  0.89373732066E+03 0.  0.
        -24    2    4    4    0    0  0.75406792124E+03  0.36257969399E+03 -0.63691606196E+02  0.84263330348E+03  0.76758055531E+02 0.  0.
         24    2    4    4    0    0 -0.13104688162E+03  0.51142781355E+03 -0.24566944428E+03  0.58793126932E+03  0.81104919304E+02 0.  0.
         13    1    3    3    0    0 -0.17212521073E+03 -0.25444717110E+03 -0.84932442793E+02  0.31872240412E+03  0.00000000000E+00 0. -1.
        -13    1    3    3    0    0 -0.45089582889E+03 -0.61956033644E+03 -0.70404214454E+02  0.76949256813E+03  0.00000000000E+00 0.  1.
          4    1    6    6  502    0 -0.13910035495E+03  0.47712583807E+03 -0.24115935432E+03  0.55240909503E+03  0.00000000000E+00 0. -1.
          3    1    5    5  503    0  0.27696384975E+03  0.14664115787E+03 -0.59123094105E+02  0.31891714207E+03  0.00000000000E+00 0. -1.
         -4    1    5    5    0  503  0.47710407149E+03  0.21593853612E+03 -0.45685120917E+01  0.52371616141E+03  0.00000000000E+00 0.  1.
         -3    1    6    6    0  502  0.80534733231E+01  0.34301975482E+02 -0.45100899537E+01  0.35522174285E+02  0.00000000000E+00 0.  1.
<mgrwt>
<rscale>  0 0.24755416E+04</rscale>
<asrwt>0</asrwt>
<pdfrwt beam="1">  1        2 0.22949825E+00 0.24755416E+04</pdfrwt>
<pdfrwt beam="2">  1       -2 0.15800630E+00 0.24755416E+04</pdfrwt>
<totfact> 0.29890832E+00</totfact>
</mgrwt>
</event>
<event>
12    1  0.2214165E-007  0.1998749E+04  0.7818608E-02  0.8607206E-01
         -2   -1    0    0    0  501 -0.00000000000E+00  0.00000000000E+00  0.10536851590E+04  0.10536851590E+04  0.00000000000E+00 0.  1.
          2   -1    0    0  501    0  0.00000000000E+00 -0.00000000000E+00 -0.94786336675E+03  0.94786336675E+03  0.00000000000E+00 0. -1.
         23    2    1    2    0    0 -0.11785234500E+03  0.38965404306E+01  0.82768253935E+03  0.84126245564E+03  0.93593670064E+02 0.  0.
        254    2    1    2    0    0  0.11785234500E+03 -0.38965404306E+01 -0.72186074712E+03  0.11602860701E+04  0.90070886971E+03 0.  0.
        -24    2    4    4    0    0 -0.60504797080E+02  0.10813864580E+03 -0.87461647088E+03  0.88697513068E+03  0.80100649991E+02 0.  0.
         24    2    4    4    0    0  0.17835714208E+03 -0.11203518624E+03  0.15275572376E+03  0.27331093941E+03  0.83674400949E+02 0.  0.
         11    1    3    3    0    0 -0.42834144615E+02 -0.42675590258E+02  0.40165878501E+03  0.40618437873E+03  0.00000000000E+00 0. -1.
        -11    1    3    3    0    0 -0.75018200385E+02  0.46572130689E+02  0.42602375433E+03  0.43507807691E+03  0.00000000000E+00 0.  1.
          2    1    6    6  502    0  0.17770769475E+02 -0.41725607637E+02  0.81871825888E+01  0.46085318043E+02  0.00000000000E+00 0. -1.
          3    1    5    5  503    0 -0.16512540961E+02  0.36887002925E+02 -0.10018261958E+03  0.10802718296E+03  0.00000000000E+00 0. -1.
         -4    1    5    5    0  503 -0.43992256119E+02  0.71251642879E+02 -0.77443385131E+03  0.77894794772E+03  0.00000000000E+00 0.  1.
         -1    1    6    6    0  502  0.16058637260E+03 -0.70309578598E+02  0.14456854117E+03  0.22722562137E+03  0.00000000000E+00 0.  1.
<mgrwt>
<rscale>  0 0.19987492E+04</rscale>
<asrwt>0</asrwt>
<pdfrwt beam="1">  1        2 0.14582513E+00 0.19987492E+04</pdfrwt>
<pdfrwt beam="2">  1       -2 0.16210541E+00 0.19987492E+04</pdfrwt>
<totfact> 0.61499121E+00</totfact>
</mgrwt>
</event>
<event>
12    1  0.2214165E-007  0.1345025E+04  0.7818608E-02  0.8994603E-01
          2   -1    0    0  501    0  0.00000000000E+00  0.00000000000E+00  0.45671634488E+03  0.45671634488E+03  0.00000000000E+00 0. -1.
         -2   -1    0    0    0  501 -0.00000000000E+00 -0.00000000000E+00 -0.99027104998E+03  0.99027104998E+03  0.00000000000E+00 0.  1.
         23    2    1    2    0    0 -0.25592151807E+02 -0.44495525564E+02  0.23801291688E+03  0.26051003614E+03  0.92631097885E+02 0.  0.
        254    2    1    2    0    0  0.25592151807E+02  0.44495525564E+02 -0.77156762198E+03  0.11864773587E+04  0.89987616783E+03 0.  0.
        -24    2    4    4    0    0 -0.22493635611E+03  0.16361540092E+03  0.68815688865E+02  0.29751116845E+03  0.80068299600E+02 0.  0.
         24    2    4    4    0    0  0.25052850792E+03 -0.11911987535E+03 -0.84038331085E+03  0.88896619026E+03  0.84039873249E+02 0.  0.
         11    1    3    3    0    0 -0.13038957920E+02 -0.61056593113E+01 -0.41642796224E+01  0.14987819189E+02  0.00000000000E+00 0.  1.
        -11    1    3    3    0    0 -0.12553193887E+02 -0.38389866252E+02  0.24217719650E+03  0.24552221695E+03  0.00000000000E+00 0. -1.
          2    1    6    6  502    0  0.15449146306E+03 -0.92509818905E+02 -0.42078580631E+03  0.45769681400E+03  0.00000000000E+00 0. -1.
          1    1    5    5  503    0 -0.16413385500E+03  0.10398351123E+03  0.11068751950E+02  0.19461503086E+03  0.00000000000E+00 0. -1.
         -2    1    5    5    0  503 -0.60802501112E+02  0.59631889685E+02  0.57746936915E+02  0.10289613759E+03  0.00000000000E+00 0.  1.
         -1    1    6    6    0  502  0.96037044858E+02 -0.26610056449E+02 -0.41959750454E+03  0.43126937627E+03  0.00000000000E+00 0.  1.
<mgrwt>
<rscale>  0 0.13450249E+04</rscale>
<asrwt>0</asrwt>
<pdfrwt beam="1">  1        2 0.70264054E-01 0.13450249E+04</pdfrwt>
<pdfrwt beam="2">  1       -2 0.15234939E+00 0.13450249E+04</pdfrwt>
<totfact> 0.19188222E+01</totfact>
</mgrwt>
</event>
<event>
12    1  0.2214165E-007  0.3488665E+04  0.7818608E-02  0.8116481E-01
          2   -1    0    0  501    0  0.00000000000E+00  0.00000000000E+00  0.15026868181E+04  0.15026868181E+04  0.00000000000E+00 0. -1.
         -2   -1    0    0    0  501 -0.00000000000E+00 -0.00000000000E+00 -0.20248369075E+04  0.20248369075E+04  0.00000000000E+00 0.  1.
         23    2    1    2    0    0 -0.10490958681E+04  0.11727838181E+04 -0.66144745056E+03  0.17092914446E+04  0.90224653496E+02 0.  0.
        254    2    1    2    0    0  0.10490958681E+04 -0.11727838181E+04  0.13929736116E+03  0.18182322809E+04  0.90030042106E+03 0.  0.
        -24    2    4    4    0    0  0.11765352296E+04 -0.91835980543E+03  0.22318501701E+03  0.15111910358E+04  0.79163855220E+02 0.  0.
         24    2    4    4    0    0 -0.12743936153E+03 -0.25442401270E+03 -0.83887655848E+02  0.30704124520E+03  0.79150605435E+02 0.  0.
         13    1    3    3    0    0 -0.10038356542E+04  0.11001556962E+04 -0.60961476767E+03  0.16092416666E+04  0.00000000000E+00 0. -1.
        -13    1    3    3    0    0 -0.45260213870E+02  0.72628121981E+02 -0.51832682886E+02  0.10004977800E+03  0.00000000000E+00 0.  1.
          2    1    6    6  502    0 -0.82813098223E+01 -0.98422913136E+02 -0.34475786580E+02  0.10461467289E+03  0.00000000000E+00 0. -1.
          3    1    5    5  503    0  0.97417348451E+03 -0.73038080131E+03  0.20165245899E+03  0.12341530728E+04  0.00000000000E+00 0. -1.
         -4    1    5    5    0  503  0.20236174510E+03 -0.18797900412E+03  0.21532558016E+02  0.27703796297E+03  0.00000000000E+00 0.  1.
         -1    1    6    6    0  502 -0.11915805171E+03 -0.15600109957E+03 -0.49411869267E+02  0.20242657231E+03  0.00000000000E+00 0.  1.
<mgrwt>
<rscale>  0 0.34886649E+04</rscale>
<asrwt>0</asrwt>
<pdfrwt beam="1">  1        2 0.23118259E+00 0.34886649E+04</pdfrwt>
<pdfrwt beam="2">  1       -2 0.31151337E+00 0.34886649E+04</pdfrwt>
<totfact> 0.28096344E-01</totfact>
</mgrwt>
</event>
<event>
12    1  0.2214165E-007  0.2433356E+04  0.7818608E-02  0.8427120E-01
         -2   -1    0    0    0  501 -0.00000000000E+00  0.00000000000E+00  0.54744807978E+03  0.54744807978E+03  0.00000000000E+00 0.  1.
          2   -1    0    0  501    0  0.00000000000E+00 -0.00000000000E+00 -0.27040101229E+04  0.27040101229E+04  0.00000000000E+00 0. -1.
         23    2    1    2    0    0 -0.90048309591E+03 -0.53469259144E+03 -0.92167814627E+03  0.13980828506E+04  0.91537306841E+02 0.  0.
        254    2    1    2    0    0  0.90048309591E+03  0.53469259144E+03 -0.12348838969E+04  0.18533753521E+04  0.90182924300E+03 0.  0.
        -24    2    4    4    0    0 -0.17647280593E+03  0.84966662262E+02 -0.16771333936E+03  0.26988981104E+03  0.79691661920E+02 0.  0.
         24    2    4    4    0    0  0.10769559018E+04  0.44972592917E+03 -0.10671705575E+04  0.15834855410E+04  0.80535917048E+02 0.  0.
         13    1    3    3    0    0 -0.56774163664E+02 -0.22685729867E+02 -0.82101185986E+02  0.10236480225E+03  0.00000000000E+00 0. -1.
        -13    1    3    3    0    0 -0.84370893225E+03 -0.51200686157E+03 -0.83957696028E+03  0.12957180484E+04  0.00000000000E+00 0.  1.
          4    1    6    6  502    0  0.21665940985E+03  0.64709596896E+02 -0.23576918475E+03  0.32667375206E+03  0.00000000000E+00 0. -1.
          3    1    5    5  503    0  0.52019536545E+01 -0.53244625172E+01 -0.14380288070E+01  0.75814345457E+01  0.00000000000E+00 0. -1.
         -4    1    5    5    0  503 -0.18167475958E+03  0.90291124779E+02 -0.16627531055E+03  0.26230837650E+03  0.00000000000E+00 0.  1.
         -1    1    6    6    0  502  0.86029649199E+03  0.38501633228E+03 -0.83140137275E+03  0.12568117890E+04  0.00000000000E+00 0.  1.
<mgrwt>
<rscale>  0 0.24333558E+04</rscale>
<asrwt>0</asrwt>
<pdfrwt beam="1">  1        2 0.41600155E+00 0.24333558E+04</pdfrwt>
<pdfrwt beam="2">  1       -2 0.84222782E-01 0.24333558E+04</pdfrwt>
<totfact> 0.29138682E+00</totfact>
</mgrwt>
</event>
<event>
12    1  0.2214165E-007  0.2497188E+04  0.7818608E-02  0.8403988E-01
         -2   -1    0    0    0  501 -0.00000000000E+00  0.00000000000E+00  0.28086895962E+04  0.28086895962E+04  0.00000000000E+00 0.  1.
          2   -1    0    0  501    0  0.00000000000E+00 -0.00000000000E+00 -0.55505859667E+03  0.55505859667E+03  0.00000000000E+00 0. -1.
         23    2    1    2    0    0 -0.21352639709E+03 -0.99730829342E+03  0.48620211597E+03  0.11335546114E+04  0.91302820512E+02 0.  0.
        254    2    1    2    0    0  0.21352639709E+03  0.99730829342E+03  0.17674288836E+04  0.22301935815E+04  0.89985620967E+03 0.  0.
        -24    2    4    4    0    0  0.44394536290E+03  0.56511743263E+03  0.52884497501E+03  0.89594870937E+03  0.81251980519E+02 0.  0.
         24    2    4    4    0    0 -0.23041896581E+03  0.43219086080E+03  0.12385839086E+04  0.13342448721E+04  0.78977466850E+02 0.  0.
         13    1    3    3    0    0 -0.16253049893E+03 -0.60286126729E+03  0.26339541128E+03  0.67766880803E+03  0.00000000000E+00 0. -1.
        -13    1    3    3    0    0 -0.50995898161E+02 -0.39444702613E+03  0.22280670469E+03  0.45588580336E+03  0.00000000000E+00 0.  1.
          2    1    6    6  502    0 -0.18792027306E+03  0.38235149656E+03  0.11272611599E+04  0.12050827434E+04  0.00000000000E+00 0. -1.
          1    1    5    5  503    0  0.37671872604E+03  0.42930761172E+03  0.40385161143E+03  0.69951279337E+03  0.00000000000E+00 0. -1.
         -2    1    5    5    0  503  0.67226636854E+02  0.13580982091E+03  0.12499336358E+03  0.19643591601E+03  0.00000000000E+00 0.  1.
         -1    1    6    6    0  502 -0.42498692752E+02  0.49839364242E+02  0.11132274871E+03  0.12916212871E+03  0.00000000000E+00 0.  1.
<mgrwt>
<rscale>  0 0.24971883E+04</rscale>
<asrwt>0</asrwt>
<pdfrwt beam="1">  1        2 0.85393632E-01 0.24971883E+04</pdfrwt>
<pdfrwt beam="2">  1       -2 0.43210608E+00 0.24971883E+04</pdfrwt>
<totfact> 0.22144871E-01</totfact>
</mgrwt>
</event>
<event>
12    1  0.2214165E-007  0.1228718E+04  0.7818608E-02  0.9088085E-01
         -2   -1    0    0    0  501 -0.00000000000E+00  0.00000000000E+00  0.38668071951E+03  0.38668071951E+03  0.00000000000E+00 0.  1.
          2   -1    0    0  501    0  0.00000000000E+00 -0.00000000000E+00 -0.97609468616E+03  0.97609468616E+03  0.00000000000E+00 0. -1.
         23    2    1    2    0    0 -0.19840797978E+03 -0.58140029627E+01  0.68981418124E+02  0.23052757225E+03  0.94789221175E+02 0.  0.
        254    2    1    2    0    0  0.19840797978E+03  0.58140029627E+01 -0.65839538477E+03  0.11322478334E+04  0.89950049724E+03 0.  0.
        -24    2    4    4    0    0  0.23121676842E+03  0.42554108126E+03 -0.35187930436E+03  0.60517653735E+03  0.88731001802E+02 0.  0.
         24    2    4    4    0    0 -0.32808788648E+02 -0.41972707830E+03 -0.30651608041E+03  0.52707129608E+03  0.81269962021E+02 0.  0.
         11    1    3    3    0    0 -0.10192515501E+03  0.35516028214E+02  0.59630003263E+01  0.10810033699E+03  0.00000000000E+00 0. -1.
        -11    1    3    3    0    0 -0.96482824765E+02 -0.41330031176E+02  0.63018417797E+02  0.12242723526E+03  0.00000000000E+00 0.  1.
          4    1    6    6  502    0 -0.15432340548E+02 -0.38007006466E+03 -0.29735432024E+03  0.48281570289E+03  0.00000000000E+00 0. -1.
          3    1    5    5  503    0  0.11911646706E+03  0.30329675372E+03 -0.21833104400E+03  0.39223219949E+03  0.00000000000E+00 0. -1.
         -4    1    5    5    0  503  0.11210030136E+03  0.12224432754E+03 -0.13354826036E+03  0.21294433785E+03  0.00000000000E+00 0.  1.
         -3    1    6    6    0  502 -0.17376448101E+02 -0.39657013634E+02 -0.91617601684E+01  0.44255593187E+02  0.00000000000E+00 0.  1.
<mgrwt>
<rscale>  0 0.12287180E+04</rscale>
<asrwt>0</asrwt>
<pdfrwt beam="1">  1        2 0.15016841E+00 0.12287180E+04</pdfrwt>
<pdfrwt beam="2">  1       -2 0.59489342E-01 0.12287180E+04</pdfrwt>
<totfact> 0.67805023E+01</totfact>
</mgrwt>
</event>
<event>
12    1  0.2214165E-007  0.2456718E+04  0.7818608E-02  0.8418569E-01
         -3   -1    0    0    0  501 -0.00000000000E+00  0.00000000000E+00  0.15969709078E+04  0.15969709078E+04  0.00000000000E+00 0.  1.
          3   -1    0    0  501    0  0.00000000000E+00 -0.00000000000E+00 -0.94482961961E+03  0.94482961961E+03  0.00000000000E+00 0. -1.
         23    2    1    2    0    0 -0.37715118132E+03  0.98514796844E+03  0.40248366925E+03  0.11327665881E+04  0.91692452111E+02 0.  0.
        254    2    1    2    0    0  0.37715118132E+03 -0.98514796844E+03  0.24965761895E+03  0.14090339393E+04  0.90016008698E+03 0.  0.
        -24    2    4    4    0    0  0.31398276009E+03 -0.28931402804E+02 -0.16196168457E+03  0.36326341123E+03  0.79413594346E+02 0.  0.
         24    2    4    4    0    0  0.63168421227E+02 -0.95621656563E+03  0.41161930352E+03  0.10457705281E+04  0.76584440852E+02 0.  0.
         11    1    3    3    0    0 -0.22303894511E+03  0.61022424708E+03  0.20097798276E+03  0.68008245994E+03  0.00000000000E+00 0. -1.
        -11    1    3    3    0    0 -0.15411223621E+03  0.37492372136E+03  0.20150568649E+03  0.45268412815E+03  0.00000000000E+00 0.  1.
          2    1    6    6  502    0  0.80700270794E+02 -0.83269027308E+03  0.35796955313E+03  0.90996034285E+03  0.00000000000E+00 0. -1.
          1    1    5    5  503    0  0.24267595776E+03  0.10520242814E+02 -0.11029245693E+03  0.26677091678E+03  0.00000000000E+00 0. -1.
         -2    1    5    5    0  503  0.71306802337E+02 -0.39451645618E+02 -0.51669227636E+02  0.96492494454E+02  0.00000000000E+00 0.  1.
         -1    1    6    6    0  502 -0.17531849568E+02 -0.12352629255E+03  0.53649750392E+02  0.13581018525E+03  0.00000000000E+00 0.  1.
<mgrwt>
<rscale>  0 0.24567177E+04</rscale>
<asrwt>0</asrwt>
<pdfrwt beam="1">  1        3 0.14535840E+00 0.24567177E+04</pdfrwt>
<pdfrwt beam="2">  1       -3 0.24568783E+00 0.24567177E+04</pdfrwt>
<totfact> 0.63373675E-02</totfact>
</mgrwt>
</event>
<event>
12    1  0.2449620E-007  0.2106475E+04  0.7818608E-02  0.8558396E-01
          1   -1    0    0  501    0  0.00000000000E+00  0.00000000000E+00  0.16782143964E+04  0.16782143964E+04  0.00000000000E+00 0. -1.
         -1   -1    0    0    0  501 -0.00000000000E+00 -0.00000000000E+00 -0.66100570961E+03  0.66100570961E+03  0.00000000000E+00 0.  1.
         23    2    1    2    0    0 -0.73220809438E+03  0.17957716571E+02 -0.82224303758E+02  0.74283128382E+03  0.92662328087E+02 0.  0.
        254    2    1    2    0    0  0.73220809438E+03 -0.17957716571E+02  0.10994329905E+04  0.15963888222E+04  0.89624393880E+03 0.  0.
        -24    2    4    4    0    0  0.20886210317E+03  0.35194286958E+03  0.13942942500E+03  0.43954501343E+03  0.79196544693E+02 0.  0.
         24    2    4    4    0    0  0.52334599121E+03 -0.36990058615E+03  0.96000356555E+03  0.11568438087E+04  0.77222288348E+02 0.  0.
         13    1    3    3    0    0 -0.49680875926E+03  0.53988196000E+02 -0.66990528246E+02  0.50420372813E+03  0.00000000000E+00 0. -1.
        -13    1    3    3    0    0 -0.23539933512E+03 -0.36030479429E+02 -0.15233775512E+02  0.23862755570E+03  0.00000000000E+00 0.  1.
          2    1    6    6  502    0  0.63704602309E+02 -0.19266044920E+02  0.82100519213E+02  0.10568799410E+03  0.00000000000E+00 0. -1.
          1    1    5    5  503    0  0.19750128332E+02  0.57474861846E+01  0.16454824909E+02  0.26341268560E+02  0.00000000000E+00 0. -1.
         -2    1    5    5    0  503  0.18911197484E+03  0.34619538340E+03  0.12297460009E+03  0.41320374487E+03  0.00000000000E+00 0.  1.
         -1    1    6    6    0  502  0.45964138890E+03 -0.35063454123E+03  0.87790304634E+03  0.10511558146E+04  0.00000000000E+00 0.  1.
<mgrwt>
<rscale>  0 0.21064751E+04</rscale>
<asrwt>0</asrwt>
<pdfrwt beam="1">  1        1 0.25818683E+00 0.21064751E+04</pdfrwt>
<pdfrwt beam="2">  1       -1 0.10169319E+00 0.21064751E+04</pdfrwt>
<totfact> 0.41567633E+00</totfact>
</mgrwt>
</event>
<event>
12    1  0.2214165E-007  0.1827642E+04  0.7818608E-02  0.8691736E-01
         -2   -1    0    0    0  501 -0.00000000000E+00  0.00000000000E+00  0.36734318484E+03  0.36734318484E+03  0.00000000000E+00 0.  1.
          2   -1    0    0  501    0  0.00000000000E+00 -0.00000000000E+00 -0.22732665422E+04  0.22732665422E+04  0.00000000000E+00 0. -1.
         23    2    1    2    0    0 -0.54891738526E+03 -0.12918099827E+02 -0.11917541324E+03  0.56960419429E+03  0.93642863539E+02 0.  0.
        254    2    1    2    0    0  0.54891738526E+03  0.12918099827E+02 -0.17867479441E+04  0.20710055327E+04  0.89169418954E+03 0.  0.
        -24    2    4    4    0    0 -0.13562450016E+03  0.34935713090E+02 -0.10481116353E+04  0.10603725282E+04  0.78977145163E+02 0.  0.
         24    2    4    4    0    0  0.68454188542E+03 -0.22017613263E+02 -0.73863630883E+03  0.10106330045E+04  0.81933539700E+02 0.  0.
         11    1    3    3    0    0 -0.26970011711E+03 -0.25616953424E+02 -0.15045183900E+02  0.27133141917E+03  0.00000000000E+00 0.  1.
        -11    1    3    3    0    0 -0.27921726815E+03  0.12698853597E+02 -0.10413022934E+03  0.29827277512E+03  0.00000000000E+00 0. -1.
          4    1    6    6  502    0  0.60403455434E+03 -0.14080936357E+01 -0.67611523194E+03  0.90663748677E+03  0.00000000000E+00 0. -1.
          1    1    5    5  503    0 -0.64268234735E+02 -0.21503130895E+02 -0.53261188373E+03  0.53690614573E+03  0.00000000000E+00 0. -1.
         -2    1    5    5    0  503 -0.71356265420E+02  0.56438843984E+02 -0.51549975156E+03  0.52346638248E+03  0.00000000000E+00 0.  1.
         -3    1    6    6    0  502  0.80507331082E+02 -0.20609519627E+02 -0.62521076892E+02  0.10399551775E+03  0.00000000000E+00 0.  1.
<mgrwt>
<rscale>  0 0.18276422E+04</rscale>
<asrwt>0</asrwt>
<pdfrwt beam="1">  1        2 0.34973331E+00 0.18276422E+04</pdfrwt>
<pdfrwt beam="2">  1       -2 0.56514337E-01 0.18276422E+04</pdfrwt>
<totfact> 0.12996130E+01</totfact>
</mgrwt>
</event>
<event>
12    1  0.2214165E-007  0.1366654E+04  0.7818608E-02  0.8978316E-01
          1   -1    0    0  501    0  0.00000000000E+00  0.00000000000E+00  0.50653909916E+03  0.50653909916E+03  0.00000000000E+00 0. -1.
         -1   -1    0    0    0  501 -0.00000000000E+00 -0.00000000000E+00 -0.92181644146E+03  0.92181644146E+03  0.00000000000E+00 0.  1.
         23    2    1    2    0    0  0.12191528449E+03  0.35552606928E+03 -0.59554266969E+02  0.39154158822E+03  0.92173651669E+02 0.  0.
        254    2    1    2    0    0 -0.12191528449E+03 -0.35552606928E+03 -0.35572307532E+03  0.10368139524E+04  0.89843316003E+03 0.  0.
        -24    2    4    4    0    0 -0.46585829133E+02 -0.64594383217E+03 -0.16856363366E+03  0.67416133966E+03  0.81646429824E+02 0.  0.
         24    2    4    4    0    0 -0.75329455361E+02  0.29041776289E+03 -0.18715944166E+03  0.36265261274E+03  0.80444123938E+02 0.  0.
         11    1    3    3    0    0  0.10417801772E+03  0.16232138485E+03 -0.33967066398E+02  0.19584446113E+03  0.00000000000E+00 0. -1.
        -11    1    3    3    0    0  0.17737266771E+02  0.19320468443E+03 -0.25587200571E+02  0.19569712709E+03  0.00000000000E+00 0.  1.
          2    1    6    6  502    0  0.13278491942E+02  0.12840129776E+02 -0.17691186478E+02  0.25576656543E+02  0.00000000000E+00 0. -1.
          1    1    5    5  503    0 -0.22362569103E+02 -0.40399734191E+02 -0.49835018305E+01  0.46444141827E+02  0.00000000000E+00 0. -1.
         -2    1    5    5    0  503 -0.24223260030E+02 -0.60554409798E+03 -0.16358013183E+03  0.62771719783E+03  0.00000000000E+00 0.  1.
         -1    1    6    6    0  502 -0.88607947303E+02  0.27757763312E+03 -0.16946825519E+03  0.33707595620E+03  0.00000000000E+00 0.  1.
<mgrwt>
<rscale>  0 0.13666544E+04</rscale>
<asrwt>0</asrwt>
<pdfrwt beam="1">  1        1 0.77929093E-01 0.13666544E+04</pdfrwt>
<pdfrwt beam="2">  1       -1 0.14181791E+00 0.13666544E+04</pdfrwt>
<totfact> 0.17245881E+01</totfact>
</mgrwt>
</event>
<event>
12    1  0.2214165E-007  0.1781231E+04  0.7818608E-02  0.8716345E-01
          2   -1    0    0  501    0  0.00000000000E+00  0.00000000000E+00  0.23500098045E+04  0.23500098045E+04  0.00000000000E+00 0. -1.
         -2   -1    0    0    0  501 -0.00000000000E+00 -0.00000000000E+00 -0.33752862446E+03  0.33752862446E+03  0.00000000000E+00 0.  1.
         23    2    1    2    0    0 -0.56601955823E+03  0.18115002003E+03  0.11823359672E+04  0.13263799945E+04  0.90399560211E+02 0.  0.
        254    2    1    2    0    0  0.56601955823E+03 -0.18115002003E+03  0.83014521280E+03  0.13611584344E+04  0.90023204739E+03 0.  0.
        -24    2    4    4    0    0  0.17028763496E+03  0.30520522558E+03  0.58313380012E+02  0.36351786378E+03  0.81219940002E+02 0.  0.
         24    2    4    4    0    0  0.39573192327E+03 -0.48635524561E+03  0.77183183278E+03  0.99764057062E+03  0.80107115935E+02 0.  0.
         13    1    3    3    0    0 -0.44816975892E+03  0.14625697303E+03  0.10110750198E+04  0.11155805352E+04  0.00000000000E+00 0. -1.
        -13    1    3    3    0    0 -0.11784979931E+03  0.34893046999E+02  0.17126094742E+03  0.21079945929E+03  0.00000000000E+00 0.  1.
          4    1    6    6  502    0  0.15011835576E+03 -0.16261408857E+03  0.21735493219E+03  0.31019675867E+03  0.00000000000E+00 0. -1.
          3    1    5    5  503    0  0.11243629328E+03  0.23520982680E+03  0.74810008711E+02  0.27122337671E+03  0.00000000000E+00 0. -1.
         -4    1    5    5    0  503  0.57851341680E+02  0.69995398782E+02 -0.16496628699E+02  0.92294487069E+02  0.00000000000E+00 0.  1.
         -3    1    6    6    0  502  0.24561356750E+03 -0.32374115704E+03  0.55447690059E+03  0.68744381195E+03  0.00000000000E+00 0.  1.
<mgrwt>
<rscale>  0 0.17812306E+04</rscale>
<asrwt>0</asrwt>
<pdfrwt beam="1">  1        2 0.36153996E+00 0.17812306E+04</pdfrwt>
<pdfrwt beam="2">  1       -2 0.51927482E-01 0.17812306E+04</pdfrwt>
<totfact> 0.14068404E+01</totfact>
</mgrwt>
</event>
<event>
12    1  0.2214165E-007  0.1914650E+04  0.7818608E-02  0.8647598E-01
         -2   -1    0    0    0  501 -0.00000000000E+00  0.00000000000E+00  0.51663879445E+03  0.51663879445E+03  0.00000000000E+00 0. -1.
          2   -1    0    0  501    0  0.00000000000E+00 -0.00000000000E+00 -0.17739112353E+04  0.17739112353E+04  0.00000000000E+00 0.  1.
         23    2    1    2    0    0 -0.51530447636E+03 -0.24535684224E+03 -0.10608470150E+04  0.12082530637E+04  0.93490070952E+02 0.  0.
        254    2    1    2    0    0  0.51530447636E+03  0.24535684224E+03 -0.19642542593E+03  0.10822969661E+04  0.89835688425E+03 0.  0.
        -24    2    4    4    0    0 -0.15161290119E+03  0.20544754618E+03 -0.29989202091E+03  0.40178775652E+03  0.79391504862E+02 0.  0.
         24    2    4    4    0    0  0.66691737755E+03  0.39909296062E+02  0.10346659498E+03  0.68050920958E+03  0.77562282410E+02 0.  0.
         13    1    3    3    0    0 -0.24244322061E+03 -0.15761535941E+03 -0.58938566185E+03  0.65650344640E+03  0.00000000000E+00 0.  1.
        -13    1    3    3    0    0 -0.27286125575E+03 -0.87741482831E+02 -0.47146135310E+03  0.55174961728E+03  0.00000000000E+00 0. -1.
          4    1    6    6  502    0  0.63269239688E+03  0.36637358611E+02  0.11528696760E+03  0.64415297097E+03  0.00000000000E+00 0. -1.
          3    1    5    5  503    0 -0.12132385445E+03  0.10988785618E+03 -0.21633658689E+03  0.27128644902E+03  0.00000000000E+00 0. -1.
         -4    1    5    5    0  503 -0.30289046743E+02  0.95559689992E+02 -0.83555434018E+02  0.13050130750E+03  0.00000000000E+00 0.  1.
         -3    1    6    6    0  502  0.34224980671E+02  0.32719374509E+01 -0.11820372620E+02  0.36356238605E+02  0.00000000000E+00 0.  1.
<mgrwt>
<rscale>  0 0.19146502E+04</rscale>
<asrwt>0</asrwt>
<pdfrwt beam="1">  1        2 0.27290942E+00 0.19146502E+04</pdfrwt>
<pdfrwt beam="2">  1       -2 0.79482892E-01 0.19146502E+04</pdfrwt>
<totfact> 0.11704925E+01</totfact>
</mgrwt>
</event>
<event>
12    1  0.2214165E-007  0.1414926E+04  0.7818608E-02  0.8943085E-01
          2   -1    0    0  501    0  0.00000000000E+00  0.00000000000E+00  0.17074540325E+04  0.17074540325E+04  0.00000000000E+00 0. -1.
         -2   -1    0    0    0  501 -0.00000000000E+00 -0.00000000000E+00 -0.29312863654E+03  0.29312863654E+03  0.00000000000E+00 0.  1.
         23    2    1    2    0    0 -0.35048767709E+03  0.66733095442E+02  0.72195043346E+03  0.81013599853E+03  0.88391119036E+02 0.  0.
        254    2    1    2    0    0  0.35048767709E+03 -0.66733095442E+02  0.69237496245E+03  0.11904466705E+04  0.90026955340E+03 0.  0.
        -24    2    4    4    0    0  0.10165816741E+03  0.25651047154E+03  0.71723162873E+03  0.77275907187E+03  0.81261115575E+02 0.  0.
         24    2    4    4    0    0  0.24882950968E+03 -0.32324356698E+03 -0.24856666277E+02  0.41768759859E+03  0.86270201572E+02 0.  0.
         11    1    3    3    0    0 -0.25257733399E+03  0.15525573585E+02  0.55453742108E+03  0.60954745875E+03  0.00000000000E+00 0. -1.
        -11    1    3    3    0    0 -0.97910343097E+02  0.51207521857E+02  0.16741301237E+03  0.20058853978E+03  0.00000000000E+00 0.  1.
          2    1    6    6  502    0  0.10126008657E+03 -0.12749638689E+03  0.32261331276E+02  0.16598110524E+03  0.00000000000E+00 0. -1.
          3    1    5    5  503    0  0.70499898886E+02  0.23759920768E+03  0.65898044672E+03  0.70404463523E+03  0.00000000000E+00 0. -1.
         -4    1    5    5    0  503  0.31158268527E+02  0.18911263863E+02  0.58251182010E+02  0.68714436649E+02  0.00000000000E+00 0.  1.
         -1    1    6    6    0  502  0.14756942311E+03 -0.19574718009E+03 -0.57117997554E+02  0.25170649335E+03  0.00000000000E+00 0.  1.
<mgrwt>
<rscale>  0 0.14149257E+04</rscale>
<asrwt>0</asrwt>
<pdfrwt beam="1">  1        2 0.26268523E+00 0.14149257E+04</pdfrwt>
<pdfrwt beam="2">  1       -2 0.45096714E-01 0.14149257E+04</pdfrwt>
<totfact> 0.44033993E+01</totfact>
</mgrwt>
</event>
<event>
12    1  0.2214165E-007  0.2830059E+04  0.7818608E-02  0.8293997E-01
          2   -1    0    0  501    0  0.00000000000E+00  0.00000000000E+00  0.19167911887E+04  0.19167911887E+04  0.00000000000E+00 0. -1.
         -2   -1    0    0    0  501 -0.00000000000E+00 -0.00000000000E+00 -0.10446144767E+04  0.10446144767E+04  0.00000000000E+00 0.  1.
         23    2    1    2    0    0  0.12627669030E+04 -0.47710775567E+02  0.25466440143E+03  0.12926110166E+04  0.95565231783E+02 0.  0.
        254    2    1    2    0    0 -0.12627669030E+04  0.47710775567E+02  0.61751231061E+03  0.16687946488E+04  0.89816343546E+03 0.  0.
        -24    2    4    4    0    0 -0.17133499937E+03 -0.29116660341E+03  0.34931261049E+03  0.49221415738E+03  0.78241957599E+02 0.  0.
         24    2    4    4    0    0 -0.10914319036E+04  0.33887737898E+03  0.26819970012E+03  0.11765804914E+04  0.79681211598E+02 0.  0.
         11    1    3    3    0    0  0.10826330670E+04 -0.74202749979E+02  0.21485579720E+03  0.11062384098E+04  0.00000000000E+00 0.  1.
        -11    1    3    3    0    0  0.18013383601E+03  0.26491974412E+02  0.39808604230E+02  0.18637260678E+03  0.00000000000E+00 0. -1.
          4    1    6    6  502    0 -0.10820323751E+04  0.32692866905E+03  0.26599096272E+03  0.11612181568E+04  0.00000000000E+00 0. -1.
          1    1    5    5  503    0 -0.14956990295E+03 -0.23593386449E+03  0.32366258423E+03  0.42754346295E+03  0.00000000000E+00 0. -1.
         -2    1    5    5    0  503 -0.21765096417E+02 -0.55232738927E+02  0.25650026261E+02  0.64670694434E+02  0.00000000000E+00 0.  1.
         -3    1    6    6    0  502 -0.93995285394E+01  0.11948709927E+02  0.22087374002E+01  0.15362334672E+02  0.00000000000E+00 0.  1.
<mgrwt>
<rscale>  0 0.28300585E+04</rscale>
<asrwt>0</asrwt>
<pdfrwt beam="1">  1        2 0.29489095E+00 0.28300585E+04</pdfrwt>
<pdfrwt beam="2">  1       -2 0.16070992E+00 0.28300585E+04</pdfrwt>
<totfact> 0.16056883E+00</totfact>
</mgrwt>
</event>
<event>
12    1  0.2214165E-007  0.2589055E+04  0.7818608E-02  0.8371928E-01
         -1   -1    0    0    0  501 -0.00000000000E+00  0.00000000000E+00  0.66393390506E+03  0.66393390506E+03  0.00000000000E+00 0. -1.
          1   -1    0    0  501    0  0.00000000000E+00 -0.00000000000E+00 -0.25240492112E+04  0.25240492112E+04  0.00000000000E+00 0.  1.
         23    2    1    2    0    0 -0.56036453654E+03  0.96716719200E+03 -0.57418641940E+03  0.12611953039E+04  0.10725091740E+03 0.  0.
        254    2    1    2    0    0  0.56036453654E+03 -0.96716719200E+03 -0.12859288867E+04  0.19267878123E+04  0.89970960925E+03 0.  0.
        -24    2    4    4    0    0  0.28225130933E+03 -0.32105317015E+01 -0.70772490678E+03  0.76609091726E+03  0.79653252838E+02 0.  0.
         24    2    4    4    0    0  0.27811322721E+03 -0.96395666029E+03 -0.57820397991E+03  0.11606968951E+04  0.79611743763E+02 0.  0.
         11    1    3    3    0    0 -0.23910284467E+03  0.49649974080E+03 -0.24489260358E+03  0.60303776850E+03  0.00000000000E+00 0. -1.
        -11    1    3    3    0    0 -0.32126169187E+03  0.47066745119E+03 -0.32929381582E+03  0.65815753540E+03  0.00000000000E+00 0.  1.
          2    1    6    6  502    0  0.57549853651E+02 -0.10706449106E+03 -0.73745010689E+02  0.14217284376E+03  0.00000000000E+00 0. -1.
          1    1    5    5  503    0  0.50969090687E+02 -0.28896322277E+02 -0.10930182790E+03  0.12401506049E+03  0.00000000000E+00 0. -1.
         -2    1    5    5    0  503  0.23128221864E+03  0.25685790576E+02 -0.59842307889E+03  0.64207585677E+03  0.00000000000E+00 0.  1.
         -1    1    6    6    0  502  0.22056337356E+03 -0.85689216924E+03 -0.50445896922E+03  0.10185240513E+04  0.00000000000E+00 0.  1.
<mgrwt>
<rscale>  0 0.25890553E+04</rscale>
<asrwt>0</asrwt>
<pdfrwt beam="1">  1        1 0.38831527E+00 0.25890553E+04</pdfrwt>
<pdfrwt beam="2">  1       -1 0.10214368E+00 0.25890553E+04</pdfrwt>
<totfact> 0.10427146E+00</totfact>
</mgrwt>
</event>
<event>
12    1  0.2214165E-007  0.2596656E+04  0.7818608E-02  0.8369338E-01
         -2   -1    0    0    0  501 -0.00000000000E+00  0.00000000000E+00  0.83208770055E+03  0.83208770055E+03  0.00000000000E+00 0.  1.
          2   -1    0    0  501    0  0.00000000000E+00 -0.00000000000E+00 -0.20258147120E+04  0.20258147120E+04  0.00000000000E+00 0. -1.
         23    2    1    2    0    0 -0.77220631868E+03 -0.61633642813E+03 -0.11527520119E+04  0.15208984583E+04  0.90120631278E+02 0.  0.
        254    2    1    2    0    0  0.77220631868E+03  0.61633642813E+03 -0.40974999540E+02  0.13370039543E+04  0.89984856056E+03 0.  0.
        -24    2    4    4    0    0  0.61266597917E+03  0.17823129182E+02 -0.26599963687E+03  0.67317330865E+03  0.82031888257E+02 0.  0.
         24    2    4    4    0    0  0.15954033950E+03  0.59851329894E+03  0.22502463733E+03  0.66383064563E+03  0.79773114142E+02 0.  0.
         11    1    3    3    0    0 -0.33907430250E+03 -0.22539488084E+03 -0.43308035800E+03  0.59441806115E+03  0.00000000000E+00 0. -1.
        -11    1    3    3    0    0 -0.43313201617E+03 -0.39094154728E+03 -0.71967165393E+03  0.92648039715E+03  0.00000000000E+00 0.  1.
          2    1    6    6  502    0  0.27546518650E+02  0.36416141409E+02  0.28923225238E+02  0.54050892713E+02  0.00000000000E+00 0. -1.
          3    1    5    5  503    0  0.15892890544E+03  0.21624145818E+02 -0.10499310131E+03  0.19170172662E+03  0.00000000000E+00 0. -1.
         -4    1    5    5    0  503  0.45373707373E+03 -0.38010166363E+01 -0.16100653556E+03  0.48147158203E+03  0.00000000000E+00 0.  1.
         -1    1    6    6    0  502  0.13199382085E+03  0.56209715753E+03  0.19610141209E+03  0.60977975292E+03  0.00000000000E+00 0.  1.
<mgrwt>
<rscale>  0 0.25966559E+04</rscale>
<asrwt>0</asrwt>
<pdfrwt beam="1">  1        2 0.31166380E+00 0.25966559E+04</pdfrwt>
<pdfrwt beam="2">  1       -2 0.12801349E+00 0.25966559E+04</pdfrwt>
<totfact> 0.25825241E+00</totfact>
</mgrwt>
</event>
<event>
12    1  0.2214165E-007  0.1246694E+04  0.7818608E-02  0.9072939E-01
         -1   -1    0    0    0  501 -0.00000000000E+00  0.00000000000E+00  0.16716701277E+03  0.16716701277E+03  0.00000000000E+00 0.  1.
          1   -1    0    0  501    0  0.00000000000E+00 -0.00000000000E+00 -0.23243926988E+04  0.23243926988E+04  0.00000000000E+00 0. -1.
         23    2    1    2    0    0 -0.25725880754E+03 -0.72354013585E+02 -0.31507007487E+03  0.42304440159E+03  0.90995693860E+02 0.  0.
        254    2    1    2    0    0  0.25725880754E+03  0.72354013585E+02 -0.18421556111E+04  0.20685153099E+04  0.90210924758E+03 0.  0.
        -24    2    4    4    0    0  0.14502894929E+03  0.25955635284E+03 -0.11902407468E+03  0.32996095150E+03  0.79401528519E+02 0.  0.
         24    2    4    4    0    0  0.11222985825E+03 -0.18720233926E+03 -0.17231315364E+04  0.17385543584E+04  0.75820237925E+02 0.  0.
         13    1    3    3    0    0 -0.91690194216E+02 -0.61125828515E+02 -0.17018714168E+03  0.20274891324E+03  0.00000000000E+00 0. -1.
        -13    1    3    3    0    0 -0.16556861332E+03 -0.11228185069E+02 -0.14488293319E+03  0.22029548835E+03  0.00000000000E+00 0.  1.
          2    1    6    6  502    0  0.12156447071E+03 -0.18433466747E+03 -0.16239283287E+04  0.16388716872E+04  0.00000000000E+00 0. -1.
          1    1    5    5  503    0  0.76320811792E+02  0.17749949980E+03 -0.40998049492E+02  0.19751399648E+03  0.00000000000E+00 0. -1.
         -2    1    5    5    0  503  0.68708137497E+02  0.82056853043E+02 -0.78026025188E+02  0.13244695503E+03  0.00000000000E+00 0.  1.
         -1    1    6    6    0  502 -0.93346124584E+01 -0.28676717885E+01 -0.99203207692E+02  0.99682671250E+02  0.00000000000E+00 0.  1.
<mgrwt>
<rscale>  0 0.12466945E+04</rscale>
<asrwt>0</asrwt>
<pdfrwt beam="1">  1        1 0.35759888E+00 0.12466945E+04</pdfrwt>
<pdfrwt beam="2">  1       -1 0.25718002E-01 0.12466945E+04</pdfrwt>
<totfact> 0.23657075E+01</totfact>
</mgrwt>
</event>
<event>
12    1  0.2214165E-007  0.2738409E+04  0.7818608E-02  0.8322649E-01
          2   -1    0    0  501    0  0.00000000000E+00  0.00000000000E+00  0.23231348021E+04  0.23231348021E+04  0.00000000000E+00 0.  1.
         -2   -1    0    0    0  501 -0.00000000000E+00 -0.00000000000E+00 -0.80697871553E+03  0.80697871553E+03  0.00000000000E+00 0. -1.
         23    2    1    2    0    0 -0.20396888696E+03  0.39797625658E+03  0.19873877357E+04  0.20389847663E+04  0.88093457926E+02 0.  0.
        254    2    1    2    0    0  0.20396888696E+03 -0.39797625658E+03 -0.47123164914E+03  0.10911287514E+04  0.87664946087E+03 0.  0.
        -24    2    4    4    0    0  0.18815033702E+03 -0.59185772886E+03 -0.58108510692E+03  0.85420880460E+03  0.79477417111E+02 0.  0.
         24    2    4    4    0    0  0.15818549932E+02  0.19388147228E+03  0.10985345778E+03  0.23691994677E+03  0.78886165931E+02 0.  0.
         13    1    3    3    0    0 -0.20194066344E+02  0.48906521778E+01  0.12495180398E+03  0.12666756535E+03  0.00000000000E+00 0. -1.
        -13    1    3    3    0    0 -0.18377482061E+03  0.39308560440E+03  0.18624359317E+04  0.19123172009E+04  0.00000000000E+00 0.  1.
          2    1    6    6  502    0  0.46377410657E+02  0.12318358899E+03  0.81682584916E+02  0.15490999159E+03  0.00000000000E+00 0. -1.
          1    1    5    5  503    0  0.90098868124E+02 -0.34319513615E+03 -0.37855948282E+03  0.51885257015E+03  0.00000000000E+00 0. -1.
         -4    1    5    5    0  503  0.98051468901E+02 -0.24866259271E+03 -0.20252562410E+03  0.33535623445E+03  0.00000000000E+00 0.  1.
         -1    1    6    6    0  502 -0.30558860725E+02  0.70697883291E+02  0.28170872859E+02  0.82009955178E+02  0.00000000000E+00 0.  1.
<mgrwt>
<rscale>  0 0.27384085E+04</rscale>
<asrwt>0</asrwt>
<pdfrwt beam="1">  1        2 0.35740535E+00 0.27384085E+04</pdfrwt>
<pdfrwt beam="2">  1       -2 0.12415057E+00 0.27384085E+04</pdfrwt>
<totfact> 0.18759556E+00</totfact>
</mgrwt>
</event>
<event>
12    1  0.2214165E-007  0.1853277E+04  0.7818608E-02  0.8678470E-01
         -2   -1    0    0    0  501 -0.00000000000E+00  0.00000000000E+00  0.48168532460E+03  0.48168532460E+03  0.00000000000E+00 0.  1.
          2   -1    0    0  501    0  0.00000000000E+00 -0.00000000000E+00 -0.17826128624E+04  0.17826128624E+04  0.00000000000E+00 0. -1.
         23    2    1    2    0    0  0.41424432241E+03 -0.57134343696E+03 -0.48107533032E+03  0.85891126134E+03  0.90903244158E+02 0.  0.
        254    2    1    2    0    0 -0.41424432241E+03  0.57134343696E+03 -0.81985220749E+03  0.14053869257E+04  0.89717505937E+03 0.  0.
        -24    2    4    4    0    0 -0.42700235273E+03  0.70855049393E+03 -0.90183691880E+03  0.12264544417E+04  0.80658897556E+02 0.  0.
         24    2    4    4    0    0  0.12758030311E+02 -0.13720705697E+03  0.81984711315E+02  0.17893248399E+03  0.79415345603E+02 0.  0.
         11    1    3    3    0    0  0.27353741665E+03 -0.30067173066E+03 -0.27622663489E+03  0.49145433333E+03  0.00000000000E+00 0. -1.
        -11    1    3    3    0    0  0.14070690576E+03 -0.27067170629E+03 -0.20484869544E+03  0.36745692800E+03  0.00000000000E+00 0.  1.
          4    1    6    6  502    0  0.13880556608E+02 -0.14607780791E+03  0.84900905972E+02  0.16952745987E+03  0.00000000000E+00 0. -1.
          1    1    5    5  503    0 -0.27483385524E+03  0.52103149414E+03 -0.66095976646E+03  0.88536731290E+03  0.00000000000E+00 0. -1.
         -2    1    5    5    0  503 -0.15216849748E+03  0.18751899979E+03 -0.24087715235E+03  0.34108712880E+03  0.00000000000E+00 0.  1.
         -3    1    6    6    0  502 -0.11225262964E+01  0.88707509356E+01 -0.29161946570E+01  0.94050241215E+01  0.00000000000E+00 0.  1.
<mgrwt>
<rscale>  0 0.18532765E+04</rscale>
<asrwt>0</asrwt>
<pdfrwt beam="1">  1        2 0.27424813E+00 0.18532765E+04</pdfrwt>
<pdfrwt beam="2">  1       -2 0.74105434E-01 0.18532765E+04</pdfrwt>
<totfact> 0.13599418E+01</totfact>
</mgrwt>
</event>
<event>
12    1  0.2214165E-007  0.1656982E+04  0.7818608E-02  0.8786287E-01
          1   -1    0    0  501    0  0.00000000000E+00  0.00000000000E+00  0.21448138235E+04  0.21448138235E+04  0.00000000000E+00 0. -1.
         -1   -1    0    0    0  501 -0.00000000000E+00 -0.00000000000E+00 -0.32002636618E+03  0.32002636618E+03  0.00000000000E+00 0.  1.
         23    2    1    2    0    0  0.34301588229E+03  0.43588438824E+03  0.39821981753E+03  0.68881485721E+03  0.90729207072E+02 0.  0.
        254    2    1    2    0    0 -0.34301588229E+03 -0.43588438824E+03  0.14265676398E+04  0.17760253325E+04  0.90084163719E+03 0.  0.
        -24    2    4    4    0    0  0.16651691283E+03  0.15273752601E+03  0.55322817672E+03  0.60336584611E+03  0.83260402530E+02 0.  0.
         24    2    4    4    0    0 -0.50953279513E+03 -0.58862191426E+03  0.87333946311E+03  0.11726594864E+04  0.79429377237E+02 0.  0.
         13    1    3    3    0    0  0.24646884412E+03  0.33806158524E+03  0.25325169103E+03  0.48904902162E+03  0.00000000000E+00 0.  1.
        -13    1    3    3    0    0  0.96547038175E+02  0.97822803004E+02  0.14496812650E+03  0.19976583559E+03  0.00000000000E+00 0. -1.
          4    1    6    6  502    0 -0.81021516135E+02 -0.11565523156E+03  0.20097405861E+03  0.24562408452E+03  0.00000000000E+00 0. -1.
          3    1    5    5  503    0  0.10241407162E+03  0.10520472839E+03  0.25108518018E+03  0.29086155581E+03  0.00000000000E+00 0. -1.
         -4    1    5    5    0  503  0.64102841215E+02  0.47532797617E+02  0.30214299654E+03  0.31250429030E+03  0.00000000000E+00 0.  1.
         -3    1    6    6    0  502 -0.42851127899E+03 -0.47296668270E+03  0.67236540450E+03  0.92703540188E+03  0.00000000000E+00 0.  1.
<mgrwt>
<rscale>  0 0.16569816E+04</rscale>
<asrwt>0</asrwt>
<pdfrwt beam="1">  1        1 0.32997135E+00 0.16569816E+04</pdfrwt>
<pdfrwt beam="2">  1       -1 0.49234827E-01 0.16569816E+04</pdfrwt>
<totfact> 0.93840061E+00</totfact>
</mgrwt>
</event>
<event>
12    1  0.2214165E-007  0.1912501E+04  0.7818608E-02  0.8648659E-01
          2   -1    0    0  501    0  0.00000000000E+00  0.00000000000E+00  0.35372229359E+04  0.35372229359E+04  0.00000000000E+00 0. -1.
         -2   -1    0    0    0  501 -0.00000000000E+00 -0.00000000000E+00 -0.25851214131E+03  0.25851214131E+03  0.00000000000E+00 0.  1.
         23    2    1    2    0    0  0.23357459760E+03  0.55048012067E+03  0.21534832642E+04  0.22365458317E+04  0.84033519076E+02 0.  0.
        254    2    1    2    0    0 -0.23357459760E+03 -0.55048012067E+03  0.11252275304E+04  0.15591892455E+04  0.89852582166E+03 0.  0.
        -24    2    4    4    0    0  0.26584391948E+03 -0.14033258280E+03  0.73773502897E+03  0.80123184060E+03  0.85751187203E+02 0.  0.
         24    2    4    4    0    0 -0.49941851707E+03 -0.41014753787E+03  0.38749250140E+03  0.75795740486E+03  0.81909284783E+02 0.  0.
         11    1    3    3    0    0  0.99776494581E+02  0.28387396613E+03  0.94260710717E+03  0.98946851188E+03  0.00000000000E+00 0.  1.
        -11    1    3    3    0    0  0.13379810302E+03  0.26660615454E+03  0.12108761570E+04  0.12470773198E+04  0.00000000000E+00 0. -1.
          4    1    6    6  502    0 -0.21040639824E+02 -0.14510845487E+00  0.83542601869E+01  0.22638976212E+02  0.00000000000E+00 0. -1.
          1    1    5    5  503    0  0.54122353855E+02 -0.71882240342E+02  0.22216288695E+03  0.23969279088E+03  0.00000000000E+00 0. -1.
         -2    1    5    5    0  503  0.21172156562E+03 -0.68450342460E+02  0.51557214202E+03  0.56153904972E+03  0.00000000000E+00 0.  1.
         -3    1    6    6    0  502 -0.47837787725E+03 -0.41000242941E+03  0.37913824121E+03  0.73531842865E+03  0.00000000000E+00 0.  1.
<mgrwt>
<rscale>  0 0.19125011E+04</rscale>
<asrwt>0</asrwt>
<pdfrwt beam="1">  1        2 0.54418811E+00 0.19125011E+04</pdfrwt>
<pdfrwt beam="2">  1       -2 0.39771101E-01 0.19125011E+04</pdfrwt>
<totfact> 0.43133590E+00</totfact>
</mgrwt>
</event>
<event>
12    1  0.2214165E-007  0.4324956E+04  0.7818608E-02  0.7942020E-01
          2   -1    0    0  501    0  0.00000000000E+00  0.00000000000E+00  0.19004863401E+04  0.19004863401E+04  0.00000000000E+00 0. -1.
         -2   -1    0    0    0  501 -0.00000000000E+00 -0.00000000000E+00 -0.24605860775E+04  0.24605860775E+04  0.00000000000E+00 0.  1.
         23    2    1    2    0    0 -0.14210819191E+04 -0.14819511124E+04 -0.20688795525E+02  0.20554341033E+04  0.93425940906E+02 0.  0.
        254    2    1    2    0    0  0.14210819191E+04  0.14819511124E+04 -0.53941094186E+03  0.23056383142E+04  0.89963934522E+03 0.  0.
        -24    2    4    4    0    0  0.12123072013E+04  0.15114189796E+04 -0.27559485660E+03  0.19585975317E+04  0.77946672932E+02 0.  0.
         24    2    4    4    0    0  0.20877471779E+03 -0.29467867262E+02 -0.26381608526E+03  0.34704078251E+03  0.79894554838E+02 0.  0.
         13    1    3    3    0    0 -0.45869313834E+03 -0.54027438996E+03  0.44455812114E+01  0.70874224849E+03  0.00000000000E+00 0. -1.
        -13    1    3    3    0    0 -0.96238878081E+03 -0.94167672241E+03 -0.25134376737E+02  0.13466918548E+04  0.00000000000E+00 0.  1.
          4    1    6    6  502    0  0.19137053259E+03 -0.48250102757E+02 -0.24799163394E+03  0.31693943217E+03  0.00000000000E+00 0. -1.
          3    1    5    5  503    0  0.10566558302E+04  0.12750504329E+04 -0.22784123940E+03  0.16715821189E+04  0.00000000000E+00 0. -1.
         -4    1    5    5    0  503  0.15565137118E+03  0.23636854676E+03 -0.47753617197E+02  0.28701541283E+03  0.00000000000E+00 0.  1.
         -3    1    6    6    0  502  0.17404185207E+02  0.18782235495E+02 -0.15824451323E+02  0.30101350345E+02  0.00000000000E+00 0.  1.
<mgrwt>
<rscale>  0 0.43249556E+04</rscale>
<asrwt>0</asrwt>
<pdfrwt beam="1">  1        2 0.29238251E+00 0.43249556E+04</pdfrwt>
<pdfrwt beam="2">  1       -2 0.37855170E+00 0.43249556E+04</pdfrwt>
<totfact> 0.59650134E-02</totfact>
</mgrwt>
</event>
<event>
12    1  0.2214165E-007  0.1256125E+04  0.7818608E-02  0.9065100E-01
          2   -1    0    0  501    0  0.00000000000E+00  0.00000000000E+00  0.13480761231E+03  0.13480761231E+03  0.00000000000E+00 0. -1.
         -2   -1    0    0    0  501 -0.00000000000E+00 -0.00000000000E+00 -0.29261164661E+04  0.29261164661E+04  0.00000000000E+00 0.  1.
         23    2    1    2    0    0 -0.21339543553E+03  0.10719046515E+03 -0.25799315971E+03  0.36335098773E+03  0.91848038092E+02 0.  0.
        254    2    1    2    0    0  0.21339543553E+03 -0.10719046515E+03 -0.25333156941E+04  0.26975730907E+04  0.89564767959E+03 0.  0.
        -24    2    4    4    0    0 -0.11141389274E+03 -0.37277948088E+03 -0.61426886970E+03  0.73155877409E+03  0.80463649018E+02 0.  0.
         24    2    4    4    0    0  0.32480932828E+03  0.26558901573E+03 -0.19190468244E+04  0.19660143166E+04  0.80205696944E+02 0.  0.
         11    1    3    3    0    0 -0.11433454919E+03  0.59759276142E+02 -0.20299027504E+03  0.24051738396E+03  0.00000000000E+00 0.  1.
        -11    1    3    3    0    0 -0.99060886347E+02  0.47431189005E+02 -0.55002884667E+02  0.12283360377E+03  0.00000000000E+00 0. -1.
          4    1    6    6  502    0  0.29219260669E+03  0.25908580085E+03 -0.18234250576E+04  0.18647736893E+04  0.00000000000E+00 0. -1.
          3    1    5    5  503    0 -0.96394614772E+02 -0.19459014580E+03 -0.30693350866E+03  0.37598593768E+03  0.00000000000E+00 0. -1.
         -4    1    5    5    0  503 -0.15019277971E+02 -0.17818933508E+03 -0.30733536104E+03  0.35557283641E+03  0.00000000000E+00 0.  1.
         -3    1    6    6    0  502  0.32616721586E+02  0.65032148830E+01 -0.95621766785E+02  0.10124062729E+03  0.00000000000E+00 0.  1.
<mgrwt>
<rscale>  0 0.12561254E+04</rscale>
<asrwt>0</asrwt>
<pdfrwt beam="1">  1        2 0.20739632E-01 0.12561254E+04</pdfrwt>
<pdfrwt beam="2">  1       -2 0.45017177E+00 0.12561254E+04</pdfrwt>
<totfact> 0.94390471E-01</totfact>
</mgrwt>
</event>
<event>
12    1  0.2214165E-007  0.1181270E+04  0.7818608E-02  0.9129411E-01
         -1   -1    0    0    0  501 -0.00000000000E+00  0.00000000000E+00  0.32900837896E+03  0.32900837896E+03  0.00000000000E+00 0.  1.
          1   -1    0    0  501    0  0.00000000000E+00 -0.00000000000E+00 -0.10603064595E+04  0.10603064595E+04  0.00000000000E+00 0. -1.
         23    2    1    2    0    0  0.21033217020E+03 -0.79783485867E+02 -0.97177650437E+02  0.26510383889E+03  0.10115099216E+03 0.  0.
        254    2    1    2    0    0 -0.21033217020E+03  0.79783485867E+02 -0.63412043015E+03  0.11242109996E+04  0.90063123712E+03 0.  0.
        -24    2    4    4    0    0 -0.17923866407E+03 -0.27554690770E+02 -0.84744908222E+03  0.87042901327E+03  0.81184730724E+02 0.  0.
         24    2    4    4    0    0 -0.31093506129E+02  0.10733817664E+03  0.21332865208E+03  0.25378198634E+03  0.80049312950E+02 0.  0.
         13    1    3    3    0    0  0.53968515874E+02  0.11117410790E+02  0.83076995364E+01  0.55724459620E+02  0.00000000000E+00 0.  1.
        -13    1    3    3    0    0  0.15636365432E+03 -0.90900896657E+02 -0.10548534997E+03  0.20937937927E+03  0.00000000000E+00 0. -1.
          4    1    6    6  502    0 -0.17358637346E+02  0.11343135260E+03  0.15092716596E+03  0.18959695005E+03  0.00000000000E+00 0. -1.
          3    1    5    5  503    0 -0.15642463158E+03 -0.30353157834E+02 -0.81636254098E+03  0.83176786297E+03  0.00000000000E+00 0. -1.
         -4    1    5    5    0  503 -0.22814032483E+02  0.27984670643E+01 -0.31086541245E+02  0.38661150302E+02  0.00000000000E+00 0.  1.
         -3    1    6    6    0  502 -0.13734868783E+02 -0.60931759593E+01  0.62401486113E+02  0.64185036285E+02  0.00000000000E+00 0.  1.
<mgrwt>
<rscale>  0 0.11812700E+04</rscale>
<asrwt>0</asrwt>
<pdfrwt beam="1">  1        1 0.16312407E+00 0.11812700E+04</pdfrwt>
<pdfrwt beam="2">  1       -1 0.50616674E-01 0.11812700E+04</pdfrwt>
<totfact> 0.52793292E+01</totfact>
</mgrwt>
</event>
<event>
12    1  0.2214165E-007  0.3733109E+04  0.7818608E-02  0.8060664E-01
          2   -1    0    0  501    0  0.00000000000E+00  0.00000000000E+00  0.30582561759E+04  0.30582561759E+04  0.00000000000E+00 0. -1.
         -2   -1    0    0    0  501 -0.00000000000E+00 -0.00000000000E+00 -0.11392194025E+04  0.11392194025E+04  0.00000000000E+00 0.  1.
         23    2    1    2    0    0  0.14971781009E+04 -0.43176101792E+03  0.18163932811E+04  0.23948606590E+04  0.90073204059E+02 0.  0.
        254    2    1    2    0    0 -0.14971781009E+04  0.43176101792E+03  0.10264349234E+03  0.18026149195E+04  0.90051375279E+03 0.  0.
        -24    2    4    4    0    0 -0.11364927134E+04  0.51963911266E+03  0.40638864865E+03  0.13166135216E+04  0.81724760980E+02 0.  0.
         24    2    4    4    0    0 -0.36068538755E+03 -0.87878094736E+02 -0.30374515631E+03  0.48600139789E+03  0.78228706002E+02 0.  0.
         13    1    3    3    0    0  0.65203581368E+03 -0.20576874714E+03  0.86056113369E+03  0.10991164381E+04  0.00000000000E+00 0. -1.
        -13    1    3    3    0    0  0.84514228723E+03 -0.22599227078E+03  0.95583214739E+03  0.12957442209E+04  0.00000000000E+00 0.  1.
          2    1    6    6  502    0 -0.22670372160E+03 -0.16676118020E+02 -0.19228613893E+03  0.29773583850E+03  0.00000000000E+00 0. -1.
          1    1    5    5  503    0 -0.12262815648E+03  0.32470229355E+02  0.54022882369E+02  0.13787839706E+03  0.00000000000E+00 0. -1.
         -2    1    5    5    0  503 -0.10138645569E+04  0.48716888330E+03  0.35236576628E+03  0.11787351245E+04  0.00000000000E+00 0.  1.
         -1    1    6    6    0  502 -0.13398166595E+03 -0.71201976716E+02 -0.11145901738E+03  0.18826555939E+03  0.00000000000E+00 0.  1.
<mgrwt>
<rscale>  0 0.37331085E+04</rscale>
<asrwt>0</asrwt>
<pdfrwt beam="1">  1        2 0.47050095E+00 0.37331085E+04</pdfrwt>
<pdfrwt beam="2">  1       -2 0.17526452E+00 0.37331085E+04</pdfrwt>
<totfact> 0.25215167E-01</totfact>
</mgrwt>
</event>
<event>
12    1  0.2214165E-007  0.3025110E+04  0.7818608E-02  0.8236597E-01
         -2   -1    0    0    0  501 -0.00000000000E+00  0.00000000000E+00  0.28461049981E+04  0.28461049981E+04  0.00000000000E+00 0.  1.
          2   -1    0    0  501    0  0.00000000000E+00 -0.00000000000E+00 -0.80384312320E+03  0.80384312320E+03  0.00000000000E+00 0. -1.
         23    2    1    2    0    0 -0.97793854668E+03 -0.96435095730E+03  0.82384156388E+03  0.16041963512E+04  0.91621182043E+02 0.  0.
        254    2    1    2    0    0  0.97793854668E+03  0.96435095730E+03  0.12184203110E+04  0.20457517700E+04  0.90233900529E+03 0.  0.
        -24    2    4    4    0    0  0.88766239218E+02  0.20856632499E+03  0.74630784212E+03  0.78412803439E+03  0.80635116145E+02 0.  0.
         24    2    4    4    0    0  0.88917230746E+03  0.75578463231E+03  0.47211246888E+03  0.12616237357E+04  0.83465347976E+02 0.  0.
         11    1    3    3    0    0 -0.66106279333E+02 -0.68379480700E+02  0.85754494598E+02  0.12806102800E+03  0.00000000000E+00 0.  1.
        -11    1    3    3    0    0 -0.91183226734E+03 -0.89597147660E+03  0.73808706928E+03  0.14761353232E+04  0.00000000000E+00 0. -1.
          4    1    6    6  502    0  0.76307228054E+03  0.66865484119E+03  0.43510811259E+03  0.11039464079E+04  0.00000000000E+00 0. -1.
          1    1    5    5  503    0  0.46177065273E+02  0.18467356111E+03  0.55732637591E+03  0.58893916054E+03  0.00000000000E+00 0. -1.
         -2    1    5    5    0  503  0.42589173945E+02  0.23892763879E+02  0.18898146622E+03  0.19518887385E+03  0.00000000000E+00 0.  1.
         -3    1    6    6    0  502  0.12610002692E+03  0.87129791126E+02  0.37004356289E+02  0.15767732771E+03  0.00000000000E+00 0.  1.
<mgrwt>
<rscale>  0 0.30251095E+04</rscale>
<asrwt>0</asrwt>
<pdfrwt beam="1">  1        2 0.12366817E+00 0.30251095E+04</pdfrwt>
<pdfrwt beam="2">  1       -2 0.43786230E+00 0.30251095E+04</pdfrwt>
<totfact> 0.12195189E-01</totfact>
</mgrwt>
</event>
<event>
12    1  0.2214165E-007  0.2448402E+04  0.7818608E-02  0.8421601E-01
         -2   -1    0    0    0  501 -0.00000000000E+00  0.00000000000E+00  0.57224945728E+03  0.57224945728E+03  0.00000000000E+00 0.  1.
          2   -1    0    0  501    0  0.00000000000E+00 -0.00000000000E+00 -0.26189080161E+04  0.26189080161E+04  0.00000000000E+00 0. -1.
         23    2    1    2    0    0  0.64401519095E+03  0.39769149593E+03  0.73268142335E+02  0.76641700682E+03  0.95460544511E+02 0.  0.
        254    2    1    2    0    0 -0.64401519095E+03 -0.39769149593E+03 -0.21199267012E+04  0.24247404666E+04  0.90131183269E+03 0.  0.
        -24    2    4    4    0    0  0.75076365349E+02  0.35290109887E+02  0.26424506504E+02  0.11869691043E+03  0.80677441164E+02 0.  0.
         24    2    4    4    0    0 -0.71909155630E+03 -0.43298160582E+03 -0.21463512077E+04  0.23060435561E+04  0.80297190263E+02 0.  0.
         11    1    3    3    0    0  0.29809566913E+03  0.23997562659E+03  0.32697879271E+02  0.38408134636E+03  0.00000000000E+00 0. -1.
        -11    1    3    3    0    0  0.34591952182E+03  0.15771586933E+03  0.40570263064E+02  0.38233566047E+03  0.00000000000E+00 0.  1.
          2    1    6    6  502    0 -0.45511154027E+03 -0.31821426609E+03 -0.14027580871E+04  0.15086805773E+04  0.00000000000E+00 0. -1.
          3    1    5    5  503    0  0.64034040383E+02  0.57060294699E+02  0.35264236548E+02  0.92735117071E+02  0.00000000000E+00 0. -1.
         -4    1    5    5    0  503  0.11042324966E+02 -0.21770184812E+02 -0.88397300438E+01  0.25961793363E+02  0.00000000000E+00 0.  1.
         -1    1    6    6    0  502 -0.26398001604E+03 -0.11476733973E+03 -0.74359312057E+03  0.79736297888E+03  0.00000000000E+00 0.  1.
<mgrwt>
<rscale>  0 0.24484025E+04</rscale>
<asrwt>0</asrwt>
<pdfrwt beam="1">  1        2 0.40290893E+00 0.24484025E+04</pdfrwt>
<pdfrwt beam="2">  1       -2 0.88038377E-01 0.24484025E+04</pdfrwt>
<totfact> 0.29536436E+00</totfact>
</mgrwt>
</event>
<event>
12    1  0.2214165E-007  0.3648064E+04  0.7818608E-02  0.8079570E-01
         -2   -1    0    0    0  501 -0.00000000000E+00  0.00000000000E+00  0.18723205745E+04  0.18723205745E+04  0.00000000000E+00 0.  1.
          2   -1    0    0  501    0  0.00000000000E+00 -0.00000000000E+00 -0.17769889967E+04  0.17769889967E+04  0.00000000000E+00 0. -1.
         23    2    1    2    0    0 -0.45195537963E+03  0.14736908525E+04 -0.69919891040E+03  0.16950414530E+04  0.90873632592E+02 0.  0.
        254    2    1    2    0    0  0.45195537963E+03 -0.14736908525E+04  0.79453048813E+03  0.19542681183E+04  0.90103095820E+03 0.  0.
        -24    2    4    4    0    0 -0.85616884324E+02 -0.90720634145E+03  0.72324048451E+03  0.11660469981E+04  0.78963323906E+02 0.  0.
         24    2    4    4    0    0  0.53757226396E+03 -0.56648451103E+03  0.71290003619E+02  0.78822112015E+03  0.79508675159E+02 0.  0.
         13    1    3    3    0    0 -0.34396042166E+03  0.99106041643E+03 -0.49515099987E+03  0.11600362207E+04  0.00000000000E+00 0. -1.
        -13    1    3    3    0    0 -0.10799495797E+03  0.48263043605E+03 -0.20404791053E+03  0.53500523226E+03  0.00000000000E+00 0.  1.
          2    1    6    6  502    0  0.82423448157E+00 -0.14170947236E+02 -0.29215706389E+01  0.14492435373E+02  0.00000000000E+00 0. -1.
          1    1    5    5  503    0 -0.29180534316E+02 -0.26041020345E+03  0.16386848086E+03  0.30905963286E+03  0.00000000000E+00 0. -1.
         -2    1    5    5    0  503 -0.56436350007E+02 -0.64679613800E+03  0.55937200365E+03  0.85698736526E+03  0.00000000000E+00 0.  1.
         -1    1    6    6    0  502  0.53674802947E+03 -0.55231356379E+03  0.74211574258E+02  0.77372868478E+03  0.00000000000E+00 0.  1.
<mgrwt>
<rscale>  0 0.36480642E+04</rscale>
<asrwt>0</asrwt>
<pdfrwt beam="1">  1        2 0.27338292E+00 0.36480642E+04</pdfrwt>
<pdfrwt beam="2">  1       -2 0.28804932E+00 0.36480642E+04</pdfrwt>
<totfact> 0.27131310E-01</totfact>
</mgrwt>
</event>
<event>
12    1  0.2214165E-007  0.1668924E+04  0.7818608E-02  0.8779290E-01
          1   -1    0    0  501    0  0.00000000000E+00  0.00000000000E+00  0.40222701941E+04  0.40222701941E+04  0.00000000000E+00 0. -1.
         -1   -1    0    0    0  501 -0.00000000000E+00 -0.00000000000E+00 -0.17311778581E+03  0.17311778581E+03  0.00000000000E+00 0.  1.
         23    2    1    2    0    0 -0.32132231372E+03  0.41275410595E+03  0.69666978081E+03  0.87586650812E+03  0.90439898733E+02 0.  0.
        254    2    1    2    0    0  0.32132231372E+03 -0.41275410595E+03  0.31524826275E+04  0.33195214718E+04  0.89858895153E+03 0.  0.
        -24    2    4    4    0    0  0.55373359032E+03 -0.62589331513E+02  0.22702343568E+04  0.23389305407E+04  0.78062321654E+02 0.  0.
         24    2    4    4    0    0 -0.23241127660E+03 -0.35016477443E+03  0.88224827076E+03  0.98059093114E+03  0.81032044486E+02 0.  0.
         13    1    3    3    0    0 -0.30703166497E+03  0.34759635023E+03  0.61935785192E+03  0.77375436330E+03  0.00000000000E+00 0.  1.
        -13    1    3    3    0    0 -0.14290648748E+02  0.65157755711E+02  0.77311928893E+02  0.10211214482E+03  0.00000000000E+00 0. -1.
          4    1    6    6  502    0 -0.23791634054E+03 -0.33894663547E+03  0.83995057360E+03  0.93648597046E+03  0.00000000000E+00 0. -1.
          1    1    5    5  503    0  0.40855355327E+03 -0.24163920376E+02  0.17662286649E+04  0.18130260885E+04  0.00000000000E+00 0. -1.
         -2    1    5    5    0  503  0.14518003705E+03 -0.38425411137E+02  0.50400569185E+03  0.52590445216E+03  0.00000000000E+00 0.  1.
         -3    1    6    6    0  502  0.55050639468E+01 -0.11218138966E+02  0.42297697161E+02  0.44104960674E+02  0.00000000000E+00 0.  1.
<mgrwt>
<rscale>  0 0.16689236E+04</rscale>
<asrwt>0</asrwt>
<pdfrwt beam="1">  1        1 0.61881073E+00 0.16689236E+04</pdfrwt>
<pdfrwt beam="2">  1       -1 0.26633508E-01 0.16689236E+04</pdfrwt>
<totfact> 0.11153082E+00</totfact>
</mgrwt>
</event>
<event>
12    1  0.2214165E-007  0.3371633E+04  0.7818608E-02  0.8144904E-01
         -1   -1    0    0    0  501 -0.00000000000E+00  0.00000000000E+00  0.10064462123E+04  0.10064462123E+04  0.00000000000E+00 0.  1.
          1   -1    0    0  501    0  0.00000000000E+00 -0.00000000000E+00 -0.28237746232E+04  0.28237746232E+04  0.00000000000E+00 0. -1.
         23    2    1    2    0    0 -0.25347883760E+03 -0.14934253686E+04 -0.40884634895E+03  0.15717514097E+04  0.93146681668E+02 0.  0.
        254    2    1    2    0    0  0.25347883760E+03  0.14934253686E+04 -0.14084820619E+04  0.22584694258E+04  0.90680294214E+03 0.  0.
        -24    2    4    4    0    0 -0.26953835784E+03  0.15061829965E+03 -0.31190924250E+03  0.44603442566E+03  0.79514368349E+02 0.  0.
         24    2    4    4    0    0  0.52301719545E+03  0.13428070689E+04 -0.10965728194E+04  0.18124350002E+04  0.75966244710E+02 0.  0.
         11    1    3    3    0    0 -0.24508424104E+03 -0.12351676198E+04 -0.33802265047E+03  0.13038269235E+04  0.00000000000E+00 0. -1.
        -11    1    3    3    0    0 -0.83945965661E+01 -0.25825774875E+03 -0.70823698481E+02  0.26792448620E+03  0.00000000000E+00 0.  1.
          4    1    6    6  502    0  0.10251868105E+03  0.27585120152E+03 -0.26286210215E+03  0.39458896347E+03  0.00000000000E+00 0. -1.
          1    1    5    5  503    0 -0.61061809190E+00 -0.69528527370E+01 -0.48426921850E+01  0.84950976001E+01  0.00000000000E+00 0. -1.
         -2    1    5    5    0  503 -0.26892773975E+03  0.15757115238E+03 -0.30706655032E+03  0.43753932806E+03  0.00000000000E+00 0.  1.
         -3    1    6    6    0  502  0.42049851440E+03  0.10669558674E+04 -0.83371071727E+03  0.14178460367E+04  0.00000000000E+00 0.  1.
<mgrwt>
<rscale>  0 0.33716330E+04</rscale>
<asrwt>0</asrwt>
<pdfrwt beam="1">  1        1 0.43442685E+00 0.33716330E+04</pdfrwt>
<pdfrwt beam="2">  1       -1 0.15483788E+00 0.33716330E+04</pdfrwt>
<totfact> 0.21139243E-01</totfact>
</mgrwt>
</event>
<event>
12    1  0.2214165E-007  0.2641211E+04  0.7818608E-02  0.8354336E-01
          2   -1    0    0  501    0  0.00000000000E+00  0.00000000000E+00  0.12509268991E+04  0.12509268991E+04  0.00000000000E+00 0. -1.
         -2   -1    0    0    0  501 -0.00000000000E+00 -0.00000000000E+00 -0.13941650209E+04  0.13941650209E+04  0.00000000000E+00 0.  1.
         23    2    1    2    0    0  0.68133832077E+03 -0.93196057683E+03  0.94961721749E+02  0.11621560136E+04  0.93895938448E+02 0.  0.
        254    2    1    2    0    0 -0.68133832077E+03  0.93196057683E+03 -0.23819984353E+03  0.14829359064E+04  0.89977070014E+03 0.  0.
        -24    2    4    4    0    0 -0.78131017894E+03  0.67916626463E+03  0.98275101671E+02  0.10432913880E+04  0.84181434388E+02 0.  0.
         24    2    4    4    0    0  0.99971858169E+02  0.25279431220E+03 -0.33647494520E+03  0.43964451839E+03  0.78565750176E+02 0.  0.
         11    1    3    3    0    0  0.29876218938E+03 -0.48358118372E+03  0.62426588873E+02  0.57184498428E+03  0.00000000000E+00 0. -1.
        -11    1    3    3    0    0  0.38257613138E+03 -0.44837939311E+03  0.32535132876E+02  0.59031102933E+03  0.00000000000E+00 0.  1.
          4    1    6    6  502    0  0.53489747590E+02  0.17918886614E+03 -0.17457751706E+03  0.25582633232E+03  0.00000000000E+00 0. -1.
          1    1    5    5  503    0 -0.72001683610E+03  0.59355931735E+03  0.94955482398E+02  0.93795173176E+03  0.00000000000E+00 0. -1.
         -2    1    5    5    0  503 -0.61293342833E+02  0.85606947284E+02  0.33196192728E+01  0.10533965621E+03  0.00000000000E+00 0.  1.
         -3    1    6    6    0  502  0.46482110579E+02  0.73605446061E+02 -0.16189742814E+03  0.18381818607E+03  0.00000000000E+00 0.  1.
<mgrwt>
<rscale>  0 0.26412107E+04</rscale>
<asrwt>0</asrwt>
<pdfrwt beam="1">  1        2 0.19245029E+00 0.26412107E+04</pdfrwt>
<pdfrwt beam="2">  1       -2 0.21448693E+00 0.26412107E+04</pdfrwt>
<totfact> 0.16687699E+00</totfact>
</mgrwt>
</event>
<event>
12    1  0.2214165E-007  0.2178304E+04  0.7818608E-02  0.8527513E-01
          1   -1    0    0  501    0  0.00000000000E+00  0.00000000000E+00  0.12264243748E+04  0.12264243748E+04  0.00000000000E+00 0. -1.
         -1   -1    0    0    0  501 -0.00000000000E+00 -0.00000000000E+00 -0.96724480081E+03  0.96724480081E+03  0.00000000000E+00 0.  1.
         23    2    1    2    0    0 -0.76139439854E+03  0.45889489188E+03  0.25134963599E+03  0.92922051836E+03  0.99840774794E+02 0.  0.
        254    2    1    2    0    0  0.76139439854E+03 -0.45889489188E+03  0.78299379851E+01  0.12644486572E+04  0.89914578737E+03 0.  0.
        -24    2    4    4    0    0  0.40566688946E+03 -0.92637630438E+02  0.42503840919E+03  0.60035763708E+03  0.81389725049E+02 0.  0.
         24    2    4    4    0    0  0.35572750908E+03 -0.36625726144E+03 -0.41720847120E+03  0.66409102015E+03  0.79167748012E+02 0.  0.
         11    1    3    3    0    0 -0.50458852748E+03  0.35746848276E+03  0.17988080503E+03  0.64401118177E+03  0.00000000000E+00 0.  1.
        -11    1    3    3    0    0 -0.25680587106E+03  0.10142640912E+03  0.71468830957E+02  0.28520933659E+03  0.00000000000E+00 0. -1.
          4    1    6    6  502    0  0.30332134355E+03 -0.34654898898E+03 -0.36703209444E+03  0.58890797037E+03  0.00000000000E+00 0. -1.
          1    1    5    5  503    0  0.32047437091E+03 -0.84085595876E+02  0.28919017316E+03  0.43977854210E+03  0.00000000000E+00 0. -1.
         -2    1    5    5    0  503  0.85192518546E+02 -0.85520345613E+01  0.13584823603E+03  0.16057909498E+03  0.00000000000E+00 0.  1.
         -3    1    6    6    0  502  0.52406165534E+02 -0.19708272460E+02 -0.50176376767E+02  0.75183049784E+02  0.00000000000E+00 0.  1.
<mgrwt>
<rscale>  0 0.21783045E+04</rscale>
<asrwt>0</asrwt>
<pdfrwt beam="1">  1        1 0.18868067E+00 0.21783045E+04</pdfrwt>
<pdfrwt beam="2">  1       -1 0.14880689E+00 0.21783045E+04</pdfrwt>
<totfact> 0.33287659E+00</totfact>
</mgrwt>
</event>
<event>
12    1  0.2214165E-007  0.1755910E+04  0.7818608E-02  0.8730104E-01
          1   -1    0    0  501    0  0.00000000000E+00  0.00000000000E+00  0.13597577644E+04  0.13597577644E+04  0.00000000000E+00 0. -1.
         -1   -1    0    0    0  501 -0.00000000000E+00 -0.00000000000E+00 -0.56686916097E+03  0.56686916097E+03  0.00000000000E+00 0.  1.
         23    2    1    2    0    0  0.50321724454E+03  0.34904130658E+03  0.77814124066E+02  0.62414960331E+03  0.91925298546E+02 0.  0.
        254    2    1    2    0    0 -0.50321724454E+03 -0.34904130658E+03  0.71507447940E+03  0.13024773221E+04  0.90003235195E+03 0.  0.
        -24    2    4    4    0    0 -0.19984399432E+03 -0.43534140961E+03 -0.32808149967E+02  0.48690702543E+03  0.80884557975E+02 0.  0.
         24    2    4    4    0    0 -0.30337325023E+03  0.86300103035E+02  0.74788262936E+03  0.81557029666E+03  0.79645745332E+02 0.  0.
         13    1    3    3    0    0  0.45662629487E+03  0.31717763967E+03  0.97320471660E+02  0.56442936004E+03  0.00000000000E+00 0. -1.
        -13    1    3    3    0    0  0.46590949669E+02  0.31863666904E+02 -0.19506347594E+02  0.59720243269E+02  0.00000000000E+00 0.  1.
          2    1    6    6  502    0 -0.29873241074E+03  0.89043329963E+02  0.68657220001E+03  0.75402331109E+03  0.00000000000E+00 0. -1.
          3    1    5    5  503    0 -0.14218431328E+03 -0.32368101269E+03  0.11322921592E+02  0.35371455366E+03  0.00000000000E+00 0. -1.
         -4    1    5    5    0  503 -0.57659681037E+02 -0.11166039692E+03 -0.44131071559E+02  0.13319247177E+03  0.00000000000E+00 0.  1.
         -1    1    6    6    0  502 -0.46408394838E+01 -0.27432269286E+01  0.61310429349E+02  0.61546985565E+02  0.00000000000E+00 0.  1.
<mgrwt>
<rscale>  0 0.17559097E+04</rscale>
<asrwt>0</asrwt>
<pdfrwt beam="1">  1        1 0.20919350E+00 0.17559097E+04</pdfrwt>
<pdfrwt beam="2">  1       -1 0.87210641E-01 0.17559097E+04</pdfrwt>
<totfact> 0.10056741E+01</totfact>
</mgrwt>
</event>
<event>
12    1  0.2214165E-007  0.2342237E+04  0.7818608E-02  0.8461451E-01
         -2   -1    0    0    0  501 -0.00000000000E+00  0.00000000000E+00  0.14081232330E+04  0.14081232330E+04  0.00000000000E+00 0.  1.
          2   -1    0    0  501    0  0.00000000000E+00 -0.00000000000E+00 -0.97400480486E+03  0.97400480486E+03  0.00000000000E+00 0. -1.
         23    2    1    2    0    0 -0.58323487369E+03 -0.69796519724E+03  0.59779789608E+03  0.10922492470E+04  0.91256553844E+02 0.  0.
        254    2    1    2    0    0  0.58323487369E+03  0.69796519724E+03 -0.16367946792E+03  0.12898787909E+04  0.89982108914E+03 0.  0.
        -24    2    4    4    0    0  0.92312153169E+02  0.76410713542E+03 -0.14922446920E+03  0.78801648737E+03  0.79503422131E+02 0.  0.
         24    2    4    4    0    0  0.49092272052E+03 -0.66141938183E+02 -0.14454998717E+02  0.50186230350E+03  0.79227212338E+02 0.  0.
         13    1    3    3    0    0 -0.44712311123E+03 -0.58819204971E+03  0.47000283672E+03  0.87566639222E+03  0.00000000000E+00 0.  1.
        -13    1    3    3    0    0 -0.13611176245E+03 -0.10977314753E+03  0.12779505936E+03  0.21658285480E+03  0.00000000000E+00 0. -1.
          4    1    6    6  502    0  0.48316373105E+03 -0.57938227749E+02 -0.23797606927E+02  0.48720668646E+03  0.00000000000E+00 0. -1.
          1    1    5    5  503    0  0.46431929664E+02  0.63336395756E+03 -0.11683388729E+03  0.64572128976E+03  0.00000000000E+00 0. -1.
         -2    1    5    5    0  503  0.45880223505E+02  0.13074317786E+03 -0.32390581909E+02  0.14229519761E+03  0.00000000000E+00 0.  1.
         -3    1    6    6    0  502  0.77589894640E+01 -0.82037104339E+01  0.93426082101E+01  0.14655617031E+02  0.00000000000E+00 0.  1.
<mgrwt>
<rscale>  0 0.23422372E+04</rscale>
<asrwt>0</asrwt>
<pdfrwt beam="1">  1        2 0.14984689E+00 0.23422372E+04</pdfrwt>
<pdfrwt beam="2">  1       -2 0.21663434E+00 0.23422372E+04</pdfrwt>
<totfact> 0.24556381E+00</totfact>
</mgrwt>
</event>
<event>
12    1  0.2214165E-007  0.3527876E+04  0.7818608E-02  0.8107215E-01
         -1   -1    0    0    0  501 -0.00000000000E+00  0.00000000000E+00  0.19715828063E+04  0.19715828063E+04  0.00000000000E+00 0.  1.
          1   -1    0    0  501    0  0.00000000000E+00 -0.00000000000E+00 -0.15781623427E+04  0.15781623427E+04  0.00000000000E+00 0. -1.
         23    2    1    2    0    0 -0.13495248103E+04  0.13800455685E+02 -0.76744355653E+03  0.15552912834E+04  0.92486201866E+02 0.  0.
        254    2    1    2    0    0  0.13495248103E+04 -0.13800455685E+02  0.11608640202E+04  0.19944538657E+04  0.89935159036E+03 0.  0.
        -24    2    4    4    0    0  0.11346268892E+04 -0.20335985061E+03  0.12318603623E+04  0.16889158474E+04  0.78888407274E+02 0.  0.
         24    2    4    4    0    0  0.21489792106E+03  0.18955939493E+03 -0.70996342137E+02  0.30553801834E+03  0.78734486524E+02 0.  0.
         11    1    3    3    0    0 -0.52471666330E+03 -0.19404817286E+01 -0.34990603293E+03  0.63068658943E+03  0.00000000000E+00 0. -1.
        -11    1    3    3    0    0 -0.82480814696E+03  0.15740937414E+02 -0.41753752360E+03  0.92460469392E+03  0.00000000000E+00 0.  1.
          2    1    6    6  502    0  0.30405095529E-01  0.14625652302E+02 -0.18419488330E+02  0.23519952808E+02  0.00000000000E+00 0. -1.
          1    1    5    5  503    0  0.90904427121E+03 -0.13099354736E+03  0.98637460144E+03  0.13477594929E+04  0.00000000000E+00 0. -1.
         -2    1    5    5    0  503  0.22558261799E+03 -0.72366303257E+02  0.24548576085E+03  0.34115635443E+03  0.00000000000E+00 0.  1.
         -1    1    6    6    0  502  0.21486751597E+03  0.17493374263E+03 -0.52576853807E+02  0.28201806553E+03  0.00000000000E+00 0.  1.
<mgrwt>
<rscale>  0 0.35278763E+04</rscale>
<asrwt>0</asrwt>
<pdfrwt beam="1">  1        1 0.24279421E+00 0.35278763E+04</pdfrwt>
<pdfrwt beam="2">  1       -1 0.30332043E+00 0.35278763E+04</pdfrwt>
<totfact> 0.14773917E-01</totfact>
</mgrwt>
</event>
<event>
12    1  0.2214165E-007  0.2174516E+04  0.7818608E-02  0.8529111E-01
         -1   -1    0    0    0  501 -0.00000000000E+00  0.00000000000E+00  0.14247196645E+04  0.14247196645E+04  0.00000000000E+00 0.  1.
          1   -1    0    0  501    0  0.00000000000E+00 -0.00000000000E+00 -0.82972799464E+03  0.82972799464E+03  0.00000000000E+00 0. -1.
         23    2    1    2    0    0 -0.22667256340E+03 -0.81723338198E+03 -0.61138478184E+02  0.85486633615E+03  0.88361120103E+02 0.  0.
        254    2    1    2    0    0  0.22667256340E+03  0.81723338198E+03  0.65613014802E+03  0.13995813230E+04  0.89948332773E+03 0.  0.
        -24    2    4    4    0    0 -0.26650464565E+03  0.11149041165E+01  0.12867796073E+03  0.30716191694E+03  0.82246315853E+02 0.  0.
         24    2    4    4    0    0  0.49317720905E+03  0.81611847786E+03  0.52745218729E+03  0.10924194060E+04  0.76819394539E+02 0.  0.
         11    1    3    3    0    0 -0.14452148169E+02 -0.24155426132E+02  0.12070362977E+02  0.30627485380E+02  0.00000000000E+00 0.  1.
        -11    1    3    3    0    0 -0.21222041523E+03 -0.79307795585E+03 -0.73208841161E+02  0.82423885077E+03  0.00000000000E+00 0. -1.
          2    1    6    6  502    0  0.25921845505E+03  0.37974703875E+03  0.28680737958E+03  0.54190450622E+03  0.00000000000E+00 0. -1.
          3    1    5    5  503    0 -0.23947868722E+03  0.26041396231E+02  0.10130570845E+03  0.26132554891E+03  0.00000000000E+00 0. -1.
         -4    1    5    5    0  503 -0.27025958434E+02 -0.24926492115E+02  0.27372252287E+02  0.45836368025E+02  0.00000000000E+00 0.  1.
         -1    1    6    6    0  502  0.23395875401E+03  0.43637143911E+03  0.24064480771E+03  0.55051489982E+03  0.00000000000E+00 0.  1.
<mgrwt>
<rscale>  0 0.21745158E+04</rscale>
<asrwt>0</asrwt>
<pdfrwt beam="1">  1        1 0.12765046E+00 0.21745158E+04</pdfrwt>
<pdfrwt beam="2">  1       -1 0.21918764E+00 0.21745158E+04</pdfrwt>
<totfact> 0.21217877E+00</totfact>
</mgrwt>
</event>
<event>
12    1  0.2214165E-007  0.1375467E+04  0.7818608E-02  0.8971771E-01
         -2   -1    0    0    0  501 -0.00000000000E+00  0.00000000000E+00  0.18258505490E+03  0.18258505490E+03  0.00000000000E+00 0.  1.
          2   -1    0    0  501    0  0.00000000000E+00 -0.00000000000E+00 -0.25904504650E+04  0.25904504650E+04  0.00000000000E+00 0. -1.
         23    2    1    2    0    0 -0.19959965456E+03  0.31309010381E+03 -0.96315241098E+03  0.10361114290E+04  0.89436521591E+02 0.  0.
        254    2    1    2    0    0  0.19959965456E+03 -0.31309010381E+03 -0.14447129991E+04  0.17369240909E+04  0.88985628752E+03 0.  0.
        -24    2    4    4    0    0  0.46566640494E+03  0.77916394925E+02 -0.81938707960E+03  0.94896434883E+03  0.78879552784E+02 0.  0.
         24    2    4    4    0    0 -0.26606675039E+03 -0.39100649874E+03 -0.62532591952E+03  0.78795974204E+03  0.78552223021E+02 0.  0.
         11    1    3    3    0    0 -0.23103429349E+02  0.16336233430E+01 -0.76071636880E+02  0.79519375692E+02  0.00000000000E+00 0. -1.
        -11    1    3    3    0    0 -0.17649622521E+03  0.31145648047E+03 -0.88708077410E+03  0.95659205334E+03  0.00000000000E+00 0.  1.
          4    1    6    6  502    0 -0.25199420980E+03 -0.32479354002E+03 -0.52203652256E+03  0.66446524085E+03  0.00000000000E+00 0. -1.
          3    1    5    5  503    0  0.31904901425E+03  0.88019160649E+02 -0.59145629067E+03  0.67776115993E+03  0.00000000000E+00 0. -1.
         -4    1    5    5    0  503  0.14661739069E+03 -0.10102765723E+02 -0.22793078893E+03  0.27120318890E+03  0.00000000000E+00 0.  1.
         -3    1    6    6    0  502 -0.14072540587E+02 -0.66212958715E+02 -0.10328939696E+03  0.12349450119E+03  0.00000000000E+00 0.  1.
<mgrwt>
<rscale>  0 0.13754673E+04</rscale>
<asrwt>0</asrwt>
<pdfrwt beam="1">  1        2 0.39853080E+00 0.13754673E+04</pdfrwt>
<pdfrwt beam="2">  1       -2 0.28090011E-01 0.13754673E+04</pdfrwt>
<totfact> 0.34997862E+01</totfact>
</mgrwt>
</event>
<event>
12    1  0.2214165E-007  0.1524299E+04  0.7818608E-02  0.8868453E-01
          2   -1    0    0  501    0  0.00000000000E+00  0.00000000000E+00  0.84635460170E+03  0.84635460170E+03  0.00000000000E+00 0. -1.
         -2   -1    0    0    0  501 -0.00000000000E+00 -0.00000000000E+00 -0.68632253791E+03  0.68632253791E+03  0.00000000000E+00 0.  1.
         23    2    1    2    0    0  0.48383352598E+03  0.69885235106E+02  0.98341972191E+02  0.50667807485E+03  0.89848211431E+02 0.  0.
        254    2    1    2    0    0 -0.48383352598E+03 -0.69885235106E+02  0.61690091602E+02  0.10259990648E+04  0.89993865710E+03 0.  0.
        -24    2    4    4    0    0 -0.59221504819E+03 -0.31188756746E+03 -0.13316753035E+03  0.68702857802E+03  0.79260064598E+02 0.  0.
         24    2    4    4    0    0  0.10838152222E+03  0.24200233235E+03  0.19485762195E+03  0.33897048673E+03  0.81362244438E+02 0.  0.
         11    1    3    3    0    0  0.19973948201E+03  0.62855657845E+02  0.12299390364E+02  0.20975692933E+03  0.00000000000E+00 0.  1.
        -11    1    3    3    0    0  0.28409404396E+03  0.70295772611E+01  0.86042581827E+02  0.29692114552E+03  0.00000000000E+00 0. -1.
          4    1    6    6  502    0  0.43424475921E+02  0.65749101416E+02  0.17683256135E+02  0.80754733568E+02  0.00000000000E+00 0. -1.
          3    1    5    5  503    0 -0.75804984137E+02 -0.55619246799E+02  0.51694175473E+01  0.94162726767E+02  0.00000000000E+00 0. -1.
         -4    1    5    5    0  503 -0.51641006405E+03 -0.25626832066E+03 -0.13833694790E+03  0.59286585126E+03  0.00000000000E+00 0.  1.
         -3    1    6    6    0  502  0.64957046294E+02  0.17625323094E+03  0.17717436582E+03  0.25821575317E+03  0.00000000000E+00 0.  1.
<mgrwt>
<rscale>  0 0.15242995E+04</rscale>
<asrwt>0</asrwt>
<pdfrwt beam="1">  1        2 0.13020840E+00 0.15242995E+04</pdfrwt>
<pdfrwt beam="2">  1       -2 0.10558808E+00 0.15242995E+04</pdfrwt>
<totfact> 0.22335034E+01</totfact>
</mgrwt>
</event>
<event>
12    1  0.2214165E-007  0.1051313E+04  0.7818608E-02  0.9253990E-01
          1   -1    0    0  501    0  0.00000000000E+00  0.00000000000E+00  0.79740626293E+03  0.79740626293E+03  0.00000000000E+00 0. -1.
         -1   -1    0    0    0  501 -0.00000000000E+00 -0.00000000000E+00 -0.34651688531E+03  0.34651688531E+03  0.00000000000E+00 0.  1.
         23    2    1    2    0    0 -0.25681334278E+02  0.87419962565E+02  0.12223048629E+03  0.18042989532E+03  0.96503236015E+02 0.  0.
        254    2    1    2    0    0  0.25681334278E+02 -0.87419962565E+02  0.32865889133E+03  0.96349325292E+03  0.90111087041E+03 0.  0.
        -24    2    4    4    0    0  0.36298358510E+03  0.10807515650E+03 -0.79174147287E+02  0.39391338578E+03  0.73904583052E+02 0.  0.
         24    2    4    4    0    0 -0.33730225082E+03 -0.19549511907E+03  0.40783303862E+03  0.56957986713E+03  0.78117140670E+02 0.  0.
         13    1    3    3    0    0  0.73424822549E+01  0.84037904928E+02  0.12062307336E+03  0.14719445417E+03  0.00000000000E+00 0. -1.
        -13    1    3    3    0    0 -0.33023816533E+02  0.33820576369E+01  0.16074129278E+01  0.33235441152E+02  0.00000000000E+00 0.  1.
          2    1    6    6  502    0 -0.31401780190E+03 -0.17309497833E+03  0.39823759370E+03  0.53587520233E+03  0.00000000000E+00 0. -1.
          1    1    5    5  503    0  0.36536277998E+03  0.11041205671E+03 -0.80896059649E+02  0.39016016676E+03  0.00000000000E+00 0. -1.
         -2    1    5    5    0  503 -0.23791948775E+01 -0.23369002095E+01  0.17219123617E+01  0.37532190231E+01  0.00000000000E+00 0.  1.
         -1    1    6    6    0  502 -0.23284448920E+02 -0.22400140737E+02  0.95954449218E+01  0.33704664808E+02  0.00000000000E+00 0.  1.
<mgrwt>
<rscale>  0 0.10513130E+04</rscale>
<asrwt>0</asrwt>
<pdfrwt beam="1">  1        1 0.12267789E+00 0.10513130E+04</pdfrwt>
<pdfrwt beam="2">  1       -1 0.53310290E-01 0.10513130E+04</pdfrwt>
<totfact> 0.78834155E+01</totfact>
</mgrwt>
</event>
<event>
12    1  0.2214165E-007  0.2287103E+04  0.7818608E-02  0.8483024E-01
          2   -1    0    0  501    0  0.00000000000E+00  0.00000000000E+00  0.12798682220E+04  0.12798682220E+04  0.00000000000E+00 0. -1.
         -2   -1    0    0    0  501 -0.00000000000E+00 -0.00000000000E+00 -0.10217539217E+04  0.10217539217E+04  0.00000000000E+00 0.  1.
         23    2    1    2    0    0  0.75279687931E+03  0.30931898973E+03 -0.41171726923E+03  0.91676735241E+03  0.92573699050E+02 0.  0.
        254    2    1    2    0    0 -0.75279687931E+03 -0.30931898973E+03  0.66983156947E+03  0.13848547913E+04  0.89820213900E+03 0.  0.
        -24    2    4    4    0    0 -0.23482831883E+03  0.96484291229E+02 -0.16949966988E+03  0.31540152374E+03  0.79337414307E+02 0.  0.
         24    2    4    4    0    0 -0.51796856048E+03 -0.40580328096E+03  0.83933123935E+03  0.10694532675E+04  0.79281962548E+02 0.  0.
         11    1    3    3    0    0  0.43962704944E+03  0.20550684817E+03 -0.28858309697E+03  0.56461067215E+03  0.00000000000E+00 0.  1.
        -11    1    3    3    0    0  0.31316982987E+03  0.10381214156E+03 -0.12313417226E+03  0.35215668026E+03  0.00000000000E+00 0. -1.
          2    1    6    6  502    0 -0.45379048080E+03 -0.33204101538E+03  0.67826849438E+03  0.88103642764E+03  0.00000000000E+00 0. -1.
          3    1    5    5  503    0 -0.17554633197E+03  0.32325681459E+02 -0.10908526693E+03  0.20919144297E+03  0.00000000000E+00 0. -1.
         -4    1    5    5    0  503 -0.59281986863E+02  0.64158609769E+02 -0.60414402948E+02  0.10621008077E+03  0.00000000000E+00 0.  1.
         -1    1    6    6    0  502 -0.64178079677E+02 -0.73762265576E+02  0.16106274496E+03  0.18841683987E+03  0.00000000000E+00 0.  1.
<mgrwt>
<rscale>  0 0.22871033E+04</rscale>
<asrwt>0</asrwt>
<pdfrwt beam="1">  1        2 0.19690280E+00 0.22871033E+04</pdfrwt>
<pdfrwt beam="2">  1       -2 0.15719291E+00 0.22871033E+04</pdfrwt>
<totfact> 0.40749090E+00</totfact>
</mgrwt>
</event>
<event>
12    1  0.2214165E-007  0.2665423E+04  0.7818608E-02  0.8346312E-01
         -2   -1    0    0    0  501 -0.00000000000E+00  0.00000000000E+00  0.48987314403E+03  0.48987314403E+03  0.00000000000E+00 0.  1.
          2   -1    0    0  501    0  0.00000000000E+00 -0.00000000000E+00 -0.36256728042E+04  0.36256728042E+04  0.00000000000E+00 0. -1.
         23    2    1    2    0    0 -0.85700666762E+03  0.68677134426E+03 -0.72893216011E+03  0.13211634332E+04  0.89528852429E+02 0.  0.
        254    2    1    2    0    0  0.85700666762E+03 -0.68677134426E+03 -0.24068675000E+04  0.27943825150E+04  0.89969281984E+03 0.  0.
        -24    2    4    4    0    0  0.37700335971E+03  0.16996623068E+02 -0.14954022570E+04  0.15443281968E+04  0.79380417738E+02 0.  0.
         24    2    4    4    0    0  0.48000330791E+03 -0.70376796733E+03 -0.91146524302E+03  0.12500543183E+04  0.78577235356E+02 0.  0.
         11    1    3    3    0    0 -0.49843262291E+03  0.41892713978E+03 -0.48108548116E+03  0.80955436396E+03  0.00000000000E+00 0. -1.
        -11    1    3    3    0    0 -0.35857404470E+03  0.26784420448E+03 -0.24784667894E+03  0.51160906919E+03  0.00000000000E+00 0.  1.
          2    1    6    6  502    0  0.43962801114E+03 -0.67590114179E+03 -0.85386201002E+03  0.11743915334E+04  0.00000000000E+00 0. -1.
          3    1    5    5  503    0  0.28652441847E+03 -0.16253203916E+02 -0.11876926892E+04  0.12218732885E+04  0.00000000000E+00 0. -1.
         -4    1    5    5    0  503  0.90478941246E+02  0.33249826984E+02 -0.30770956777E+03  0.32245490833E+03  0.00000000000E+00 0.  1.
         -1    1    6    6    0  502  0.40375296761E+02 -0.27866825539E+02 -0.57603233009E+02  0.75662784824E+02  0.00000000000E+00 0.  1.
<mgrwt>
<rscale>  0 0.26654228E+04</rscale>
<asrwt>0</asrwt>
<pdfrwt beam="1">  1        2 0.55779581E+00 0.26654228E+04</pdfrwt>
<pdfrwt beam="2">  1       -2 0.75365100E-01 0.26654228E+04</pdfrwt>
<totfact> 0.92002155E-01</totfact>
</mgrwt>
</event>
<event>
12    1  0.2214165E-007  0.1322639E+04  0.7818608E-02  0.9011802E-01
         -2   -1    0    0    0  501 -0.00000000000E+00  0.00000000000E+00  0.28114491626E+03  0.28114491626E+03  0.00000000000E+00 0.  1.
          2   -1    0    0  501    0  0.00000000000E+00 -0.00000000000E+00 -0.15555804374E+04  0.15555804374E+04  0.00000000000E+00 0. -1.
         23    2    1    2    0    0 -0.57351896671E+02 -0.28041495741E+03 -0.61368861349E+03  0.68336157430E+03  0.91910491852E+02 0.  0.
        254    2    1    2    0    0  0.57351896671E+02  0.28041495741E+03 -0.66074690763E+03  0.11533637793E+04  0.90096600557E+03 0.  0.
        -24    2    4    4    0    0 -0.17809324672E+03 -0.26545532838E+03 -0.13448551611E+03  0.35565829520E+03  0.78884301423E+02 0.  0.
         24    2    4    4    0    0  0.23544514339E+03  0.54587028578E+03 -0.52626139152E+03  0.79770548415E+03  0.77292967282E+02 0.  0.
         13    1    3    3    0    0 -0.29481128182E+01 -0.11900085277E+03 -0.34764864363E+03  0.36746356792E+03  0.00000000000E+00 0. -1.
        -13    1    3    3    0    0 -0.54403783853E+02 -0.16141410463E+03 -0.26603996986E+03  0.31589800638E+03  0.00000000000E+00 0.  1.
          2    1    6    6  502    0  0.73800629967E+01  0.55127916670E+02 -0.28734929114E+02  0.62603903052E+02  0.00000000000E+00 0. -1.
          3    1    5    5  503    0 -0.84742700613E+02 -0.76558513948E+02 -0.20270369123E+02  0.11598887546E+03  0.00000000000E+00 0. -1.
         -4    1    5    5    0  503 -0.93350546109E+02 -0.18889681443E+03 -0.11421514699E+03  0.23966941974E+03  0.00000000000E+00 0.  1.
         -1    1    6    6    0  502  0.22806508040E+03  0.49074236911E+03 -0.49752646241E+03  0.73510158110E+03  0.00000000000E+00 0.  1.
<mgrwt>
<rscale>  0 0.13226391E+04</rscale>
<asrwt>0</asrwt>
<pdfrwt beam="1">  1        2 0.23932007E+00 0.13226391E+04</pdfrwt>
<pdfrwt beam="2">  1       -2 0.43253064E-01 0.13226391E+04</pdfrwt>
<totfact> 0.58561545E+01</totfact>
</mgrwt>
</event>
<event>
12    1  0.2214165E-007  0.2873722E+04  0.7818608E-02  0.8280739E-01
          2   -1    0    0  501    0  0.00000000000E+00  0.00000000000E+00  0.53254754035E+04  0.53254754035E+04  0.00000000000E+00 0. -1.
         -2   -1    0    0    0  501 -0.00000000000E+00 -0.00000000000E+00 -0.38767800492E+03  0.38767800492E+03  0.00000000000E+00 0.  1.
         23    2    1    2    0    0 -0.30185631136E+03 -0.91656993804E+03  0.39441575217E+04  0.40614980085E+04  0.90387131587E+02 0.  0.
        254    2    1    2    0    0  0.30185631136E+03  0.91656993804E+03  0.99363987692E+03  0.16516553999E+04  0.89968198326E+03 0.  0.
        -24    2    4    4    0    0  0.15748514266E+03  0.43253514372E+03  0.10375791623E+04  0.11377838268E+04  0.78059577867E+02 0.  0.
         24    2    4    4    0    0  0.14437116870E+03  0.48403479432E+03 -0.43939285413E+02  0.51387157311E+03  0.83669686181E+02 0.  0.
         13    1    3    3    0    0 -0.20260180148E+03 -0.73334180606E+03  0.30848572971E+04  0.31772916514E+04  0.00000000000E+00 0.  1.
        -13    1    3    3    0    0 -0.99254509881E+02 -0.18322813198E+03  0.85930022461E+03  0.88420635719E+03  0.00000000000E+00 0. -1.
          4    1    6    6  502    0  0.91903924224E+02  0.38206800615E+03 -0.57565418737E+01  0.39300818106E+03  0.00000000000E+00 0. -1.
          1    1    5    5  503    0  0.23660291978E+02  0.61500828146E+02  0.22637513266E+03  0.23577078268E+03  0.00000000000E+00 0. -1.
         -2    1    5    5    0  503  0.13382485068E+03  0.37103431558E+03  0.81120402967E+03  0.90201304412E+03  0.00000000000E+00 0.  1.
         -3    1    6    6    0  502  0.52467244471E+02  0.10196678817E+03 -0.38182743540E+02  0.12086339204E+03  0.00000000000E+00 0.  1.
<mgrwt>
<rscale>  0 0.28737221E+04</rscale>
<asrwt>0</asrwt>
<pdfrwt beam="1">  1        2 0.81930386E+00 0.28737221E+04</pdfrwt>
<pdfrwt beam="2">  1       -2 0.59642774E-01 0.28737221E+04</pdfrwt>
<totfact> 0.27063055E-02</totfact>
</mgrwt>
</event>
<event>
12    1  0.2214165E-007  0.1444632E+04  0.7818608E-02  0.8922130E-01
          2   -1    0    0  501    0  0.00000000000E+00  0.00000000000E+00  0.56440216929E+03  0.56440216929E+03  0.00000000000E+00 0. -1.
         -2   -1    0    0    0  501 -0.00000000000E+00 -0.00000000000E+00 -0.92441265689E+03  0.92441265689E+03  0.00000000000E+00 0.  1.
         23    2    1    2    0    0 -0.28734151894E+03 -0.26674002760E+03 -0.30486268987E+03  0.50467979039E+03  0.89694148773E+02 0.  0.
        254    2    1    2    0    0  0.28734151894E+03  0.26674002760E+03 -0.55147797735E+02  0.98413503580E+03  0.90098007651E+03 0.  0.
        -24    2    4    4    0    0 -0.44217745414E+02 -0.29683708177E+03  0.57480935342E+02  0.31578194472E+03  0.79666282444E+02 0.  0.
         24    2    4    4    0    0  0.33155926435E+03  0.56357710937E+03 -0.11262873308E+03  0.66835309108E+03  0.80373620469E+02 0.  0.
         13    1    3    3    0    0 -0.21526996016E+03 -0.14896097413E+03 -0.22485458916E+03  0.34509435496E+03  0.00000000000E+00 0.  1.
        -13    1    3    3    0    0 -0.72071558775E+02 -0.11777905347E+03 -0.80008100707E+02  0.15958543543E+03  0.00000000000E+00 0. -1.
          2    1    6    6  502    0  0.29760538364E+03  0.54121360721E+03 -0.99339449901E+02  0.62557929898E+03  0.00000000000E+00 0. -1.
          1    1    5    5  503    0 -0.87000267757E+01 -0.24860733211E+03  0.59778080642E+02  0.25584119092E+03  0.00000000000E+00 0. -1.
         -2    1    5    5    0  503 -0.35517718638E+02 -0.48229749656E+02 -0.22971452993E+01  0.59940753796E+02  0.00000000000E+00 0.  1.
         -3    1    6    6    0  502  0.33953880706E+02  0.22363502156E+02 -0.13289283176E+02  0.42773792105E+02  0.00000000000E+00 0.  1.
<mgrwt>
<rscale>  0 0.14446321E+04</rscale>
<asrwt>0</asrwt>
<pdfrwt beam="1">  1        2 0.86831103E-01 0.14446321E+04</pdfrwt>
<pdfrwt beam="2">  1       -2 0.14221733E+00 0.14446321E+04</pdfrwt>
<totfact> 0.17842271E+01</totfact>
</mgrwt>
</event>
<event>
12    1  0.2214165E-007  0.2507860E+04  0.7818608E-02  0.8400191E-01
          4   -1    0    0  501    0  0.00000000000E+00  0.00000000000E+00  0.10735270246E+04  0.10735270246E+04  0.00000000000E+00 0. -1.
         -4   -1    0    0    0  501 -0.00000000000E+00 -0.00000000000E+00 -0.14646489864E+04  0.14646489864E+04  0.00000000000E+00 0.  1.
         23    2    1    2    0    0 -0.24629099182E+03  0.39259933515E+03  0.82824720440E+03  0.95339731006E+03  0.90440635938E+02 0.  0.
        254    2    1    2    0    0  0.24629099182E+03 -0.39259933515E+03 -0.12193691662E+04  0.15847787009E+04  0.89992715076E+03 0.  0.
        -24    2    4    4    0    0  0.38141248131E+03  0.90112080248E+02 -0.89921990814E+03  0.98415145713E+03  0.79762017698E+02 0.  0.
         24    2    4    4    0    0 -0.13512148949E+03 -0.48271141540E+03 -0.32014925804E+03  0.60062724374E+03  0.83602697444E+02 0.  0.
         13    1    3    3    0    0 -0.10830577824E+03  0.16309931378E+03  0.44178096042E+03  0.48322038941E+03  0.00000000000E+00 0. -1.
        -13    1    3    3    0    0 -0.13798521358E+03  0.22950002137E+03  0.38646624398E+03  0.47017692065E+03  0.00000000000E+00 0.  1.
          4    1    6    6  502    0 -0.35338490880E+02 -0.44111943288E+02 -0.20380524439E+02  0.60083593890E+02  0.00000000000E+00 0. -1.
          1    1    5    5  503    0  0.36015468446E+01  0.45493358889E+01 -0.90640648722E+00  0.58727480299E+01  0.00000000000E+00 0. -1.
         -2    1    5    5    0  503  0.37781093446E+03  0.85562744360E+02 -0.89831350165E+03  0.97827870910E+03  0.00000000000E+00 0.  1.
         -3    1    6    6    0  502 -0.99782998612E+02 -0.43859947211E+03 -0.29976873360E+03  0.54054364985E+03  0.00000000000E+00 0.  1.
<mgrwt>
<rscale>  0 0.25078599E+04</rscale>
<asrwt>0</asrwt>
<pdfrwt beam="1">  1        4 0.16515800E+00 0.25078599E+04</pdfrwt>
<pdfrwt beam="2">  1       -4 0.22533061E+00 0.25078599E+04</pdfrwt>
<totfact> 0.36763245E-02</totfact>
</mgrwt>
</event>
<event>
12    1  0.2214165E-007  0.2656695E+04  0.7818608E-02  0.8349194E-01
         -1   -1    0    0    0  501 -0.00000000000E+00  0.00000000000E+00  0.10290442628E+04  0.10290442628E+04  0.00000000000E+00 0.  1.
          1   -1    0    0  501    0  0.00000000000E+00 -0.00000000000E+00 -0.17147051492E+04  0.17147051492E+04  0.00000000000E+00 0. -1.
         23    2    1    2    0    0  0.61510912336E+03 -0.83753925239E+03  0.25916794143E+03  0.10749198026E+04  0.91941977585E+02 0.  0.
        254    2    1    2    0    0 -0.61510912336E+03  0.83753925239E+03 -0.94482882778E+03  0.16688296094E+04  0.90136536340E+03 0.  0.
        -24    2    4    4    0    0 -0.17291612008E+03  0.63573645929E+01 -0.65324845828E+03  0.68051280984E+03  0.80148209180E+02 0.  0.
         24    2    4    4    0    0 -0.44219300328E+03  0.83118188779E+03 -0.29158036950E+03  0.98831679952E+03  0.73164209775E+02 0.  0.
         13    1    3    3    0    0  0.28724465208E+02 -0.38242583702E+02  0.33044500816E+02  0.58133717788E+02  0.00000000000E+00 0.  1.
        -13    1    3    3    0    0  0.58638465815E+03 -0.79929666869E+03  0.22612344062E+03  0.10167860848E+04  0.00000000000E+00 0. -1.
          2    1    6    6  502    0 -0.21212229671E+03  0.47601507930E+03 -0.15837437740E+03  0.54467299171E+03  0.00000000000E+00 0. -1.
          3    1    5    5  503    0 -0.11459874544E+03 -0.34264133986E+02 -0.40609809366E+03  0.42334686134E+03  0.00000000000E+00 0. -1.
         -4    1    5    5    0  503 -0.58317374638E+02  0.40621498579E+02 -0.24715036462E+03  0.25716594849E+03  0.00000000000E+00 0.  1.
         -1    1    6    6    0  502 -0.23007070657E+03  0.35516680849E+03 -0.13320599210E+03  0.44364380781E+03  0.00000000000E+00 0.  1.
<mgrwt>
<rscale>  0 0.26566953E+04</rscale>
<asrwt>0</asrwt>
<pdfrwt beam="1">  1        1 0.26380079E+00 0.26566953E+04</pdfrwt>
<pdfrwt beam="2">  1       -1 0.15831450E+00 0.26566953E+04</pdfrwt>
<totfact> 0.12285395E+00</totfact>
</mgrwt>
</event>
<event>
12    1  0.2214165E-007  0.2583968E+04  0.7818608E-02  0.8373667E-01
         -2   -1    0    0    0  501 -0.00000000000E+00  0.00000000000E+00  0.55856864879E+03  0.55856864879E+03  0.00000000000E+00 0.  1.
          2   -1    0    0  501    0  0.00000000000E+00 -0.00000000000E+00 -0.29883926460E+04  0.29883926460E+04  0.00000000000E+00 0. -1.
         23    2    1    2    0    0 -0.78435362219E+02 -0.21868512166E+03 -0.25922771872E+04  0.26042317083E+04  0.90257890458E+02 0.  0.
        254    2    1    2    0    0  0.78435362219E+02  0.21868512166E+03  0.16245318996E+03  0.94272958652E+03  0.89909551544E+03 0.  0.
        -24    2    4    4    0    0 -0.25261589611E+03 -0.17247484478E+03 -0.13686681588E+03  0.34407453255E+03  0.78053799466E+02 0.  0.
         24    2    4    4    0    0  0.33105125833E+03  0.39115996645E+03  0.29932000585E+03  0.59865505396E+03  0.78704210459E+02 0.  0.
         13    1    3    3    0    0 -0.60161293663E+02 -0.19481202821E+03 -0.24664377121E+04  0.24748507218E+04  0.00000000000E+00 0. -1.
        -13    1    3    3    0    0 -0.18274068556E+02 -0.23873093450E+02 -0.12583947508E+03  0.12938098648E+03  0.00000000000E+00 0.  1.
          4    1    6    6  502    0  0.27471870041E+03  0.36320854033E+03  0.26789374526E+03  0.52835392197E+03  0.00000000000E+00 0. -1.
          3    1    5    5  503    0 -0.21841452623E+03 -0.13169162842E+03 -0.82660102668E+02  0.26810498473E+03  0.00000000000E+00 0. -1.
         -4    1    5    5    0  503 -0.34201369878E+02 -0.40783216366E+02 -0.54206713217E+02  0.75969547823E+02  0.00000000000E+00 0.  1.
         -3    1    6    6    0  502  0.56332557920E+02  0.27951426121E+02  0.31426260594E+02  0.70301131989E+02  0.00000000000E+00 0.  1.
<mgrwt>
<rscale>  0 0.25839678E+04</rscale>
<asrwt>0</asrwt>
<pdfrwt beam="1">  1        2 0.45975272E+00 0.25839678E+04</pdfrwt>
<pdfrwt beam="2">  1       -2 0.85933638E-01 0.25839678E+04</pdfrwt>
<totfact> 0.18429532E+00</totfact>
</mgrwt>
</event>
<event>
12    1  0.2214165E-007  0.2072716E+04  0.7818608E-02  0.8573358E-01
         -1   -1    0    0    0  501 -0.00000000000E+00  0.00000000000E+00  0.38422922297E+03  0.38422922297E+03  0.00000000000E+00 0.  1.
          1   -1    0    0  501    0  0.00000000000E+00 -0.00000000000E+00 -0.27953048651E+04  0.27953048651E+04  0.00000000000E+00 0. -1.
         23    2    1    2    0    0  0.13395359545E+03  0.66030292781E+03 -0.17451520345E+04  0.18728343655E+04  0.89495334169E+02 0.  0.
        254    2    1    2    0    0 -0.13395359545E+03 -0.66030292781E+03 -0.66592360761E+03  0.13066997226E+04  0.90003688345E+03 0.  0.
        -24    2    4    4    0    0  0.25431031825E+03 -0.45711828021E+03 -0.67967483579E+03  0.86123926812E+03  0.78385805297E+02 0.  0.
         24    2    4    4    0    0 -0.38826391371E+03 -0.20318464760E+03  0.13751228174E+02  0.44546045445E+03  0.78822918618E+02 0.  0.
         13    1    3    3    0    0  0.21228709324E+02  0.18951241047E+03 -0.59959918396E+03  0.62919376445E+03  0.00000000000E+00 0. -1.
        -13    1    3    3    0    0  0.11272488613E+03  0.47079051734E+03 -0.11455528505E+04  0.12436406010E+04  0.00000000000E+00 0.  1.
          4    1    6    6  502    0 -0.38750234081E+03 -0.18925933187E+03  0.12139641974E+02  0.43142152211E+03  0.00000000000E+00 0. -1.
          1    1    5    5  503    0  0.16100278015E+03 -0.33837618242E+03 -0.43988192854E+03  0.57785503986E+03  0.00000000000E+00 0. -1.
         -2    1    5    5    0  503  0.93307538100E+02 -0.11874209780E+03 -0.23979290725E+03  0.28338422826E+03  0.00000000000E+00 0.  1.
         -3    1    6    6    0  502 -0.76157289949E+00 -0.13925315722E+02  0.16115861999E+01  0.14038932343E+02  0.00000000000E+00 0.  1.
<mgrwt>
<rscale>  0 0.20727159E+04</rscale>
<asrwt>0</asrwt>
<pdfrwt beam="1">  1        1 0.43004689E+00 0.20727159E+04</pdfrwt>
<pdfrwt beam="2">  1       -1 0.59112190E-01 0.20727159E+04</pdfrwt>
<totfact> 0.22479444E+00</totfact>
</mgrwt>
</event>
<event>
12    1  0.2214165E-007  0.1838905E+04  0.7818608E-02  0.8685879E-01
          2   -1    0    0  501    0  0.00000000000E+00  0.00000000000E+00  0.17183353188E+04  0.17183353188E+04  0.00000000000E+00 0. -1.
         -2   -1    0    0    0  501 -0.00000000000E+00 -0.00000000000E+00 -0.49198388893E+03  0.49198388893E+03  0.00000000000E+00 0.  1.
         23    2    1    2    0    0  0.52020987861E+03  0.32478744116E+03  0.86646796040E+03  0.10652016700E+04  0.88219451504E+02 0.  0.
        254    2    1    2    0    0 -0.52020987861E+03 -0.32478744116E+03  0.35988346947E+03  0.11451175377E+04  0.89759281632E+03 0.  0.
        -24    2    4    4    0    0 -0.72007709916E+03 -0.26532835732E+03  0.46165434838E+03  0.89947069864E+03  0.83741473569E+02 0.  0.
         24    2    4    4    0    0  0.19986722055E+03 -0.59459083841E+02 -0.10177087891E+03  0.24564683910E+03  0.80639749891E+02 0.  0.
         13    1    3    3    0    0  0.29605328951E+03  0.18858241126E+03  0.56949476120E+03  0.66898068664E+03  0.00000000000E+00 0. -1.
        -13    1    3    3    0    0  0.22415658909E+03  0.13620502990E+03  0.29697319920E+03  0.39622098335E+03  0.00000000000E+00 0.  1.
          2    1    6    6  502    0  0.16787665259E+03 -0.60287963749E+02 -0.11365996890E+03  0.21150838656E+03  0.00000000000E+00 0. -1.
          1    1    5    5  503    0 -0.51656760753E+03 -0.14946875397E+03  0.32489304790E+03  0.62828217716E+03  0.00000000000E+00 0. -1.
         -2    1    5    5    0  503 -0.20350949163E+03 -0.11585960335E+03  0.13676130048E+03  0.27118852148E+03  0.00000000000E+00 0.  1.
         -1    1    6    6    0  502  0.31990567970E+02  0.82887990854E+00  0.11889089988E+02  0.34138452538E+02  0.00000000000E+00 0.  1.
<mgrwt>
<rscale>  0 0.18389054E+04</rscale>
<asrwt>0</asrwt>
<pdfrwt beam="1">  1        2 0.26435928E+00 0.18389054E+04</pdfrwt>
<pdfrwt beam="2">  1       -2 0.75689830E-01 0.18389054E+04</pdfrwt>
<totfact> 0.14104559E+01</totfact>
</mgrwt>
</event>
<event>
12    1  0.2214165E-007  0.1430059E+04  0.7818608E-02  0.8932343E-01
          2   -1    0    0  501    0  0.00000000000E+00  0.00000000000E+00  0.95657998755E+03  0.95657998755E+03  0.00000000000E+00 0. -1.
         -2   -1    0    0    0  501 -0.00000000000E+00 -0.00000000000E+00 -0.53447427600E+03  0.53447427600E+03  0.00000000000E+00 0.  1.
         23    2    1    2    0    0  0.95619962762E+02 -0.39083364581E+03  0.26227037098E+02  0.41303351087E+03  0.89524899625E+02 0.  0.
        254    2    1    2    0    0 -0.95619962762E+02  0.39083364581E+03  0.39587867445E+03  0.10780207527E+04  0.91843056480E+03 0.  0.
        -24    2    4    4    0    0 -0.42538881693E+03  0.34514970704E+03  0.28493916913E+00  0.55443199126E+03  0.85503133878E+02 0.  0.
         24    2    4    4    0    0  0.32976885417E+03  0.45683938768E+02  0.39559373528E+03  0.52358876142E+03  0.82560694364E+02 0.  0.
         13    1    3    3    0    0  0.47289575557E+02 -0.16585414874E+03 -0.32606166111E+02  0.17551941397E+03  0.00000000000E+00 0.  1.
        -13    1    3    3    0    0  0.48330387205E+02 -0.22497949706E+03  0.58833203209E+02  0.23751409690E+03  0.00000000000E+00 0. -1.
          4    1    6    6  502    0  0.22107529127E+03  0.54062679109E+01  0.30361459734E+03  0.37561327966E+03  0.00000000000E+00 0. -1.
          3    1    5    5  503    0 -0.40699507449E+03  0.32068321375E+03 -0.18562017615E+02  0.51848554727E+03  0.00000000000E+00 0. -1.
         -4    1    5    5    0  503 -0.18393742445E+02  0.24466493294E+02  0.18846956784E+02  0.35946443986E+02  0.00000000000E+00 0.  1.
         -3    1    6    6    0  502  0.10869356290E+03  0.40277670857E+02  0.91979137945E+02  0.14797548176E+03  0.00000000000E+00 0.  1.
<mgrwt>
<rscale>  0 0.14300593E+04</rscale>
<asrwt>0</asrwt>
<pdfrwt beam="1">  1        2 0.14716615E+00 0.14300593E+04</pdfrwt>
<pdfrwt beam="2">  1       -2 0.82226812E-01 0.14300593E+04</pdfrwt>
<totfact> 0.33926851E+01</totfact>
</mgrwt>
</event>
<event>
12    1  0.2214165E-007  0.2236113E+04  0.7818608E-02  0.8503545E-01
         -2   -1    0    0    0  501 -0.00000000000E+00  0.00000000000E+00  0.22468587728E+04  0.22468587728E+04  0.00000000000E+00 0.  1.
          2   -1    0    0  501    0  0.00000000000E+00 -0.00000000000E+00 -0.55635487850E+03  0.55635487850E+03  0.00000000000E+00 0. -1.
         23    2    1    2    0    0  0.44755584220E+03 -0.71721027163E+03  0.12082997705E+04  0.14775423324E+04  0.91903225650E+02 0.  0.
        254    2    1    2    0    0 -0.44755584220E+03  0.71721027163E+03  0.48220412376E+03  0.13256713189E+04  0.90010378467E+03 0.  0.
        -24    2    4    4    0    0 -0.70386592243E+03  0.41202583335E+03  0.24846517501E+03  0.85671696190E+03  0.83883761879E+02 0.  0.
         24    2    4    4    0    0  0.25631008022E+03  0.30518443828E+03  0.23373894874E+03  0.46895435701E+03  0.80323683959E+02 0.  0.
         13    1    3    3    0    0  0.35580526468E+03 -0.51054987456E+03  0.92938484671E+03  0.11184877085E+04  0.00000000000E+00 0.  1.
        -13    1    3    3    0    0  0.91750577519E+02 -0.20666039707E+03  0.27891492381E+03  0.35905462387E+03  0.00000000000E+00 0. -1.
          4    1    6    6  502    0  0.51389373381E+02  0.81935767643E+02  0.95335659916E+02  0.13580583849E+03  0.00000000000E+00 0. -1.
          3    1    5    5  503    0 -0.38047349591E+03  0.17536081032E+03  0.13677936035E+03  0.44070408247E+03  0.00000000000E+00 0. -1.
         -4    1    5    5    0  503 -0.32339242652E+03  0.23666502303E+03  0.11168581466E+03  0.41601287943E+03  0.00000000000E+00 0.  1.
         -3    1    6    6    0  502  0.20492070684E+03  0.22324867064E+03  0.13840328883E+03  0.33314851852E+03  0.00000000000E+00 0.  1.
<mgrwt>
<rscale>  0 0.22361134E+04</rscale>
<asrwt>0</asrwt>
<pdfrwt beam="1">  1        2 0.85593060E-01 0.22361134E+04</pdfrwt>
<pdfrwt beam="2">  1       -2 0.34567058E+00 0.22361134E+04</pdfrwt>
<totfact> 0.82087028E-01</totfact>
</mgrwt>
</event>
<event>
12    1  0.3716423E-007  0.3437457E+04  0.7818608E-02  0.8128774E-01
          2   -1    0    0  501    0  0.00000000000E+00  0.00000000000E+00  0.18453132533E+04  0.18453132533E+04  0.00000000000E+00 0. -1.
         -2   -1    0    0    0  501 -0.00000000000E+00 -0.00000000000E+00 -0.16008270298E+04  0.16008270298E+04  0.00000000000E+00 0.  1.
         23    2    1    2    0    0  0.13244456066E+04  0.80999168612E+03 -0.27177939424E+03  0.15787861580E+04  0.91972806734E+02 0.  0.
        254    2    1    2    0    0 -0.13244456066E+04 -0.80999168612E+03  0.51626561777E+03  0.18673541251E+04  0.90013251471E+03 0.  0.
        -24    2    4    4    0    0 -0.11488578130E+04 -0.91302406094E+03  0.65397236803E+03  0.16081679882E+04  0.70973304600E+02 0.  0.
         24    2    4    4    0    0 -0.17558779361E+03  0.10303237482E+03 -0.13770675027E+03  0.25918613685E+03  0.82265186693E+02 0.  0.
         13    1    3    3    0    0  0.57349131617E+03  0.29936601124E+03 -0.12485594626E+03  0.65886364729E+03  0.00000000000E+00 0.  1.
        -13    1    3    3    0    0  0.75095429039E+03  0.51062567488E+03 -0.14692344797E+03  0.91992251068E+03  0.00000000000E+00 0. -1.
          4    1    6    6  502    0 -0.11434970828E+03  0.10889757493E+03 -0.10339603573E+03  0.18874659683E+03  0.00000000000E+00 0. -1.
          3    1    5    5  503    0 -0.10571549051E+04 -0.82118549979E+03  0.58098348924E+03  0.14592682869E+04  0.00000000000E+00 0. -1.
         -4    1    5    5    0  503 -0.91702907893E+02 -0.91838561152E+02  0.72988878789E+02  0.14889970133E+03  0.00000000000E+00 0.  1.
         -3    1    6    6    0  502 -0.61238085324E+02 -0.58652001081E+01 -0.34310714539E+02  0.70439540023E+02  0.00000000000E+00 0.  1.
<mgrwt>
<rscale>  0 0.34374568E+04</rscale>
<asrwt>0</asrwt>
<pdfrwt beam="1">  1        2 0.28389435E+00 0.34374568E+04</pdfrwt>
<pdfrwt beam="2">  1       -2 0.24628108E+00 0.34374568E+04</pdfrwt>
<totfact> 0.45564112E-01</totfact>
</mgrwt>
</event>
<event>
12    1  0.2214165E-007  0.4236691E+04  0.7818608E-02  0.7958429E-01
         -2   -1    0    0    0  501 -0.00000000000E+00  0.00000000000E+00  0.16095451357E+04  0.16095451357E+04  0.00000000000E+00 0.  1.
          2   -1    0    0  501    0  0.00000000000E+00 -0.00000000000E+00 -0.27879848491E+04  0.27879848491E+04  0.00000000000E+00 0. -1.
         23    2    1    2    0    0  0.41884250572E+03 -0.16879149805E+04 -0.16300955455E+04  0.23854078269E+04  0.92048829832E+02 0.  0.
        254    2    1    2    0    0 -0.41884250572E+03  0.16879149805E+04  0.45165583216E+03  0.20121221579E+04  0.90562495626E+03 0.  0.
        -24    2    4    4    0    0 -0.63779345017E+03  0.15704482354E+04  0.35491421218E+03  0.17335238584E+04  0.77799258667E+02 0.  0.
         24    2    4    4    0    0  0.21895094445E+03  0.11746674515E+03  0.96741619980E+02  0.27859829944E+03  0.80747254596E+02 0.  0.
         13    1    3    3    0    0  0.33761447138E+03 -0.13001579204E+04 -0.12087637625E+04  0.18070705528E+04  0.00000000000E+00 0. -1.
        -13    1    3    3    0    0  0.81228034336E+02 -0.38775706013E+03 -0.42133178304E+03  0.57833727412E+03  0.00000000000E+00 0.  1.
          2    1    6    6  502    0  0.51545624856E+02  0.59255876034E+02  0.56776078358E+02  0.96910955831E+02  0.00000000000E+00 0. -1.
          1    1    5    5  503    0 -0.46977692609E+03  0.11539286188E+04  0.22562620159E+03  0.12661551249E+04  0.00000000000E+00 0. -1.
         -2    1    5    5    0  503 -0.16801652408E+03  0.41651961659E+03  0.12928801059E+03  0.46736873350E+03  0.00000000000E+00 0.  1.
         -1    1    6    6    0  502  0.16740531960E+03  0.58210869113E+02  0.39965541622E+02  0.18168734361E+03  0.00000000000E+00 0.  1.
<mgrwt>
<rscale>  0 0.42366909E+04</rscale>
<asrwt>0</asrwt>
<pdfrwt beam="1">  1        2 0.42892074E+00 0.42366909E+04</pdfrwt>
<pdfrwt beam="2">  1       -2 0.24762233E+00 0.42366909E+04</pdfrwt>
<totfact> 0.12093741E-01</totfact>
</mgrwt>
</event>
<event>
12    1  0.2214165E-007  0.2521523E+04  0.7818608E-02  0.8395358E-01
          2   -1    0    0  501    0  0.00000000000E+00  0.00000000000E+00  0.23559848374E+04  0.23559848374E+04  0.00000000000E+00 0.  1.
         -2   -1    0    0    0  501 -0.00000000000E+00 -0.00000000000E+00 -0.67467328397E+03  0.67467328397E+03  0.00000000000E+00 0. -1.
         23    2    1    2    0    0  0.10818846877E+04 -0.80630995039E+02  0.91401940956E+03  0.14214602577E+04  0.90232745907E+02 0.  0.
        254    2    1    2    0    0 -0.10818846877E+04  0.80630995039E+02  0.76729214389E+03  0.16091978637E+04  0.90763687426E+03 0.  0.
        -24    2    4    4    0    0  0.89179484501E+02  0.19953691482E+03  0.98121315573E+02  0.25292651225E+03  0.81092954052E+02 0.  0.
         24    2    4    4    0    0 -0.11710641722E+04 -0.11890591978E+03  0.66917082832E+03  0.13562713514E+04  0.78437669727E+02 0.  0.
         13    1    3    3    0    0  0.19787993203E+03  0.32717209321E+01  0.20707092623E+03  0.28643592677E+03  0.00000000000E+00 0.  1.
        -13    1    3    3    0    0  0.88400475567E+03 -0.83902715971E+02  0.70694848334E+03  0.11350243310E+04  0.00000000000E+00 0. -1.
          4    1    6    6  502    0 -0.89779515855E+03 -0.12437089173E+03  0.51552432886E+03  0.10427222061E+04  0.00000000000E+00 0. -1.
          1    1    5    5  503    0  0.96809325910E+02  0.14500564627E+03  0.54476797366E+02  0.18266473246E+03  0.00000000000E+00 0. -1.
         -2    1    5    5    0  503 -0.76298414095E+01  0.54531268549E+02  0.43644518207E+02  0.70261779788E+02  0.00000000000E+00 0.  1.
         -3    1    6    6    0  502 -0.27326901364E+03  0.54649719500E+01  0.15364649946E+03  0.31354914532E+03  0.00000000000E+00 0.  1.
<mgrwt>
<rscale>  0 0.25215234E+04</rscale>
<asrwt>0</asrwt>
<pdfrwt beam="1">  1        2 0.36245920E+00 0.25215234E+04</pdfrwt>
<pdfrwt beam="2">  1       -2 0.10379589E+00 0.25215234E+04</pdfrwt>
<totfact> 0.28339640E+00</totfact>
</mgrwt>
</event>
<event>
12    1  0.2214165E-007  0.1213642E+04  0.7818608E-02  0.9100998E-01
         -2   -1    0    0    0  501 -0.00000000000E+00  0.00000000000E+00  0.12076388014E+03  0.12076388014E+03  0.00000000000E+00 0.  1.
          2   -1    0    0  501    0  0.00000000000E+00 -0.00000000000E+00 -0.30491900729E+04  0.30491900729E+04  0.00000000000E+00 0. -1.
         23    2    1    2    0    0  0.11726735911E+03  0.17876995501E+03 -0.27477952393E+03  0.35972200386E+03  0.90475427425E+02 0.  0.
        254    2    1    2    0    0 -0.11726735911E+03 -0.17876995501E+03 -0.26536466688E+04  0.28102319492E+04  0.89991812675E+03 0.  0.
        -24    2    4    4    0    0 -0.20530088274E+02 -0.33161501617E+01 -0.25834403938E+04  0.25847543907E+04  0.79740271681E+02 0.  0.
         24    2    4    4    0    0 -0.96737270831E+02 -0.17545380485E+03 -0.70206275069E+02  0.22547755844E+03  0.75954401441E+02 0.  0.
         13    1    3    3    0    0  0.12534727329E+03  0.17874564442E+03 -0.24183332676E+03  0.32579948166E+03  0.00000000000E+00 0.  1.
        -13    1    3    3    0    0 -0.80799141892E+01  0.24310587833E-01 -0.32946197172E+02  0.33922522200E+02  0.00000000000E+00 0. -1.
          4    1    6    6  502    0 -0.30895421120E+02 -0.18623075044E+02 -0.37940690978E+02  0.52353051508E+02  0.00000000000E+00 0. -1.
          3    1    5    5  503    0  0.26888837026E+02  0.91773416587E-01 -0.15363562361E+04  0.15365915209E+04  0.00000000000E+00 0. -1.
         -4    1    5    5    0  503 -0.47418925299E+02 -0.34079235783E+01 -0.10470841576E+04  0.10481628698E+04  0.00000000000E+00 0.  1.
         -3    1    6    6    0  502 -0.65841849711E+02 -0.15683072981E+03 -0.32265584090E+02  0.17312450694E+03  0.00000000000E+00 0.  1.
<mgrwt>
<rscale>  0 0.12136425E+04</rscale>
<asrwt>0</asrwt>
<pdfrwt beam="1">  1        2 0.46910613E+00 0.12136425E+04</pdfrwt>
<pdfrwt beam="2">  1       -2 0.18579060E-01 0.12136425E+04</pdfrwt>
<totfact> 0.39453794E+01</totfact>
</mgrwt>
</event>
<event>
12    1  0.2643866E-007  0.1621665E+04  0.7818608E-02  0.8807348E-01
          1   -1    0    0  501    0  0.00000000000E+00  0.00000000000E+00  0.16353134177E+04  0.16353134177E+04  0.00000000000E+00 0. -1.
         -1   -1    0    0    0  501 -0.00000000000E+00 -0.00000000000E+00 -0.40203286029E+03  0.40203286029E+03  0.00000000000E+00 0.  1.
         23    2    1    2    0    0  0.48807341172E+03 -0.26777471794E+03  0.41959030567E+03  0.70293780940E+03  0.90258431586E+02 0.  0.
        254    2    1    2    0    0 -0.48807341172E+03  0.26777471794E+03  0.81369025170E+03  0.13344084686E+04  0.89924144724E+03 0.  0.
        -24    2    4    4    0    0 -0.48323255506E+03  0.49835975620E+03  0.83596784296E+03  0.10894249404E+04  0.78283570123E+02 0.  0.
         24    2    4    4    0    0 -0.48408566645E+01 -0.23058503826E+03 -0.22277591256E+02  0.24498352819E+03  0.79547119696E+02 0.  0.
         13    1    3    3    0    0  0.19896919962E+03 -0.93330652688E+02  0.21866340709E+03  0.31002102949E+03  0.00000000000E+00 0. -1.
        -13    1    3    3    0    0  0.28910421211E+03 -0.17444406525E+03  0.20092689858E+03  0.39291677991E+03  0.00000000000E+00 0.  1.
          2    1    6    6  502    0 -0.13975148640E+02 -0.22736660772E+03 -0.33404804764E+02  0.23023197012E+03  0.00000000000E+00 0. -1.
          1    1    5    5  503    0 -0.44444916567E+03  0.46728785311E+03  0.80248487357E+03  0.10295022928E+04  0.00000000000E+00 0. -1.
         -2    1    5    5    0  503 -0.38783389387E+02  0.31071903088E+02  0.33482969386E+02  0.59922647578E+02  0.00000000000E+00 0.  1.
         -1    1    6    6    0  502  0.91342919752E+01 -0.32184305377E+01  0.11127213508E+02  0.14751558069E+02  0.00000000000E+00 0.  1.
<mgrwt>
<rscale>  0 0.16216655E+04</rscale>
<asrwt>0</asrwt>
<pdfrwt beam="1">  1        1 0.25158668E+00 0.16216655E+04</pdfrwt>
<pdfrwt beam="2">  1       -1 0.61851210E-01 0.16216655E+04</pdfrwt>
<totfact> 0.13401078E+01</totfact>
</mgrwt>
</event>
<event>
12    1  0.2214165E-007  0.3107221E+04  0.7818608E-02  0.8213759E-01
         -1   -1    0    0    0  501 -0.00000000000E+00  0.00000000000E+00  0.16141327322E+04  0.16141327322E+04  0.00000000000E+00 0.  1.
          1   -1    0    0  501    0  0.00000000000E+00 -0.00000000000E+00 -0.14953579210E+04  0.14953579210E+04  0.00000000000E+00 0. -1.
         23    2    1    2    0    0  0.83222831786E+03  0.10465097630E+04 -0.42824109027E+03  0.14069258173E+04  0.90901963207E+02 0.  0.
        254    2    1    2    0    0 -0.83222831786E+03 -0.10465097630E+04  0.54701590145E+03  0.17025648359E+04  0.90095170055E+03 0.  0.
        -24    2    4    4    0    0 -0.58307854575E+03 -0.71572043323E+03  0.78890143823E+03  0.12168180407E+04  0.77745326729E+02 0.  0.
         24    2    4    4    0    0 -0.24914977212E+03 -0.33078932978E+03 -0.24188553677E+03  0.48574679518E+03  0.77098291069E+02 0.  0.
         13    1    3    3    0    0  0.31051969480E+03  0.32627271063E+03 -0.12752973063E+03  0.46812412324E+03  0.00000000000E+00 0. -1.
        -13    1    3    3    0    0  0.52170862307E+03  0.72023705238E+03 -0.30071135963E+03  0.93880169408E+03  0.00000000000E+00 0.  1.
          2    1    6    6  502    0 -0.27376647211E+02 -0.83612284714E+02 -0.65818588948E+02  0.10987530031E+03  0.00000000000E+00 0. -1.
          1    1    5    5  503    0 -0.48714396331E+03 -0.56360081481E+03  0.66328478280E+03  0.99744765403E+03  0.00000000000E+00 0. -1.
         -2    1    5    5    0  503 -0.95934582441E+02 -0.15211961842E+03  0.12561665542E+03  0.21937038664E+03  0.00000000000E+00 0.  1.
         -1    1    6    6    0  502 -0.22177312491E+03 -0.24717704507E+03 -0.17606694782E+03  0.37587149487E+03  0.00000000000E+00 0.  1.
<mgrwt>
<rscale>  0 0.31072214E+04</rscale>
<asrwt>0</asrwt>
<pdfrwt beam="1">  1        1 0.23005506E+00 0.31072214E+04</pdfrwt>
<pdfrwt beam="2">  1       -1 0.24832811E+00 0.31072214E+04</pdfrwt>
<totfact> 0.39735738E-01</totfact>
</mgrwt>
</event>
<event>
12    1  0.2214165E-007  0.1709322E+04  0.7818608E-02  0.8756065E-01
         -2   -1    0    0    0  501 -0.00000000000E+00  0.00000000000E+00  0.86781385359E+03  0.86781385359E+03  0.00000000000E+00 0.  1.
          2   -1    0    0  501    0  0.00000000000E+00 -0.00000000000E+00 -0.84170787503E+03  0.84170787503E+03  0.00000000000E+00 0. -1.
         23    2    1    2    0    0  0.23168743886E+03 -0.53052874922E+03 -0.19058282899E+03  0.61669636606E+03  0.94089160550E+02 0.  0.
        254    2    1    2    0    0 -0.23168743886E+03  0.53052874922E+03  0.21668880754E+03  0.10928253626E+04  0.90120664150E+03 0.  0.
        -24    2    4    4    0    0 -0.52972815455E+03  0.11380287096E+03  0.61333635728E+02  0.55141011310E+03  0.82026134847E+02 0.  0.
         24    2    4    4    0    0  0.29804071569E+03  0.41672587826E+03  0.15535517181E+03  0.54141524946E+03  0.80662984834E+02 0.  0.
         13    1    3    3    0    0  0.13303583635E+03 -0.21942286127E+03 -0.11758088369E+03  0.28225908313E+03  0.00000000000E+00 0.  1.
        -13    1    3    3    0    0  0.98651602510E+02 -0.31110588795E+03 -0.73001945292E+02  0.33443728293E+03  0.00000000000E+00 0. -1.
          2    1    6    6  502    0  0.68796077740E+02  0.14889169265E+03  0.72145280080E+02  0.17918308483E+03  0.00000000000E+00 0. -1.
          1    1    5    5  503    0 -0.25730333818E+03  0.19807612866E+02  0.70716533220E+01  0.25816149528E+03  0.00000000000E+00 0. -1.
         -2    1    5    5    0  503 -0.27242481637E+03  0.93995258092E+02  0.54261982406E+02  0.29324861782E+03  0.00000000000E+00 0.  1.
         -1    1    6    6    0  502  0.22924463795E+03  0.26783418561E+03  0.83209891729E+02  0.36223216463E+03  0.00000000000E+00 0.  1.
<mgrwt>
<rscale>  0 0.17093224E+04</rscale>
<asrwt>0</asrwt>
<pdfrwt beam="1">  1        2 0.12949352E+00 0.17093224E+04</pdfrwt>
<pdfrwt beam="2">  1       -2 0.13350982E+00 0.17093224E+04</pdfrwt>
<totfact> 0.12411135E+01</totfact>
</mgrwt>
</event>
<event>
12    1  0.2214165E-007  0.2467870E+04  0.7818608E-02  0.8414522E-01
          1   -1    0    0  501    0  0.00000000000E+00  0.00000000000E+00  0.14535874125E+04  0.14535874125E+04  0.00000000000E+00 0. -1.
         -1   -1    0    0    0  501 -0.00000000000E+00 -0.00000000000E+00 -0.10474745732E+04  0.10474745732E+04  0.00000000000E+00 0.  1.
         23    2    1    2    0    0  0.94865650038E+03 -0.42466741007E+03  0.42333610107E+03  0.11265076293E+04  0.97541885753E+02 0.  0.
        254    2    1    2    0    0 -0.94865650038E+03  0.42466741007E+03 -0.17223261717E+02  0.13745543564E+04  0.89933946485E+03 0.  0.
        -24    2    4    4    0    0  0.11111000436E+03 -0.88522751844E+02  0.99295770131E+02  0.18865649188E+03  0.74497726813E+02 0.  0.
         24    2    4    4    0    0 -0.10597665047E+04  0.51319016191E+03 -0.11651903185E+03  0.11858978645E+04  0.79422121702E+02 0.  0.
         11    1    3    3    0    0  0.26093268767E+03 -0.15202100353E+03  0.15590542725E+03  0.33985696294E+03  0.00000000000E+00 0. -1.
        -11    1    3    3    0    0  0.68772381271E+03 -0.27264640654E+03  0.26743067381E+03  0.78665066634E+03  0.00000000000E+00 0.  1.
          2    1    6    6  502    0 -0.14390806979E+03  0.41763084842E+02 -0.67487261742E+01  0.14999744369E+03  0.00000000000E+00 0. -1.
          3    1    5    5  503    0  0.10080874333E+03 -0.40147643387E+02  0.52400848990E+02  0.12049931525E+03  0.00000000000E+00 0. -1.
         -4    1    5    5    0  503  0.10301261026E+02 -0.48375108457E+02  0.46894921141E+02  0.68157176627E+02  0.00000000000E+00 0.  1.
         -1    1    6    6    0  502 -0.91585843494E+03  0.47142707707E+03 -0.10977030567E+03  0.10359004208E+04  0.00000000000E+00 0.  1.
<mgrwt>
<rscale>  0 0.24678702E+04</rscale>
<asrwt>0</asrwt>
<pdfrwt beam="1">  1        1 0.22362883E+00 0.24678702E+04</pdfrwt>
<pdfrwt beam="2">  1       -1 0.16114993E+00 0.24678702E+04</pdfrwt>
<totfact> 0.17982999E+00</totfact>
</mgrwt>
</event>
<event>
12    1  0.2214165E-007  0.3016090E+04  0.7818608E-02  0.8239151E-01
          2   -1    0    0  501    0  0.00000000000E+00  0.00000000000E+00  0.18741854956E+04  0.18741854956E+04  0.00000000000E+00 0. -1.
         -2   -1    0    0    0  501 -0.00000000000E+00 -0.00000000000E+00 -0.12134336365E+04  0.12134336365E+04  0.00000000000E+00 0.  1.
         23    2    1    2    0    0  0.12207845225E+04 -0.38317506806E+03 -0.20591716986E+03  0.12989384301E+04  0.87756374333E+02 0.  0.
        254    2    1    2    0    0 -0.12207845225E+04  0.38317506806E+03  0.86666902894E+03  0.17886807020E+04  0.90062504117E+03 0.  0.
        -24    2    4    4    0    0 -0.16855429632E+03  0.44023908830E+03  0.43616270285E+03  0.64730949650E+03  0.80936241713E+02 0.  0.
         24    2    4    4    0    0 -0.10522302261E+04 -0.57064020242E+02  0.43050632609E+03  0.11413712055E+04  0.83353348205E+02 0.  0.
         13    1    3    3    0    0  0.22975180113E+03 -0.10283625598E+03 -0.59606492979E+02  0.25867763659E+03  0.00000000000E+00 0.  1.
        -13    1    3    3    0    0  0.99103272132E+03 -0.28033881208E+03 -0.14631067688E+03  0.10402607935E+04  0.00000000000E+00 0. -1.
          4    1    6    6  502    0 -0.12534273381E+02  0.23779916955E+00 -0.38805592832E+01  0.13123387443E+02  0.00000000000E+00 0. -1.
          1    1    5    5  503    0 -0.16229931504E+03  0.36583112844E+03  0.33717613524E+03  0.52331752156E+03  0.00000000000E+00 0. -1.
         -2    1    5    5    0  503 -0.62549812863E+01  0.74407959856E+02  0.98986567611E+02  0.12399197494E+03  0.00000000000E+00 0.  1.
         -3    1    6    6    0  502 -0.10396959527E+04 -0.57301819412E+02  0.43438688538E+03  0.11282478180E+04  0.00000000000E+00 0.  1.
<mgrwt>
<rscale>  0 0.30160900E+04</rscale>
<asrwt>0</asrwt>
<pdfrwt beam="1">  1        2 0.28833623E+00 0.30160900E+04</pdfrwt>
<pdfrwt beam="2">  1       -2 0.18668210E+00 0.30160900E+04</pdfrwt>
<totfact> 0.10950856E+00</totfact>
</mgrwt>
</event>
<event>
12    1  0.2214165E-007  0.1688988E+04  0.7818608E-02  0.8767670E-01
         -2   -1    0    0    0  501 -0.00000000000E+00  0.00000000000E+00  0.28247149741E+03  0.28247149741E+03  0.00000000000E+00 0.  1.
          2   -1    0    0  501    0  0.00000000000E+00 -0.00000000000E+00 -0.25247513841E+04  0.25247513841E+04  0.00000000000E+00 0. -1.
         23    2    1    2    0    0  0.28941160701E+03 -0.29511068368E+03 -0.83753724226E+02  0.43225054845E+03  0.94744163010E+02 0.  0.
        254    2    1    2    0    0 -0.28941160701E+03  0.29511068368E+03 -0.21585261624E+04  0.23749723330E+04  0.90022719067E+03 0.  0.
        -24    2    4    4    0    0  0.57832947080E+02  0.54074202838E+03 -0.13533019114E+04  0.14608117415E+04  0.82451742188E+02 0.  0.
         24    2    4    4    0    0 -0.34724455409E+03 -0.24563134471E+03 -0.80522425104E+03  0.91416059149E+03  0.79937192364E+02 0.  0.
         13    1    3    3    0    0  0.14882230892E+03 -0.15476884196E+03 -0.91627712905E+02  0.23344616478E+03  0.00000000000E+00 0. -1.
        -13    1    3    3    0    0  0.14058929809E+03 -0.14034184171E+03  0.78739886794E+01  0.19880438368E+03  0.00000000000E+00 0.  1.
          2    1    6    6  502    0 -0.24496023740E+03 -0.20618173602E+03 -0.64388726881E+03  0.71910169039E+03  0.00000000000E+00 0. -1.
          1    1    5    5  503    0  0.75135290213E+02  0.50164872651E+03 -0.12530424351E+04  0.13518180724E+04  0.00000000000E+00 0. -1.
         -2    1    5    5    0  503 -0.17302343133E+02  0.39093301872E+02 -0.10025947630E+03  0.10899366916E+03  0.00000000000E+00 0.  1.
         -1    1    6    6    0  502 -0.10228431669E+03 -0.39449608685E+02 -0.16133698223E+03  0.19505890111E+03  0.00000000000E+00 0.  1.
<mgrwt>
<rscale>  0 0.16889882E+04</rscale>
<asrwt>0</asrwt>
<pdfrwt beam="1">  1        2 0.38842329E+00 0.16889882E+04</pdfrwt>
<pdfrwt beam="2">  1       -2 0.43457153E-01 0.16889882E+04</pdfrwt>
<totfact> 0.16133127E+01</totfact>
</mgrwt>
</event>
<event>
12    1  0.2214165E-007  0.1452017E+04  0.7818608E-02  0.8917003E-01
          2   -1    0    0  501    0  0.00000000000E+00  0.00000000000E+00  0.23333156653E+04  0.23333156653E+04  0.00000000000E+00 0. -1.
         -2   -1    0    0    0  501 -0.00000000000E+00 -0.00000000000E+00 -0.22589682265E+03  0.22589682265E+03  0.00000000000E+00 0.  1.
         23    2    1    2    0    0 -0.24783147238E+03  0.19356867620E+03  0.11920207957E+04  0.12364063855E+04  0.94328689084E+02 0.  0.
        254    2    1    2    0    0  0.24783147238E+03 -0.19356867620E+03  0.91539804694E+03  0.13228061025E+04  0.90165022555E+03 0.  0.
        -24    2    4    4    0    0  0.25946661977E+03 -0.12393135623E+03 -0.89944347120E+02  0.31186676962E+03  0.80554258596E+02 0.  0.
         24    2    4    4    0    0 -0.11635147392E+02 -0.69637319975E+02  0.10053423941E+04  0.10109393328E+04  0.79374255259E+02 0.  0.
         11    1    3    3    0    0 -0.91845243858E+02  0.53774389695E+02  0.25613049165E+03  0.27736269136E+03  0.00000000000E+00 0.  1.
        -11    1    3    3    0    0 -0.15598622852E+03  0.13979428651E+03  0.93589030404E+03  0.95904369412E+03  0.00000000000E+00 0. -1.
          2    1    6    6  502    0  0.18594823807E+01 -0.82390605363E+02  0.66438253219E+03  0.66947428524E+03  0.00000000000E+00 0. -1.
          1    1    5    5  503    0  0.17143588495E+03 -0.92420184186E+02 -0.97986591374E+02  0.21802092831E+03  0.00000000000E+00 0. -1.
         -2    1    5    5    0  503  0.88030734822E+02 -0.31511172042E+02  0.80422442534E+01  0.93845841301E+02  0.00000000000E+00 0.  1.
         -1    1    6    6    0  502 -0.13494629773E+02  0.12753285388E+02  0.34095986187E+03  0.34146504759E+03  0.00000000000E+00 0.  1.
<mgrwt>
<rscale>  0 0.14520173E+04</rscale>
<asrwt>0</asrwt>
<pdfrwt beam="1">  1        2 0.35897162E+00 0.14520173E+04</pdfrwt>
<pdfrwt beam="2">  1       -2 0.34753359E-01 0.14520173E+04</pdfrwt>
<totfact> 0.32745166E+01</totfact>
</mgrwt>
</event>
<event>
12    1  0.2214165E-007  0.1669084E+04  0.7818608E-02  0.8779196E-01
          1   -1    0    0  501    0  0.00000000000E+00  0.00000000000E+00  0.12808904782E+04  0.12808904782E+04  0.00000000000E+00 0. -1.
         -1   -1    0    0    0  501 -0.00000000000E+00 -0.00000000000E+00 -0.54373163135E+03  0.54373163135E+03  0.00000000000E+00 0.  1.
         23    2    1    2    0    0  0.58238067828E+01 -0.58700132052E+03  0.28354011955E+03  0.65822961170E+03  0.90921698756E+02 0.  0.
        254    2    1    2    0    0 -0.58238067828E+01  0.58700132052E+03  0.45361872726E+03  0.11663924978E+04  0.90005391071E+03 0.  0.
        -24    2    4    4    0    0 -0.10972572902E+03  0.55601867785E+03 -0.11367308306E+03  0.58352888100E+03  0.79924210530E+02 0.  0.
         24    2    4    4    0    0  0.10390192223E+03  0.30982642676E+02  0.56729181032E+03  0.58286361680E+03  0.78450392851E+02 0.  0.
         13    1    3    3    0    0  0.97689884366E+01 -0.77512198954E+02  0.73050833723E+02  0.10695792831E+03  0.00000000000E+00 0. -1.
        -13    1    3    3    0    0 -0.39451816538E+01 -0.50948912157E+03  0.21048928582E+03  0.55127168339E+03  0.00000000000E+00 0.  1.
          4    1    6    6  502    0  0.86260433041E+02  0.10908960126E+02  0.25470634845E+03  0.26913786739E+03  0.00000000000E+00 0. -1.
          1    1    5    5  503    0 -0.95456144382E+02  0.30476691785E+03 -0.83262192277E+02  0.33004142525E+03  0.00000000000E+00 0. -1.
         -2    1    5    5    0  503 -0.14269584634E+02  0.25125176000E+03 -0.30410890783E+02  0.25348745576E+03  0.00000000000E+00 0.  1.
         -3    1    6    6    0  502  0.17641489192E+02  0.20073682550E+02  0.31258546187E+03  0.31372574941E+03  0.00000000000E+00 0.  1.
<mgrwt>
<rscale>  0 0.16690844E+04</rscale>
<asrwt>0</asrwt>
<pdfrwt beam="1">  1        1 0.19706007E+00 0.16690844E+04</pdfrwt>
<pdfrwt beam="2">  1       -1 0.83651021E-01 0.16690844E+04</pdfrwt>
<totfact> 0.12625012E+01</totfact>
</mgrwt>
</event>
<event>
12    1  0.2214165E-007  0.2127598E+04  0.7818608E-02  0.8549183E-01
          1   -1    0    0  501    0  0.00000000000E+00  0.00000000000E+00  0.46607427083E+04  0.46607427083E+04  0.00000000000E+00 0. -1.
         -1   -1    0    0    0  501 -0.00000000000E+00 -0.00000000000E+00 -0.24280854347E+03  0.24280854347E+03  0.00000000000E+00 0.  1.
         23    2    1    2    0    0 -0.69036502914E+02 -0.85374047414E+03  0.14614308043E+04  0.16963690968E+04  0.90825552184E+02 0.  0.
        254    2    1    2    0    0  0.69036502914E+02  0.85374047414E+03  0.29565033605E+04  0.32071821549E+04  0.90081430848E+03 0.  0.
        -24    2    4    4    0    0 -0.14583166179E+03  0.73503791201E+03  0.11010782871E+04  0.13338909583E+04  0.73103273469E+02 0.  0.
         24    2    4    4    0    0  0.21486816471E+03  0.11870256213E+03  0.18554250734E+04  0.18732911966E+04  0.79743827428E+02 0.  0.
         13    1    3    3    0    0 -0.55920400433E+02 -0.27670413053E+03  0.42893861073E+03  0.51349839222E+03  0.00000000000E+00 0.  1.
        -13    1    3    3    0    0 -0.13116102482E+02 -0.57703634361E+03  0.10324921936E+04  0.11828707046E+04  0.00000000000E+00 0. -1.
          4    1    6    6  502    0  0.14007218995E+03  0.78944181655E+02  0.14641585728E+04  0.14729605319E+04  0.00000000000E+00 0. -1.
          3    1    5    5  503    0 -0.11697302760E+03  0.68359155320E+03  0.10024615681E+04  0.12189787924E+04  0.00000000000E+00 0. -1.
         -4    1    5    5    0  503 -0.28858634190E+02  0.51446358815E+02  0.98616719064E+02  0.11491216594E+03  0.00000000000E+00 0.  1.
         -3    1    6    6    0  502  0.74795974759E+02  0.39758380473E+02  0.39126650058E+03  0.40033066474E+03  0.00000000000E+00 0.  1.
<mgrwt>
<rscale>  0 0.21275978E+04</rscale>
<asrwt>0</asrwt>
<pdfrwt beam="1">  1        1 0.71703727E+00 0.21275978E+04</pdfrwt>
<pdfrwt beam="2">  1       -1 0.37355164E-01 0.21275978E+04</pdfrwt>
<totfact> 0.13954310E-01</totfact>
</mgrwt>
</event>
<event>
12    1  0.2214165E-007  0.3620481E+04  0.7818608E-02  0.8085816E-01
         -2   -1    0    0    0  501 -0.00000000000E+00  0.00000000000E+00  0.92777059577E+03  0.92777059577E+03  0.00000000000E+00 0.  1.
          2   -1    0    0  501    0  0.00000000000E+00 -0.00000000000E+00 -0.35320924430E+04  0.35320924430E+04  0.00000000000E+00 0. -1.
         23    2    1    2    0    0  0.12847100190E+04  0.89234868107E+03 -0.41100354247E+03  0.16194635798E+04  0.83500735200E+02 0.  0.
        254    2    1    2    0    0 -0.12847100190E+04 -0.89234868107E+03 -0.21933183047E+04  0.28403994590E+04  0.90025435256E+03 0.  0.
        -24    2    4    4    0    0 -0.56244538698E+03 -0.91512120829E+03 -0.12865736320E+04  0.16780707845E+04  0.82814297947E+02 0.  0.
         24    2    4    4    0    0 -0.72226463200E+03  0.22772527213E+02 -0.90674467272E+03  0.11623286745E+04  0.81469377458E+02 0.  0.
         11    1    3    3    0    0  0.82967749928E+03  0.62429104431E+03 -0.27058201818E+03  0.10729951954E+04  0.00000000000E+00 0.  1.
        -11    1    3    3    0    0  0.45503251970E+03  0.26805763676E+03 -0.14042152429E+03  0.54646838435E+03  0.00000000000E+00 0. -1.
          4    1    6    6  502    0 -0.64503825755E+03 -0.14352060057E+01 -0.78314695921E+03  0.10145913331E+04  0.00000000000E+00 0. -1.
          1    1    5    5  503    0 -0.54464141753E+03 -0.87288936542E+03 -0.12048376297E+04  0.15843622793E+04  0.00000000000E+00 0. -1.
         -4    1    5    5    0  503 -0.17803969448E+02 -0.42231842864E+02 -0.81736002276E+02  0.93708505206E+02  0.00000000000E+00 0.  1.
         -3    1    6    6    0  502 -0.77226374448E+02  0.24207733219E+02 -0.12359771351E+03  0.14773734140E+03  0.00000000000E+00 0.  1.
<mgrwt>
<rscale>  0 0.36204815E+04</rscale>
<asrwt>0</asrwt>
<pdfrwt beam="1">  1        2 0.54339883E+00 0.36204815E+04</pdfrwt>
<pdfrwt beam="2">  1       -2 0.14273394E+00 0.36204815E+04</pdfrwt>
<totfact> 0.21407359E-01</totfact>
</mgrwt>
</event>
<event>
12    1  0.2214165E-007  0.2768241E+04  0.7818608E-02  0.8313196E-01
         -2   -1    0    0    0  501 -0.00000000000E+00  0.00000000000E+00  0.73643126401E+03  0.73643126401E+03  0.00000000000E+00 0.  1.
          2   -1    0    0  501    0  0.00000000000E+00 -0.00000000000E+00 -0.26014514597E+04  0.26014514597E+04  0.00000000000E+00 0. -1.
         23    2    1    2    0    0 -0.36942052449E+03  0.51169019498E+03  0.44870996252E+03  0.77966582068E+03  0.90773244534E+02 0.  0.
        254    2    1    2    0    0  0.36942052449E+03 -0.51169019498E+03 -0.23137301582E+04  0.25582169030E+04  0.89040895007E+03 0.  0.
        -24    2    4    4    0    0  0.22300585736E+03 -0.75753006713E+03 -0.16339567196E+04  0.18164023779E+04  0.76939079352E+02 0.  0.
         24    2    4    4    0    0  0.14641466713E+03  0.24583987215E+03 -0.67977343861E+03  0.74181452511E+03  0.79513296631E+02 0.  0.
         13    1    3    3    0    0 -0.75183157942E+02  0.50964256253E+02  0.69012072696E+02  0.11407247184E+03  0.00000000000E+00 0. -1.
        -13    1    3    3    0    0 -0.29423736655E+03  0.46072593873E+03  0.37969788983E+03  0.66559334884E+03  0.00000000000E+00 0.  1.
          4    1    6    6  502    0  0.12072938465E+03  0.13420258012E+03 -0.45584108459E+03  0.49028258304E+03  0.00000000000E+00 0. -1.
          3    1    5    5  503    0 -0.62097500198E+01 -0.13292376957E+02 -0.29349114783E+02  0.32811870093E+02  0.00000000000E+00 0. -1.
         -2    1    5    5    0  503  0.22921560737E+03 -0.74423769017E+03 -0.16046076048E+04  0.17835905078E+04  0.00000000000E+00 0.  1.
         -3    1    6    6    0  502  0.25685282481E+02  0.11163729203E+03 -0.22393235401E+03  0.25153194207E+03  0.00000000000E+00 0.  1.
<mgrwt>
<rscale>  0 0.27682415E+04</rscale>
<asrwt>0</asrwt>
<pdfrwt beam="1">  1        2 0.40022331E+00 0.27682415E+04</pdfrwt>
<pdfrwt beam="2">  1       -2 0.11329712E+00 0.27682415E+04</pdfrwt>
<totfact> 0.16198966E+00</totfact>
</mgrwt>
</event>
<event>
12    1  0.2214165E-007  0.2562244E+04  0.7818608E-02  0.8381140E-01
         -1   -1    0    0    0  501 -0.00000000000E+00  0.00000000000E+00  0.72414128271E+03  0.72414128271E+03  0.00000000000E+00 0.  1.
          1   -1    0    0  501    0  0.00000000000E+00 -0.00000000000E+00 -0.22665103365E+04  0.22665103365E+04  0.00000000000E+00 0. -1.
         23    2    1    2    0    0  0.92277264941E+03 -0.34106846061E+03 -0.50195668652E+02  0.98947066358E+03  0.93249834326E+02 0.  0.
        254    2    1    2    0    0 -0.92277264941E+03  0.34106846061E+03 -0.14921733851E+04  0.20011809556E+04  0.90017039971E+03 0.  0.
        -24    2    4    4    0    0 -0.11140982905E+03  0.46660305955E+03 -0.38275072356E+03  0.61877422141E+03  0.79074999209E+02 0.  0.
         24    2    4    4    0    0 -0.81136282036E+03 -0.12553459894E+03 -0.11094226616E+04  0.13824067342E+04  0.78493152509E+02 0.  0.
         11    1    3    3    0    0  0.26349330668E+03 -0.63258942437E+02  0.12790918665E+02  0.27128218530E+03  0.00000000000E+00 0.  1.
        -11    1    3    3    0    0  0.65927934273E+03 -0.27780951818E+03 -0.62986587317E+02  0.71818847828E+03  0.00000000000E+00 0. -1.
          4    1    6    6  502    0 -0.38935649069E+03 -0.99761951688E+02 -0.53442314600E+03  0.66869950115E+03  0.00000000000E+00 0. -1.
          1    1    5    5  503    0 -0.12002844688E+03  0.43743244173E+03 -0.34281390399E+03  0.56857307526E+03  0.00000000000E+00 0. -1.
         -2    1    5    5    0  503  0.86186178278E+01  0.29170617819E+02 -0.39936819572E+02  0.50201146149E+02  0.00000000000E+00 0.  1.
         -3    1    6    6    0  502 -0.42200632967E+03 -0.25772647251E+02 -0.57499951558E+03  0.71370723307E+03  0.00000000000E+00 0.  1.
<mgrwt>
<rscale>  0 0.25622441E+04</rscale>
<asrwt>0</asrwt>
<pdfrwt beam="1">  1        1 0.34869390E+00 0.25622441E+04</pdfrwt>
<pdfrwt beam="2">  1       -1 0.11140635E+00 0.25622441E+04</pdfrwt>
<totfact> 0.12834860E+00</totfact>
</mgrwt>
</event>
<event>
12    1  0.2214165E-007  0.2430261E+04  0.7818608E-02  0.8428260E-01
         -1   -1    0    0    0  501 -0.00000000000E+00  0.00000000000E+00  0.12412247197E+04  0.12412247197E+04  0.00000000000E+00 0.  1.
          1   -1    0    0  501    0  0.00000000000E+00 -0.00000000000E+00 -0.11895853388E+04  0.11895853388E+04  0.00000000000E+00 0. -1.
         23    2    1    2    0    0  0.65224698167E+03  0.74139879889E+03 -0.32407862890E+03  0.10433540157E+04  0.91990979493E+02 0.  0.
        254    2    1    2    0    0 -0.65224698167E+03 -0.74139879889E+03  0.37571800979E+03  0.13874560427E+04  0.89931748761E+03 0.  0.
        -24    2    4    4    0    0  0.17240146368E+03 -0.10194808595E+03  0.25572800780E+03  0.33407680795E+03  0.78069345645E+02 0.  0.
         24    2    4    4    0    0 -0.82464844536E+03 -0.63945071295E+03  0.11999000199E+03  0.10533792348E+04  0.79170316204E+02 0.  0.
         11    1    3    3    0    0  0.49485166615E+03  0.58014087904E+03 -0.21068956439E+03  0.79109525568E+03  0.00000000000E+00 0.  1.
        -11    1    3    3    0    0  0.15739531553E+03  0.16125791986E+03 -0.11338906451E+03  0.25225876004E+03  0.00000000000E+00 0. -1.
          4    1    6    6  502    0 -0.39181508243E+02 -0.32625275542E+02  0.23465218058E+02  0.56126781940E+02  0.00000000000E+00 0. -1.
          1    1    5    5  503    0  0.14222929549E+02  0.13076792025E+02  0.25432544066E+02  0.31939137626E+02  0.00000000000E+00 0. -1.
         -2    1    5    5    0  503  0.15817853413E+03 -0.11502487797E+03  0.23029546373E+03  0.30213767033E+03  0.00000000000E+00 0.  1.
         -3    1    6    6    0  502 -0.78546693711E+03 -0.60682543741E+03  0.96524783934E+02  0.99725245284E+03  0.00000000000E+00 0.  1.
<mgrwt>
<rscale>  0 0.24302615E+04</rscale>
<asrwt>0</asrwt>
<pdfrwt beam="1">  1        1 0.18301313E+00 0.24302615E+04</pdfrwt>
<pdfrwt beam="2">  1       -1 0.19095765E+00 0.24302615E+04</pdfrwt>
<totfact> 0.16912060E+00</totfact>
</mgrwt>
</event>
<event>
12    1  0.2214165E-007  0.1611612E+04  0.7818608E-02  0.8813446E-01
         -3   -1    0    0    0  501 -0.00000000000E+00  0.00000000000E+00  0.56378984785E+03  0.56378984785E+03  0.00000000000E+00 0.  1.
          3   -1    0    0  501    0  0.00000000000E+00 -0.00000000000E+00 -0.11517115836E+04  0.11517115836E+04  0.00000000000E+00 0. -1.
         23    2    1    2    0    0  0.25359960213E+03 -0.94804310120E+02 -0.71177561490E+03  0.76710345368E+03  0.92317751565E+02 0.  0.
        254    2    1    2    0    0 -0.25359960213E+03  0.94804310120E+02  0.12385387916E+03  0.94839797776E+03  0.90045451047E+03 0.  0.
        -24    2    4    4    0    0  0.20021871839E+03  0.23175426551E+02 -0.26399327038E+03  0.34206316104E+03  0.81793176632E+02 0.  0.
         24    2    4    4    0    0 -0.45381832051E+03  0.71628883569E+02  0.38784714954E+03  0.60633481673E+03  0.78324540055E+02 0.  0.
         11    1    3    3    0    0  0.16343617106E+02 -0.18907658503E+02 -0.15690582329E+03  0.15888376492E+03  0.00000000000E+00 0. -1.
        -11    1    3    3    0    0  0.23725598502E+03 -0.75896651617E+02 -0.55486979161E+03  0.60821968876E+03  0.00000000000E+00 0.  1.
          2    1    6    6  502    0 -0.43659112878E+03  0.55615595077E+02  0.35251414235E+03  0.56388928763E+03  0.00000000000E+00 0. -1.
          3    1    5    5  503    0  0.13452489908E+03 -0.11610543022E+02 -0.21200452199E+03  0.25135168694E+03  0.00000000000E+00 0. -1.
         -2    1    5    5    0  503  0.65693819301E+02  0.34785969573E+02 -0.51988748391E+02  0.90711474096E+02  0.00000000000E+00 0.  1.
         -1    1    6    6    0  502 -0.17227191729E+02  0.16013288492E+02  0.35333007187E+02  0.42445529094E+02  0.00000000000E+00 0.  1.
<mgrwt>
<rscale>  0 0.16116120E+04</rscale>
<asrwt>0</asrwt>
<pdfrwt beam="1">  1        3 0.17718640E+00 0.16116120E+04</pdfrwt>
<pdfrwt beam="2">  1       -3 0.86736900E-01 0.16116120E+04</pdfrwt>
<totfact> 0.63087294E-01</totfact>
</mgrwt>
</event>
<event>
12    1  0.2214165E-007  0.4022697E+04  0.7818608E-02  0.7999983E-01
         -1   -1    0    0    0  501 -0.00000000000E+00  0.00000000000E+00  0.16325590614E+04  0.16325590614E+04  0.00000000000E+00 0.  1.
          1   -1    0    0  501    0  0.00000000000E+00 -0.00000000000E+00 -0.24780255076E+04  0.24780255076E+04  0.00000000000E+00 0. -1.
         23    2    1    2    0    0  0.18107997321E+04 -0.60195803439E+03 -0.21665022346E+03  0.19228513240E+04  0.95240484736E+02 0.  0.
        254    2    1    2    0    0 -0.18107997321E+04  0.60195803439E+03 -0.62881622275E+03  0.21877332450E+04  0.86568918453E+03 0.  0.
        -24    2    4    4    0    0 -0.15517608377E+04  0.18287874947E+03 -0.63436807397E+03  0.16883273834E+04  0.81364400781E+02 0.  0.
         24    2    4    4    0    0 -0.25903889440E+03  0.41907928492E+03  0.55518512221E+01  0.49940586161E+03  0.81527882898E+02 0.  0.
         13    1    3    3    0    0  0.10969805082E+04 -0.37635818658E+03 -0.17705813961E+03  0.11731842587E+04  0.00000000000E+00 0. -1.
        -13    1    3    3    0    0  0.71381922392E+03 -0.22559984781E+03 -0.39592083853E+02  0.74966706535E+03  0.00000000000E+00 0.  1.
          2    1    6    6  502    0 -0.73094662746E+02  0.90573083149E+02 -0.30180070142E+02  0.12023788815E+03  0.00000000000E+00 0. -1.
          3    1    5    5  503    0 -0.10463678596E+04  0.13415631642E+03 -0.38852394622E+03  0.11242039280E+04  0.00000000000E+00 0. -1.
         -4    1    5    5    0  503 -0.50539297812E+03  0.48722433046E+02 -0.24584412775E+03  0.56412345543E+03  0.00000000000E+00 0.  1.
         -1    1    6    6    0  502 -0.18594423166E+03  0.32850620177E+03  0.35731921364E+02  0.37916797346E+03  0.00000000000E+00 0.  1.
<mgrwt>
<rscale>  0 0.40226971E+04</rscale>
<asrwt>0</asrwt>
<pdfrwt beam="1">  1        1 0.38123469E+00 0.40226971E+04</pdfrwt>
<pdfrwt beam="2">  1       -1 0.25116293E+00 0.40226971E+04</pdfrwt>
<totfact> 0.75097298E-02</totfact>
</mgrwt>
</event>
<event>
12    1  0.2214165E-007  0.4975980E+04  0.7818608E-02  0.7832223E-01
         -2   -1    0    0    0  501 -0.00000000000E+00  0.00000000000E+00  0.22350771173E+04  0.22350771173E+04  0.00000000000E+00 0.  1.
          2   -1    0    0  501    0  0.00000000000E+00 -0.00000000000E+00 -0.27695214539E+04  0.27695214539E+04  0.00000000000E+00 0. -1.
         23    2    1    2    0    0  0.14240131316E+04  0.19297496775E+04 -0.56070520797E+02  0.24013979087E+04  0.10872348334E+03 0.  0.
        254    2    1    2    0    0 -0.14240131316E+04 -0.19297496775E+04 -0.47837381581E+03  0.26032006625E+04  0.89222472757E+03 0.  0.
        -24    2    4    4    0    0 -0.76598277801E+03 -0.35422564522E+03 -0.11177357423E+03  0.85507568976E+03  0.80347242492E+02 0.  0.
         24    2    4    4    0    0 -0.65803035361E+03 -0.15755240323E+04 -0.36660024157E+03  0.17481249727E+04  0.79153398224E+02 0.  0.
         11    1    3    3    0    0  0.14022333254E+04  0.18931228376E+04 -0.68923990901E+02  0.23568883923E+04  0.00000000000E+00 0. -1.
        -11    1    3    3    0    0  0.21779806230E+02  0.36626839946E+02  0.12853470105E+02  0.44509516483E+02  0.00000000000E+00 0.  1.
          2    1    6    6  502    0 -0.26839741349E+03 -0.65677505904E+03 -0.11289444588E+03  0.71842592218E+03  0.00000000000E+00 0. -1.
          3    1    5    5  503    0 -0.28691271824E+03 -0.14971278560E+03 -0.79122533035E+02  0.33315642166E+03  0.00000000000E+00 0. -1.
         -4    1    5    5    0  503 -0.47907005978E+03 -0.20451285962E+03 -0.32651041198E+02  0.52191926810E+03  0.00000000000E+00 0.  1.
         -1    1    6    6    0  502 -0.38963294012E+03 -0.91874897327E+03 -0.25370579569E+03  0.10296990505E+04  0.00000000000E+00 0.  1.
<mgrwt>
<rscale>  0 0.49759799E+04</rscale>
<asrwt>0</asrwt>
<pdfrwt beam="1">  1        2 0.42608022E+00 0.49759799E+04</pdfrwt>
<pdfrwt beam="2">  1       -2 0.34385802E+00 0.49759799E+04</pdfrwt>
<totfact> 0.29924365E-02</totfact>
</mgrwt>
</event>
<event>
12    1  0.2214165E-007  0.1859708E+04  0.7818608E-02  0.8675177E-01
          1   -1    0    0  501    0  0.00000000000E+00  0.00000000000E+00  0.38425505292E+04  0.38425505292E+04  0.00000000000E+00 0. -1.
         -1   -1    0    0    0  501 -0.00000000000E+00 -0.00000000000E+00 -0.22501410210E+03  0.22501410210E+03  0.00000000000E+00 0.  1.
         23    2    1    2    0    0  0.72026552505E+02 -0.35074482858E+03  0.52722489511E+02  0.37369008754E+03  0.93031508549E+02 0.  0.
        254    2    1    2    0    0 -0.72026552505E+02  0.35074482858E+03  0.35648139376E+04  0.36938745438E+04  0.89922242873E+03 0.  0.
        -24    2    4    4    0    0 -0.19122219156E+03  0.57267178092E+03  0.16114266384E+04  0.17226958963E+04  0.80414207795E+02 0.  0.
         24    2    4    4    0    0  0.11919563906E+03 -0.22192695234E+03  0.19533872992E+04  0.19711786476E+04  0.79775605201E+02 0.  0.
         11    1    3    3    0    0  0.28840936325E+02 -0.12947419850E+03 -0.25467836904E+02  0.13507027209E+03  0.00000000000E+00 0.  1.
        -11    1    3    3    0    0  0.43185616180E+02 -0.22127063008E+03  0.78190326415E+02  0.23861981545E+03  0.00000000000E+00 0. -1.
          4    1    6    6  502    0  0.24402576268E+02 -0.58951558947E+01  0.29951757284E+03  0.30056782101E+03  0.00000000000E+00 0. -1.
          3    1    5    5  503    0 -0.66318676579E+02  0.14419044195E+03  0.34027794445E+03  0.37547054464E+03  0.00000000000E+00 0. -1.
         -4    1    5    5    0  503 -0.12490351498E+03  0.42848133898E+03  0.12711486940E+04  0.13472253516E+04  0.00000000000E+00 0.  1.
         -1    1    6    6    0  502  0.94793062787E+02 -0.21603179644E+03  0.16538697264E+04  0.16706108265E+04  0.00000000000E+00 0.  1.
<mgrwt>
<rscale>  0 0.18597076E+04</rscale>
<asrwt>0</asrwt>
<pdfrwt beam="1">  1        1 0.59116157E+00 0.18597076E+04</pdfrwt>
<pdfrwt beam="2">  1       -1 0.34617557E-01 0.18597076E+04</pdfrwt>
<totfact> 0.98366388E-01</totfact>
</mgrwt>
</event>
<event>
12    1  0.2214165E-007  0.1197142E+04  0.7818608E-02  0.9115361E-01
         -2   -1    0    0    0  501 -0.00000000000E+00  0.00000000000E+00  0.18323268721E+03  0.18323268721E+03  0.00000000000E+00 0.  1.
          2   -1    0    0  501    0  0.00000000000E+00 -0.00000000000E+00 -0.19553687228E+04  0.19553687228E+04  0.00000000000E+00 0. -1.
         23    2    1    2    0    0 -0.12506867872E+03 -0.16010472543E+03 -0.19715295447E+03  0.29700806439E+03  0.89826529243E+02 0.  0.
        254    2    1    2    0    0  0.12506867872E+03  0.16010472543E+03 -0.15749830811E+04  0.18415933456E+04  0.93253345640E+03 0.  0.
        -24    2    4    4    0    0  0.41411241220E+03  0.26324113363E+03 -0.44234793587E+03  0.66540728136E+03  0.79436574357E+02 0.  0.
         24    2    4    4    0    0 -0.28904373347E+03 -0.10313640820E+03 -0.11326351453E+04  0.11761860643E+04  0.79799040985E+02 0.  0.
         11    1    3    3    0    0 -0.85628115383E+01 -0.21288669293E+01  0.88246028838E+01  0.12479079770E+02  0.00000000000E+00 0.  1.
        -11    1    3    3    0    0 -0.11650586718E+03 -0.15797585850E+03 -0.20597755735E+03  0.28452898462E+03  0.00000000000E+00 0. -1.
          2    1    6    6  502    0 -0.14055938486E+03 -0.11802339763E+02 -0.44641528237E+03  0.46816967034E+03  0.00000000000E+00 0. -1.
          1    1    5    5  503    0  0.37764124972E+03  0.21015277724E+03 -0.37460217607E+03  0.57192997263E+03  0.00000000000E+00 0. -1.
         -2    1    5    5    0  503  0.36471162475E+02  0.53088356397E+02 -0.67745759794E+02  0.93477308729E+02  0.00000000000E+00 0.  1.
         -1    1    6    6    0  502 -0.14848434862E+03 -0.91334068435E+02 -0.68621986291E+03  0.70801639394E+03  0.00000000000E+00 0.  1.
<mgrwt>
<rscale>  0 0.11971424E+04</rscale>
<asrwt>0</asrwt>
<pdfrwt beam="1">  1        2 0.30082594E+00 0.11971424E+04</pdfrwt>
<pdfrwt beam="2">  1       -2 0.28189646E-01 0.11971424E+04</pdfrwt>
<totfact> 0.80464079E+01</totfact>
</mgrwt>
</event>
<event>
12    1  0.2214165E-007  0.2207813E+04  0.7818608E-02  0.8515183E-01
         -2   -1    0    0    0  501 -0.00000000000E+00  0.00000000000E+00  0.11135522835E+04  0.11135522835E+04  0.00000000000E+00 0.  1.
          2   -1    0    0  501    0  0.00000000000E+00 -0.00000000000E+00 -0.10943438053E+04  0.10943438053E+04  0.00000000000E+00 0. -1.
         23    2    1    2    0    0  0.47730648386E+03 -0.77760531005E+03 -0.93338760754E+02  0.92152908821E+03  0.89511107704E+02 0.  0.
        254    2    1    2    0    0 -0.47730648386E+03  0.77760531005E+03  0.11254723895E+03  0.12863670007E+04  0.89976757089E+03 0.  0.
        -24    2    4    4    0    0 -0.43026850921E+03 -0.52682036215E+02  0.82112706124E+02  0.45031353476E+03  0.90185343162E+02 0.  0.
         24    2    4    4    0    0 -0.47037974652E+02  0.83028734626E+03  0.30434532826E+02  0.83605346590E+03  0.80433131422E+02 0.  0.
         11    1    3    3    0    0  0.32655550284E+03 -0.59596492213E+03 -0.48825453279E+02  0.68131975586E+03  0.00000000000E+00 0. -1.
        -11    1    3    3    0    0  0.15075098102E+03 -0.18164038792E+03 -0.44513307476E+02  0.24020933235E+03  0.00000000000E+00 0.  1.
          4    1    6    6  502    0 -0.79667389326E+01  0.34745412594E+02 -0.14039130917E+02  0.38312006244E+02  0.00000000000E+00 0. -1.
          1    1    5    5  503    0 -0.20080133598E+03 -0.85313576614E+00 -0.10299208292E+01  0.20080578953E+03  0.00000000000E+00 0. -1.
         -2    1    5    5    0  503 -0.22946717324E+03 -0.51828900449E+02  0.83142626953E+02  0.24950774523E+03  0.00000000000E+00 0.  1.
         -3    1    6    6    0  502 -0.39071235720E+02  0.79554193367E+03  0.44473663743E+02  0.79774145965E+03  0.00000000000E+00 0.  1.
<mgrwt>
<rscale>  0 0.22078125E+04</rscale>
<asrwt>0</asrwt>
<pdfrwt beam="1">  1        2 0.16836059E+00 0.22078125E+04</pdfrwt>
<pdfrwt beam="2">  1       -2 0.17131574E+00 0.22078125E+04</pdfrwt>
<totfact> 0.41844641E+00</totfact>
</mgrwt>
</event>
<event>
12    1  0.2214165E-007  0.1323762E+04  0.7818608E-02  0.9010931E-01
         -1   -1    0    0    0  501 -0.00000000000E+00  0.00000000000E+00  0.51648207066E+03  0.51648207066E+03  0.00000000000E+00 0.  1.
          1   -1    0    0  501    0  0.00000000000E+00 -0.00000000000E+00 -0.84821264336E+03  0.84821264336E+03  0.00000000000E+00 0. -1.
         23    2    1    2    0    0  0.17109418103E+03 -0.29251300243E+03 -0.13602934791E+02  0.35129623821E+03  0.91580193105E+02 0.  0.
        254    2    1    2    0    0 -0.17109418103E+03  0.29251300243E+03 -0.31812763792E+03  0.10133984758E+04  0.90051885122E+03 0.  0.
        -24    2    4    4    0    0 -0.21576936818E+03  0.49506322785E+03 -0.48869916564E+03  0.73276627032E+03  0.80470569821E+02 0.  0.
         24    2    4    4    0    0  0.44675187151E+02 -0.20255022542E+03  0.17057152772E+03  0.28063220549E+03  0.81469764487E+02 0.  0.
         11    1    3    3    0    0  0.61155719267E+02 -0.62243636662E+02  0.30317146920E+02  0.92376521375E+02  0.00000000000E+00 0.  1.
        -11    1    3    3    0    0  0.10993846177E+03 -0.23026936577E+03 -0.43920081711E+02  0.25891971683E+03  0.00000000000E+00 0. -1.
          4    1    6    6  502    0  0.60783282320E+02 -0.99113147675E+02  0.10791128444E+03  0.15862808314E+03  0.00000000000E+00 0. -1.
          3    1    5    5  503    0 -0.20635498833E+03  0.44566595701E+03 -0.46796064340E+03  0.67837135127E+03  0.00000000000E+00 0. -1.
         -4    1    5    5    0  503 -0.94143798539E+01  0.49397270836E+02 -0.20738522239E+02  0.54394919052E+02  0.00000000000E+00 0.  1.
         -3    1    6    6    0  502 -0.16108095169E+02 -0.10343707774E+03  0.62660243279E+02  0.12200412235E+03  0.00000000000E+00 0.  1.
<mgrwt>
<rscale>  0 0.13237622E+04</rscale>
<asrwt>0</asrwt>
<pdfrwt beam="1">  1        1 0.13049425E+00 0.13237622E+04</pdfrwt>
<pdfrwt beam="2">  1       -1 0.79458782E-01 0.13237622E+04</pdfrwt>
<totfact> 0.31206922E+01</totfact>
</mgrwt>
</event>
<event>
12    1  0.2214165E-007  0.1489317E+04  0.7818608E-02  0.8891588E-01
          1   -1    0    0  501    0  0.00000000000E+00  0.00000000000E+00  0.12450530546E+04  0.12450530546E+04  0.00000000000E+00 0. -1.
         -1   -1    0    0    0  501 -0.00000000000E+00 -0.00000000000E+00 -0.44537576447E+03  0.44537576447E+03  0.00000000000E+00 0.  1.
         23    2    1    2    0    0 -0.45436055359E+03  0.11101097476E+03  0.29208813801E+03  0.55739471362E+03  0.81279992812E+02 0.  0.
        254    2    1    2    0    0  0.45436055359E+03 -0.11101097476E+03  0.50758915208E+03  0.11330341054E+04  0.89852801154E+03 0.  0.
        -24    2    4    4    0    0  0.22561780110E+03 -0.13063634232E+03 -0.22986569703E+03  0.35660730984E+03  0.79757687078E+02 0.  0.
         24    2    4    4    0    0  0.22874275249E+03  0.19625367561E+02  0.73745484910E+03  0.77642679556E+03  0.79312751383E+02 0.  0.
         13    1    3    3    0    0 -0.59770111994E+02 -0.39294236449E+01  0.15082562818E+02  0.61768846186E+02  0.00000000000E+00 0.  1.
        -13    1    3    3    0    0 -0.39459044160E+03  0.11494039841E+03  0.27700557519E+03  0.49562586744E+03  0.00000000000E+00 0. -1.
          4    1    6    6  502    0  0.36892946154E+02  0.18432114135E+02  0.63667699874E+02  0.75857816437E+02  0.00000000000E+00 0. -1.
          1    1    5    5  503    0  0.33801475933E+02 -0.38551401225E+02 -0.84769907014E+02  0.99069104401E+02  0.00000000000E+00 0. -1.
         -2    1    5    5    0  503  0.19181632517E+03 -0.92084941098E+02 -0.14509579002E+03  0.25753820544E+03  0.00000000000E+00 0.  1.
         -3    1    6    6    0  502  0.19184980633E+03  0.11932534266E+01  0.67378714923E+03  0.70056897913E+03  0.00000000000E+00 0.  1.
<mgrwt>
<rscale>  0 0.14893172E+04</rscale>
<asrwt>0</asrwt>
<pdfrwt beam="1">  1        1 0.19154662E+00 0.14893172E+04</pdfrwt>
<pdfrwt beam="2">  1       -1 0.68519349E-01 0.14893172E+04</pdfrwt>
<totfact> 0.20680451E+01</totfact>
</mgrwt>
</event>
<event>
12    1  0.2214165E-007  0.2032040E+04  0.7818608E-02  0.8591786E-01
          2   -1    0    0  501    0  0.00000000000E+00  0.00000000000E+00  0.14756007285E+04  0.14756007285E+04  0.00000000000E+00 0.  1.
         -2   -1    0    0    0  501 -0.00000000000E+00 -0.00000000000E+00 -0.69957703606E+03  0.69957703606E+03  0.00000000000E+00 0. -1.
         23    2    1    2    0    0 -0.77228273076E+03 -0.35344696137E+02  0.41916895311E+02  0.77948893416E+03  0.90421836900E+02 0.  0.
        254    2    1    2    0    0  0.77228273076E+03  0.35344696137E+02  0.73410679710E+03  0.13956888304E+04  0.90075782423E+03 0.  0.
        -24    2    4    4    0    0  0.79217994968E+03 -0.51576552519E+02  0.89229592457E+03  0.11968365689E+04  0.77566372991E+02 0.  0.
         24    2    4    4    0    0 -0.19897218925E+02  0.86921248657E+02 -0.15818912747E+03  0.19885226147E+03  0.81038380125E+02 0.  0.
         13    1    3    3    0    0 -0.68507447557E+03 -0.46104263593E+02  0.61794506350E+02  0.68939915957E+03  0.00000000000E+00 0.  1.
        -13    1    3    3    0    0 -0.87208255192E+02  0.10759567456E+02 -0.19877611038E+02  0.90089774593E+02  0.00000000000E+00 0. -1.
          4    1    6    6  502    0 -0.42200733961E+02  0.14894367930E+02 -0.66243744891E+02  0.79943591864E+02  0.00000000000E+00 0. -1.
          1    1    5    5  503    0  0.69134461019E+03 -0.30472246853E+02  0.74195480842E+03  0.10145850707E+04  0.00000000000E+00 0. -1.
         -2    1    5    5    0  503  0.10083533949E+03 -0.21104305666E+02  0.15034111615E+03  0.18225149824E+03  0.00000000000E+00 0.  1.
         -3    1    6    6    0  502  0.22303515035E+02  0.72026880727E+02 -0.91945382579E+02  0.11890866961E+03  0.00000000000E+00 0.  1.
<mgrwt>
<rscale>  0 0.20320397E+04</rscale>
<asrwt>0</asrwt>
<pdfrwt beam="1">  1        2 0.22701550E+00 0.20320397E+04</pdfrwt>
<pdfrwt beam="2">  1       -2 0.10762724E+00 0.20320397E+04</pdfrwt>
<totfact> 0.84114513E+00</totfact>
</mgrwt>
</event>
<event>
12    1  0.2214165E-007  0.1986986E+04  0.7818608E-02  0.8612729E-01
          2   -1    0    0  501    0  0.00000000000E+00  0.00000000000E+00  0.22568780563E+04  0.22568780563E+04  0.00000000000E+00 0. -1.
         -2   -1    0    0    0  501 -0.00000000000E+00 -0.00000000000E+00 -0.43734232449E+03  0.43734232449E+03  0.00000000000E+00 0.  1.
         23    2    1    2    0    0  0.69219724102E+03 -0.38327306415E+03  0.76768353290E+03  0.11060636134E+04  0.89461992087E+02 0.  0.
        254    2    1    2    0    0 -0.69219724102E+03  0.38327306415E+03  0.10518521989E+04  0.15881567674E+04  0.88871458144E+03 0.  0.
        -24    2    4    4    0    0 -0.78650349381E+03  0.56346621295E+03  0.88018937931E+03  0.13103820684E+04  0.79283685066E+02 0.  0.
         24    2    4    4    0    0  0.94306252792E+02 -0.18019314880E+03  0.17166281956E+03  0.27777469900E+03  0.79545079005E+02 0.  0.
         13    1    3    3    0    0  0.32054411658E+03 -0.17723663361E+03  0.41770669959E+03  0.55555399544E+03  0.00000000000E+00 0. -1.
        -13    1    3    3    0    0  0.37165312443E+03 -0.20603643053E+03  0.34997683331E+03  0.55050961796E+03  0.00000000000E+00 0.  1.
          2    1    6    6  502    0  0.48230630554E+02 -0.15682069048E+03  0.14795996860E+03  0.22093228600E+03  0.00000000000E+00 0. -1.
          3    1    5    5  503    0 -0.54880903474E+03  0.42787994468E+03  0.60179974348E+03  0.92001931226E+03  0.00000000000E+00 0. -1.
         -4    1    5    5    0  503 -0.23769445906E+03  0.13558626827E+03  0.27838963583E+03  0.39036275610E+03  0.00000000000E+00 0.  1.
         -3    1    6    6    0  502  0.46075622239E+02 -0.23372458322E+02  0.23702850962E+02  0.56842413006E+02  0.00000000000E+00 0.  1.
<mgrwt>
<rscale>  0 0.19869860E+04</rscale>
<asrwt>0</asrwt>
<pdfrwt beam="1">  1        2 0.34721200E+00 0.19869860E+04</pdfrwt>
<pdfrwt beam="2">  1       -2 0.67283436E-01 0.19869860E+04</pdfrwt>
<totfact> 0.90389151E+00</totfact>
</mgrwt>
</event>
<event>
12    1  0.2214165E-007  0.1991834E+04  0.7818608E-02  0.8610448E-01
          2   -1    0    0  501    0  0.00000000000E+00  0.00000000000E+00  0.25773807286E+04  0.25773807286E+04  0.00000000000E+00 0. -1.
         -2   -1    0    0    0  501 -0.00000000000E+00 -0.00000000000E+00 -0.38482889496E+03  0.38482889496E+03  0.00000000000E+00 0.  1.
         23    2    1    2    0    0  0.63052174233E+03 -0.18983915234E+03  0.15208251814E+04  0.16595894155E+04  0.87927381294E+02 0.  0.
        254    2    1    2    0    0 -0.63052174233E+03  0.18983915234E+03  0.67172665223E+03  0.13026202080E+04  0.90111383285E+03 0.  0.
        -24    2    4    4    0    0 -0.43157150810E+03 -0.31101080179E+03  0.17544847533E+03  0.56571989741E+03  0.79215840614E+02 0.  0.
         24    2    4    4    0    0 -0.19895023424E+03  0.50084995413E+03  0.49627817690E+03  0.73690031062E+03  0.79360989664E+02 0.  0.
         13    1    3    3    0    0  0.36737614276E+03 -0.13655520532E+03  0.98915586391E+03  0.10639745662E+04  0.00000000000E+00 0. -1.
        -13    1    3    3    0    0  0.26314559957E+03 -0.53283947029E+02  0.53166931746E+03  0.59561484930E+03  0.00000000000E+00 0.  1.
          2    1    6    6  502    0 -0.67056521768E+02  0.97683992706E+02  0.82959354880E+02  0.14464091435E+03  0.00000000000E+00 0. -1.
          1    1    5    5  503    0  0.22404304045E+01 -0.88860344098E+01  0.34532863999E+01  0.97931773643E+01  0.00000000000E+00 0. -1.
         -2    1    5    5    0  503 -0.43381193850E+03 -0.30212476738E+03  0.17199518893E+03  0.55592672005E+03  0.00000000000E+00 0.  1.
         -1    1    6    6    0  502 -0.13189371247E+03  0.40316596142E+03  0.41331882202E+03  0.59225939627E+03  0.00000000000E+00 0.  1.
<mgrwt>
<rscale>  0 0.19918339E+04</rscale>
<asrwt>0</asrwt>
<pdfrwt beam="1">  1        2 0.39652010E+00 0.19918339E+04</pdfrwt>
<pdfrwt beam="2">  1       -2 0.59204447E-01 0.19918339E+04</pdfrwt>
<totfact> 0.77772206E+00</totfact>
</mgrwt>
</event>
<event>
12    1  0.2214165E-007  0.3034807E+04  0.7818608E-02  0.8233861E-01
         -2   -1    0    0    0  501 -0.00000000000E+00  0.00000000000E+00  0.78904704230E+03  0.78904704230E+03  0.00000000000E+00 0.  1.
          2   -1    0    0  501    0  0.00000000000E+00 -0.00000000000E+00 -0.29180941047E+04  0.29180941047E+04  0.00000000000E+00 0. -1.
         23    2    1    2    0    0  0.12191658597E+04 -0.46602065263E+03 -0.15319086164E+04  0.20145583663E+04  0.90336924390E+02 0.  0.
        254    2    1    2    0    0 -0.12191658597E+04  0.46602065263E+03 -0.59713844597E+03  0.16925827807E+04  0.89706270887E+03 0.  0.
        -24    2    4    4    0    0 -0.70358575880E+03  0.34188150268E+02 -0.71324098811E+03  0.10054740470E+04  0.77869136561E+02 0.  0.
         24    2    4    4    0    0 -0.51558010094E+03  0.43183250236E+03  0.11610254214E+03  0.68710873372E+03  0.79601891175E+02 0.  0.
         11    1    3    3    0    0  0.37122235971E+03 -0.99063716656E+02 -0.43536109574E+03  0.58065389346E+03  0.00000000000E+00 0.  1.
        -11    1    3    3    0    0  0.84794350003E+03 -0.36695693598E+03 -0.10965475207E+04  0.14339044728E+04  0.00000000000E+00 0. -1.
          2    1    6    6  502    0  0.23852302662E+00  0.11997796639E+02  0.39928518667E+01  0.12647010850E+02  0.00000000000E+00 0. -1.
          1    1    5    5  503    0 -0.43273828771E+03  0.58722529719E+02 -0.43394665211E+03  0.61564637417E+03  0.00000000000E+00 0. -1.
         -2    1    5    5    0  503 -0.27084747109E+03 -0.24534379451E+02 -0.27929433600E+03  0.38982767282E+03  0.00000000000E+00 0.  1.
         -1    1    6    6    0  502 -0.51581862396E+03  0.41983470572E+03  0.11210969028E+03  0.67446172287E+03  0.00000000000E+00 0.  1.
<mgrwt>
<rscale>  0 0.30348071E+04</rscale>
<asrwt>0</asrwt>
<pdfrwt beam="1">  1        2 0.44893756E+00 0.30348071E+04</pdfrwt>
<pdfrwt beam="2">  1       -2 0.12139185E+00 0.30348071E+04</pdfrwt>
<totfact> 0.86188450E-01</totfact>
</mgrwt>
</event>
<event>
12    1  0.2214165E-007  0.1971504E+04  0.7818608E-02  0.8620061E-01
         -1   -1    0    0    0  501 -0.00000000000E+00  0.00000000000E+00  0.70723071381E+03  0.70723071381E+03  0.00000000000E+00 0.  1.
          1   -1    0    0  501    0  0.00000000000E+00 -0.00000000000E+00 -0.13739600333E+04  0.13739600333E+04  0.00000000000E+00 0. -1.
         23    2    1    2    0    0 -0.26645535121E+03 -0.72562587822E+03 -0.19145433465E+03  0.80258294475E+03  0.99765984268E+02 0.  0.
        254    2    1    2    0    0  0.26645535121E+03  0.72562587822E+03 -0.47527498479E+03  0.12786078023E+04  0.90078867203E+03 0.  0.
        -24    2    4    4    0    0  0.34024661993E+03 -0.90156082570E+02 -0.10205391460E+03  0.37509257201E+03  0.79897149486E+02 0.  0.
         24    2    4    4    0    0 -0.73791268716E+02  0.81578196079E+03 -0.37322107019E+03  0.90351523031E+03  0.78105347328E+02 0.  0.
         13    1    3    3    0    0 -0.25610773826E+03 -0.66747367222E+03 -0.15017866671E+03  0.73052440660E+03  0.00000000000E+00 0.  1.
        -13    1    3    3    0    0 -0.10347612952E+02 -0.58152205995E+02 -0.41275667941E+02  0.72058538147E+02  0.00000000000E+00 0. -1.
          4    1    6    6  502    0 -0.74370456916E+02  0.40150244457E+03 -0.17491601858E+03  0.44421930554E+03  0.00000000000E+00 0. -1.
          1    1    5    5  503    0  0.23631858836E+03 -0.32085384592E+02 -0.43502829656E+02  0.24242203550E+03  0.00000000000E+00 0. -1.
         -2    1    5    5    0  503  0.10392803157E+03 -0.58070697979E+02 -0.58551084946E+02  0.13267053651E+03  0.00000000000E+00 0.  1.
         -3    1    6    6    0  502  0.57918819958E+00  0.41427951622E+03 -0.19830505161E+03  0.45929592477E+03  0.00000000000E+00 0.  1.
<mgrwt>
<rscale>  0 0.19715037E+04</rscale>
<asrwt>0</asrwt>
<pdfrwt beam="1">  1        1 0.21137847E+00 0.19715037E+04</pdfrwt>
<pdfrwt beam="2">  1       -1 0.10880473E+00 0.19715037E+04</pdfrwt>
<totfact> 0.58367523E+00</totfact>
</mgrwt>
</event>
<event>
12    1  0.2214165E-007  0.1201597E+04  0.7818608E-02  0.9111460E-01
          2   -1    0    0  501    0  0.00000000000E+00  0.00000000000E+00  0.41432452401E+03  0.41432452401E+03  0.00000000000E+00 0. -1.
         -2   -1    0    0    0  501 -0.00000000000E+00 -0.00000000000E+00 -0.87119874355E+03  0.87119874355E+03  0.00000000000E+00 0.  1.
         23    2    1    2    0    0 -0.24768177511E+03  0.30587422848E+02 -0.11606294477E+03  0.29066109806E+03  0.93442038828E+02 0.  0.
        254    2    1    2    0    0  0.24768177511E+03 -0.30587422848E+02 -0.34081127477E+03  0.99486216949E+03  0.90073112476E+03 0.  0.
        -24    2    4    4    0    0  0.29924108063E+02  0.21266889598E+03  0.23488691936E+03  0.32825366661E+03  0.80343594593E+02 0.  0.
         24    2    4    4    0    0  0.21775766705E+03 -0.24325631883E+03 -0.57569819414E+03  0.66660850288E+03  0.79664591724E+02 0.  0.
         11    1    3    3    0    0 -0.15818298838E+03  0.63511926753E+02 -0.64511706711E+02  0.18225636602E+03  0.00000000000E+00 0. -1.
        -11    1    3    3    0    0 -0.89498786727E+02 -0.32924503905E+02 -0.51551238057E+02  0.10840473204E+03  0.00000000000E+00 0.  1.
          2    1    6    6  502    0  0.11129668619E+03 -0.11965110452E+03 -0.20931364045E+03  0.26554762143E+03  0.00000000000E+00 0. -1.
          3    1    5    5  503    0 -0.25497091733E+02  0.76327667320E+02  0.64712634053E+02  0.10326538380E+03  0.00000000000E+00 0. -1.
         -4    1    5    5    0  503  0.55421199796E+02  0.13634122866E+03  0.17017428531E+03  0.22498828281E+03  0.00000000000E+00 0.  1.
         -1    1    6    6    0  502  0.10646098086E+03 -0.12360521431E+03 -0.36638455369E+03  0.40106088145E+03  0.00000000000E+00 0.  1.
<mgrwt>
<rscale>  0 0.12015973E+04</rscale>
<asrwt>0</asrwt>
<pdfrwt beam="1">  1        2 0.63742235E-01 0.12015973E+04</pdfrwt>
<pdfrwt beam="2">  1       -2 0.13403057E+00 0.12015973E+04</pdfrwt>
<totfact> 0.30274003E+01</totfact>
</mgrwt>
</event>
<event>
12    1  0.2214165E-007  0.2080383E+04  0.7818608E-02  0.8569934E-01
         -2   -1    0    0    0  501 -0.00000000000E+00  0.00000000000E+00  0.46148228473E+03  0.46148228473E+03  0.00000000000E+00 0.  1.
          2   -1    0    0  501    0  0.00000000000E+00 -0.00000000000E+00 -0.23446158106E+04  0.23446158106E+04  0.00000000000E+00 0. -1.
         23    2    1    2    0    0 -0.19763671206E+03 -0.79635055875E+03 -0.48340748193E+03  0.95667329571E+03  0.91140105072E+02 0.  0.
        254    2    1    2    0    0  0.19763671206E+03  0.79635055875E+03 -0.13997260439E+04  0.18494247996E+04  0.88763990952E+03 0.  0.
        -24    2    4    4    0    0  0.43596880179E+03  0.86657848426E+02 -0.59934885924E+03  0.75051297497E+03  0.80450554329E+02 0.  0.
         24    2    4    4    0    0 -0.23833208973E+03  0.70969271033E+03 -0.80037718470E+03  0.10989118247E+04  0.80855627423E+02 0.  0.
         13    1    3    3    0    0 -0.43102659239E+02 -0.35463062233E+03 -0.22296230523E+03  0.42110913916E+03  0.00000000000E+00 0. -1.
        -13    1    3    3    0    0 -0.15453405282E+03 -0.44171993642E+03 -0.26044517670E+03  0.53556415655E+03  0.00000000000E+00 0.  1.
          2    1    6    6  502    0 -0.14126382714E+03  0.38541415907E+03 -0.38184381679E+03  0.56062843603E+03  0.00000000000E+00 0. -1.
          1    1    5    5  503    0  0.33165021864E+03  0.66632725619E+02 -0.39383305055E+03  0.51916881585E+03  0.00000000000E+00 0. -1.
         -2    1    5    5    0  503  0.10431858314E+03  0.20025122807E+02 -0.20551580870E+03  0.23134415912E+03  0.00000000000E+00 0.  1.
         -1    1    6    6    0  502 -0.97068262586E+02  0.32427855126E+03 -0.41853336791E+03  0.53828338862E+03  0.00000000000E+00 0.  1.
<mgrwt>
<rscale>  0 0.20803833E+04</rscale>
<asrwt>0</asrwt>
<pdfrwt beam="1">  1        2 0.36071012E+00 0.20803833E+04</pdfrwt>
<pdfrwt beam="2">  1       -2 0.70997275E-01 0.20803833E+04</pdfrwt>
<totfact> 0.71141171E+00</totfact>
</mgrwt>
</event>
<event>
12    1  0.2214165E-007  0.1490344E+04  0.7818608E-02  0.8890899E-01
         -2   -1    0    0    0  501 -0.00000000000E+00  0.00000000000E+00  0.31995446665E+03  0.31995446665E+03  0.00000000000E+00 0.  1.
          2   -1    0    0  501    0  0.00000000000E+00 -0.00000000000E+00 -0.17355020046E+04  0.17355020046E+04  0.00000000000E+00 0. -1.
         23    2    1    2    0    0 -0.35981876296E+03  0.96260974717E+02 -0.62469732362E+02  0.38890468839E+03  0.92782928188E+02 0.  0.
        254    2    1    2    0    0  0.35981876296E+03 -0.96260974717E+02 -0.13530778056E+04  0.16665517829E+04  0.89879896502E+03 0.  0.
        -24    2    4    4    0    0  0.43589778698E+03  0.13500166594E+03 -0.13325633246E+04  0.14103137346E+04  0.70904764257E+02 0.  0.
         24    2    4    4    0    0 -0.76079024021E+02 -0.23126264065E+03 -0.20514481036E+02  0.25623804824E+03  0.77244200911E+02 0.  0.
         13    1    3    3    0    0 -0.27225515198E+03  0.89091403058E+02 -0.83855561199E+02  0.29848266452E+03  0.00000000000E+00 0. -1.
        -13    1    3    3    0    0 -0.87563610981E+02  0.71695716584E+01  0.21385828836E+02  0.90422023871E+02  0.00000000000E+00 0.  1.
          2    1    6    6  502    0 -0.78657673869E+02 -0.23665143652E+03 -0.20874462220E+02  0.25025322223E+03  0.00000000000E+00 0. -1.
          3    1    5    5  503    0  0.40107035192E+03  0.14093899896E+03 -0.12559780137E+04  0.13259720961E+04  0.00000000000E+00 0. -1.
         -4    1    5    5    0  503  0.34827435061E+02 -0.59373330213E+01 -0.76585310849E+02  0.84341638555E+02  0.00000000000E+00 0.  1.
         -1    1    6    6    0  502  0.25786498483E+01  0.53887958625E+01  0.35998118317E+00  0.59848260075E+01  0.00000000000E+00 0.  1.
<mgrwt>
<rscale>  0 0.14903444E+04</rscale>
<asrwt>0</asrwt>
<pdfrwt beam="1">  1        2 0.26700030E+00 0.14903444E+04</pdfrwt>
<pdfrwt beam="2">  1       -2 0.49223765E-01 0.14903444E+04</pdfrwt>
<totfact> 0.35396451E+01</totfact>
</mgrwt>
</event>
<event>
12    1  0.2214165E-007  0.1617010E+04  0.7818608E-02  0.8810166E-01
          1   -1    0    0  501    0  0.00000000000E+00  0.00000000000E+00  0.67633840909E+03  0.67633840909E+03  0.00000000000E+00 0. -1.
         -1   -1    0    0    0  501 -0.00000000000E+00 -0.00000000000E+00 -0.96649901922E+03  0.96649901922E+03  0.00000000000E+00 0.  1.
         23    2    1    2    0    0  0.48623877306E+03 -0.24383820943E+02  0.16569800924E+03  0.52240256511E+03  0.91792671881E+02 0.  0.
        254    2    1    2    0    0 -0.48623877306E+03  0.24383820943E+02 -0.45585861937E+03  0.11204348632E+04  0.90030244177E+03 0.  0.
        -24    2    4    4    0    0 -0.29073032818E+03 -0.26942309426E+03  0.13599424603E+03  0.42674852813E+03  0.80665630028E+02 0.  0.
         24    2    4    4    0    0 -0.19550844488E+03  0.29380691520E+03 -0.59185286539E+03  0.69368633506E+03  0.79780083596E+02 0.  0.
         11    1    3    3    0    0  0.34129629847E+03  0.25037894179E+02  0.11873597589E+03  0.36222685084E+03  0.00000000000E+00 0. -1.
        -11    1    3    3    0    0  0.14494247459E+03 -0.49421715121E+02  0.46962033347E+02  0.16017571427E+03  0.00000000000E+00 0.  1.
          2    1    6    6  502    0 -0.84189004189E+01  0.28290077421E+02 -0.18838670992E+02  0.35015737740E+02  0.00000000000E+00 0. -1.
          3    1    5    5  503    0 -0.26477467031E+02 -0.33401494911E+01 -0.29054255153E+01  0.26845006173E+02  0.00000000000E+00 0. -1.
         -4    1    5    5    0  503 -0.26425286115E+03 -0.26608294477E+03  0.13889967154E+03  0.39990352196E+03  0.00000000000E+00 0.  1.
         -1    1    6    6    0  502 -0.18708954447E+03  0.26551683778E+03 -0.57301419440E+03  0.65867059732E+03  0.00000000000E+00 0.  1.
<mgrwt>
<rscale>  0 0.16170101E+04</rscale>
<asrwt>0</asrwt>
<pdfrwt beam="1">  1        1 0.10405206E+00 0.16170101E+04</pdfrwt>
<pdfrwt beam="2">  1       -1 0.14869216E+00 0.16170101E+04</pdfrwt>
<totfact> 0.98248588E+00</totfact>
</mgrwt>
</event>
<event>
12    1  0.2214165E-007  0.2704760E+04  0.7818608E-02  0.8333462E-01
          2   -1    0    0  501    0  0.00000000000E+00  0.00000000000E+00  0.28768913478E+04  0.28768913478E+04  0.00000000000E+00 0.  1.
         -2   -1    0    0    0  501 -0.00000000000E+00 -0.00000000000E+00 -0.63573196467E+03  0.63573196467E+03  0.00000000000E+00 0. -1.
         23    2    1    2    0    0 -0.70008223395E+03  0.97467132047E+03  0.93852352967E+03  0.15259680577E+04  0.87480170186E+02 0.  0.
        254    2    1    2    0    0  0.70008223395E+03 -0.97467132047E+03  0.13026358534E+04  0.19866552548E+04  0.89991089410E+03 0.  0.
        -24    2    4    4    0    0  0.22625026329E+03  0.10048001816E+03  0.49342583251E+03  0.55781085729E+03  0.79990528420E+02 0.  0.
         24    2    4    4    0    0  0.47383197067E+03 -0.10751513386E+04  0.80921002094E+03  0.14288443975E+04  0.79424912993E+02 0.  0.
         13    1    3    3    0    0 -0.29143917979E+03  0.41536064146E+03  0.45153664265E+03  0.67922499781E+03  0.00000000000E+00 0. -1.
        -13    1    3    3    0    0 -0.40864305416E+03  0.55931067901E+03  0.48698688702E+03  0.84674305990E+03  0.00000000000E+00 0.  1.
          4    1    6    6  502    0  0.17352970475E+03 -0.41849285719E+03  0.35769075029E+03  0.57722742727E+03  0.00000000000E+00 0. -1.
          3    1    5    5  503    0  0.12664329864E+03  0.67072297144E+02  0.19922113255E+03  0.24541042722E+03  0.00000000000E+00 0. -1.
         -4    1    5    5    0  503  0.99606964649E+02  0.33407721014E+02  0.29420469996E+03  0.31240043007E+03  0.00000000000E+00 0.  1.
         -3    1    6    6    0  502  0.30030226592E+03 -0.65665848144E+03  0.45151927065E+03  0.85161697020E+03  0.00000000000E+00 0.  1.
<mgrwt>
<rscale>  0 0.27047601E+04</rscale>
<asrwt>0</asrwt>
<pdfrwt beam="1">  1        2 0.44259866E+00 0.27047601E+04</pdfrwt>
<pdfrwt beam="2">  1       -2 0.97804919E-01 0.27047601E+04</pdfrwt>
<totfact> 0.15841529E+00</totfact>
</mgrwt>
</event>
<event>
12    1  0.2214165E-007  0.2229326E+04  0.7818608E-02  0.8506320E-01
          1   -1    0    0  501    0  0.00000000000E+00  0.00000000000E+00  0.16716658078E+04  0.16716658078E+04  0.00000000000E+00 0. -1.
         -1   -1    0    0    0  501 -0.00000000000E+00 -0.00000000000E+00 -0.74325504956E+03  0.74325504956E+03  0.00000000000E+00 0.  1.
         23    2    1    2    0    0 -0.26741126423E+03  0.72363463758E+03  0.95265548368E+03  0.12290882699E+04  0.89160707062E+02 0.  0.
        254    2    1    2    0    0  0.26741126423E+03 -0.72363463758E+03 -0.24244725445E+02  0.11858325874E+04  0.90025287880E+03 0.  0.
        -24    2    4    4    0    0  0.34500860924E+03 -0.45005677472E+03  0.37777735181E+03  0.68605870849E+03  0.79867283905E+02 0.  0.
         24    2    4    4    0    0 -0.77597345012E+02 -0.27357786286E+03 -0.40202207725E+03  0.49977387895E+03  0.85357978437E+02 0.  0.
         13    1    3    3    0    0 -0.42824263610E+01  0.67933693905E+02  0.60626147053E+02  0.91152924526E+02  0.00000000000E+00 0.  1.
        -13    1    3    3    0    0 -0.26312883787E+03  0.65570094368E+03  0.89202933663E+03  0.11379353454E+04  0.00000000000E+00 0. -1.
          4    1    6    6  502    0 -0.52601249481E+02 -0.26080244634E+03 -0.34022922355E+03  0.43190361427E+03  0.00000000000E+00 0. -1.
          3    1    5    5  503    0  0.28734859261E+03 -0.40799618156E+03  0.30905106434E+03  0.58697756193E+03  0.00000000000E+00 0. -1.
         -4    1    5    5    0  503  0.57660016630E+02 -0.42060593165E+02  0.68726287469E+02  0.99081146564E+02  0.00000000000E+00 0.  1.
         -3    1    6    6    0  502 -0.24996095531E+02 -0.12775416526E+02 -0.61792853706E+02  0.67870264684E+02  0.00000000000E+00 0.  1.
<mgrwt>
<rscale>  0 0.22293264E+04</rscale>
<asrwt>0</asrwt>
<pdfrwt beam="1">  1        1 0.25717935E+00 0.22293264E+04</pdfrwt>
<pdfrwt beam="2">  1       -1 0.11434693E+00 0.22293264E+04</pdfrwt>
<totfact> 0.31532235E+00</totfact>
</mgrwt>
</event>
<event>
12    1  0.2214165E-007  0.1668483E+04  0.7818608E-02  0.8779546E-01
          2   -1    0    0  501    0  0.00000000000E+00  0.00000000000E+00  0.14507260944E+04  0.14507260944E+04  0.00000000000E+00 0. -1.
         -2   -1    0    0    0  501 -0.00000000000E+00 -0.00000000000E+00 -0.47973163901E+03  0.47973163901E+03  0.00000000000E+00 0.  1.
         23    2    1    2    0    0 -0.56237727279E+03 -0.65711233939E+02  0.17200720741E+03  0.59896930516E+03  0.92690808084E+02 0.  0.
        254    2    1    2    0    0  0.56237727279E+03  0.65711233939E+02  0.79898724795E+03  0.13314884282E+04  0.90216109917E+03 0.  0.
        -24    2    4    4    0    0  0.25214371948E+03  0.15762879042E+03 -0.13803073731E+03  0.33671009516E+03  0.76797870384E+02 0.  0.
         24    2    4    4    0    0  0.31023355331E+03 -0.91917556477E+02  0.93701798526E+03  0.99477833305E+03  0.82991158667E+02 0.  0.
         11    1    3    3    0    0 -0.26306790317E+03  0.11456321436E+02  0.58872971196E+02  0.26981844954E+03  0.00000000000E+00 0.  1.
        -11    1    3    3    0    0 -0.29930936963E+03 -0.77167555375E+02  0.11313423621E+03  0.32915085562E+03  0.00000000000E+00 0. -1.
          4    1    6    6  502    0  0.20896075081E+03 -0.25326501640E+02  0.64952992251E+03  0.68278484700E+03  0.00000000000E+00 0. -1.
          3    1    5    5  503    0  0.10764512694E+03  0.11243563660E+03 -0.73274161681E+02  0.17204170570E+03  0.00000000000E+00 0. -1.
         -2    1    5    5    0  503  0.14449859254E+03  0.45193153821E+02 -0.64756575633E+02  0.16466838945E+03  0.00000000000E+00 0.  1.
         -3    1    6    6    0  502  0.10127280250E+03 -0.66591054837E+02  0.28748806276E+03  0.31199348605E+03  0.00000000000E+00 0.  1.
<mgrwt>
<rscale>  0 0.16684834E+04</rscale>
<asrwt>0</asrwt>
<pdfrwt beam="1">  1        2 0.22318863E+00 0.16684834E+04</pdfrwt>
<pdfrwt beam="2">  1       -2 0.73804868E-01 0.16684834E+04</pdfrwt>
<totfact> 0.21366110E+01</totfact>
</mgrwt>
</event>
<event>
12    1  0.2214165E-007  0.1363456E+04  0.7818608E-02  0.8980704E-01
          1   -1    0    0  501    0  0.00000000000E+00  0.00000000000E+00  0.33376468688E+03  0.33376468688E+03  0.00000000000E+00 0. -1.
         -1   -1    0    0    0  501 -0.00000000000E+00 -0.00000000000E+00 -0.13924568536E+04  0.13924568536E+04  0.00000000000E+00 0.  1.
         23    2    1    2    0    0  0.55316127227E+02 -0.24921525130E+03 -0.65050371000E+03  0.70381161314E+03  0.83830750074E+02 0.  0.
        254    2    1    2    0    0 -0.55316127227E+02  0.24921525130E+03 -0.40818845676E+03  0.10224099274E+04  0.90196237612E+03 0.  0.
        -24    2    4    4    0    0  0.65858239788E+02 -0.73536269280E+00 -0.64220757976E+03  0.65046150788E+03  0.79572289329E+02 0.  0.
         24    2    4    4    0    0 -0.12117436702E+03  0.24995061400E+03  0.23401912301E+03  0.37194841948E+03  0.80138256553E+02 0.  0.
         11    1    3    3    0    0  0.31340491643E+02 -0.18259694618E+03 -0.55374449364E+03  0.58391509263E+03  0.00000000000E+00 0.  1.
        -11    1    3    3    0    0  0.23975635585E+02 -0.66618305126E+02 -0.96759216360E+02  0.11989652051E+03  0.00000000000E+00 0. -1.
          4    1    6    6  502    0 -0.11857028008E+03  0.16026754765E+03  0.16349854352E+03  0.25783012213E+03  0.00000000000E+00 0. -1.
          3    1    5    5  503    0  0.82608365343E+02 -0.66212993438E+01 -0.46132049587E+03  0.46870522030E+03  0.00000000000E+00 0. -1.
         -2    1    5    5    0  503 -0.16750125555E+02  0.58859366510E+01 -0.18088708389E+03  0.18175628758E+03  0.00000000000E+00 0.  1.
         -3    1    6    6    0  502 -0.26040869379E+01  0.89683066344E+02  0.70520579490E+02  0.11411829735E+03  0.00000000000E+00 0.  1.
<mgrwt>
<rscale>  0 0.13634558E+04</rscale>
<asrwt>0</asrwt>
<pdfrwt beam="1">  1        1 0.51348413E-01 0.13634558E+04</pdfrwt>
<pdfrwt beam="2">  1       -1 0.21422413E+00 0.13634558E+04</pdfrwt>
<totfact> 0.89738723E+00</totfact>
</mgrwt>
</event>
<event>
12    1  0.2214165E-007  0.2016384E+04  0.7818608E-02  0.8598999E-01
          1   -1    0    0  501    0  0.00000000000E+00  0.00000000000E+00  0.17227645600E+04  0.17227645600E+04  0.00000000000E+00 0. -1.
         -1   -1    0    0    0  501 -0.00000000000E+00 -0.00000000000E+00 -0.59001152938E+03  0.59001152938E+03  0.00000000000E+00 0.  1.
         23    2    1    2    0    0 -0.65425234503E+03  0.10221732980E+03 -0.63833949794E+02  0.67120272875E+03  0.89128090103E+02 0.  0.
        254    2    1    2    0    0  0.65425234503E+03 -0.10221732980E+03  0.11965869804E+04  0.16415733606E+04  0.90799129022E+03 0.  0.
        -24    2    4    4    0    0  0.43714804942E+03  0.31768369556E+03  0.96513843255E+03  0.11090274216E+04  0.80176557113E+02 0.  0.
         24    2    4    4    0    0  0.21710429561E+03 -0.41990102536E+03  0.23144854785E+03  0.53254593902E+03  0.81151713484E+02 0.  0.
         13    1    3    3    0    0 -0.52620141526E+03  0.64454673140E+02 -0.82107071846E+02  0.53645494271E+03  0.00000000000E+00 0. -1.
        -13    1    3    3    0    0 -0.12805092977E+03  0.37762656657E+02  0.18273122052E+02  0.13474778604E+03  0.00000000000E+00 0.  1.
          2    1    6    6  502    0  0.21287478015E+02 -0.44967692184E+02 -0.12644836415E+01  0.49767951329E+02  0.00000000000E+00 0. -1.
          3    1    5    5  503    0  0.12408261966E+03  0.73918323384E+02  0.32877434855E+03  0.35910024686E+03  0.00000000000E+00 0. -1.
         -4    1    5    5    0  503  0.31306542976E+03  0.24376537217E+03  0.63636408400E+03  0.74992717473E+03  0.00000000000E+00 0.  1.
         -1    1    6    6    0  502  0.19581681759E+03 -0.37493333317E+03  0.23271303149E+03  0.48277798770E+03  0.00000000000E+00 0.  1.
<mgrwt>
<rscale>  0 0.20163838E+04</rscale>
<asrwt>0</asrwt>
<pdfrwt beam="1">  1        1 0.26504070E+00 0.20163838E+04</pdfrwt>
<pdfrwt beam="2">  1       -1 0.90771005E-01 0.20163838E+04</pdfrwt>
<totfact> 0.50488315E+00</totfact>
</mgrwt>
</event>
<event>
12    1  0.2214165E-007  0.1650839E+04  0.7818608E-02  0.8789910E-01
         -1   -1    0    0    0  501 -0.00000000000E+00  0.00000000000E+00  0.41677786433E+03  0.41677786433E+03  0.00000000000E+00 0.  1.
          1   -1    0    0  501    0  0.00000000000E+00 -0.00000000000E+00 -0.16347250581E+04  0.16347250581E+04  0.00000000000E+00 0. -1.
         23    2    1    2    0    0  0.19237216829E+03  0.16135613084E+03 -0.10771660797E+04  0.11098522028E+04  0.91881971214E+02 0.  0.
        254    2    1    2    0    0 -0.19237216829E+03 -0.16135613084E+03 -0.14078111403E+03  0.94165071962E+03  0.89657342343E+03 0.  0.
        -24    2    4    4    0    0 -0.43467774436E+03 -0.38838345017E+03 -0.11127526088E+03  0.59889327881E+03  0.80650665907E+02 0.  0.
         24    2    4    4    0    0  0.24230557606E+03  0.22702731933E+03 -0.29505853144E+02  0.34275744081E+03  0.79741281299E+02 0.  0.
         13    1    3    3    0    0  0.24993597409E+00 -0.54318305142E+01 -0.35298059621E+01  0.64828065570E+01  0.00000000000E+00 0.  1.
        -13    1    3    3    0    0  0.19212223232E+03  0.16678796135E+03 -0.10736362738E+04  0.11033693962E+04  0.00000000000E+00 0. -1.
          4    1    6    6  502    0  0.23094453882E+03  0.18171053411E+03 -0.16796183783E+02  0.29434029627E+03  0.00000000000E+00 0. -1.
          3    1    5    5  503    0 -0.22994254574E+03 -0.24976244147E+03 -0.86951249268E+02  0.35045024077E+03  0.00000000000E+00 0. -1.
         -4    1    5    5    0  503 -0.20473519862E+03 -0.13862100871E+03 -0.24324011613E+02  0.24844303804E+03  0.00000000000E+00 0.  1.
         -3    1    6    6    0  502  0.11361037248E+02  0.45316785223E+02 -0.12709669361E+02  0.48417144541E+02  0.00000000000E+00 0.  1.
<mgrwt>
<rscale>  0 0.16508388E+04</rscale>
<asrwt>0</asrwt>
<pdfrwt beam="1">  1        1 0.25149616E+00 0.16508388E+04</pdfrwt>
<pdfrwt beam="2">  1       -1 0.64119672E-01 0.16508388E+04</pdfrwt>
<totfact> 0.12448901E+01</totfact>
</mgrwt>
</event>
<event>
12    1  0.2214165E-007  0.3311281E+04  0.7818608E-02  0.8160031E-01
         -2   -1    0    0    0  501 -0.00000000000E+00  0.00000000000E+00  0.12837055798E+04  0.12837055798E+04  0.00000000000E+00 0.  1.
          2   -1    0    0  501    0  0.00000000000E+00 -0.00000000000E+00 -0.21353377935E+04  0.21353377935E+04  0.00000000000E+00 0. -1.
         23    2    1    2    0    0  0.14959128353E+04 -0.31155772283E+03 -0.27452326405E+03  0.15551449517E+04  0.91045992454E+02 0.  0.
        254    2    1    2    0    0 -0.14959128353E+04  0.31155772283E+03 -0.57710894964E+03  0.18638984217E+04  0.89790821417E+03 0.  0.
        -24    2    4    4    0    0 -0.11196672013E+04 -0.17702075112E+03 -0.25880050111E+03  0.11653814418E+04  0.78391436662E+02 0.  0.
         24    2    4    4    0    0 -0.37624563394E+03  0.48857847395E+03 -0.31830844853E+03  0.69851697989E+03  0.79598998293E+02 0.  0.
         13    1    3    3    0    0  0.41528487350E+02 -0.22224207880E+02 -0.16938358161E+02  0.50054356999E+02  0.00000000000E+00 0. -1.
        -13    1    3    3    0    0  0.14543843479E+04 -0.28933351495E+03 -0.25758490589E+03  0.15050905947E+04  0.00000000000E+00 0.  1.
          2    1    6    6  502    0 -0.95250181144E+02  0.74161313864E+02 -0.71354849471E+02  0.14022842802E+03  0.00000000000E+00 0. -1.
          3    1    5    5  503    0 -0.75481296052E+03 -0.12395036424E+03 -0.13703201470E+03  0.77709978202E+03  0.00000000000E+00 0. -1.
         -4    1    5    5    0  503 -0.36485424082E+03 -0.53070386875E+02 -0.12176848641E+03  0.38828165974E+03  0.00000000000E+00 0.  1.
         -1    1    6    6    0  502 -0.28099545280E+03  0.41441716008E+03 -0.24695359906E+03  0.55828855187E+03  0.00000000000E+00 0.  1.
<mgrwt>
<rscale>  0 0.33112807E+04</rscale>
<asrwt>0</asrwt>
<pdfrwt beam="1">  1        2 0.32851350E+00 0.33112807E+04</pdfrwt>
<pdfrwt beam="2">  1       -2 0.19749317E+00 0.33112807E+04</pdfrwt>
<totfact> 0.64725795E-01</totfact>
</mgrwt>
</event>
<event>
12    1  0.2214165E-007  0.4122540E+04  0.7818608E-02  0.7980273E-01
          2   -1    0    0  501    0  0.00000000000E+00  0.00000000000E+00  0.26213694641E+04  0.26213694641E+04  0.00000000000E+00 0. -1.
         -2   -1    0    0    0  501 -0.00000000000E+00 -0.00000000000E+00 -0.16208449756E+04  0.16208449756E+04  0.00000000000E+00 0.  1.
         23    2    1    2    0    0 -0.20482975070E+03 -0.15860922078E+04 -0.69314626824E+03  0.17454278695E+04  0.91776794247E+02 0.  0.
        254    2    1    2    0    0  0.20482975070E+03  0.15860922078E+04  0.16936707567E+04  0.24967865702E+04  0.89876516761E+03 0.  0.
        -24    2    4    4    0    0 -0.29446119144E+03  0.22627653581E+03  0.41160937479E+03  0.56061087354E+03  0.83389508892E+02 0.  0.
         24    2    4    4    0    0  0.49929094214E+03  0.13598156720E+04  0.12820613819E+04  0.19361756967E+04  0.81883054245E+02 0.  0.
         13    1    3    3    0    0 -0.83922318849E+02 -0.65663518597E+03 -0.23785969267E+03  0.70341307668E+03  0.00000000000E+00 0.  1.
        -13    1    3    3    0    0 -0.12090743185E+03 -0.92945702184E+03 -0.45528657557E+03  0.10420147928E+04  0.00000000000E+00 0. -1.
          2    1    6    6  502    0  0.14643346083E+03  0.50347515758E+03  0.48445423888E+03  0.71388087405E+03  0.00000000000E+00 0. -1.
          3    1    5    5  503    0 -0.12399784709E+03  0.48945624509E+02  0.12278376803E+03  0.18123739662E+03  0.00000000000E+00 0. -1.
         -2    1    5    5    0  503 -0.17046334435E+03  0.17733091130E+03  0.28882560676E+03  0.37937347692E+03  0.00000000000E+00 0.  1.
         -1    1    6    6    0  502  0.35285748132E+03  0.85634051441E+03  0.79760714305E+03  0.12222948226E+04  0.00000000000E+00 0.  1.
<mgrwt>
<rscale>  0 0.41225398E+04</rscale>
<asrwt>0</asrwt>
<pdfrwt beam="1">  1        2 0.40328761E+00 0.41225398E+04</pdfrwt>
<pdfrwt beam="2">  1       -2 0.24936077E+00 0.41225398E+04</pdfrwt>
<totfact> 0.14974002E-01</totfact>
</mgrwt>
</event>
<event>
12    1  0.2214165E-007  0.2728986E+04  0.7818608E-02  0.8325661E-01
         -2   -1    0    0    0  501 -0.00000000000E+00  0.00000000000E+00  0.25098162323E+04  0.25098162323E+04  0.00000000000E+00 0.  1.
          2   -1    0    0  501    0  0.00000000000E+00 -0.00000000000E+00 -0.74182357272E+03  0.74182357272E+03  0.00000000000E+00 0. -1.
         23    2    1    2    0    0 -0.97183589753E+03 -0.17104923438E+03  0.16458040658E+04  0.19211213412E+04  0.91177476783E+02 0.  0.
        254    2    1    2    0    0  0.97183589753E+03  0.17104923438E+03  0.12218859377E+03  0.13305184638E+04  0.88409641883E+03 0.  0.
        -24    2    4    4    0    0  0.11019622447E+04  0.21147957479E+03 -0.75872483926E+01  0.11247832178E+04  0.77687330000E+02 0.  0.
         24    2    4    4    0    0 -0.13012634721E+03 -0.40430340409E+02  0.12977584217E+03  0.20573524605E+03  0.83172973956E+02 0.  0.
         13    1    3    3    0    0 -0.73262476956E+03 -0.16850195954E+03  0.12488787855E+04  0.14576797262E+04  0.00000000000E+00 0.  1.
        -13    1    3    3    0    0 -0.23921112797E+03 -0.25472748448E+01  0.39692528027E+03  0.46344161496E+03  0.00000000000E+00 0. -1.
          2    1    6    6  502    0 -0.68985900882E+01 -0.32419438591E+02  0.12473456521E+02  0.35414653201E+02  0.00000000000E+00 0. -1.
          3    1    5    5  503    0  0.34515184034E+03  0.77506481916E+02 -0.36764612809E+02  0.35565247698E+03  0.00000000000E+00 0. -1.
         -4    1    5    5    0  503  0.75681040440E+03  0.13397309288E+03  0.29177364416E+02  0.76913074078E+03  0.00000000000E+00 0.  1.
         -1    1    6    6    0  502 -0.12322775712E+03 -0.80109018177E+01  0.11730238564E+03  0.17032059285E+03  0.00000000000E+00 0.  1.
<mgrwt>
<rscale>  0 0.27289858E+04</rscale>
<asrwt>0</asrwt>
<pdfrwt beam="1">  1        2 0.11412670E+00 0.27289858E+04</pdfrwt>
<pdfrwt beam="2">  1       -2 0.38612557E+00 0.27289858E+04</pdfrwt>
<totfact> 0.30420262E-01</totfact>
</mgrwt>
</event>
<event>
12    1  0.2214165E-007  0.2736401E+04  0.7818608E-02  0.8323290E-01
          1   -1    0    0  501    0  0.00000000000E+00  0.00000000000E+00  0.14930404153E+04  0.14930404153E+04  0.00000000000E+00 0. -1.
         -1   -1    0    0    0  501 -0.00000000000E+00 -0.00000000000E+00 -0.12537993629E+04  0.12537993629E+04  0.00000000000E+00 0.  1.
         23    2    1    2    0    0  0.10098101745E+04 -0.57304833756E+03 -0.26302962488E+03  0.11939995828E+04  0.91375240044E+02 0.  0.
        254    2    1    2    0    0 -0.10098101745E+04  0.57304833756E+03  0.50227067727E+03  0.15528401954E+04  0.90051976852E+03 0.  0.
        -24    2    4    4    0    0 -0.52955462307E+03 -0.14437375439E+03  0.39069554624E+03  0.67868672296E+03  0.81858281819E+02 0.  0.
         24    2    4    4    0    0 -0.48025555143E+03  0.71742209195E+03  0.11157513103E+03  0.87415347244E+03  0.79720955893E+02 0.  0.
         11    1    3    3    0    0  0.22642015451E+03 -0.13688803846E+03 -0.21736275258E+02  0.26547483328E+03  0.00000000000E+00 0. -1.
        -11    1    3    3    0    0  0.78339001999E+03 -0.43616029910E+03 -0.24129334962E+03  0.92852474954E+03  0.00000000000E+00 0.  1.
          2    1    6    6  502    0 -0.37177087404E+02  0.26350189638E+02  0.12713339902E+02  0.47308533408E+02  0.00000000000E+00 0. -1.
          3    1    5    5  503    0 -0.10498909775E+03 -0.12122509273E+02  0.42557486760E+02  0.11393333822E+03  0.00000000000E+00 0. -1.
         -4    1    5    5    0  503 -0.42456552532E+03 -0.13225124511E+03  0.34813805948E+03  0.56475338474E+03  0.00000000000E+00 0.  1.
         -1    1    6    6    0  502 -0.44307846403E+03  0.69107190231E+03  0.98861791129E+02  0.82684493903E+03  0.00000000000E+00 0.  1.
<mgrwt>
<rscale>  0 0.27364014E+04</rscale>
<asrwt>0</asrwt>
<pdfrwt beam="1">  1        1 0.22969853E+00 0.27364014E+04</pdfrwt>
<pdfrwt beam="2">  1       -1 0.19289221E+00 0.27364014E+04</pdfrwt>
<totfact> 0.97105101E-01</totfact>
</mgrwt>
</event>
<event>
12    1  0.2214165E-007  0.2985736E+04  0.7818608E-02  0.8247816E-01
          2   -1    0    0  501    0  0.00000000000E+00  0.00000000000E+00  0.17682525249E+04  0.17682525249E+04  0.00000000000E+00 0. -1.
         -2   -1    0    0    0  501 -0.00000000000E+00 -0.00000000000E+00 -0.12603715758E+04  0.12603715758E+04  0.00000000000E+00 0.  1.
         23    2    1    2    0    0  0.88910428643E+03  0.73875226861E+03  0.94365042512E+03  0.14950702160E+04  0.92181774441E+02 0.  0.
        254    2    1    2    0    0 -0.88910428643E+03 -0.73875226861E+03 -0.43576947601E+03  0.15335538847E+04  0.90864246799E+03 0.  0.
        -24    2    4    4    0    0  0.11864858639E+03 -0.36277254563E+03 -0.84097306314E+02  0.39910732194E+03  0.80826298860E+02 0.  0.
         24    2    4    4    0    0 -0.10077528728E+04 -0.37597972299E+03 -0.35167216970E+03  0.11344465628E+04  0.79806541754E+02 0.  0.
         11    1    3    3    0    0  0.58379373029E+03  0.51922755338E+03  0.59220443279E+03  0.98036649368E+03  0.00000000000E+00 0.  1.
        -11    1    3    3    0    0  0.30531055614E+03  0.21952471523E+03  0.35144599233E+03  0.51470372237E+03  0.00000000000E+00 0. -1.
          2    1    6    6  502    0 -0.40654369127E+03 -0.19242194875E+03 -0.13665822963E+03  0.47008451473E+03  0.00000000000E+00 0. -1.
          3    1    5    5  503    0  0.12645391896E+03 -0.32948192443E+03 -0.61796726218E+02  0.35828447848E+03  0.00000000000E+00 0. -1.
         -4    1    5    5    0  503 -0.78053325679E+01 -0.33290621196E+02 -0.22300580096E+02  0.40822843467E+02  0.00000000000E+00 0.  1.
         -1    1    6    6    0  502 -0.60120918156E+03 -0.18355777423E+03 -0.21501394007E+03  0.66436204806E+03  0.00000000000E+00 0.  1.
<mgrwt>
<rscale>  0 0.29857362E+04</rscale>
<asrwt>0</asrwt>
<pdfrwt beam="1">  1        2 0.27203885E+00 0.29857362E+04</pdfrwt>
<pdfrwt beam="2">  1       -2 0.19390332E+00 0.29857362E+04</pdfrwt>
<totfact> 0.11241772E+00</totfact>
</mgrwt>
</event>
<event>
12    1  0.2214165E-007  0.5020393E+04  0.7818608E-02  0.7825369E-01
         -2   -1    0    0    0  501 -0.00000000000E+00  0.00000000000E+00  0.14206030344E+04  0.14206030344E+04  0.00000000000E+00 0.  1.
          2   -1    0    0  501    0  0.00000000000E+00 -0.00000000000E+00 -0.44355011395E+04  0.44355011395E+04  0.00000000000E+00 0. -1.
         23    2    1    2    0    0 -0.56177042106E+03  0.21284544461E+04 -0.26702761816E+03  0.22200875918E+04  0.10761427117E+03 0.  0.
        254    2    1    2    0    0  0.56177042106E+03 -0.21284544461E+04 -0.27478704870E+04  0.36360165820E+04  0.90770041129E+03 0.  0.
        -24    2    4    4    0    0  0.47630984734E+03 -0.41192823438E+03 -0.51773075514E+03  0.81931160538E+03  0.81672706296E+02 0.  0.
         24    2    4    4    0    0  0.85460573725E+02 -0.17165262117E+04 -0.22301397318E+04  0.28167049766E+04  0.80857633404E+02 0.  0.
         13    1    3    3    0    0 -0.33992083638E+03  0.14766347133E+04 -0.17056439581E+03  0.15248240766E+04  0.00000000000E+00 0.  1.
        -13    1    3    3    0    0 -0.22184958468E+03  0.65181973282E+03 -0.96463222350E+02  0.69526351521E+03  0.00000000000E+00 0. -1.
          4    1    6    6  502    0  0.41815784067E+02 -0.13907551847E+04 -0.17772213587E+04  0.22570920011E+04  0.00000000000E+00 0. -1.
          1    1    5    5  503    0  0.25292210862E+03 -0.23323047734E+03 -0.33284372538E+03  0.47869718415E+03  0.00000000000E+00 0. -1.
         -2    1    5    5    0  503  0.22338773871E+03 -0.17869775704E+03 -0.18488702976E+03  0.34061442123E+03  0.00000000000E+00 0.  1.
         -3    1    6    6    0  502  0.43644789657E+02 -0.32577102703E+03 -0.45291837310E+03  0.55961297556E+03  0.00000000000E+00 0.  1.
<mgrwt>
<rscale>  0 0.50203930E+04</rscale>
<asrwt>0</asrwt>
<pdfrwt beam="1">  1        2 0.68238479E+00 0.50203930E+04</pdfrwt>
<pdfrwt beam="2">  1       -2 0.21855431E+00 0.50203930E+04</pdfrwt>
<totfact> 0.10330049E-02</totfact>
</mgrwt>
</event>
<event>
12    1  0.2214165E-007  0.3713354E+04  0.7818608E-02  0.8065009E-01
         -1   -1    0    0    0  501 -0.00000000000E+00  0.00000000000E+00  0.18395786056E+04  0.18395786056E+04  0.00000000000E+00 0.  1.
          1   -1    0    0  501    0  0.00000000000E+00 -0.00000000000E+00 -0.18739343745E+04  0.18739343745E+04  0.00000000000E+00 0. -1.
         23    2    1    2    0    0 -0.46739597793E+03  0.13404714349E+04 -0.10332228402E+04  0.17581889625E+04  0.91412922323E+02 0.  0.
        254    2    1    2    0    0  0.46739597793E+03 -0.13404714349E+04  0.99886707133E+03  0.19553240176E+04  0.90012994595E+03 0.  0.
        -24    2    4    4    0    0  0.10396328152E+03 -0.64895924448E+02 -0.14211024590E+03  0.20389770029E+03  0.79743998384E+02 0.  0.
         24    2    4    4    0    0  0.36343269640E+03 -0.12755755105E+04  0.11409773172E+04  0.17514263173E+04  0.80552460086E+02 0.  0.
         13    1    3    3    0    0 -0.34286381841E+03  0.85077537535E+03 -0.66255297884E+03  0.11315258667E+04  0.00000000000E+00 0. -1.
        -13    1    3    3    0    0 -0.12453215952E+03  0.48969605956E+03 -0.37066986141E+03  0.62666309582E+03  0.00000000000E+00 0.  1.
          4    1    6    6  502    0  0.28981843494E+03 -0.11072560656E+04  0.96604055643E+03  0.14977466664E+04  0.00000000000E+00 0. -1.
          1    1    5    5  503    0  0.10362245411E+03 -0.68215139084E+02 -0.93944387133E+02  0.15561640681E+03  0.00000000000E+00 0. -1.
         -2    1    5    5    0  503  0.34082741723E+00  0.33192146369E+01 -0.48165858762E+02  0.48281293473E+02  0.00000000000E+00 0.  1.
         -3    1    6    6    0  502  0.73614261463E+02 -0.16831944491E+03  0.17493676079E+03  0.25367965094E+03  0.00000000000E+00 0.  1.
<mgrwt>
<rscale>  0 0.37133541E+04</rscale>
<asrwt>0</asrwt>
<pdfrwt beam="1">  1        1 0.28829760E+00 0.37133541E+04</pdfrwt>
<pdfrwt beam="2">  1       -1 0.28301209E+00 0.37133541E+04</pdfrwt>
<totfact> 0.12376127E-01</totfact>
</mgrwt>
</event>
<event>
12    1  0.2214165E-007  0.1382909E+04  0.7818608E-02  0.8966284E-01
         -1   -1    0    0    0  501 -0.00000000000E+00  0.00000000000E+00  0.17122404617E+03  0.17122404617E+03  0.00000000000E+00 0.  1.
          1   -1    0    0  501    0  0.00000000000E+00 -0.00000000000E+00 -0.27923024016E+04  0.27923024016E+04  0.00000000000E+00 0. -1.
         23    2    1    2    0    0  0.35599153157E+00  0.33060153019E+03 -0.12118634465E+04  0.12589890625E+04  0.84515962743E+02 0.  0.
        254    2    1    2    0    0 -0.35599153157E+00 -0.33060153019E+03 -0.14092149089E+04  0.17045373853E+04  0.90014639913E+03 0.  0.
        -24    2    4    4    0    0  0.35292340239E+02 -0.49046795710E+03 -0.30208721117E+03  0.58250291971E+03  0.79048099852E+02 0.  0.
         24    2    4    4    0    0 -0.35648331771E+02  0.15986642692E+03 -0.11071276977E+04  0.11220344656E+04  0.80009529688E+02 0.  0.
         11    1    3    3    0    0 -0.11199538671E+02  0.80969685118E+01 -0.20733488044E+02  0.24917224805E+02  0.00000000000E+00 0.  1.
        -11    1    3    3    0    0  0.11555530203E+02  0.32250456167E+03 -0.11911299584E+04  0.12340718377E+04  0.00000000000E+00 0. -1.
          4    1    6    6  502    0 -0.35018057112E+02  0.24896799458E+02 -0.17564138508E+03  0.18082038353E+03  0.00000000000E+00 0. -1.
          1    1    5    5  503    0  0.20419210932E+02 -0.11087738227E+03 -0.10709394708E+03  0.15549871888E+03  0.00000000000E+00 0. -1.
         -2    1    5    5    0  503  0.14873129307E+02 -0.37959057483E+03 -0.19499326409E+03  0.42700420082E+03  0.00000000000E+00 0.  1.
         -3    1    6    6    0  502 -0.63027465871E+00  0.13496962746E+03 -0.93148631267E+03  0.94121408206E+03  0.00000000000E+00 0.  1.
<mgrwt>
<rscale>  0 0.13829090E+04</rscale>
<asrwt>0</asrwt>
<pdfrwt beam="1">  1        1 0.42958497E+00 0.13829090E+04</pdfrwt>
<pdfrwt beam="2">  1       -1 0.26342162E-01 0.13829090E+04</pdfrwt>
<totfact> 0.10612506E+01</totfact>
</mgrwt>
</event>
<event>
12    1  0.2214165E-007  0.3337661E+04  0.7818608E-02  0.8153378E-01
         -2   -1    0    0    0  501 -0.00000000000E+00  0.00000000000E+00  0.85137601873E+03  0.85137601873E+03  0.00000000000E+00 0. -1.
          2   -1    0    0  501    0  0.00000000000E+00 -0.00000000000E+00 -0.32711686686E+04  0.32711686686E+04  0.00000000000E+00 0.  1.
         23    2    1    2    0    0  0.74553229950E+02 -0.13348938851E+04 -0.16444326817E+03  0.13503463749E+04  0.94307344951E+02 0.  0.
        254    2    1    2    0    0 -0.74553229950E+02  0.13348938851E+04 -0.22553493817E+04  0.27721983124E+04  0.90054582405E+03 0.  0.
        -24    2    4    4    0    0  0.31856912004E+03  0.10924145667E+04 -0.16752134463E+04  0.20265583083E+04  0.75780054591E+02 0.  0.
         24    2    4    4    0    0 -0.39312234999E+03  0.24247931841E+03 -0.58013593537E+03  0.74564000404E+03  0.77973778949E+02 0.  0.
         11    1    3    3    0    0  0.84213306770E+02 -0.80743105130E+03 -0.12427654299E+03  0.82126819174E+03  0.00000000000E+00 0.  1.
        -11    1    3    3    0    0 -0.96600768203E+01 -0.52746283379E+03 -0.40166725182E+02  0.52907818319E+03  0.00000000000E+00 0. -1.
          2    1    6    6  502    0 -0.29084875149E+02  0.38441826055E+02 -0.88420499182E+02  0.10070694429E+03  0.00000000000E+00 0. -1.
          3    1    5    5  503    0  0.64126632140E+02  0.21777508977E+03 -0.39030625218E+03  0.45152761285E+03  0.00000000000E+00 0. -1.
         -2    1    5    5    0  503  0.25444248790E+03  0.87463947690E+03 -0.12849071941E+04  0.15750306955E+04  0.00000000000E+00 0.  1.
         -1    1    6    6    0  502 -0.36403747485E+03  0.20403749236E+03 -0.49171543618E+03  0.64493305975E+03  0.00000000000E+00 0.  1.
<mgrwt>
<rscale>  0 0.33376606E+04</rscale>
<asrwt>0</asrwt>
<pdfrwt beam="1">  1        2 0.50325672E+00 0.33376606E+04</pdfrwt>
<pdfrwt beam="2">  1       -2 0.13098093E+00 0.33376606E+04</pdfrwt>
<totfact> 0.41257596E-01</totfact>
</mgrwt>
</event>
<event>
12    1  0.2214165E-007  0.1855530E+04  0.7818608E-02  0.8677314E-01
          2   -1    0    0  501    0  0.00000000000E+00  0.00000000000E+00  0.12903018065E+04  0.12903018065E+04  0.00000000000E+00 0.  1.
         -2   -1    0    0    0  501 -0.00000000000E+00 -0.00000000000E+00 -0.66709058775E+03  0.66709058775E+03  0.00000000000E+00 0. -1.
         23    2    1    2    0    0 -0.32821898898E+03 -0.61298507910E+03  0.10916762436E+03  0.70971748666E+03  0.91120407897E+02 0.  0.
        254    2    1    2    0    0  0.32821898898E+03  0.61298507910E+03  0.51404359443E+03  0.12476749076E+04  0.89942951155E+03 0.  0.
        -24    2    4    4    0    0  0.10312095125E+03 -0.22052342362E+03  0.42707016181E+02  0.25990837341E+03  0.80398771063E+02 0.  0.
         24    2    4    4    0    0  0.22509803773E+03  0.83350850272E+03  0.47133657824E+03  0.98776653422E+03  0.90105524001E+02 0.  0.
         13    1    3    3    0    0 -0.26753271666E+03 -0.52693057635E+03  0.12267221989E+03  0.60355452140E+03  0.00000000000E+00 0.  1.
        -13    1    3    3    0    0 -0.60686272319E+02 -0.86054502751E+02 -0.13504595522E+02  0.10616296526E+03  0.00000000000E+00 0. -1.
          4    1    6    6  502    0  0.12869966401E+03  0.44186978439E+03  0.30114629242E+03  0.55000145392E+03  0.00000000000E+00 0. -1.
          3    1    5    5  503    0  0.66189665138E+02 -0.18419807164E+03  0.49241780376E+01  0.19579134020E+03  0.00000000000E+00 0. -1.
         -4    1    5    5    0  503  0.36931286113E+02 -0.36325351978E+02  0.37782838144E+02  0.64117033216E+02  0.00000000000E+00 0.  1.
         -3    1    6    6    0  502  0.96398373711E+02  0.39163871833E+03  0.17019028582E+03  0.43776508031E+03  0.00000000000E+00 0.  1.
<mgrwt>
<rscale>  0 0.18555303E+04</rscale>
<asrwt>0</asrwt>
<pdfrwt beam="1">  1        2 0.19850797E+00 0.18555303E+04</pdfrwt>
<pdfrwt beam="2">  1       -2 0.10262932E+00 0.18555303E+04</pdfrwt>
<totfact> 0.12224774E+01</totfact>
</mgrwt>
</event>
<event>
12    1  0.2214165E-007  0.1399399E+04  0.7818608E-02  0.8954254E-01
          2   -1    0    0  501    0  0.00000000000E+00  0.00000000000E+00  0.84111019504E+03  0.84111019504E+03  0.00000000000E+00 0. -1.
         -2   -1    0    0    0  501 -0.00000000000E+00 -0.00000000000E+00 -0.58206329658E+03  0.58206329658E+03  0.00000000000E+00 0.  1.
         23    2    1    2    0    0  0.27182521061E+03 -0.22618863039E+03  0.27523275204E+03  0.45713664204E+03  0.90391371569E+02 0.  0.
        254    2    1    2    0    0 -0.27182521061E+03  0.22618863039E+03 -0.16185853578E+02  0.96603684959E+03  0.89884090431E+03 0.  0.
        -24    2    4    4    0    0 -0.36908160020E+03 -0.23441596722E+03  0.13492754411E+03  0.46521858536E+03  0.83969141415E+02 0.  0.
         24    2    4    4    0    0  0.97256389586E+02  0.46060459761E+03 -0.15111339769E+03  0.50081826423E+03  0.79801467212E+02 0.  0.
         13    1    3    3    0    0  0.10791605095E+03 -0.13738974504E+03  0.10005973091E+03  0.20132999241E+03  0.00000000000E+00 0.  1.
        -13    1    3    3    0    0  0.16390915967E+03 -0.88798885357E+02  0.17517302113E+03  0.25580664963E+03  0.00000000000E+00 0. -1.
          4    1    6    6  502    0  0.11458552411E+02  0.24666060246E+03 -0.74791157483E+02  0.25800478381E+03  0.00000000000E+00 0. -1.
          1    1    5    5  503    0 -0.25075498940E+03 -0.20230423994E+03  0.88563331316E+02  0.33413849503E+03  0.00000000000E+00 0. -1.
         -2    1    5    5    0  503 -0.11832661080E+03 -0.32111727273E+02  0.46364212795E+02  0.13108009032E+03  0.00000000000E+00 0.  1.
         -3    1    6    6    0  502  0.85797837175E+02  0.21394399515E+03 -0.76322240206E+02  0.24281348042E+03  0.00000000000E+00 0.  1.
<mgrwt>
<rscale>  0 0.13993990E+04</rscale>
<asrwt>0</asrwt>
<pdfrwt beam="1">  1        2 0.12940157E+00 0.13993990E+04</pdfrwt>
<pdfrwt beam="2">  1       -2 0.89548200E-01 0.13993990E+04</pdfrwt>
<totfact> 0.33517431E+01</totfact>
</mgrwt>
</event>
<event>
12    1  0.2214165E-007  0.1841792E+04  0.7818608E-02  0.8684385E-01
         -2   -1    0    0    0  501 -0.00000000000E+00  0.00000000000E+00  0.85904368271E+03  0.85904368271E+03  0.00000000000E+00 0.  1.
          2   -1    0    0  501    0  0.00000000000E+00 -0.00000000000E+00 -0.98720157273E+03  0.98720157273E+03  0.00000000000E+00 0. -1.
         23    2    1    2    0    0 -0.65180424405E+03 -0.24619071963E+03 -0.30178141404E+02  0.70344258588E+03  0.91989719077E+02 0.  0.
        254    2    1    2    0    0  0.65180424405E+03  0.24619071963E+03 -0.97979748612E+02  0.11428026696E+04  0.90052166406E+03 0.  0.
        -24    2    4    4    0    0  0.31647998844E+03  0.48012638334E+03 -0.32722257985E+03  0.66688154156E+03  0.83519139425E+02 0.  0.
         24    2    4    4    0    0  0.33532425561E+03 -0.23393566371E+03  0.22924283124E+03  0.47592112800E+03  0.82343143327E+02 0.  0.
         11    1    3    3    0    0 -0.28846344389E+03 -0.60933889406E+02 -0.19134998294E+02  0.29544922660E+03  0.00000000000E+00 0. -1.
        -11    1    3    3    0    0 -0.36334080016E+03 -0.18525683023E+03 -0.11043143110E+02  0.40799335928E+03  0.00000000000E+00 0.  1.
          2    1    6    6  502    0  0.26595707584E+03 -0.21866701311E+03  0.20579354727E+03  0.40112269059E+03  0.00000000000E+00 0. -1.
          3    1    5    5  503    0  0.24477733814E+03  0.33264356792E+03 -0.26893087794E+03  0.49284024354E+03  0.00000000000E+00 0. -1.
         -4    1    5    5    0  503  0.71702650297E+02  0.14748281542E+03 -0.58291701906E+02  0.17404129802E+03  0.00000000000E+00 0.  1.
         -1    1    6    6    0  502  0.69367179772E+02 -0.15268650595E+02  0.23449283970E+02  0.74798437411E+02  0.00000000000E+00 0.  1.
<mgrwt>
<rscale>  0 0.18417918E+04</rscale>
<asrwt>0</asrwt>
<pdfrwt beam="1">  1        2 0.15187716E+00 0.18417918E+04</pdfrwt>
<pdfrwt beam="2">  1       -2 0.13216057E+00 0.18417918E+04</pdfrwt>
<totfact> 0.10060541E+01</totfact>
</mgrwt>
</event>
<event>
12    1  0.2214165E-007  0.2362100E+04  0.7818608E-02  0.8453831E-01
         -2   -1    0    0    0  501 -0.00000000000E+00  0.00000000000E+00  0.25986410435E+04  0.25986410435E+04  0.00000000000E+00 0.  1.
          2   -1    0    0  501    0  0.00000000000E+00 -0.00000000000E+00 -0.53677242428E+03  0.53677242428E+03  0.00000000000E+00 0. -1.
         23    2    1    2    0    0  0.84568509241E+03 -0.50955063476E+03  0.61973758727E+03  0.11696986948E+04  0.96411796830E+02 0.  0.
        254    2    1    2    0    0 -0.84568509241E+03  0.50955063476E+03  0.14421310319E+04  0.19657147730E+04  0.89970413500E+03 0.  0.
        -24    2    4    4    0    0 -0.32359370174E+03  0.69830250146E+03  0.80119186640E+03  0.11139465676E+04  0.81420398781E+02 0.  0.
         24    2    4    4    0    0 -0.52209139067E+03 -0.18875186670E+03  0.64093916552E+03  0.85176820537E+03  0.80618697471E+02 0.  0.
         13    1    3    3    0    0  0.72449606161E+03 -0.43978242688E+03  0.56957796567E+03  0.10211376916E+04  0.00000000000E+00 0.  1.
        -13    1    3    3    0    0  0.12118903080E+03 -0.69768207885E+02  0.50159621603E+02  0.14856100315E+03  0.00000000000E+00 0. -1.
          4    1    6    6  502    0 -0.49684265097E+03 -0.15989260052E+03  0.58556559135E+03  0.78441400121E+03  0.00000000000E+00 0. -1.
          1    1    5    5  503    0 -0.22702929155E+03  0.51200028286E+03  0.53043293623E+03  0.77139204605E+03  0.00000000000E+00 0. -1.
         -2    1    5    5    0  503 -0.96564410192E+02  0.18630221860E+03  0.27075893017E+03  0.34255452156E+03  0.00000000000E+00 0.  1.
         -3    1    6    6    0  502 -0.25248739701E+02 -0.28859266184E+02  0.55373574172E+02  0.67354204157E+02  0.00000000000E+00 0.  1.
<mgrwt>
<rscale>  0 0.23620998E+04</rscale>
<asrwt>0</asrwt>
<pdfrwt beam="1">  1        2 0.82580375E-01 0.23620998E+04</pdfrwt>
<pdfrwt beam="2">  1       -2 0.39979092E+00 0.23620998E+04</pdfrwt>
<totfact> 0.38087953E-01</totfact>
</mgrwt>
</event>
<event>
12    1  0.2214165E-007  0.1540912E+04  0.7818608E-02  0.8857694E-01
          1   -1    0    0  501    0  0.00000000000E+00  0.00000000000E+00  0.18631551280E+04  0.18631551280E+04  0.00000000000E+00 0. -1.
         -1   -1    0    0    0  501 -0.00000000000E+00 -0.00000000000E+00 -0.31860047053E+03  0.31860047053E+03  0.00000000000E+00 0.  1.
         23    2    1    2    0    0  0.11068613204E+02  0.35941585788E+03  0.10133671917E+04  0.10789690441E+04  0.89212443106E+02 0.  0.
        254    2    1    2    0    0 -0.11068613204E+02 -0.35941585788E+03  0.53118746582E+03  0.11027865544E+04  0.89703722753E+03 0.  0.
        -24    2    4    4    0    0 -0.37641343699E+02  0.27388214114E+03  0.31852220599E+03  0.42943264390E+03  0.80794194994E+02 0.  0.
         24    2    4    4    0    0  0.26572730495E+02 -0.63329799903E+03  0.21266525983E+03  0.67335391048E+03  0.80040679917E+02 0.  0.
         11    1    3    3    0    0  0.49989827741E+02  0.21967988529E+03  0.63068426022E+03  0.66971700812E+03  0.00000000000E+00 0.  1.
        -11    1    3    3    0    0 -0.38921214537E+02  0.13973597259E+03  0.38268293144E+03  0.40925203602E+03  0.00000000000E+00 0. -1.
          4    1    6    6  502    0  0.38763691272E+02 -0.21782166321E+03  0.99368305390E+02  0.24253445290E+03  0.00000000000E+00 0. -1.
          1    1    5    5  503    0 -0.40297860884E+02  0.51989753027E+02  0.64345942375E+02  0.92017673910E+02  0.00000000000E+00 0. -1.
         -2    1    5    5    0  503  0.26565171855E+01  0.22189238812E+03  0.25417626361E+03  0.33741496999E+03  0.00000000000E+00 0.  1.
         -3    1    6    6    0  502 -0.12190960778E+02 -0.41547633582E+03  0.11329695444E+03  0.43081945759E+03  0.00000000000E+00 0.  1.
<mgrwt>
<rscale>  0 0.15409115E+04</rscale>
<asrwt>0</asrwt>
<pdfrwt beam="1">  1        1 0.28663924E+00 0.15409115E+04</pdfrwt>
<pdfrwt beam="2">  1       -1 0.49015458E-01 0.15409115E+04</pdfrwt>
<totfact> 0.14837727E+01</totfact>
</mgrwt>
</event>
<event>
12    1  0.2214165E-007  0.4322572E+04  0.7818608E-02  0.7942458E-01
          2   -1    0    0  501    0  0.00000000000E+00  0.00000000000E+00  0.25149625896E+04  0.25149625896E+04  0.00000000000E+00 0.  1.
         -2   -1    0    0    0  501 -0.00000000000E+00 -0.00000000000E+00 -0.18573463759E+04  0.18573463759E+04  0.00000000000E+00 0. -1.
         23    2    1    2    0    0 -0.17046064796E+04 -0.68963447376E+03 -0.63863616465E+03  0.19486784245E+04  0.90622808615E+02 0.  0.
        254    2    1    2    0    0  0.17046064796E+04  0.68963447376E+03  0.12962523784E+04  0.24236305410E+04  0.90135221366E+03 0.  0.
        -24    2    4    4    0    0  0.11107207751E+04 -0.25831316239E+02  0.73303348786E+03  0.13334707509E+04  0.80238718209E+02 0.  0.
         24    2    4    4    0    0  0.59388570447E+03  0.71546579000E+03  0.56321889050E+03  0.10901597901E+04  0.81494310939E+02 0.  0.
         11    1    3    3    0    0 -0.62056423746E+03 -0.29831681845E+03 -0.24083028294E+03  0.72944644914E+03  0.00000000000E+00 0. -1.
        -11    1    3    3    0    0 -0.10840422421E+04 -0.39131765531E+03 -0.39780588171E+03  0.12192319753E+04  0.00000000000E+00 0.  1.
          4    1    6    6  502    0  0.43499986419E+03  0.55885484891E+03  0.45889642050E+03  0.84387768589E+03  0.00000000000E+00 0. -1.
          1    1    5    5  503    0  0.97734571861E+03 -0.43072704508E+02  0.62422802581E+03  0.11604828908E+04  0.00000000000E+00 0. -1.
         -2    1    5    5    0  503  0.13337505653E+03  0.17241388269E+02  0.10880546205E+03  0.17298786011E+03  0.00000000000E+00 0.  1.
         -3    1    6    6    0  502  0.15888584027E+03  0.15661094109E+03  0.10432247000E+03  0.24628210421E+03  0.00000000000E+00 0.  1.
<mgrwt>
<rscale>  0 0.43225718E+04</rscale>
<asrwt>0</asrwt>
<pdfrwt beam="1">  1        2 0.38691732E+00 0.43225718E+04</pdfrwt>
<pdfrwt beam="2">  1       -2 0.28574560E+00 0.43225718E+04</pdfrwt>
<totfact> 0.10188249E-01</totfact>
</mgrwt>
</event>
<event>
12    1  0.2214165E-007  0.3044843E+04  0.7818608E-02  0.8231040E-01
         -2   -1    0    0    0  501 -0.00000000000E+00  0.00000000000E+00  0.19027288377E+04  0.19027288377E+04  0.00000000000E+00 0.  1.
          2   -1    0    0  501    0  0.00000000000E+00 -0.00000000000E+00 -0.12181277315E+04  0.12181277315E+04  0.00000000000E+00 0. -1.
         23    2    1    2    0    0  0.13328228768E+04 -0.26507965598E+03  0.59757901415E+03  0.14873517843E+04  0.91818337637E+02 0.  0.
        254    2    1    2    0    0 -0.13328228768E+04  0.26507965598E+03  0.87022092041E+02  0.16335047850E+04  0.90226436978E+03 0.  0.
        -24    2    4    4    0    0 -0.10866087138E+04 -0.12041188824E+02  0.37926146403E+03  0.11541515466E+04  0.85808200478E+02 0.  0.
         24    2    4    4    0    0 -0.24621416304E+03  0.27712084480E+03 -0.29223937199E+03  0.47935323838E+03  0.83416424603E+02 0.  0.
         11    1    3    3    0    0  0.42712530102E+03 -0.98103486235E+02  0.14840421621E+03  0.46269226077E+03  0.00000000000E+00 0. -1.
        -11    1    3    3    0    0  0.90569757582E+03 -0.16697616974E+03  0.44917479794E+03  0.10246595236E+04  0.00000000000E+00 0.  1.
          4    1    6    6  502    0 -0.53648961940E+02  0.96541168497E+02 -0.50658205288E+02  0.12150992591E+03  0.00000000000E+00 0. -1.
          1    1    5    5  503    0 -0.71905123882E+03 -0.27104026356E+02  0.21274422243E+03  0.75035286131E+03  0.00000000000E+00 0. -1.
         -2    1    5    5    0  503 -0.36755747497E+03  0.15062837533E+02  0.16651724160E+03  0.40379868528E+03  0.00000000000E+00 0.  1.
         -3    1    6    6    0  502 -0.19256520110E+03  0.18057967631E+03 -0.24158116671E+03  0.35784331247E+03  0.00000000000E+00 0.  1.
<mgrwt>
<rscale>  0 0.30448427E+04</rscale>
<asrwt>0</asrwt>
<pdfrwt beam="1">  1        2 0.18740427E+00 0.30448427E+04</pdfrwt>
<pdfrwt beam="2">  1       -2 0.29272751E+00 0.30448427E+04</pdfrwt>
<totfact> 0.55478252E-01</totfact>
</mgrwt>
</event>
<event>
12    1  0.2214165E-007  0.1626584E+04  0.7818608E-02  0.8804381E-01
          2   -1    0    0  501    0  0.00000000000E+00  0.00000000000E+00  0.15096144018E+04  0.15096144018E+04  0.00000000000E+00 0. -1.
         -2   -1    0    0    0  501 -0.00000000000E+00 -0.00000000000E+00 -0.43815426383E+03  0.43815426383E+03  0.00000000000E+00 0.  1.
         23    2    1    2    0    0  0.25686865603E+03 -0.30965349746E+03  0.84181247591E+03  0.93752987919E+03  0.91908839893E+02 0.  0.
        254    2    1    2    0    0 -0.25686865603E+03  0.30965349746E+03  0.22964766210E+03  0.10102387865E+04  0.89776253098E+03 0.  0.
        -24    2    4    4    0    0  0.92040987215E+02 -0.12260189037E+03 -0.22778678803E+03  0.28623180970E+03  0.80864462090E+02 0.  0.
         24    2    4    4    0    0 -0.34890964324E+03  0.43225538783E+03  0.45743445014E+03  0.72400697678E+03  0.79731843008E+02 0.  0.
         13    1    3    3    0    0  0.13126373687E+03 -0.22735041363E+03  0.53596146311E+03  0.59680237024E+03  0.00000000000E+00 0. -1.
        -13    1    3    3    0    0  0.12560491915E+03 -0.82303083836E+02  0.30585101280E+03  0.34072750895E+03  0.00000000000E+00 0.  1.
          4    1    6    6  502    0 -0.20018267396E+03  0.30826606425E+03  0.29852168984E+03  0.47351480297E+03  0.00000000000E+00 0. -1.
          1    1    5    5  503    0  0.97187526221E+02 -0.11594613953E+03 -0.23188395600E+03  0.27687378275E+03  0.00000000000E+00 0. -1.
         -2    1    5    5    0  503 -0.51465390058E+01 -0.66557508429E+01  0.40971679640E+01  0.93580269473E+01  0.00000000000E+00 0.  1.
         -3    1    6    6    0  502 -0.14872696929E+03  0.12398932358E+03  0.15891276029E+03  0.25049217381E+03  0.00000000000E+00 0.  1.
<mgrwt>
<rscale>  0 0.16265841E+04</rscale>
<asrwt>0</asrwt>
<pdfrwt beam="1">  1        2 0.23224837E+00 0.16265841E+04</pdfrwt>
<pdfrwt beam="2">  1       -2 0.67408349E-01 0.16265841E+04</pdfrwt>
<totfact> 0.24208641E+01</totfact>
</mgrwt>
</event>
<event>
12    1  0.2214165E-007  0.1406076E+04  0.7818608E-02  0.8949432E-01
          2   -1    0    0  501    0  0.00000000000E+00  0.00000000000E+00  0.22632719182E+04  0.22632719182E+04  0.00000000000E+00 0. -1.
         -2   -1    0    0    0  501 -0.00000000000E+00 -0.00000000000E+00 -0.21838387447E+03  0.21838387447E+03  0.00000000000E+00 0.  1.
         23    2    1    2    0    0  0.14778409462E+03  0.29297199842E+03  0.10348799052E+04  0.10893793631E+04  0.89990266972E+02 0.  0.
        254    2    1    2    0    0 -0.14778409462E+03 -0.29297199842E+03  0.10100081385E+04  0.13922764295E+04  0.90035797651E+03 0.  0.
        -24    2    4    4    0    0 -0.37682998808E+03 -0.50173529392E+03  0.74028216110E+03  0.97369728411E+03  0.79558644745E+02 0.  0.
         24    2    4    4    0    0  0.22904589346E+03  0.20876329550E+03  0.26972597744E+03  0.41857914544E+03  0.80076608505E+02 0.  0.
         11    1    3    3    0    0 -0.22898284449E+01 -0.35920499942E+01  0.44732444394E+02  0.44934816333E+02  0.00000000000E+00 0. -1.
        -11    1    3    3    0    0  0.15007392306E+03  0.29656404841E+03  0.99014746077E+03  0.10444445468E+04  0.00000000000E+00 0.  1.
          4    1    6    6  502    0  0.82421919528E+02  0.28698536605E+02  0.85350234675E+02  0.12207227933E+03  0.00000000000E+00 0. -1.
          1    1    5    5  503    0 -0.17114799847E+03 -0.20550543753E+03  0.25905991333E+03  0.37233877172E+03  0.00000000000E+00 0. -1.
         -2    1    5    5    0  503 -0.20568198961E+03 -0.29622985640E+03  0.48122224777E+03  0.60135851238E+03  0.00000000000E+00 0.  1.
         -3    1    6    6    0  502  0.14662397393E+03  0.18006475890E+03  0.18437574276E+03  0.29650686611E+03  0.00000000000E+00 0.  1.
<mgrwt>
<rscale>  0 0.14060755E+04</rscale>
<asrwt>0</asrwt>
<pdfrwt beam="1">  1        2 0.34819566E+00 0.14060755E+04</pdfrwt>
<pdfrwt beam="2">  1       -2 0.33597521E-01 0.14060755E+04</pdfrwt>
<totfact> 0.38399278E+01</totfact>
</mgrwt>
</event>
<event>
12    1  0.2214165E-007  0.2632273E+04  0.7818608E-02  0.8357321E-01
          2   -1    0    0  501    0  0.00000000000E+00  0.00000000000E+00  0.15198587719E+04  0.15198587719E+04  0.00000000000E+00 0. -1.
         -2   -1    0    0    0  501 -0.00000000000E+00 -0.00000000000E+00 -0.11397210562E+04  0.11397210562E+04  0.00000000000E+00 0.  1.
         23    2    1    2    0    0 -0.71420401150E+03 -0.83843594784E+03  0.52588211868E+03  0.12240622159E+04  0.93349328000E+02 0.  0.
        254    2    1    2    0    0  0.71420401150E+03  0.83843594784E+03 -0.14574440306E+03  0.14355176122E+04  0.90906940065E+03 0.  0.
        -24    2    4    4    0    0  0.60042388861E+03  0.58470863453E+03  0.30863337964E+03  0.89678509269E+03  0.81091960985E+02 0.  0.
         24    2    4    4    0    0  0.11378012290E+03  0.25372731331E+03 -0.45437778270E+03  0.53873251950E+03  0.80312466435E+02 0.  0.
         13    1    3    3    0    0 -0.33960353330E+03 -0.42597755003E+03  0.21217947495E+03  0.58464310699E+03  0.00000000000E+00 0.  1.
        -13    1    3    3    0    0 -0.37460047820E+03 -0.41245839781E+03  0.31370264373E+03  0.63941910894E+03  0.00000000000E+00 0. -1.
          4    1    6    6  502    0  0.11599872170E+03  0.21902264331E+03 -0.35115915296E+03  0.42981318317E+03  0.00000000000E+00 0. -1.
          1    1    5    5  503    0  0.49822300292E+03  0.43909927569E+03  0.24430624240E+03  0.70761562633E+03  0.00000000000E+00 0. -1.
         -2    1    5    5    0  503  0.10220088568E+03  0.14560935884E+03  0.64327137247E+02  0.18916946636E+03  0.00000000000E+00 0.  1.
         -3    1    6    6    0  502 -0.22185988005E+01  0.34704669996E+02 -0.10321862974E+03  0.10891933632E+03  0.00000000000E+00 0.  1.
<mgrwt>
<rscale>  0 0.26322728E+04</rscale>
<asrwt>0</asrwt>
<pdfrwt beam="1">  1        2 0.23382443E+00 0.26322728E+04</pdfrwt>
<pdfrwt beam="2">  1       -2 0.17534170E+00 0.26322728E+04</pdfrwt>
<totfact> 0.21327086E+00</totfact>
</mgrwt>
</event>
<event>
12    1  0.2214165E-007  0.1533739E+04  0.7818608E-02  0.8862322E-01
         -2   -1    0    0    0  501 -0.00000000000E+00  0.00000000000E+00  0.46998921067E+03  0.46998921067E+03  0.00000000000E+00 0.  1.
          2   -1    0    0  501    0  0.00000000000E+00 -0.00000000000E+00 -0.12512820781E+04  0.12512820781E+04  0.00000000000E+00 0. -1.
         23    2    1    2    0    0  0.41365126794E+03 -0.85908577877E+02  0.32417276896E+02  0.43635610820E+03  0.10425026666E+03 0.  0.
        254    2    1    2    0    0 -0.41365126794E+03  0.85908577877E+02 -0.81371014429E+03  0.12849151805E+04  0.90021951046E+03 0.  0.
        -24    2    4    4    0    0 -0.27042446881E+03  0.46929978082E+03 -0.30354372846E+03  0.62598425601E+03  0.79660630664E+02 0.  0.
         24    2    4    4    0    0 -0.14322679913E+03 -0.38339120295E+03 -0.51016641583E+03  0.65893092452E+03  0.80109056664E+02 0.  0.
         11    1    3    3    0    0  0.33111418109E+03 -0.78812157829E+02  0.66460406160E+02  0.34679236256E+03  0.00000000000E+00 0.  1.
        -11    1    3    3    0    0  0.82537086855E+02 -0.70964200479E+01 -0.34043129264E+02  0.89563745646E+02  0.00000000000E+00 0. -1.
          4    1    6    6  502    0 -0.59756138518E+02 -0.99037758986E+02 -0.99976549044E+02  0.15288748855E+03  0.00000000000E+00 0. -1.
          3    1    5    5  503    0 -0.60748642847E+02  0.59072870755E+02 -0.28384081938E+02  0.89362507656E+02  0.00000000000E+00 0. -1.
         -4    1    5    5    0  503 -0.20967582596E+03  0.41022691007E+03 -0.27515964652E+03  0.53662174836E+03  0.00000000000E+00 0.  1.
         -3    1    6    6    0  502 -0.83470660615E+02 -0.28435344396E+03 -0.41018986679E+03  0.50604343597E+03  0.00000000000E+00 0.  1.
<mgrwt>
<rscale>  0 0.15337393E+04</rscale>
<asrwt>0</asrwt>
<pdfrwt beam="1">  1        2 0.19250493E+00 0.15337393E+04</pdfrwt>
<pdfrwt beam="2">  1       -2 0.72306033E-01 0.15337393E+04</pdfrwt>
<totfact> 0.29463277E+01</totfact>
</mgrwt>
</event>
<event>
12    1  0.2214165E-007  0.2476798E+04  0.7818608E-02  0.8411298E-01
          2   -1    0    0  501    0  0.00000000000E+00  0.00000000000E+00  0.77648879550E+03  0.77648879550E+03  0.00000000000E+00 0. -1.
         -2   -1    0    0    0  501 -0.00000000000E+00 -0.00000000000E+00 -0.19750858814E+04  0.19750858814E+04  0.00000000000E+00 0.  1.
         23    2    1    2    0    0 -0.95648818966E+03  0.34041511513E+03 -0.14151370813E+03  0.10291721920E+04  0.91745100936E+02 0.  0.
        254    2    1    2    0    0  0.95648818966E+03 -0.34041511513E+03 -0.10570833778E+04  0.17224024849E+04  0.90470599920E+03 0.  0.
        -24    2    4    4    0    0  0.89753795122E+03  0.53737342681E+02 -0.49726043882E+03  0.10305284590E+04  0.79113114928E+02 0.  0.
         24    2    4    4    0    0  0.58950238440E+02 -0.39415245781E+03 -0.55982293894E+03  0.69187402591E+03  0.80353308307E+02 0.  0.
         11    1    3    3    0    0 -0.33561604081E+03  0.15144100167E+03 -0.18822209282E+02  0.36868249130E+03  0.00000000000E+00 0. -1.
        -11    1    3    3    0    0 -0.62087214885E+03  0.18897411346E+03 -0.12269149884E+03  0.66048970065E+03  0.00000000000E+00 0.  1.
          2    1    6    6  502    0 -0.15707961112E+02 -0.38811623308E+02 -0.40891732670E+02  0.58525344482E+02  0.00000000000E+00 0. -1.
          1    1    5    5  503    0  0.24991217747E+03  0.85095884414E+01 -0.17892476653E+03  0.30747777419E+03  0.00000000000E+00 0. -1.
         -2    1    5    5    0  503  0.64762577375E+03  0.45227754240E+02 -0.31833567229E+03  0.72305068483E+03  0.00000000000E+00 0.  1.
         -1    1    6    6    0  502  0.74658199551E+02 -0.35534083450E+03 -0.51893120627E+03  0.63334868142E+03  0.00000000000E+00 0.  1.
<mgrwt>
<rscale>  0 0.24767980E+04</rscale>
<asrwt>0</asrwt>
<pdfrwt beam="1">  1        2 0.11945982E+00 0.24767980E+04</pdfrwt>
<pdfrwt beam="2">  1       -2 0.30385936E+00 0.24767980E+04</pdfrwt>
<totfact> 0.96404195E-01</totfact>
</mgrwt>
</event>
<event>
12    1  0.2214165E-007  0.1698402E+04  0.7818608E-02  0.8762276E-01
         -1   -1    0    0    0  501 -0.00000000000E+00  0.00000000000E+00  0.19809187914E+03  0.19809187914E+03  0.00000000000E+00 0.  1.
          1   -1    0    0  501    0  0.00000000000E+00 -0.00000000000E+00 -0.36404443741E+04  0.36404443741E+04  0.00000000000E+00 0. -1.
         23    2    1    2    0    0 -0.20067247266E+03  0.28201273874E+03 -0.11827647742E+03  0.37708442477E+03  0.91666308954E+02 0.  0.
        254    2    1    2    0    0  0.20067247266E+03 -0.28201273874E+03 -0.33240760175E+04  0.34614518285E+04  0.90131391001E+03 0.  0.
        -24    2    4    4    0    0  0.26617075396E+03  0.11130320467E+03 -0.27007516076E+04  0.27172614429E+04  0.78836726406E+02 0.  0.
         24    2    4    4    0    0 -0.65498281305E+02 -0.39331594341E+03 -0.62332440995E+03  0.74419038559E+03  0.79363428433E+02 0.  0.
         11    1    3    3    0    0 -0.17703774699E+03  0.17847092821E+03 -0.91869092420E+02  0.26764559817E+03  0.00000000000E+00 0. -1.
        -11    1    3    3    0    0 -0.23634725666E+02  0.10354181053E+03 -0.26407384999E+02  0.10943882660E+03  0.00000000000E+00 0.  1.
          4    1    6    6  502    0  0.11831406820E+02 -0.13207119629E+03 -0.23487913687E+03  0.26972391813E+03  0.00000000000E+00 0. -1.
          1    1    5    5  503    0  0.42615708364E+02  0.48830217573E+02 -0.46556387101E+03  0.47005340839E+03  0.00000000000E+00 0. -1.
         -2    1    5    5    0  503  0.22355504560E+03  0.62472987100E+02 -0.22351877366E+04  0.22472080345E+04  0.00000000000E+00 0.  1.
         -3    1    6    6    0  502 -0.77329688125E+02 -0.26124474712E+03 -0.38844527308E+03  0.47446646746E+03  0.00000000000E+00 0.  1.
<mgrwt>
<rscale>  0 0.16984022E+04</rscale>
<asrwt>0</asrwt>
<pdfrwt beam="1">  1        1 0.56006832E+00 0.16984022E+04</pdfrwt>
<pdfrwt beam="2">  1       -1 0.30475676E-01 0.16984022E+04</pdfrwt>
<totfact> 0.18400324E+00</totfact>
</mgrwt>
</event>
<event>
12    1  0.2214165E-007  0.1406751E+04  0.7818608E-02  0.8948946E-01
         -1   -1    0    0    0  501 -0.00000000000E+00  0.00000000000E+00  0.81158657737E+03  0.81158657737E+03  0.00000000000E+00 0.  1.
          1   -1    0    0  501    0  0.00000000000E+00 -0.00000000000E+00 -0.60959252421E+03  0.60959252421E+03  0.00000000000E+00 0. -1.
         23    2    1    2    0    0 -0.36710808070E+03  0.10710587259E+03  0.20402429546E+03  0.44272483303E+03  0.90218367220E+02 0.  0.
        254    2    1    2    0    0  0.36710808070E+03 -0.10710587259E+03 -0.20302422943E+01  0.97845426855E+03  0.90062679446E+03 0.  0.
        -24    2    4    4    0    0  0.33132287456E+03  0.35903709413E+03 -0.68447874609E+02  0.49960910270E+03  0.79004188461E+02 0.  0.
         24    2    4    4    0    0  0.35785206139E+02 -0.46614296672E+03  0.66417632315E+02  0.47884516585E+03  0.79445229993E+02 0.  0.
         11    1    3    3    0    0 -0.18919060865E+03  0.40747624995E+02  0.15129718564E+03  0.24565075560E+03  0.00000000000E+00 0.  1.
        -11    1    3    3    0    0 -0.17791747205E+03  0.66358247599E+02  0.52727109821E+02  0.19707407743E+03  0.00000000000E+00 0. -1.
          2    1    6    6  502    0 -0.14226030328E+02 -0.59182287595E+02 -0.10226417966E+02  0.61721169207E+02  0.00000000000E+00 0. -1.
          3    1    5    5  503    0  0.28663730443E+03  0.26408218300E+03 -0.47956717965E+02  0.39268332084E+03  0.00000000000E+00 0. -1.
         -4    1    5    5    0  503  0.44685570132E+02  0.94954911131E+02 -0.20491156644E+02  0.10692578186E+03  0.00000000000E+00 0.  1.
         -1    1    6    6    0  502  0.50011236467E+02 -0.40696067913E+03  0.76644050281E+02  0.41712399664E+03  0.00000000000E+00 0.  1.
<mgrwt>
<rscale>  0 0.14067510E+04</rscale>
<asrwt>0</asrwt>
<pdfrwt beam="1">  1        1 0.93783465E-01 0.14067510E+04</pdfrwt>
<pdfrwt beam="2">  1       -1 0.12485947E+00 0.14067510E+04</pdfrwt>
<totfact> 0.18310437E+01</totfact>
</mgrwt>
</event>
<event>
12    1  0.2214165E-007  0.1675793E+04  0.7818608E-02  0.8775292E-01
          2   -1    0    0  501    0  0.00000000000E+00  0.00000000000E+00  0.12433757508E+04  0.12433757508E+04  0.00000000000E+00 0. -1.
         -2   -1    0    0    0  501 -0.00000000000E+00 -0.00000000000E+00 -0.56464887224E+03  0.56464887224E+03  0.00000000000E+00 0.  1.
         23    2    1    2    0    0  0.11555325298E+02 -0.58461234527E+03  0.32903248735E+03  0.67724735814E+03  0.92176388518E+02 0.  0.
        254    2    1    2    0    0 -0.11555325298E+02  0.58461234527E+03  0.34969439124E+03  0.11307772649E+04  0.90247766500E+03 0.  0.
        -24    2    4    4    0    0 -0.91979255039E+02  0.81281551255E+03  0.27880225818E+03  0.86760330435E+03  0.76652160790E+02 0.  0.
         24    2    4    4    0    0  0.80423929741E+02 -0.22820316728E+03  0.70892133054E+02  0.26317396058E+03  0.75433049544E+02 0.  0.
         13    1    3    3    0    0 -0.24260430962E+02 -0.95472669151E+02  0.81615488289E+02  0.12792453632E+03  0.00000000000E+00 0. -1.
        -13    1    3    3    0    0  0.35815756260E+02 -0.48913967612E+03  0.24741699906E+03  0.54932282182E+03  0.00000000000E+00 0.  1.
          2    1    6    6  502    0  0.90150114236E+02 -0.22615407185E+03  0.69077675600E+02  0.25307001517E+03  0.00000000000E+00 0. -1.
          1    1    5    5  503    0 -0.89380614075E+02  0.67738781514E+03  0.25904627976E+03  0.73071753868E+03  0.00000000000E+00 0. -1.
         -2    1    5    5    0  503 -0.25986409641E+01  0.13542769741E+03  0.19755978419E+02  0.13688576567E+03  0.00000000000E+00 0.  1.
         -1    1    6    6    0  502 -0.97261844952E+01 -0.20490954312E+01  0.18144574544E+01  0.10103945406E+02  0.00000000000E+00 0.  1.
<mgrwt>
<rscale>  0 0.16757932E+04</rscale>
<asrwt>0</asrwt>
<pdfrwt beam="1">  1        2 0.19128858E+00 0.16757932E+04</pdfrwt>
<pdfrwt beam="2">  1       -2 0.86869058E-01 0.16757932E+04</pdfrwt>
<totfact> 0.19510334E+01</totfact>
</mgrwt>
</event>
<event>
12    1  0.2214165E-007  0.1992075E+04  0.7818608E-02  0.8610335E-01
          1   -1    0    0  501    0  0.00000000000E+00  0.00000000000E+00  0.88368965347E+03  0.88368965347E+03  0.00000000000E+00 0. -1.
         -1   -1    0    0    0  501 -0.00000000000E+00 -0.00000000000E+00 -0.11226689895E+04  0.11226689895E+04  0.00000000000E+00 0.  1.
         23    2    1    2    0    0  0.32709139317E+03  0.55089210043E+03 -0.55975984879E+03  0.85578563623E+03  0.92558527678E+02 0.  0.
        254    2    1    2    0    0 -0.32709139317E+03 -0.55089210043E+03  0.32078051280E+03  0.11505730067E+04  0.90024842158E+03 0.  0.
        -24    2    4    4    0    0  0.11617362586E+03 -0.48664917767E+03 -0.11604546295E+03  0.51979174273E+03  0.79957318967E+02 0.  0.
         24    2    4    4    0    0 -0.44326501903E+03 -0.64242922760E+02  0.43682597575E+03  0.63078126398E+03  0.80355707140E+02 0.  0.
         11    1    3    3    0    0  0.22733413829E+03  0.29872788468E+03 -0.30442698301E+03  0.48331661207E+03  0.00000000000E+00 0. -1.
        -11    1    3    3    0    0  0.99757254881E+02  0.25216421576E+03 -0.25533286578E+03  0.37246902416E+03  0.00000000000E+00 0.  1.
          2    1    6    6  502    0 -0.19642089035E+03  0.93380138265E+00  0.22806906168E+03  0.30099424421E+03  0.00000000000E+00 0. -1.
          1    1    5    5  503    0  0.18566930622E+02 -0.19862022547E+03 -0.74056234219E+02  0.21278874666E+03  0.00000000000E+00 0. -1.
         -2    1    5    5    0  503  0.97606695237E+02 -0.28802895220E+03 -0.41989228735E+02  0.30700299606E+03  0.00000000000E+00 0.  1.
         -1    1    6    6    0  502 -0.24684412868E+03 -0.65176724143E+02  0.20875691407E+03  0.32978701977E+03  0.00000000000E+00 0.  1.
<mgrwt>
<rscale>  0 0.19920753E+04</rscale>
<asrwt>0</asrwt>
<pdfrwt beam="1">  1        1 0.13595225E+00 0.19920753E+04</pdfrwt>
<pdfrwt beam="2">  1       -1 0.17271831E+00 0.19920753E+04</pdfrwt>
<totfact> 0.40948600E+00</totfact>
</mgrwt>
</event>
<event>
12    1  0.2214165E-007  0.2632885E+04  0.7818608E-02  0.8357116E-01
         -2   -1    0    0    0  501 -0.00000000000E+00  0.00000000000E+00  0.86785379346E+03  0.86785379346E+03  0.00000000000E+00 0.  1.
          2   -1    0    0  501    0  0.00000000000E+00 -0.00000000000E+00 -0.19969034619E+04  0.19969034619E+04  0.00000000000E+00 0. -1.
         23    2    1    2    0    0  0.60909135502E+03  0.36933181032E+03  0.49820449970E+03  0.87350754860E+03  0.86078156763E+02 0.  0.
        254    2    1    2    0    0 -0.60909135502E+03 -0.36933181032E+03 -0.16272541682E+04  0.19912497068E+04  0.89984498781E+03 0.  0.
        -24    2    4    4    0    0 -0.35254037897E+03  0.50581710014E+02 -0.13936469434E+04  0.14407984084E+04  0.82492561335E+02 0.  0.
         24    2    4    4    0    0 -0.25655097605E+03 -0.41991352033E+03 -0.23360722481E+03  0.55045129840E+03  0.79237166520E+02 0.  0.
         11    1    3    3    0    0  0.13581290898E+03  0.12480343107E+03  0.13994602723E+03  0.23152955144E+03  0.00000000000E+00 0. -1.
        -11    1    3    3    0    0  0.47327844604E+03  0.24452837925E+03  0.35825847246E+03  0.64197799716E+03  0.00000000000E+00 0.  1.
          2    1    6    6  502    0 -0.21750388590E+03 -0.36182607195E+03 -0.16752333687E+03  0.45419171626E+03  0.00000000000E+00 0. -1.
          1    1    5    5  503    0 -0.26454698959E+03  0.19694587534E+01 -0.97550321383E+03  0.10107400797E+04  0.00000000000E+00 0. -1.
         -2    1    5    5    0  503 -0.87993389375E+02  0.48612251261E+02 -0.41814372953E+03  0.43005832871E+03  0.00000000000E+00 0.  1.
         -1    1    6    6    0  502 -0.39047090152E+02 -0.58087448386E+02 -0.66083887938E+02  0.96259582143E+02  0.00000000000E+00 0.  1.
<mgrwt>
<rscale>  0 0.26328845E+04</rscale>
<asrwt>0</asrwt>
<pdfrwt beam="1">  1        2 0.30721591E+00 0.26328845E+04</pdfrwt>
<pdfrwt beam="2">  1       -2 0.13351597E+00 0.26328845E+04</pdfrwt>
<totfact> 0.24014291E+00</totfact>
</mgrwt>
</event>
<event>
12    1  0.2214165E-007  0.2439433E+04  0.7818608E-02  0.8424886E-01
          1   -1    0    0  501    0  0.00000000000E+00  0.00000000000E+00  0.22150848587E+04  0.22150848587E+04  0.00000000000E+00 0. -1.
         -1   -1    0    0    0  501 -0.00000000000E+00 -0.00000000000E+00 -0.67162590101E+03  0.67162590101E+03  0.00000000000E+00 0.  1.
         23    2    1    2    0    0 -0.59257231122E+03 -0.81025418736E+03  0.10356375531E+04  0.14451189650E+04  0.90387441394E+02 0.  0.
        254    2    1    2    0    0  0.59257231122E+03  0.81025418736E+03  0.50782140462E+03  0.14415917947E+04  0.90147131481E+03 0.  0.
        -24    2    4    4    0    0 -0.24499114881E+02  0.32962359227E+03 -0.19042599531E+03  0.39001424984E+03  0.81222756515E+02 0.  0.
         24    2    4    4    0    0  0.61707142610E+03  0.48063059509E+03  0.69824739993E+03  0.10515775449E+04  0.80517001403E+02 0.  0.
         11    1    3    3    0    0 -0.18940346627E+03 -0.21768765413E+03  0.25132198719E+03  0.38265432056E+03  0.00000000000E+00 0.  1.
        -11    1    3    3    0    0 -0.40316884495E+03 -0.59256653323E+03  0.78431556593E+03  0.10624646445E+04  0.00000000000E+00 0. -1.
          2    1    6    6  502    0  0.54018525011E+02  0.17475246355E+02  0.41515787300E+02  0.70334528325E+02  0.00000000000E+00 0. -1.
          3    1    5    5  503    0  0.21574917180E+02  0.29594041973E+02 -0.16483111472E+02  0.40161889092E+02  0.00000000000E+00 0. -1.
         -4    1    5    5    0  503 -0.46074032061E+02  0.30002955030E+03 -0.17394288384E+03  0.34985236075E+03  0.00000000000E+00 0.  1.
         -1    1    6    6    0  502  0.56305290109E+03  0.46315534873E+03  0.65673161263E+03  0.98124301654E+03  0.00000000000E+00 0.  1.
<mgrwt>
<rscale>  0 0.24394330E+04</rscale>
<asrwt>0</asrwt>
<pdfrwt beam="1">  1        1 0.34078228E+00 0.24394330E+04</pdfrwt>
<pdfrwt beam="2">  1       -1 0.10332706E+00 0.24394330E+04</pdfrwt>
<totfact> 0.16787473E+00</totfact>
</mgrwt>
</event>
<event>
12    1  0.2214165E-007  0.1728066E+04  0.7818608E-02  0.8745517E-01
         -1   -1    0    0    0  501 -0.00000000000E+00  0.00000000000E+00  0.46240004763E+03  0.46240004763E+03  0.00000000000E+00 0.  1.
          1   -1    0    0  501    0  0.00000000000E+00 -0.00000000000E+00 -0.16145180539E+04  0.16145180539E+04  0.00000000000E+00 0. -1.
         23    2    1    2    0    0  0.42077259033E+03  0.38853906401E+03 -0.11805938063E+03  0.59175939758E+03  0.90713781908E+02 0.  0.
        254    2    1    2    0    0 -0.42077259033E+03 -0.38853906401E+03 -0.10340586256E+04  0.14851587039E+04  0.89911454085E+03 0.  0.
        -24    2    4    4    0    0  0.22010522613E+02 -0.33276514653E+00  0.14366351836E+03  0.16633502608E+03  0.80892277463E+02 0.  0.
         24    2    4    4    0    0 -0.44278311295E+03 -0.38820629886E+03 -0.11777221440E+04  0.13188236778E+04  0.74198579737E+02 0.  0.
         13    1    3    3    0    0  0.37607697272E+03  0.31719781695E+03 -0.12398122963E+03  0.50736544008E+03  0.00000000000E+00 0. -1.
        -13    1    3    3    0    0  0.44695617611E+02  0.71341247062E+02  0.59218490033E+01  0.84393957494E+02  0.00000000000E+00 0.  1.
          2    1    6    6  502    0  0.24575010006E+01 -0.47751348004E+01 -0.61861002568E+01  0.81920119578E+01  0.00000000000E+00 0. -1.
          3    1    5    5  503    0  0.33545806311E+02 -0.15375321092E+02  0.21496830922E+02  0.42706385464E+02  0.00000000000E+00 0. -1.
         -4    1    5    5    0  503 -0.11535283698E+02  0.15042555946E+02  0.12216668744E+03  0.12362864061E+03  0.00000000000E+00 0.  1.
         -1    1    6    6    0  502 -0.44524061395E+03 -0.38343116406E+03 -0.11715360437E+04  0.13106316659E+04  0.00000000000E+00 0.  1.
<mgrwt>
<rscale>  0 0.17280662E+04</rscale>
<asrwt>0</asrwt>
<pdfrwt beam="1">  1        1 0.24838740E+00 0.17280662E+04</pdfrwt>
<pdfrwt beam="2">  1       -1 0.71138468E-01 0.17280662E+04</pdfrwt>
<totfact> 0.10332074E+01</totfact>
</mgrwt>
</event>
<event>
12    1  0.2214165E-007  0.3770956E+04  0.7818608E-02  0.8052417E-01
         -1   -1    0    0    0  501 -0.00000000000E+00  0.00000000000E+00  0.17426758079E+04  0.17426758079E+04  0.00000000000E+00 0.  1.
          1   -1    0    0  501    0  0.00000000000E+00 -0.00000000000E+00 -0.20399819724E+04  0.20399819724E+04  0.00000000000E+00 0. -1.
         23    2    1    2    0    0  0.12513989891E+03  0.13783948429E+04 -0.12584155001E+04  0.18728285585E+04  0.90801438148E+02 0.  0.
        254    2    1    2    0    0 -0.12513989891E+03 -0.13783948429E+04  0.96110933564E+03  0.19098292218E+04  0.89893501672E+03 0.  0.
        -24    2    4    4    0    0 -0.26615853666E+03 -0.22947401632E+03  0.59045293404E+03  0.69168413279E+03  0.79332095844E+02 0.  0.
         24    2    4    4    0    0  0.14101863775E+03 -0.11489208266E+04  0.37065640160E+03  0.12181450891E+04  0.81153976998E+02 0.  0.
         11    1    3    3    0    0  0.38066761824E+02  0.71198479313E+03 -0.59796917672E+03  0.93055819824E+03  0.00000000000E+00 0. -1.
        -11    1    3    3    0    0  0.87073137088E+02  0.66641004978E+03 -0.66044632342E+03  0.94227036023E+03  0.00000000000E+00 0.  1.
          4    1    6    6  502    0  0.13543384237E+03 -0.86131582600E+03  0.29842735645E+03  0.92155638181E+03  0.00000000000E+00 0. -1.
          1    1    5    5  503    0 -0.61636510708E+02 -0.93410454222E+02  0.14717019387E+03  0.18488817803E+03  0.00000000000E+00 0. -1.
         -2    1    5    5    0  503 -0.20452202595E+03 -0.13606356210E+03  0.44328274016E+03  0.50679595476E+03  0.00000000000E+00 0.  1.
         -3    1    6    6    0  502  0.55847953811E+01 -0.28760500059E+03  0.72229045156E+02  0.29658870725E+03  0.00000000000E+00 0.  1.
<mgrwt>
<rscale>  0 0.37709560E+04</rscale>
<asrwt>0</asrwt>
<pdfrwt beam="1">  1        1 0.31384338E+00 0.37709560E+04</pdfrwt>
<pdfrwt beam="2">  1       -1 0.26810397E+00 0.37709560E+04</pdfrwt>
<totfact> 0.11868842E-01</totfact>
</mgrwt>
</event>
<event>
12    1  0.2214165E-007  0.2240127E+04  0.7818608E-02  0.8501910E-01
         -2   -1    0    0    0  501 -0.00000000000E+00  0.00000000000E+00  0.41293480699E+03  0.41293480699E+03  0.00000000000E+00 0.  1.
          2   -1    0    0  501    0  0.00000000000E+00 -0.00000000000E+00 -0.30381109168E+04  0.30381109168E+04  0.00000000000E+00 0. -1.
         23    2    1    2    0    0  0.73190867383E+03  0.38868014079E+03 -0.43189332253E+03  0.93943583781E+03  0.96152444838E+02 0.  0.
        254    2    1    2    0    0 -0.73190867383E+03 -0.38868014079E+03 -0.21932827873E+04  0.25116098860E+04  0.90051778200E+03 0.  0.
        -24    2    4    4    0    0 -0.93017678482E+03 -0.37813458424E+03 -0.18500011979E+04  0.21064509249E+04  0.80102758566E+02 0.  0.
         24    2    4    4    0    0  0.19826811100E+03 -0.10545556550E+02 -0.34328158945E+03  0.40515896115E+03  0.83006515057E+02 0.  0.
         13    1    3    3    0    0  0.22477746497E+03  0.11240313758E+03 -0.82724025626E+02  0.26458011738E+03  0.00000000000E+00 0.  1.
        -13    1    3    3    0    0  0.50713120886E+03  0.27627700321E+03 -0.34916929690E+03  0.67485572043E+03  0.00000000000E+00 0. -1.
          2    1    6    6  502    0  0.37082330924E+02 -0.38702734250E+01 -0.14407990743E+03  0.14882573033E+03  0.00000000000E+00 0. -1.
          1    1    5    5  503    0 -0.26943934570E+02 -0.13728737129E+01 -0.32759474156E+02  0.42438703318E+02  0.00000000000E+00 0. -1.
         -2    1    5    5    0  503 -0.90323285025E+03 -0.37676171052E+03 -0.18172417237E+04  0.20640122215E+04  0.00000000000E+00 0.  1.
         -1    1    6    6    0  502  0.16118578007E+03 -0.66752831252E+01 -0.19920168203E+03  0.25633323082E+03  0.00000000000E+00 0.  1.
<mgrwt>
<rscale>  0 0.22401266E+04</rscale>
<asrwt>0</asrwt>
<pdfrwt beam="1">  1        2 0.46740167E+00 0.22401266E+04</pdfrwt>
<pdfrwt beam="2">  1       -2 0.63528433E-01 0.22401266E+04</pdfrwt>
<totfact> 0.34460867E+00</totfact>
</mgrwt>
</event>
<event>
12    1  0.2214165E-007  0.2236072E+04  0.7818608E-02  0.8503562E-01
          2   -1    0    0  501    0  0.00000000000E+00  0.00000000000E+00  0.19937441112E+04  0.19937441112E+04  0.00000000000E+00 0. -1.
         -2   -1    0    0    0  501 -0.00000000000E+00 -0.00000000000E+00 -0.62696357212E+03  0.62696357212E+03  0.00000000000E+00 0.  1.
         23    2    1    2    0    0 -0.64565915077E+03 -0.67279251979E+03  0.52741219494E+03  0.10756109104E+04  0.96175326732E+02 0.  0.
        254    2    1    2    0    0  0.64565915077E+03  0.67279251979E+03  0.83936834418E+03  0.15450967730E+04  0.90180890827E+03 0.  0.
        -24    2    4    4    0    0 -0.11647377584E+03  0.31081357280E+03 -0.14781374582E+02  0.34181383501E+03  0.80293158354E+02 0.  0.
         24    2    4    4    0    0  0.76213292661E+03  0.36197894700E+03  0.85414971876E+03  0.12032829380E+04  0.80266623749E+02 0.  0.
         11    1    3    3    0    0 -0.48662515454E+03 -0.45137288199E+03  0.39709024203E+03  0.77344823999E+03  0.00000000000E+00 0. -1.
        -11    1    3    3    0    0 -0.15903399624E+03 -0.22141963780E+03  0.13032195291E+03  0.30216267038E+03  0.00000000000E+00 0.  1.
          2    1    6    6  502    0  0.14873669553E+03  0.10653806551E+03  0.19287684876E+03  0.26584665277E+03  0.00000000000E+00 0. -1.
          3    1    5    5  503    0 -0.11270830158E+01  0.13429080335E+01  0.10438133336E+02  0.10584344366E+02  0.00000000000E+00 0. -1.
         -4    1    5    5    0  503 -0.11534669282E+03  0.30947066476E+03 -0.25219507919E+02  0.33122949065E+03  0.00000000000E+00 0.  1.
         -1    1    6    6    0  502  0.61339623108E+03  0.25544088148E+03  0.66127287000E+03  0.93743628521E+03  0.00000000000E+00 0.  1.
<mgrwt>
<rscale>  0 0.22360724E+04</rscale>
<asrwt>0</asrwt>
<pdfrwt beam="1">  1        2 0.30672986E+00 0.22360724E+04</pdfrwt>
<pdfrwt beam="2">  1       -2 0.96455936E-01 0.22360724E+04</pdfrwt>
<totfact> 0.55198632E+00</totfact>
</mgrwt>
</event>
<event>
12    1  0.2214165E-007  0.1269063E+04  0.7818608E-02  0.9054465E-01
          2   -1    0    0  501    0  0.00000000000E+00  0.00000000000E+00  0.26155577355E+04  0.26155577355E+04  0.00000000000E+00 0. -1.
         -2   -1    0    0    0  501 -0.00000000000E+00 -0.00000000000E+00 -0.15393661320E+03  0.15393661320E+03  0.00000000000E+00 0.  1.
         23    2    1    2    0    0  0.28661252111E+03  0.92355573591E+02  0.53593487831E+03  0.62121690916E+03  0.89487234893E+02 0.  0.
        254    2    1    2    0    0 -0.28661252111E+03 -0.92355573591E+02  0.19256862440E+04  0.21482774395E+04  0.90341140003E+03 0.  0.
        -24    2    4    4    0    0 -0.87350321243E+02  0.13602611280E+03  0.18014827678E+04  0.18105869847E+04  0.82169850559E+02 0.  0.
         24    2    4    4    0    0 -0.19926219987E+03 -0.22838168639E+03  0.12420347618E+03  0.33769045487E+03  0.82126249389E+02 0.  0.
         11    1    3    3    0    0  0.53174770735E+02  0.38822148049E+02  0.18483526061E+03  0.19621108273E+03  0.00000000000E+00 0. -1.
        -11    1    3    3    0    0  0.23343775037E+03  0.53533425542E+02  0.35109961770E+03  0.42500582643E+03  0.00000000000E+00 0.  1.
          4    1    6    6  502    0 -0.12681920566E+03 -0.12256016978E+03  0.30785943044E+02  0.17903038968E+03  0.00000000000E+00 0. -1.
          3    1    5    5  503    0 -0.56164426925E+02  0.17648273948E+02  0.56457561601E+03  0.56763679463E+03  0.00000000000E+00 0. -1.
         -4    1    5    5    0  503 -0.31185894318E+02  0.11837783886E+03  0.12369071518E+04  0.12429501901E+04  0.00000000000E+00 0.  1.
         -3    1    6    6    0  502 -0.72442994205E+02 -0.10582151661E+03  0.93417533131E+02  0.15866006518E+03  0.00000000000E+00 0.  1.
<mgrwt>
<rscale>  0 0.12690628E+04</rscale>
<asrwt>0</asrwt>
<pdfrwt beam="1">  1        2 0.40239347E+00 0.12690628E+04</pdfrwt>
<pdfrwt beam="2">  1       -2 0.23682558E-01 0.12690628E+04</pdfrwt>
<totfact> 0.46613457E+01</totfact>
</mgrwt>
</event>
<event>
12    1  0.2214165E-007  0.1162602E+04  0.7818608E-02  0.9146236E-01
          2   -1    0    0  501    0  0.00000000000E+00  0.00000000000E+00  0.25501331034E+04  0.25501331034E+04  0.00000000000E+00 0. -1.
         -2   -1    0    0    0  501 -0.00000000000E+00 -0.00000000000E+00 -0.13250712616E+03  0.13250712616E+03  0.00000000000E+00 0.  1.
         23    2    1    2    0    0 -0.13410561604E+03  0.42861222706E+02  0.87073548922E+03  0.88681473870E+03  0.91862331334E+02 0.  0.
        254    2    1    2    0    0  0.13410561604E+03 -0.42861222706E+02  0.15468904880E+04  0.17958254908E+04  0.90127554666E+03 0.  0.
        -24    2    4    4    0    0  0.30420697456E+03 -0.27839157000E+03  0.30852029679E+03  0.52136647971E+03  0.81206422239E+02 0.  0.
         24    2    4    4    0    0 -0.17010135851E+03  0.23553034729E+03  0.12383701912E+04  0.12744590111E+04  0.79221360211E+02 0.  0.
         13    1    3    3    0    0 -0.10840765439E+03  0.59531462836E+02  0.80308448163E+03  0.81255209016E+03  0.00000000000E+00 0. -1.
        -13    1    3    3    0    0 -0.25697961653E+02 -0.16670240130E+02  0.67651007594E+02  0.74262648536E+02  0.00000000000E+00 0.  1.
          4    1    6    6  502    0 -0.69359285467E+01  0.42938885683E+02  0.11193386756E+03  0.12008765846E+03  0.00000000000E+00 0. -1.
          3    1    5    5  503    0  0.11439971075E+03 -0.82616171658E+02  0.15005730902E+03  0.20598524614E+03  0.00000000000E+00 0. -1.
         -4    1    5    5    0  503  0.18980726381E+03 -0.19577539834E+03  0.15846298777E+03  0.31538123356E+03  0.00000000000E+00 0.  1.
         -3    1    6    6    0  502 -0.16316542997E+03  0.19259146161E+03  0.11264363236E+04  0.11543713527E+04  0.00000000000E+00 0.  1.
<mgrwt>
<rscale>  0 0.11626019E+04</rscale>
<asrwt>0</asrwt>
<pdfrwt beam="1">  1        2 0.39232814E+00 0.11626019E+04</pdfrwt>
<pdfrwt beam="2">  1       -2 0.20385714E-01 0.11626019E+04</pdfrwt>
<totfact> 0.67069374E+01</totfact>
</mgrwt>
</event>
<event>
12    1  0.2214165E-007  0.1460477E+04  0.7818608E-02  0.8911169E-01
          1   -1    0    0  501    0  0.00000000000E+00  0.00000000000E+00  0.15080590685E+04  0.15080590685E+04  0.00000000000E+00 0. -1.
         -1   -1    0    0    0  501 -0.00000000000E+00 -0.00000000000E+00 -0.35359896011E+03  0.35359896011E+03  0.00000000000E+00 0.  1.
         23    2    1    2    0    0  0.74363258732E+02  0.43322732962E+03  0.44207700582E+03  0.63256127921E+03  0.10717219558E+03 0.  0.
        254    2    1    2    0    0 -0.74363258732E+02 -0.43322732962E+03  0.71238310258E+03  0.12290967494E+04  0.89998517831E+03 0.  0.
        -24    2    4    4    0    0  0.16700599558E+03 -0.63015293179E+03  0.34948689265E+03  0.74395857352E+03  0.79684069748E+02 0.  0.
         24    2    4    4    0    0 -0.24136925431E+03  0.19692560218E+03  0.36289620992E+03  0.48513817588E+03  0.81403813191E+02 0.  0.
         13    1    3    3    0    0  0.25734444930E+02  0.14878229250E+03  0.22710779907E+03  0.27272034140E+03  0.00000000000E+00 0. -1.
        -13    1    3    3    0    0  0.48628813802E+02  0.28444503711E+03  0.21496920676E+03  0.35984093781E+03  0.00000000000E+00 0.  1.
          4    1    6    6  502    0 -0.63850179845E+01 -0.75030707641E+01  0.64016544790E+01  0.11749285324E+02  0.00000000000E+00 0. -1.
          1    1    5    5  503    0  0.86991218051E+02 -0.19139805936E+03  0.98138034023E+02  0.23201672971E+03  0.00000000000E+00 0. -1.
         -2    1    5    5    0  503  0.80014777529E+02 -0.43875487243E+03  0.25134885863E+03  0.51194184381E+03  0.00000000000E+00 0.  1.
         -3    1    6    6    0  502 -0.23498423633E+03  0.20442867294E+03  0.35649455544E+03  0.47338889056E+03  0.00000000000E+00 0.  1.
<mgrwt>
<rscale>  0 0.14604768E+04</rscale>
<asrwt>0</asrwt>
<pdfrwt beam="1">  1        1 0.23200908E+00 0.14604768E+04</pdfrwt>
<pdfrwt beam="2">  1       -1 0.54399841E-01 0.14604768E+04</pdfrwt>
<totfact> 0.21388030E+01</totfact>
</mgrwt>
</event>
<event>
12    1  0.2214165E-007  0.2417848E+04  0.7818608E-02  0.8432852E-01
          1   -1    0    0  501    0  0.00000000000E+00  0.00000000000E+00  0.61140674441E+03  0.61140674441E+03  0.00000000000E+00 0. -1.
         -1   -1    0    0    0  501 -0.00000000000E+00 -0.00000000000E+00 -0.23903848736E+04  0.23903848736E+04  0.00000000000E+00 0.  1.
         23    2    1    2    0    0 -0.73026541916E+03  0.11598216114E+03 -0.16726236571E+04  0.18309714135E+04  0.89704929962E+02 0.  0.
        254    2    1    2    0    0  0.73026541916E+03 -0.11598216114E+03 -0.10635447208E+03  0.11708202046E+04  0.90153715039E+03 0.  0.
        -24    2    4    4    0    0  0.53495707687E+03  0.35626385172E+03 -0.30571587351E+02  0.64817386517E+03  0.78049544500E+02 0.  0.
         24    2    4    4    0    0  0.19530834229E+03 -0.47224601286E+03 -0.75782884729E+02  0.52264633939E+03  0.79085429956E+02 0.  0.
         13    1    3    3    0    0 -0.47791531552E+03  0.97947743369E+02 -0.10087109072E+04  0.11204885112E+04  0.00000000000E+00 0. -1.
        -13    1    3    3    0    0 -0.25235010364E+03  0.18034417769E+02 -0.66391274987E+03  0.71048290231E+03  0.00000000000E+00 0.  1.
          4    1    6    6  502    0  0.72062073931E+02 -0.23164610161E+03 -0.26952567426E+01  0.24261105354E+03  0.00000000000E+00 0. -1.
          3    1    5    5  503    0  0.31369493927E+03  0.18534943901E+03 -0.50662614967E+02  0.36786632086E+03  0.00000000000E+00 0. -1.
         -4    1    5    5    0  503  0.22126213760E+03  0.17091441271E+03  0.20091027616E+02  0.28030754431E+03  0.00000000000E+00 0.  1.
         -3    1    6    6    0  502  0.12324626836E+03 -0.24059991125E+03 -0.73087627987E+02  0.28003528585E+03  0.00000000000E+00 0.  1.
<mgrwt>
<rscale>  0 0.24178482E+04</rscale>
<asrwt>0</asrwt>
<pdfrwt beam="1">  1        1 0.94062576E-01 0.24178482E+04</pdfrwt>
<pdfrwt beam="2">  1       -1 0.36775152E+00 0.24178482E+04</pdfrwt>
<totfact> 0.35289090E-01</totfact>
</mgrwt>
</event>
<event>
12    1  0.2214165E-007  0.1519199E+04  0.7818608E-02  0.8871785E-01
          2   -1    0    0  501    0  0.00000000000E+00  0.00000000000E+00  0.34871769912E+04  0.34871769912E+04  0.00000000000E+00 0. -1.
         -2   -1    0    0    0  501 -0.00000000000E+00 -0.00000000000E+00 -0.16546088391E+03  0.16546088391E+03  0.00000000000E+00 0.  1.
         23    2    1    2    0    0 -0.34876725116E+03 -0.32575370347E+03  0.13131822373E+04  0.14002099637E+04  0.91576652564E+02 0.  0.
        254    2    1    2    0    0  0.34876725116E+03  0.32575370347E+03  0.20085338700E+04  0.22524279114E+04  0.90081580715E+03 0.  0.
        -24    2    4    4    0    0  0.30240476348E+02  0.28132332533E+03  0.93676433190E+02  0.30885551535E+03  0.80988613033E+02 0.  0.
         24    2    4    4    0    0  0.31852677482E+03  0.44430378135E+02  0.19148574368E+04  0.19435723961E+04  0.85797964345E+02 0.  0.
         11    1    3    3    0    0 -0.28260783279E+03 -0.21892771728E+03  0.10340170357E+04  0.10940693592E+04  0.00000000000E+00 0. -1.
        -11    1    3    3    0    0 -0.66159418378E+02 -0.10682598619E+03  0.27916520163E+03  0.30614060457E+03  0.00000000000E+00 0.  1.
          4    1    6    6  502    0  0.16910383445E+03  0.49132967295E+02  0.12335422044E+04  0.12460483640E+04  0.00000000000E+00 0. -1.
          1    1    5    5  503    0  0.43859288534E+02  0.19094964754E+03  0.31801250803E+02  0.19848608172E+03  0.00000000000E+00 0. -1.
         -2    1    5    5    0  503 -0.13618812186E+02  0.90373677797E+02  0.61875182387E+02  0.11036943363E+03  0.00000000000E+00 0.  1.
         -3    1    6    6    0  502  0.14942294036E+03 -0.47025891598E+01  0.68131523236E+03  0.69752403206E+03  0.00000000000E+00 0.  1.
<mgrwt>
<rscale>  0 0.15191990E+04</rscale>
<asrwt>0</asrwt>
<pdfrwt beam="1">  1        2 0.53648871E+00 0.15191990E+04</pdfrwt>
<pdfrwt beam="2">  1       -2 0.25455523E-01 0.15191990E+04</pdfrwt>
<totfact> 0.11267413E+01</totfact>
</mgrwt>
</event>
<event>
12    1  0.2214165E-007  0.2244423E+04  0.7818608E-02  0.8500163E-01
          2   -1    0    0  501    0  0.00000000000E+00  0.00000000000E+00  0.13402966429E+04  0.13402966429E+04  0.00000000000E+00 0. -1.
         -2   -1    0    0    0  501 -0.00000000000E+00 -0.00000000000E+00 -0.93961148200E+03  0.93961148200E+03  0.00000000000E+00 0.  1.
         23    2    1    2    0    0  0.27389302430E+03 -0.89531954528E+03  0.24543209783E+03  0.97182191005E+03  0.87100133685E+02 0.  0.
        254    2    1    2    0    0 -0.27389302430E+03  0.89531954528E+03  0.15525306310E+03  0.13080862149E+04  0.90020639580E+03 0.  0.
        -24    2    4    4    0    0 -0.41097593782E+02  0.95787248354E+03  0.30931384887E+03  0.10109049275E+04  0.83934548503E+02 0.  0.
         24    2    4    4    0    0 -0.23279543052E+03 -0.62552938261E+02 -0.15406078577E+03  0.29718128737E+03  0.80469927882E+02 0.  0.
         13    1    3    3    0    0  0.13137561598E+03 -0.46577103795E+03  0.17041655239E+03  0.51307310745E+03  0.00000000000E+00 0. -1.
        -13    1    3    3    0    0  0.14251740832E+03 -0.42954850733E+03  0.75015545444E+02  0.45874880259E+03  0.00000000000E+00 0.  1.
          2    1    6    6  502    0 -0.44027819703E+02 -0.47128913762E+02 -0.44809501179E+02  0.78533272032E+02  0.00000000000E+00 0. -1.
          3    1    5    5  503    0 -0.83958298603E+01  0.17808578657E+03  0.23879187476E+02  0.17987565964E+03  0.00000000000E+00 0. -1.
         -4    1    5    5    0  503 -0.32701763922E+02  0.77978669697E+03  0.28543466140E+03  0.83102926787E+03  0.00000000000E+00 0.  1.
         -1    1    6    6    0  502 -0.18876761081E+03 -0.15424024499E+02 -0.10925128459E+03  0.21864801533E+03  0.00000000000E+00 0.  1.
<mgrwt>
<rscale>  0 0.22444225E+04</rscale>
<asrwt>0</asrwt>
<pdfrwt beam="1">  1        2 0.20619948E+00 0.22444225E+04</pdfrwt>
<pdfrwt beam="2">  1       -2 0.14455561E+00 0.22444225E+04</pdfrwt>
<totfact> 0.47128377E+00</totfact>
</mgrwt>
</event>
<event>
12    1  0.2214165E-007  0.2702716E+04  0.7818608E-02  0.8334124E-01
          1   -1    0    0  501    0  0.00000000000E+00  0.00000000000E+00  0.20197132204E+04  0.20197132204E+04  0.00000000000E+00 0. -1.
         -1   -1    0    0    0  501 -0.00000000000E+00 -0.00000000000E+00 -0.90417242645E+03  0.90417242645E+03  0.00000000000E+00 0.  1.
         23    2    1    2    0    0 -0.74624869037E+03  0.35749017311E+03 -0.44055291484E+03  0.94167928303E+03  0.89368168615E+02 0.  0.
        254    2    1    2    0    0  0.74624869037E+03 -0.35749017311E+03  0.15560937088E+04  0.19822063639E+04  0.90720896519E+03 0.  0.
        -24    2    4    4    0    0  0.63586752400E+03  0.18716463040E+03  0.87253784644E+03  0.10982486754E+04  0.73957775228E+02 0.  0.
         24    2    4    4    0    0  0.11038116637E+03 -0.54465480351E+03  0.68355586238E+03  0.88395768849E+03  0.72799183870E+02 0.  0.
         13    1    3    3    0    0 -0.60931079571E+03  0.26212401216E+03 -0.37813355060E+03  0.76351399831E+03  0.00000000000E+00 0.  1.
        -13    1    3    3    0    0 -0.13693789466E+03  0.95366160951E+02 -0.62419364246E+02  0.17816528472E+03  0.00000000000E+00 0. -1.
          2    1    6    6  502    0  0.96289802582E+00 -0.14072680184E+03  0.14706040617E+03  0.20354783956E+03  0.00000000000E+00 0. -1.
          3    1    5    5  503    0  0.18117375688E+03  0.20968261118E+02  0.22093387042E+03  0.28648799845E+03  0.00000000000E+00 0. -1.
         -4    1    5    5    0  503  0.45469376712E+03  0.16619636928E+03  0.65160397603E+03  0.81176067692E+03  0.00000000000E+00 0.  1.
         -1    1    6    6    0  502  0.10941826835E+03 -0.40392800167E+03  0.53649545621E+03  0.68040984893E+03  0.00000000000E+00 0.  1.
<mgrwt>
<rscale>  0 0.27027164E+04</rscale>
<asrwt>0</asrwt>
<pdfrwt beam="1">  1        1 0.31072511E+00 0.27027164E+04</pdfrwt>
<pdfrwt beam="2">  1       -1 0.13910345E+00 0.27027164E+04</pdfrwt>
<totfact> 0.10750753E+00</totfact>
</mgrwt>
</event>
<event>
12    1  0.2214165E-007  0.1965962E+04  0.7818608E-02  0.8622702E-01
          2   -1    0    0  501    0  0.00000000000E+00  0.00000000000E+00  0.35608168753E+04  0.35608168753E+04  0.00000000000E+00 0. -1.
         -2   -1    0    0    0  501 -0.00000000000E+00 -0.00000000000E+00 -0.27135675907E+03  0.27135675907E+03  0.00000000000E+00 0.  1.
         23    2    1    2    0    0  0.39532749514E+03  0.56728703156E+03  0.19857795847E+04  0.21046555975E+04  0.90311795130E+02 0.  0.
        254    2    1    2    0    0 -0.39532749514E+03 -0.56728703156E+03  0.13036805315E+04  0.17275180369E+04  0.89812985417E+03 0.  0.
        -24    2    4    4    0    0 -0.40211678805E+03 -0.67854981079E+03  0.13653173903E+04  0.15787764521E+04  0.79471710393E+02 0.  0.
         24    2    4    4    0    0  0.67892929179E+01  0.11126277922E+03 -0.61636858764E+02  0.14874158473E+03  0.76807917111E+02 0.  0.
         13    1    3    3    0    0  0.23269546642E+03  0.30073437185E+03  0.96607902477E+03  0.10382181970E+04  0.00000000000E+00 0.  1.
        -13    1    3    3    0    0  0.16263202872E+03  0.26655265971E+03  0.10197005600E+04  0.10664374005E+04  0.00000000000E+00 0. -1.
          2    1    6    6  502    0  0.30082117192E+02  0.56817524476E+02 -0.14494762257E+01  0.64306032716E+02  0.00000000000E+00 0. -1.
          1    1    5    5  503    0 -0.15927924854E+03 -0.20874458146E+03  0.41088480471E+03  0.48761716750E+03  0.00000000000E+00 0. -1.
         -2    1    5    5    0  503 -0.24283753952E+03 -0.46980522933E+03  0.95443258555E+03  0.10911592846E+04  0.00000000000E+00 0.  1.
         -1    1    6    6    0  502 -0.23292824274E+02  0.54445254748E+02 -0.60187382538E+02  0.84435552015E+02  0.00000000000E+00 0.  1.
<mgrwt>
<rscale>  0 0.19659621E+04</rscale>
<asrwt>0</asrwt>
<pdfrwt beam="1">  1        2 0.54781795E+00 0.19659621E+04</pdfrwt>
<pdfrwt beam="2">  1       -2 0.41747196E-01 0.19659621E+04</pdfrwt>
<totfact> 0.37547496E+00</totfact>
</mgrwt>
</event>
<event>
12    1  0.2214165E-007  0.2954097E+04  0.7818608E-02  0.8256962E-01
         -2   -1    0    0    0  501 -0.00000000000E+00  0.00000000000E+00  0.10905220524E+04  0.10905220524E+04  0.00000000000E+00 0.  1.
          2   -1    0    0  501    0  0.00000000000E+00 -0.00000000000E+00 -0.20005756360E+04  0.20005756360E+04  0.00000000000E+00 0. -1.
         23    2    1    2    0    0  0.55176084761E+03  0.61927385207E+03 -0.15131365966E+04  0.17277327369E+04  0.86821157364E+02 0.  0.
        254    2    1    2    0    0 -0.55176084761E+03 -0.61927385207E+03  0.60308301297E+03  0.13633649515E+04  0.89839564421E+03 0.  0.
        -24    2    4    4    0    0 -0.43992601860E+03  0.88972644482E+02  0.59193620957E+02  0.45962975844E+03  0.79401491037E+02 0.  0.
         24    2    4    4    0    0 -0.11183482901E+03 -0.70824649655E+03  0.54388939201E+03  0.90373519302E+03  0.82471204072E+02 0.  0.
         13    1    3    3    0    0  0.53917827535E+03  0.57895271754E+03 -0.14213767030E+04  0.16267179207E+04  0.00000000000E+00 0. -1.
        -13    1    3    3    0    0  0.12582572265E+02  0.40321134527E+02 -0.91759893600E+02  0.10101481618E+03  0.00000000000E+00 0.  1.
          2    1    6    6  502    0 -0.11961481920E+03 -0.63076838079E+03  0.46366999075E+03  0.79193832810E+03  0.00000000000E+00 0. -1.
          1    1    5    5  503    0 -0.42102538700E+03  0.73990276278E+02  0.41040451838E+02  0.42944296032E+03  0.00000000000E+00 0. -1.
         -2    1    5    5    0  503 -0.18900631599E+02  0.14982368204E+02  0.18153169120E+02  0.30186798123E+02  0.00000000000E+00 0.  1.
         -1    1    6    6    0  502  0.77799901859E+01 -0.77478115759E+02  0.80219401256E+02  0.11179686492E+03  0.00000000000E+00 0.  1.
<mgrwt>
<rscale>  0 0.29540967E+04</rscale>
<asrwt>0</asrwt>
<pdfrwt beam="1">  1        2 0.30778086E+00 0.29540967E+04</pdfrwt>
<pdfrwt beam="2">  1       -2 0.16777262E+00 0.29540967E+04</pdfrwt>
<totfact> 0.12684236E+00</totfact>
</mgrwt>
</event>
<event>
12    1  0.2214165E-007  0.3496724E+04  0.7818608E-02  0.8114567E-01
         -4   -1    0    0    0  501 -0.00000000000E+00  0.00000000000E+00  0.15251707744E+04  0.15251707744E+04  0.00000000000E+00 0. -1.
          4   -1    0    0  501    0  0.00000000000E+00 -0.00000000000E+00 -0.20042142777E+04  0.20042142777E+04  0.00000000000E+00 0.  1.
         23    2    1    2    0    0  0.27421689966E+03  0.15918180600E+04  0.49484423422E+01  0.16178761725E+04  0.91756078817E+02 0.  0.
        254    2    1    2    0    0 -0.27421689966E+03 -0.15918180600E+04 -0.48399194564E+03  0.19115088796E+04  0.90029903303E+03 0.  0.
        -24    2    4    4    0    0 -0.37692990113E+03 -0.65313960992E+03  0.14646227213E+03  0.77307462243E+03  0.86750644242E+02 0.  0.
         24    2    4    4    0    0  0.10271300147E+03 -0.93867845012E+03 -0.63045421777E+03  0.11384342571E+04  0.83023151661E+02 0.  0.
         13    1    3    3    0    0  0.67039566635E+02  0.28714832916E+03  0.31850309928E+02  0.29658541548E+03  0.00000000000E+00 0. -1.
        -13    1    3    3    0    0  0.20717733303E+03  0.13046697309E+04 -0.26901867585E+02  0.13212907570E+04  0.00000000000E+00 0.  1.
          2    1    6    6  502    0  0.63039322623E+02 -0.64343154426E+03 -0.38520898127E+03  0.75257163619E+03  0.00000000000E+00 0. -1.
          3    1    5    5  503    0 -0.14948536014E+03 -0.25906383282E+03  0.10152259051E+03  0.31585879560E+03  0.00000000000E+00 0. -1.
         -2    1    5    5    0  503 -0.22744454099E+03 -0.39407577710E+03  0.44939681617E+02  0.45721582683E+03  0.00000000000E+00 0.  1.
         -1    1    6    6    0  502  0.39673678848E+02 -0.29524690586E+03 -0.24524523650E+03  0.38586262094E+03  0.00000000000E+00 0.  1.
<mgrwt>
<rscale>  0 0.34967236E+04</rscale>
<asrwt>0</asrwt>
<pdfrwt beam="1">  1        4 0.30834066E+00 0.34967236E+04</pdfrwt>
<pdfrwt beam="2">  1       -4 0.23464166E+00 0.34967236E+04</pdfrwt>
<totfact> 0.34963936E-03</totfact>
</mgrwt>
</event>
<event>
12    1  0.2214165E-007  0.2224802E+04  0.7818608E-02  0.8508175E-01
         -2   -1    0    0    0  501 -0.00000000000E+00  0.00000000000E+00  0.63063797147E+03  0.63063797147E+03  0.00000000000E+00 0.  1.
          2   -1    0    0  501    0  0.00000000000E+00 -0.00000000000E+00 -0.19621976813E+04  0.19621976813E+04  0.00000000000E+00 0. -1.
         23    2    1    2    0    0  0.37724176597E+03  0.72274065359E+03 -0.46491268865E+02  0.82170220062E+03  0.91474947857E+02 0.  0.
        254    2    1    2    0    0 -0.37724176597E+03 -0.72274065359E+03 -0.12850684410E+04  0.17711334522E+04  0.90600629414E+03 0.  0.
        -24    2    4    4    0    0  0.25433815516E+03 -0.42555635994E+03 -0.66565968935E+03  0.83393714054E+03  0.81007528626E+02 0.  0.
         24    2    4    4    0    0 -0.63157992113E+03 -0.29718429365E+03 -0.61940875162E+03  0.93719631162E+03  0.86359850346E+02 0.  0.
         13    1    3    3    0    0  0.20379689192E+03  0.32070981050E+03 -0.53915283233E+02  0.38379006433E+03  0.00000000000E+00 0.  1.
        -13    1    3    3    0    0  0.17344487405E+03  0.40203084309E+03  0.74240143682E+01  0.43791213630E+03  0.00000000000E+00 0. -1.
          2    1    6    6  502    0 -0.46654149823E+03 -0.25815190255E+03 -0.45404907150E+03  0.70033130281E+03  0.00000000000E+00 0. -1.
          1    1    5    5  503    0  0.23126050813E+03 -0.34846096791E+03 -0.51784022915E+03  0.66563125805E+03  0.00000000000E+00 0. -1.
         -2    1    5    5    0  503  0.23077647026E+02 -0.77095392030E+02 -0.14781946020E+03  0.16830588248E+03  0.00000000000E+00 0.  1.
         -1    1    6    6    0  502 -0.16503842290E+03 -0.39032391107E+02 -0.16535968012E+03  0.23686500881E+03  0.00000000000E+00 0.  1.
<mgrwt>
<rscale>  0 0.22248023E+04</rscale>
<asrwt>0</asrwt>
<pdfrwt beam="1">  1        2 0.30187656E+00 0.22248023E+04</pdfrwt>
<pdfrwt beam="2">  1       -2 0.97021227E-01 0.22248023E+04</pdfrwt>
<totfact> 0.56743396E+00</totfact>
</mgrwt>
</event>
<event>
12    1  0.2214165E-007  0.1905985E+04  0.7818608E-02  0.8651883E-01
          1   -1    0    0  501    0  0.00000000000E+00  0.00000000000E+00  0.15990439769E+04  0.15990439769E+04  0.00000000000E+00 0. -1.
         -1   -1    0    0    0  501 -0.00000000000E+00 -0.00000000000E+00 -0.56796093375E+03  0.56796093375E+03  0.00000000000E+00 0.  1.
         23    2    1    2    0    0 -0.30819085131E+03 -0.25242627769E+03  0.11087839843E+04  0.11801757833E+04  0.68646405924E+02 0.  0.
        254    2    1    2    0    0  0.30819085131E+03  0.25242627769E+03 -0.77700941198E+02  0.98682912734E+03  0.89949633896E+03 0.  0.
        -24    2    4    4    0    0  0.48278263725E+03  0.30317736651E+03  0.23013696362E+03  0.62039726100E+03  0.83271538002E+02 0.  0.
         24    2    4    4    0    0 -0.17459178594E+03 -0.50751088820E+02 -0.30783790482E+03  0.36643186634E+03  0.80312964679E+02 0.  0.
         13    1    3    3    0    0 -0.20690312764E+03 -0.12864045340E+03  0.63585067265E+03  0.68092829901E+03  0.00000000000E+00 0.  1.
        -13    1    3    3    0    0 -0.10128772367E+03 -0.12378582430E+03  0.47293331167E+03  0.49924748427E+03  0.00000000000E+00 0. -1.
          2    1    6    6  502    0 -0.86666800153E+02  0.15571217385E+02 -0.15074982167E+03  0.17458266177E+03  0.00000000000E+00 0. -1.
          1    1    5    5  503    0  0.32839383929E+03  0.18097173131E+03  0.18623665372E+03  0.41866140544E+03  0.00000000000E+00 0. -1.
         -2    1    5    5    0  503  0.15438879796E+03  0.12220563520E+03  0.43900309902E+02  0.20173585556E+03  0.00000000000E+00 0.  1.
         -1    1    6    6    0  502 -0.87924985785E+02 -0.66322306204E+02 -0.15708808315E+03  0.19184920457E+03  0.00000000000E+00 0.  1.
<mgrwt>
<rscale>  0 0.19059848E+04</rscale>
<asrwt>0</asrwt>
<pdfrwt beam="1">  1        1 0.24600676E+00 0.19059848E+04</pdfrwt>
<pdfrwt beam="2">  1       -1 0.87378606E-01 0.19059848E+04</pdfrwt>
<totfact> 0.67365207E+00</totfact>
</mgrwt>
</event>
<event>
12    1  0.2214165E-007  0.1063979E+04  0.7818608E-02  0.9241030E-01
         -2   -1    0    0    0  501 -0.00000000000E+00  0.00000000000E+00  0.34629270110E+03  0.34629270110E+03  0.00000000000E+00 0.  1.
          2   -1    0    0  501    0  0.00000000000E+00 -0.00000000000E+00 -0.81726416394E+03  0.81726416394E+03  0.00000000000E+00 0. -1.
         23    2    1    2    0    0 -0.87880184974E+02 -0.57580112157E+02 -0.13823511139E+03  0.20074825073E+03  0.10075970386E+03 0.  0.
        254    2    1    2    0    0  0.87880184974E+02  0.57580112157E+02 -0.33273635146E+03  0.96280861431E+03  0.89735642416E+03 0.  0.
        -24    2    4    4    0    0 -0.12044727789E+03  0.43559464869E+03 -0.22336315525E+03  0.51032564364E+03  0.79315311941E+02 0.  0.
         24    2    4    4    0    0  0.20832746287E+03 -0.37801453653E+03 -0.10937319620E+03  0.45248297067E+03  0.80517209874E+02 0.  0.
         11    1    3    3    0    0 -0.31162936860E+02 -0.41136775119E+02 -0.13155904987E+03  0.14131930690E+03  0.00000000000E+00 0. -1.
        -11    1    3    3    0    0 -0.56717248114E+02 -0.16443337038E+02 -0.66760615156E+01  0.59428943823E+02  0.00000000000E+00 0.  1.
          4    1    6    6  502    0  0.20330501976E+03 -0.32078735227E+03 -0.10868573957E+03  0.39503170306E+03  0.00000000000E+00 0. -1.
          3    1    5    5  503    0 -0.10499055706E+03  0.27789639702E+03 -0.17440785276E+03  0.34448152876E+03  0.00000000000E+00 0. -1.
         -4    1    5    5    0  503 -0.15456720835E+02  0.15769825167E+03 -0.48955302490E+02  0.16584411488E+03  0.00000000000E+00 0.  1.
         -1    1    6    6    0  502  0.50224431038E+01 -0.57227184265E+02 -0.68745663015E+00  0.57451267613E+02  0.00000000000E+00 0.  1.
<mgrwt>
<rscale>  0 0.10639786E+04</rscale>
<asrwt>0</asrwt>
<pdfrwt beam="1">  1        2 0.12573295E+00 0.10639786E+04</pdfrwt>
<pdfrwt beam="2">  1       -2 0.53275801E-01 0.10639786E+04</pdfrwt>
<totfact> 0.11063488E+02</totfact>
</mgrwt>
</event>
<event>
12    1  0.2214165E-007  0.4200593E+04  0.7818608E-02  0.7965260E-01
          1   -1    0    0  501    0  0.00000000000E+00  0.00000000000E+00  0.30641425128E+04  0.30641425128E+04  0.00000000000E+00 0. -1.
         -1   -1    0    0    0  501 -0.00000000000E+00 -0.00000000000E+00 -0.14396343126E+04  0.14396343126E+04  0.00000000000E+00 0.  1.
         23    2    1    2    0    0  0.15783319413E+04  0.12268613651E+04  0.91193292798E+03  0.21992333526E+04  0.93194141805E+02 0.  0.
        254    2    1    2    0    0 -0.15783319413E+04 -0.12268613651E+04  0.71257527215E+03  0.23045434728E+04  0.89824082161E+03 0.  0.
        -24    2    4    4    0    0 -0.85799945270E+03 -0.44239268027E+03  0.76605781668E+03  0.12350460292E+04  0.81361976632E+02 0.  0.
         24    2    4    4    0    0 -0.72033248860E+03 -0.78446868480E+03 -0.53482544533E+02  0.10694974437E+04  0.81819239033E+02 0.  0.
         11    1    3    3    0    0  0.66310743040E+03  0.54949838011E+03  0.35158835328E+03  0.93020121702E+03  0.00000000000E+00 0. -1.
        -11    1    3    3    0    0  0.91522451090E+03  0.67736298496E+03  0.56034457471E+03  0.12690321356E+04  0.00000000000E+00 0.  1.
          4    1    6    6  502    0 -0.18119866914E+03 -0.23337216042E+03  0.12506969055E+02  0.29572275399E+03  0.00000000000E+00 0. -1.
          3    1    5    5  503    0 -0.28208784210E+03 -0.10322682721E+03  0.23434248798E+03  0.38097996036E+03  0.00000000000E+00 0. -1.
         -4    1    5    5    0  503 -0.57591161059E+03 -0.33916585306E+03  0.53171532870E+03  0.85406606879E+03  0.00000000000E+00 0.  1.
         -3    1    6    6    0  502 -0.53913381946E+03 -0.55109652438E+03 -0.65989513588E+02  0.77377468967E+03  0.00000000000E+00 0.  1.
<mgrwt>
<rscale>  0 0.42005927E+04</rscale>
<asrwt>0</asrwt>
<pdfrwt beam="1">  1        1 0.47140654E+00 0.42005927E+04</pdfrwt>
<pdfrwt beam="2">  1       -1 0.22148220E+00 0.42005927E+04</pdfrwt>
<totfact> 0.44399290E-02</totfact>
</mgrwt>
</event>
<event>
12    1  0.2214165E-007  0.1953373E+04  0.7818608E-02  0.8628736E-01
          2   -1    0    0  501    0  0.00000000000E+00  0.00000000000E+00  0.11099723718E+04  0.11099723718E+04  0.00000000000E+00 0. -1.
         -2   -1    0    0    0  501 -0.00000000000E+00 -0.00000000000E+00 -0.85940603691E+03  0.85940603691E+03  0.00000000000E+00 0.  1.
         23    2    1    2    0    0  0.17327498039E+03  0.74083820761E+03  0.17085718439E+03  0.78579170415E+03  0.97010082859E+02 0.  0.
        254    2    1    2    0    0 -0.17327498039E+03 -0.74083820761E+03  0.79709150506E+02  0.11835867046E+04  0.90313812337E+03 0.  0.
        -24    2    4    4    0    0 -0.29220322385E+03 -0.86944540304E+03  0.21852116779E+03  0.94636625245E+03  0.80867484838E+02 0.  0.
         24    2    4    4    0    0  0.11892824346E+03  0.12860719544E+03 -0.13881201729E+03  0.23722045212E+03  0.79504898912E+02 0.  0.
         11    1    3    3    0    0  0.47694077304E+02  0.90823132323E+02  0.21852819403E+01  0.10260770844E+03  0.00000000000E+00 0.  1.
        -11    1    3    3    0    0  0.12558090309E+03  0.65001507528E+03  0.16867190245E+03  0.68318399571E+03  0.00000000000E+00 0. -1.
          4    1    6    6  502    0  0.86285783064E+02  0.12548452687E+03 -0.13622792139E+03  0.20432730950E+03  0.00000000000E+00 0. -1.
          3    1    5    5  503    0 -0.21012769872E+03 -0.72227736520E+03  0.18276535409E+03  0.77410685096E+03  0.00000000000E+00 0. -1.
         -4    1    5    5    0  503 -0.82075525132E+02 -0.14716803784E+03  0.35755813708E+02  0.17225940149E+03  0.00000000000E+00 0.  1.
         -3    1    6    6    0  502  0.32642460395E+02  0.31226685613E+01 -0.25840959005E+01  0.32893142617E+02  0.00000000000E+00 0.  1.
<mgrwt>
<rscale>  0 0.19533734E+04</rscale>
<asrwt>0</asrwt>
<pdfrwt beam="1">  1        2 0.17076498E+00 0.19533734E+04</pdfrwt>
<pdfrwt beam="2">  1       -2 0.13221631E+00 0.19533734E+04</pdfrwt>
<totfact> 0.83346551E+00</totfact>
</mgrwt>
</event>
<event>
12    1  0.2214165E-007  0.1519644E+04  0.7818608E-02  0.8871494E-01
          2   -1    0    0  501    0  0.00000000000E+00  0.00000000000E+00  0.11083805347E+04  0.11083805347E+04  0.00000000000E+00 0. -1.
         -2   -1    0    0    0  501 -0.00000000000E+00 -0.00000000000E+00 -0.52087687674E+03  0.52087687674E+03  0.00000000000E+00 0.  1.
         23    2    1    2    0    0  0.13175562014E+02  0.22401554659E+03  0.65155753356E+03  0.69858466805E+03  0.11461569853E+03 0.  0.
        254    2    1    2    0    0 -0.13175562014E+02 -0.22401554659E+03 -0.64053875643E+02  0.93067274335E+03  0.90093967373E+03 0.  0.
        -24    2    4    4    0    0  0.41010182944E+03  0.42489413267E+02 -0.65072959749E+02  0.42459661678E+03  0.77839168439E+02 0.  0.
         24    2    4    4    0    0 -0.42327739146E+03 -0.26650495985E+03  0.10190841060E+01  0.50607612657E+03  0.76963391349E+02 0.  0.
         11    1    3    3    0    0  0.66060851611E+01  0.62957834939E+02  0.66854959573E+02  0.92070163250E+02  0.00000000000E+00 0.  1.
        -11    1    3    3    0    0  0.65694768526E+01  0.16105771165E+03  0.58470257398E+03  0.60651450480E+03  0.00000000000E+00 0. -1.
          2    1    6    6  502    0 -0.40277500011E+03 -0.25503614971E+03  0.18032099934E+02  0.47707053461E+03  0.00000000000E+00 0. -1.
          1    1    5    5  503    0  0.39080951886E+03  0.45439948154E+02 -0.44033221310E+02  0.39589871621E+03  0.00000000000E+00 0. -1.
         -2    1    5    5    0  503  0.19292310583E+02 -0.29505348877E+01 -0.21039738438E+02  0.28697900573E+02  0.00000000000E+00 0.  1.
         -1    1    6    6    0  502 -0.20502391349E+02 -0.11468810148E+02 -0.17013015828E+02  0.29005591957E+02  0.00000000000E+00 0.  1.
<mgrwt>
<rscale>  0 0.15196444E+04</rscale>
<asrwt>0</asrwt>
<pdfrwt beam="1">  1        2 0.17052008E+00 0.15196444E+04</pdfrwt>
<pdfrwt beam="2">  1       -2 0.80134904E-01 0.15196444E+04</pdfrwt>
<totfact> 0.28606751E+01</totfact>
</mgrwt>
</event>
<event>
12    1  0.2214165E-007  0.3847183E+04  0.7818608E-02  0.8036105E-01
          2   -1    0    0  501    0  0.00000000000E+00  0.00000000000E+00  0.30168354807E+04  0.30168354807E+04  0.00000000000E+00 0. -1.
         -2   -1    0    0    0  501 -0.00000000000E+00 -0.00000000000E+00 -0.12265186838E+04  0.12265186838E+04  0.00000000000E+00 0.  1.
         23    2    1    2    0    0 -0.83877875744E+03 -0.16084608032E+04  0.96118014689E+03  0.20548466709E+04  0.88496365824E+02 0.  0.
        254    2    1    2    0    0  0.83877875744E+03  0.16084608032E+04  0.82913664998E+03  0.21885074935E+04  0.90077827770E+03 0.  0.
        -24    2    4    4    0    0  0.72614820389E+03  0.13033438214E+04  0.10143956371E+04  0.18059083071E+04  0.79435346961E+02 0.  0.
         24    2    4    4    0    0  0.11263055356E+03  0.30511698177E+03 -0.18525898710E+03  0.38259918642E+03  0.79241598853E+02 0.  0.
         11    1    3    3    0    0 -0.45648451583E+03 -0.88697966338E+03  0.57788278374E+03  0.11528484498E+04  0.00000000000E+00 0. -1.
        -11    1    3    3    0    0 -0.38229424161E+03 -0.72148113980E+03  0.38329736315E+03  0.90199822109E+03  0.00000000000E+00 0.  1.
          4    1    6    6  502    0  0.11034183033E+02  0.13076927298E+03 -0.54208301142E+02  0.14198906952E+03  0.00000000000E+00 0. -1.
          1    1    5    5  503    0  0.17811567642E+03  0.25561839134E+03  0.20166349197E+03  0.37112547766E+03  0.00000000000E+00 0. -1.
         -2    1    5    5    0  503  0.54803252747E+03  0.10477254301E+04  0.81273214511E+03  0.14347828295E+04  0.00000000000E+00 0.  1.
         -3    1    6    6    0  502  0.10159637052E+03  0.17434770879E+03 -0.13105068596E+03  0.24061011690E+03  0.00000000000E+00 0.  1.
<mgrwt>
<rscale>  0 0.38471834E+04</rscale>
<asrwt>0</asrwt>
<pdfrwt beam="1">  1        2 0.46412853E+00 0.38471834E+04</pdfrwt>
<pdfrwt beam="2">  1       -2 0.18869518E+00 0.38471834E+04</pdfrwt>
<totfact> 0.21452514E-01</totfact>
</mgrwt>
</event>
<event>
12    1  0.2214165E-007  0.2371879E+04  0.7818608E-02  0.8450107E-01
          1   -1    0    0  501    0  0.00000000000E+00  0.00000000000E+00  0.27224946004E+04  0.27224946004E+04  0.00000000000E+00 0. -1.
         -1   -1    0    0    0  501 -0.00000000000E+00 -0.00000000000E+00 -0.51660442339E+03  0.51660442339E+03  0.00000000000E+00 0.  1.
         23    2    1    2    0    0  0.78970222738E+03 -0.20509156839E+03  0.17650356857E+04  0.19466496503E+04  0.91660951235E+02 0.  0.
        254    2    1    2    0    0 -0.78970222738E+03  0.20509156839E+03  0.44085449132E+03  0.12924493735E+04  0.90021138689E+03 0.  0.
        -24    2    4    4    0    0 -0.88992726186E+03 -0.81524276847E+02  0.28164425840E+03  0.94045506693E+03  0.80718681293E+02 0.  0.
         24    2    4    4    0    0  0.10022503448E+03  0.28661584524E+03  0.15921023291E+03  0.35199430653E+03  0.79739534028E+02 0.  0.
         11    1    3    3    0    0  0.55883289580E+03 -0.13541158895E+03  0.13359677271E+04  0.14544553179E+04  0.00000000000E+00 0. -1.
        -11    1    3    3    0    0  0.23086933158E+03 -0.69679979450E+02  0.42906795856E+03  0.49219433242E+03  0.00000000000E+00 0.  1.
          2    1    6    6  502    0  0.98038872044E+02  0.17803913189E+03  0.12274926348E+03  0.23743827535E+03  0.00000000000E+00 0. -1.
          3    1    5    5  503    0 -0.55927954903E+03 -0.16410278880E+02  0.15680744423E+03  0.58107786551E+03  0.00000000000E+00 0. -1.
         -4    1    5    5    0  503 -0.33064771283E+03 -0.65113997967E+02  0.12483681418E+03  0.35937720142E+03  0.00000000000E+00 0.  1.
         -1    1    6    6    0  502  0.21861624314E+01  0.10857671335E+03  0.36460969433E+02  0.11455603118E+03  0.00000000000E+00 0.  1.
<mgrwt>
<rscale>  0 0.23718792E+04</rscale>
<asrwt>0</asrwt>
<pdfrwt beam="1">  1        1 0.41884532E+00 0.23718792E+04</pdfrwt>
<pdfrwt beam="2">  1       -1 0.79477605E-01 0.23718792E+04</pdfrwt>
<totfact> 0.13442976E+00</totfact>
</mgrwt>
</event>
<event>
12    1  0.2214165E-007  0.1787820E+04  0.7818608E-02  0.8712804E-01
          1   -1    0    0  501    0  0.00000000000E+00  0.00000000000E+00  0.16354462260E+04  0.16354462260E+04  0.00000000000E+00 0. -1.
         -1   -1    0    0    0  501 -0.00000000000E+00 -0.00000000000E+00 -0.48859745278E+03  0.48859745278E+03  0.00000000000E+00 0.  1.
         23    2    1    2    0    0  0.49157688123E+03  0.41407972028E+03  0.23884683352E+03  0.69487733043E+03  0.11268029802E+03 0.  0.
        254    2    1    2    0    0 -0.49157688123E+03 -0.41407972028E+03  0.90800193970E+03  0.14291663484E+04  0.89718397437E+03 0.  0.
        -24    2    4    4    0    0  0.16563540118E+03 -0.59673836238E+02 -0.61730371603E+02  0.20265284080E+03  0.79129528305E+02 0.  0.
         24    2    4    4    0    0 -0.65721228241E+03 -0.35440588404E+03  0.96973231130E+03  0.12265135076E+04  0.80144331330E+02 0.  0.
         13    1    3    3    0    0  0.34813059999E+03  0.30725124130E+03  0.11819758139E+03  0.47913349724E+03  0.00000000000E+00 0. -1.
        -13    1    3    3    0    0  0.14344628124E+03  0.10682847898E+03  0.12064925213E+03  0.21574383319E+03  0.00000000000E+00 0.  1.
          2    1    6    6  502    0 -0.64609783911E+03 -0.35856265286E+03  0.95752686091E+03  0.12094905056E+04  0.00000000000E+00 0. -1.
          1    1    5    5  503    0  0.14576063620E+03 -0.32450373213E+02 -0.22637499441E+02  0.15103524810E+03  0.00000000000E+00 0. -1.
         -2    1    5    5    0  503  0.19874764976E+02 -0.27223463025E+02 -0.39092872161E+02  0.51617592696E+02  0.00000000000E+00 0.  1.
         -1    1    6    6    0  502 -0.11114443303E+02  0.41567688241E+01  0.12205450392E+02  0.17023001976E+02  0.00000000000E+00 0.  1.
<mgrwt>
<rscale>  0 0.17878197E+04</rscale>
<asrwt>0</asrwt>
<pdfrwt beam="1">  1        1 0.25160711E+00 0.17878197E+04</pdfrwt>
<pdfrwt beam="2">  1       -1 0.75168839E-01 0.17878197E+04</pdfrwt>
<totfact> 0.88679680E+00</totfact>
</mgrwt>
</event>
<event>
12    1  0.2214165E-007  0.3561444E+04  0.7818608E-02  0.8099381E-01
         -1   -1    0    0    0  501 -0.00000000000E+00  0.00000000000E+00  0.19625102122E+04  0.19625102122E+04  0.00000000000E+00 0.  1.
          1   -1    0    0  501    0  0.00000000000E+00 -0.00000000000E+00 -0.16157731258E+04  0.16157731258E+04  0.00000000000E+00 0. -1.
         23    2    1    2    0    0 -0.65033300209E+03  0.93121899078E+03  0.13874412971E+04  0.17954599909E+04  0.92635867052E+02 0.  0.
        254    2    1    2    0    0  0.65033300209E+03 -0.93121899078E+03 -0.10407042107E+04  0.17828233471E+04  0.89738063850E+03 0.  0.
        -24    2    4    4    0    0 -0.18215872646E+03 -0.85727421853E+01 -0.10111662642E+03  0.22295309271E+03  0.78919046343E+02 0.  0.
         24    2    4    4    0    0  0.83249172855E+03 -0.92264624860E+03 -0.93958758426E+03  0.15598702544E+04  0.77793340466E+02 0.  0.
         11    1    3    3    0    0 -0.30007514130E+03  0.35028229714E+03  0.56238782251E+03  0.72733956377E+03  0.00000000000E+00 0. -1.
        -11    1    3    3    0    0 -0.35025786079E+03  0.58093669364E+03  0.82505347454E+03  0.10681204272E+04  0.00000000000E+00 0.  1.
          2    1    6    6  502    0  0.10182590465E+01 -0.10515313323E+02 -0.48512079347E+01  0.11625097169E+02  0.00000000000E+00 0. -1.
          1    1    5    5  503    0  0.17909459416E+01 -0.13297668553E+02 -0.96270536141E+00  0.13452222044E+02  0.00000000000E+00 0. -1.
         -2    1    5    5    0  503 -0.18394967240E+03  0.47249263678E+01 -0.10015392106E+03  0.20950087066E+03  0.00000000000E+00 0.  1.
         -1    1    6    6    0  502  0.83147346950E+03 -0.91213093528E+03 -0.93473637633E+03  0.15482451572E+04  0.00000000000E+00 0.  1.
<mgrwt>
<rscale>  0 0.35614442E+04</rscale>
<asrwt>0</asrwt>
<pdfrwt beam="1">  1        1 0.24858048E+00 0.35614442E+04</pdfrwt>
<pdfrwt beam="2">  1       -1 0.30192465E+00 0.35614442E+04</pdfrwt>
<totfact> 0.14173903E-01</totfact>
</mgrwt>
</event>
<event>
12    1  0.2214165E-007  0.3249371E+04  0.7818608E-02  0.8175899E-01
          2   -1    0    0  501    0  0.00000000000E+00  0.00000000000E+00  0.30247254554E+04  0.30247254554E+04  0.00000000000E+00 0. -1.
         -2   -1    0    0    0  501 -0.00000000000E+00 -0.00000000000E+00 -0.87267529774E+03  0.87267529774E+03  0.00000000000E+00 0.  1.
         23    2    1    2    0    0  0.73454851006E+03  0.12945552321E+04  0.76092937587E+03  0.16741729919E+04  0.91689307689E+02 0.  0.
        254    2    1    2    0    0 -0.73454851006E+03 -0.12945552321E+04  0.13911207818E+04  0.22232277612E+04  0.88999431816E+03 0.  0.
        -24    2    4    4    0    0  0.21644732261E+02  0.10621003879E+03  0.15348924491E+03  0.20526556624E+03  0.82619232663E+02 0.  0.
         24    2    4    4    0    0 -0.75619324232E+03 -0.14007652709E+04  0.12376315368E+04  0.20179621950E+04  0.80424098606E+02 0.  0.
         11    1    3    3    0    0  0.15260931236E+03  0.34207884126E+03  0.17259952166E+03  0.41242954638E+03  0.00000000000E+00 0.  1.
        -11    1    3    3    0    0  0.58193919770E+03  0.95247639082E+03  0.58832985421E+03  0.12617434455E+04  0.00000000000E+00 0. -1.
          4    1    6    6  502    0 -0.30902967320E+03 -0.65323912472E+03  0.54677396985E+03  0.90619118683E+03  0.00000000000E+00 0. -1.
          1    1    5    5  503    0 -0.98837858552E+01  0.65160247719E+02  0.13513092715E+03  0.15034598292E+03  0.00000000000E+00 0. -1.
         -2    1    5    5    0  503  0.31528518117E+02  0.41049791069E+02  0.18358317758E+02  0.54919583323E+02  0.00000000000E+00 0.  1.
         -1    1    6    6    0  502 -0.44716356911E+03 -0.74752614615E+03  0.69085756700E+03  0.11117710082E+04  0.00000000000E+00 0.  1.
<mgrwt>
<rscale>  0 0.32493711E+04</rscale>
<asrwt>0</asrwt>
<pdfrwt beam="1">  1        2 0.46534237E+00 0.32493711E+04</pdfrwt>
<pdfrwt beam="2">  1       -2 0.13425774E+00 0.32493711E+04</pdfrwt>
<totfact> 0.56328117E-01</totfact>
</mgrwt>
</event>
<event>
12    1  0.2214165E-007  0.2491407E+04  0.7818608E-02  0.8406053E-01
          1   -1    0    0  501    0  0.00000000000E+00  0.00000000000E+00  0.22142307130E+04  0.22142307130E+04  0.00000000000E+00 0. -1.
         -1   -1    0    0    0  501 -0.00000000000E+00 -0.00000000000E+00 -0.70081999899E+03  0.70081999899E+03  0.00000000000E+00 0.  1.
         23    2    1    2    0    0 -0.92491544314E+03  0.24092310543E+03  0.59764997720E+02  0.96170985533E+03  0.88325937323E+02 0.  0.
        254    2    1    2    0    0  0.92491544314E+03 -0.24092310543E+03  0.14536457163E+04  0.19533408566E+04  0.88822413505E+03 0.  0.
        -24    2    4    4    0    0  0.17170312327E+03 -0.43321065017E+03  0.82436943330E+03  0.95008745733E+03  0.76992103859E+02 0.  0.
         24    2    4    4    0    0  0.75321231987E+03  0.19228754474E+03  0.62927628297E+03  0.10032533993E+04  0.78901484392E+02 0.  0.
         13    1    3    3    0    0 -0.20812422979E+03  0.79931340790E+02 -0.13894839808E+02  0.22337811181E+03  0.00000000000E+00 0.  1.
        -13    1    3    3    0    0 -0.71679121335E+03  0.16099176464E+03  0.73659837527E+02  0.73833174352E+03  0.00000000000E+00 0. -1.
          4    1    6    6  502    0  0.69799353481E+03  0.19103246077E+03  0.56232356353E+03  0.91645849104E+03  0.00000000000E+00 0. -1.
          3    1    5    5  503    0  0.17948037415E+03 -0.41894882815E+03  0.78937822855E+03  0.91150935981E+03  0.00000000000E+00 0. -1.
         -4    1    5    5    0  503 -0.77772508768E+01 -0.14261822024E+02  0.34991204744E+02  0.38578097518E+02  0.00000000000E+00 0.  1.
         -3    1    6    6    0  502  0.55218785063E+02  0.12550839663E+01  0.66952719445E+02  0.86794908264E+02  0.00000000000E+00 0.  1.
<mgrwt>
<rscale>  0 0.24914070E+04</rscale>
<asrwt>0</asrwt>
<pdfrwt beam="1">  1        1 0.34065088E+00 0.24914070E+04</pdfrwt>
<pdfrwt beam="2">  1       -1 0.10781846E+00 0.24914070E+04</pdfrwt>
<totfact> 0.15150542E+00</totfact>
</mgrwt>
</event>
<event>
12    1  0.2214165E-007  0.1785760E+04  0.7818608E-02  0.8713909E-01
         -1   -1    0    0    0  501 -0.00000000000E+00  0.00000000000E+00  0.54876400866E+03  0.54876400866E+03  0.00000000000E+00 0.  1.
          1   -1    0    0  501    0  0.00000000000E+00 -0.00000000000E+00 -0.14527825032E+04  0.14527825032E+04  0.00000000000E+00 0. -1.
         23    2    1    2    0    0  0.63149239797E+03 -0.86336040668E+01 -0.90230857743E+02  0.64264983241E+03  0.77459741745E+02 0.  0.
        254    2    1    2    0    0 -0.63149239797E+03  0.86336040668E+01 -0.81378763675E+03  0.13588966794E+04  0.88628024900E+03 0.  0.
        -24    2    4    4    0    0 -0.79057362322E+02  0.32076737085E+03 -0.20406198870E+02  0.33970621769E+03  0.76433818721E+02 0.  0.
         24    2    4    4    0    0 -0.55243503565E+03 -0.31213376678E+03 -0.79338143788E+03  0.10191904617E+04  0.81750439286E+02 0.  0.
         11    1    3    3    0    0  0.39159129427E+03 -0.37592609963E+02 -0.75401965109E+02  0.40055262128E+03  0.00000000000E+00 0. -1.
        -11    1    3    3    0    0  0.23990110370E+03  0.28959005897E+02 -0.14828892634E+02  0.24209721112E+03  0.00000000000E+00 0.  1.
          2    1    6    6  502    0 -0.28348595482E+03 -0.20619042367E+03 -0.42353788663E+03  0.54978461128E+03  0.00000000000E+00 0. -1.
          3    1    5    5  503    0  0.15420844316E+02  0.43032731115E+02 -0.16234387657E+01  0.45741162426E+02  0.00000000000E+00 0. -1.
         -4    1    5    5    0  503 -0.94478206638E+02  0.27773463973E+03 -0.18782760104E+02  0.29396505526E+03  0.00000000000E+00 0.  1.
         -1    1    6    6    0  502 -0.26894908083E+03 -0.10594334311E+03 -0.36984355125E+03  0.46940585044E+03  0.00000000000E+00 0.  1.
<mgrwt>
<rscale>  0 0.17857601E+04</rscale>
<asrwt>0</asrwt>
<pdfrwt beam="1">  1        1 0.22350500E+00 0.17857601E+04</pdfrwt>
<pdfrwt beam="2">  1       -1 0.84425233E-01 0.17857601E+04</pdfrwt>
<totfact> 0.92614622E+00</totfact>
</mgrwt>
</event>
<event>
12    1  0.2214165E-007  0.1655563E+04  0.7818608E-02  0.8787122E-01
         -2   -1    0    0    0  501 -0.00000000000E+00  0.00000000000E+00  0.63935466446E+03  0.63935466446E+03  0.00000000000E+00 0.  1.
          2   -1    0    0  501    0  0.00000000000E+00 -0.00000000000E+00 -0.10717403068E+04  0.10717403068E+04  0.00000000000E+00 0. -1.
         23    2    1    2    0    0 -0.38458595042E+03 -0.60073794971E+01 -0.59866194342E+03  0.71740473154E+03  0.91274226720E+02 0.  0.
        254    2    1    2    0    0  0.38458595042E+03  0.60073794971E+01  0.16627630113E+03  0.99369023968E+03  0.90101611653E+03 0.  0.
        -24    2    4    4    0    0 -0.27071634512E+03 -0.90166401583E+02 -0.31665633036E+02  0.29745650562E+03  0.77848191553E+02 0.  0.
         24    2    4    4    0    0  0.65530229555E+03  0.96173781081E+02  0.19794193416E+03  0.69623373406E+03  0.83005472316E+02 0.  0.
         11    1    3    3    0    0 -0.36338263725E+03  0.24366835268E+01 -0.59012583333E+03  0.69303778948E+03  0.00000000000E+00 0. -1.
        -11    1    3    3    0    0 -0.21203313172E+02 -0.84440630239E+01 -0.85361100874E+01  0.24366942058E+02  0.00000000000E+00 0.  1.
          4    1    6    6  502    0  0.19018321767E+03  0.12468832939E+02  0.21587699061E+02  0.19181021044E+03  0.00000000000E+00 0. -1.
          1    1    5    5  503    0 -0.77706911861E+02 -0.41344753547E+02  0.23043953801E+02  0.90987782716E+02  0.00000000000E+00 0. -1.
         -4    1    5    5    0  503 -0.19300943326E+03 -0.48821648037E+02 -0.54709586838E+02  0.20646872290E+03  0.00000000000E+00 0.  1.
         -3    1    6    6    0  502  0.46511907787E+03  0.83704948142E+02  0.17635423510E+03  0.50442352362E+03  0.00000000000E+00 0.  1.
<mgrwt>
<rscale>  0 0.16555629E+04</rscale>
<asrwt>0</asrwt>
<pdfrwt beam="1">  1        2 0.16488312E+00 0.16555629E+04</pdfrwt>
<pdfrwt beam="2">  1       -2 0.98362257E-01 0.16555629E+04</pdfrwt>
<totfact> 0.18607592E+01</totfact>
</mgrwt>
</event>
<event>
12    1  0.2214165E-007  0.1673008E+04  0.7818608E-02  0.8776911E-01
          2   -1    0    0  501    0  0.00000000000E+00  0.00000000000E+00  0.15923894628E+04  0.15923894628E+04  0.00000000000E+00 0. -1.
         -2   -1    0    0    0  501 -0.00000000000E+00 -0.00000000000E+00 -0.43942682422E+03  0.43942682422E+03  0.00000000000E+00 0.  1.
         23    2    1    2    0    0  0.20533476325E+03 -0.54417057699E+03  0.28211748153E+03  0.65211641910E+03  0.85916056787E+02 0.  0.
        254    2    1    2    0    0 -0.20533476325E+03  0.54417057699E+03  0.87084515706E+03  0.13796998679E+04  0.89828528662E+03 0.  0.
        -24    2    4    4    0    0  0.11789819768E+03  0.13224602186E+03  0.82614088935E+03  0.84810643530E+03  0.73394558601E+02 0.  0.
         24    2    4    4    0    0 -0.32323296093E+03  0.41192455513E+03  0.44704267714E+02  0.53159343264E+03  0.80198004438E+02 0.  0.
         13    1    3    3    0    0  0.32789193768E+02 -0.10032587253E+03  0.89669590019E+02  0.13849565806E+03  0.00000000000E+00 0.  1.
        -13    1    3    3    0    0  0.17254556948E+03 -0.44384470446E+03  0.19244789151E+03  0.51362076104E+03  0.00000000000E+00 0. -1.
          2    1    6    6  502    0 -0.38224668779E+02  0.51831528066E+02 -0.20872651447E+02  0.67700075209E+02  0.00000000000E+00 0. -1.
          1    1    5    5  503    0  0.17773712552E+02  0.72477945272E+02  0.35386460469E+03  0.36164777873E+03  0.00000000000E+00 0. -1.
         -2    1    5    5    0  503  0.10012448513E+03  0.59768076585E+02  0.47227628466E+03  0.48645865657E+03  0.00000000000E+00 0.  1.
         -1    1    6    6    0  502 -0.28500829216E+03  0.36009302707E+03  0.65576919161E+02  0.46389335743E+03  0.00000000000E+00 0.  1.
<mgrwt>
<rscale>  0 0.16730076E+04</rscale>
<asrwt>0</asrwt>
<pdfrwt beam="1">  1        2 0.24498299E+00 0.16730076E+04</pdfrwt>
<pdfrwt beam="2">  1       -2 0.67604127E-01 0.16730076E+04</pdfrwt>
<totfact> 0.21533969E+01</totfact>
</mgrwt>
</event>
<event>
12    1  0.2214165E-007  0.1664982E+04  0.7818608E-02  0.8781593E-01
          1   -1    0    0  501    0  0.00000000000E+00  0.00000000000E+00  0.24531267553E+04  0.24531267553E+04  0.00000000000E+00 0. -1.
         -1   -1    0    0    0  501 -0.00000000000E+00 -0.00000000000E+00 -0.28251330056E+03  0.28251330056E+03  0.00000000000E+00 0.  1.
         23    2    1    2    0    0 -0.32392792489E+03 -0.95399330557E+01 -0.27548891262E+02  0.33833116185E+03  0.93213318896E+02 0.  0.
        254    2    1    2    0    0  0.32392792489E+03  0.95399330557E+01  0.21981623460E+04  0.23973088940E+04  0.90008439777E+03 0.  0.
        -24    2    4    4    0    0  0.55287754177E+03 -0.91275699718E+02  0.83292467585E+03  0.10070175993E+04  0.79473895794E+02 0.  0.
         24    2    4    4    0    0 -0.22894961688E+03  0.10081563277E+03  0.13652376702E+04  0.13902912947E+04  0.80338466934E+02 0.  0.
         11    1    3    3    0    0 -0.75865689874E+02  0.36526885567E+02 -0.16387813112E+02  0.85780980922E+02  0.00000000000E+00 0. -1.
        -11    1    3    3    0    0 -0.24806223502E+03 -0.46066818622E+02 -0.11161078150E+02  0.25255018092E+03  0.00000000000E+00 0.  1.
          2    1    6    6  502    0 -0.55543111080E+02  0.55698395167E+02  0.30279152948E+03  0.31284190694E+03  0.00000000000E+00 0. -1.
          3    1    5    5  503    0  0.95555102277E+02 -0.43325803852E+02  0.18161889018E+03  0.20974585603E+03  0.00000000000E+00 0. -1.
         -4    1    5    5    0  503  0.45732243949E+03 -0.47949895865E+02  0.65130578567E+03  0.79727174328E+03  0.00000000000E+00 0.  1.
         -1    1    6    6    0  502 -0.17340650580E+03  0.45117237606E+02  0.10624461407E+04  0.10774493878E+04  0.00000000000E+00 0.  1.
<mgrwt>
<rscale>  0 0.16649816E+04</rscale>
<asrwt>0</asrwt>
<pdfrwt beam="1">  1        1 0.37740410E+00 0.16649816E+04</pdfrwt>
<pdfrwt beam="2">  1       -1 0.43463586E-01 0.16649816E+04</pdfrwt>
<totfact> 0.72918095E+00</totfact>
</mgrwt>
</event>
<event>
12    1  0.2214165E-007  0.4192947E+04  0.7818608E-02  0.7966715E-01
         -1   -1    0    0    0  501 -0.00000000000E+00  0.00000000000E+00  0.10375551837E+04  0.10375551837E+04  0.00000000000E+00 0.  1.
          1   -1    0    0  501    0  0.00000000000E+00 -0.00000000000E+00 -0.42361130649E+04  0.42361130649E+04  0.00000000000E+00 0. -1.
         23    2    1    2    0    0 -0.17779498707E+04  0.88891295493E+03 -0.17830106549E+04  0.26720234811E+04  0.96490952118E+02 0.  0.
        254    2    1    2    0    0  0.17779498707E+04 -0.88891295493E+03 -0.14155472263E+04  0.26016447675E+04  0.90194764940E+03 0.  0.
        -24    2    4    4    0    0  0.52567181947E+03  0.51367604311E+02 -0.69403360947E+03  0.87557122643E+03  0.77284079384E+02 0.  0.
         24    2    4    4    0    0  0.12522780512E+04 -0.94028055925E+03 -0.72151361682E+03  0.17260735411E+04  0.80125665397E+02 0.  0.
         13    1    3    3    0    0 -0.36257278875E+03  0.14232755370E+03 -0.37053235606E+03  0.53759686250E+03  0.00000000000E+00 0.  1.
        -13    1    3    3    0    0 -0.14153770819E+04  0.74658540124E+03 -0.14124782988E+04  0.21344266186E+04  0.00000000000E+00 0. -1.
          2    1    6    6  502    0  0.18975534846E+03 -0.12693656116E+03 -0.13367911473E+03  0.26455639955E+03  0.00000000000E+00 0. -1.
          1    1    5    5  503    0  0.35418924369E+02  0.84827257124E+01 -0.85594299470E+02  0.93020647927E+02  0.00000000000E+00 0. -1.
         -2    1    5    5    0  503  0.49025289510E+03  0.42884878599E+02 -0.60843931000E+03  0.78255057851E+03  0.00000000000E+00 0.  1.
         -1    1    6    6    0  502  0.10625227027E+04 -0.81334399808E+03 -0.58783450210E+03  0.14615171415E+04  0.00000000000E+00 0.  1.
<mgrwt>
<rscale>  0 0.41929470E+04</rscale>
<asrwt>0</asrwt>
<pdfrwt beam="1">  1        1 0.65170972E+00 0.41929470E+04</pdfrwt>
<pdfrwt beam="2">  1       -1 0.15962387E+00 0.41929470E+04</pdfrwt>
<totfact> 0.13199501E-02</totfact>
</mgrwt>
</event>
<event>
12    1  0.2214165E-007  0.3481942E+04  0.7818608E-02  0.8118083E-01
          2   -1    0    0  501    0  0.00000000000E+00  0.00000000000E+00  0.31638603298E+04  0.31638603298E+04  0.00000000000E+00 0. -1.
         -2   -1    0    0    0  501 -0.00000000000E+00 -0.00000000000E+00 -0.95800048172E+03  0.95800048172E+03  0.00000000000E+00 0.  1.
         23    2    1    2    0    0  0.89137904935E+03  0.67480564059E+03 -0.36386971917E+03  0.11786104016E+04  0.82474504801E+02 0.  0.
        254    2    1    2    0    0 -0.89137904935E+03 -0.67480564059E+03  0.25697295673E+04  0.29432504100E+04  0.89960750598E+03 0.  0.
        -24    2    4    4    0    0 -0.84640942868E+03 -0.23897541107E+03  0.21768868242E+04  0.23491459966E+04  0.78310280241E+02 0.  0.
         24    2    4    4    0    0 -0.44969620673E+02 -0.43583022952E+03  0.39284274310E+03  0.59410441340E+03  0.81635638447E+02 0.  0.
         11    1    3    3    0    0  0.22142023205E+03  0.21365466085E+03 -0.10238934170E+03  0.32428199235E+03  0.00000000000E+00 0. -1.
        -11    1    3    3    0    0  0.66995881730E+03  0.46115097974E+03 -0.26148037747E+03  0.85432840921E+03  0.00000000000E+00 0.  1.
          2    1    6    6  502    0 -0.11009222120E+02 -0.11207365376E+02  0.17253602768E+01  0.15804584096E+02  0.00000000000E+00 0. -1.
          1    1    5    5  503    0 -0.51013735669E+03 -0.18311826202E+03  0.13199382177E+04  0.14268879841E+04  0.00000000000E+00 0. -1.
         -2    1    5    5    0  503 -0.33627207199E+03 -0.55857149047E+02  0.85694860648E+03  0.92225801251E+03  0.00000000000E+00 0.  1.
         -1    1    6    6    0  502 -0.33960398553E+02 -0.42462286415E+03  0.39111738282E+03  0.57829982930E+03  0.00000000000E+00 0.  1.
<mgrwt>
<rscale>  0 0.34819418E+04</rscale>
<asrwt>0</asrwt>
<pdfrwt beam="1">  1        2 0.48674774E+00 0.34819418E+04</pdfrwt>
<pdfrwt beam="2">  1       -2 0.14738469E+00 0.34819418E+04</pdfrwt>
<totfact> 0.35326042E-01</totfact>
</mgrwt>
</event>
<event>
12    1  0.2214165E-007  0.1728610E+04  0.7818608E-02  0.8745213E-01
         -1   -1    0    0    0  501 -0.00000000000E+00  0.00000000000E+00  0.61283194188E+03  0.61283194188E+03  0.00000000000E+00 0.  1.
          1   -1    0    0  501    0  0.00000000000E+00 -0.00000000000E+00 -0.12189696872E+04  0.12189696872E+04  0.00000000000E+00 0. -1.
         23    2    1    2    0    0  0.14921274813E+03  0.89408653804E+02 -0.85812158341E+03  0.88007491317E+03  0.88886721728E+02 0.  0.
        254    2    1    2    0    0 -0.14921274813E+03 -0.89408653804E+02  0.25198383809E+03  0.95172671591E+03  0.90112681435E+03 0.  0.
        -24    2    4    4    0    0 -0.46057035034E+03 -0.25874368881E+03  0.25162294352E+03  0.59052723707E+03  0.79592511649E+02 0.  0.
         24    2    4    4    0    0  0.31135760220E+03  0.16933503500E+03  0.36089457238E+00  0.36119947884E+03  0.69620562625E+02 0.  0.
         11    1    3    3    0    0  0.47516358520E+02  0.53703803299E+02 -0.18558737029E+03  0.19895872644E+03  0.00000000000E+00 0.  1.
        -11    1    3    3    0    0  0.10169638961E+03  0.35704850505E+02 -0.67253421312E+03  0.68111618673E+03  0.00000000000E+00 0. -1.
          2    1    6    6  502    0  0.55334766483E+02  0.61856780656E+02  0.83722672993E+01  0.83416380613E+02  0.00000000000E+00 0. -1.
          1    1    5    5  503    0 -0.47362608142E+02 -0.36697021665E+01  0.11848332369E+02  0.48959844199E+02  0.00000000000E+00 0. -1.
         -2    1    5    5    0  503 -0.41320774219E+03 -0.25507398664E+03  0.23977461115E+03  0.54156739287E+03  0.00000000000E+00 0.  1.
         -1    1    6    6    0  502  0.25602283572E+03  0.10747825435E+03 -0.80113727269E+01  0.27778309823E+03  0.00000000000E+00 0.  1.
<mgrwt>
<rscale>  0 0.17286105E+04</rscale>
<asrwt>0</asrwt>
<pdfrwt beam="1">  1        1 0.18753380E+00 0.17286105E+04</pdfrwt>
<pdfrwt beam="2">  1       -1 0.94281838E-01 0.17286105E+04</pdfrwt>
<totfact> 0.10702821E+01</totfact>
</mgrwt>
</event>
<event>
12    1  0.2214165E-007  0.2906859E+04  0.7818608E-02  0.8270840E-01
         -2   -1    0    0    0  501 -0.00000000000E+00  0.00000000000E+00  0.10356098065E+04  0.10356098065E+04  0.00000000000E+00 0. -1.
          2   -1    0    0  501    0  0.00000000000E+00 -0.00000000000E+00 -0.20398200968E+04  0.20398200968E+04  0.00000000000E+00 0.  1.
         23    2    1    2    0    0 -0.13754613367E+03  0.11845725346E+04 -0.10450112933E+04  0.15882857349E+04  0.92043164497E+02 0.  0.
        254    2    1    2    0    0  0.13754613367E+03 -0.11845725346E+04  0.40801002971E+02  0.14871441684E+04  0.88758212421E+03 0.  0.
        -24    2    4    4    0    0 -0.71367813572E+02 -0.37540238121E+03  0.41365802804E+03  0.56860663767E+03  0.78614449110E+02 0.  0.
         24    2    4    4    0    0  0.20891394724E+03 -0.80917015341E+03 -0.37285702507E+03  0.91853753077E+03  0.79293503950E+02 0.  0.
         13    1    3    3    0    0 -0.64028815117E+01  0.28190504213E+02 -0.46955048974E+02  0.55140529954E+02  0.00000000000E+00 0.  1.
        -13    1    3    3    0    0 -0.13114325216E+03  0.11563820304E+04 -0.99805624428E+03  0.15331452050E+04  0.00000000000E+00 0. -1.
          4    1    6    6  502    0  0.11189503096E+03 -0.56314392026E+03 -0.27422593603E+03  0.63627937014E+03  0.00000000000E+00 0. -1.
          1    1    5    5  503    0 -0.70369931633E+02 -0.37919676644E+03  0.40587024123E+03  0.55988638818E+03  0.00000000000E+00 0. -1.
         -2    1    5    5    0  503 -0.99788193851E+00  0.37943852345E+01  0.77877868105E+01  0.87202494848E+01  0.00000000000E+00 0.  1.
         -3    1    6    6    0  502  0.97018916289E+02 -0.24602623315E+03 -0.98631089035E+02  0.28225816063E+03  0.00000000000E+00 0.  1.
<mgrwt>
<rscale>  0 0.29068593E+04</rscale>
<asrwt>0</asrwt>
<pdfrwt beam="1">  1        2 0.31381847E+00 0.29068593E+04</pdfrwt>
<pdfrwt beam="2">  1       -2 0.15932459E+00 0.29068593E+04</pdfrwt>
<totfact> 0.13954590E+00</totfact>
</mgrwt>
</event>
<event>
12    1  0.2214165E-007  0.1907089E+04  0.7818608E-02  0.8651336E-01
         -1   -1    0    0    0  501 -0.00000000000E+00  0.00000000000E+00  0.93045794209E+03  0.93045794209E+03  0.00000000000E+00 0.  1.
          1   -1    0    0  501    0  0.00000000000E+00 -0.00000000000E+00 -0.97720430242E+03  0.97720430242E+03  0.00000000000E+00 0. -1.
         23    2    1    2    0    0 -0.55153892981E+03  0.46840158005E+03 -0.16239766182E+03  0.74725806705E+03  0.91795353475E+02 0.  0.
        254    2    1    2    0    0  0.55153892981E+03 -0.46840158005E+03  0.11565130149E+03  0.11604041775E+04  0.89975963471E+03 0.  0.
        -24    2    4    4    0    0 -0.70542296401E+01 -0.57030563577E+03  0.11550597906E+03  0.58701020166E+03  0.77078306342E+02 0.  0.
         24    2    4    4    0    0  0.55859315945E+03  0.10190405572E+03  0.14532243216E+00  0.57339397581E+03  0.79811503037E+02 0.  0.
         13    1    3    3    0    0 -0.33825577979E+03  0.34043068774E+03 -0.12310723435E+03  0.49544466580E+03  0.00000000000E+00 0. -1.
        -13    1    3    3    0    0 -0.21328315002E+03  0.12797089231E+03 -0.39290427471E+02  0.25181340125E+03  0.00000000000E+00 0.  1.
          2    1    6    6  502    0  0.45054980432E+03  0.11079093304E+03 -0.13252787972E+02  0.46416095636E+03  0.00000000000E+00 0. -1.
          3    1    5    5  503    0 -0.22857025843E+01 -0.42688120846E+03  0.51860401875E+02  0.43002591998E+03  0.00000000000E+00 0. -1.
         -4    1    5    5    0  503 -0.47685270558E+01 -0.14342442730E+03  0.63645577183E+02  0.15698428167E+03  0.00000000000E+00 0.  1.
         -1    1    6    6    0  502  0.10804335513E+03 -0.88868773161E+01  0.13398110404E+02  0.10923301945E+03  0.00000000000E+00 0.  1.
<mgrwt>
<rscale>  0 0.19070894E+04</rscale>
<asrwt>0</asrwt>
<pdfrwt beam="1">  1        1 0.15033912E+00 0.19070894E+04</pdfrwt>
<pdfrwt beam="2">  1       -1 0.14314738E+00 0.19070894E+04</pdfrwt>
<totfact> 0.58297550E+00</totfact>
</mgrwt>
</event>
<event>
12    1  0.2214165E-007  0.2857512E+04  0.7818608E-02  0.8285632E-01
          2   -1    0    0  501    0  0.00000000000E+00  0.00000000000E+00  0.50075237573E+04  0.50075237573E+04  0.00000000000E+00 0. -1.
         -2   -1    0    0    0  501 -0.00000000000E+00 -0.00000000000E+00 -0.40765519051E+03  0.40765519051E+03  0.00000000000E+00 0.  1.
         23    2    1    2    0    0  0.73140622646E+03 -0.93639656226E+03  0.11501690965E+04  0.16572696938E+04  0.10890499392E+03 0.  0.
        254    2    1    2    0    0 -0.73140622646E+03  0.93639656226E+03  0.34496994703E+04  0.37579092539E+04  0.89981216689E+03 0.  0.
        -24    2    4    4    0    0 -0.43327395899E+03 -0.57835072579E+02  0.11828806546E+04  0.12634103423E+04  0.76992406930E+02 0.  0.
         24    2    4    4    0    0 -0.29813226747E+03  0.99423163484E+03  0.22668188156E+04  0.24944989116E+04  0.81718325155E+02 0.  0.
         11    1    3    3    0    0  0.47963846281E+03 -0.67547302067E+03  0.75352545780E+03  0.11198738644E+04  0.00000000000E+00 0.  1.
        -11    1    3    3    0    0  0.25176776365E+03 -0.26092354159E+03  0.39664363869E+03  0.53739582942E+03  0.00000000000E+00 0. -1.
          2    1    6    6  502    0 -0.19900446786E+03  0.78093677056E+03  0.17677406082E+04  0.19427742730E+04  0.00000000000E+00 0. -1.
          3    1    5    5  503    0 -0.43139876202E+03 -0.48487100328E+02  0.11514819896E+04  0.12305960601E+04  0.00000000000E+00 0. -1.
         -4    1    5    5    0  503 -0.18751969609E+01 -0.93479722513E+01  0.31398665060E+02  0.32814282202E+02  0.00000000000E+00 0.  1.
         -1    1    6    6    0  502 -0.99127799617E+02  0.21329486428E+03  0.49907820736E+03  0.55172463861E+03  0.00000000000E+00 0.  1.
<mgrwt>
<rscale>  0 0.28575115E+04</rscale>
<asrwt>0</asrwt>
<pdfrwt beam="1">  1        2 0.77038822E+00 0.28575115E+04</pdfrwt>
<pdfrwt beam="2">  1       -2 0.62716187E-01 0.28575115E+04</pdfrwt>
<totfact> 0.68699836E-02</totfact>
</mgrwt>
</event>
<event>
12    1  0.2214165E-007  0.1553679E+04  0.7818608E-02  0.8849521E-01
         -1   -1    0    0    0  501 -0.00000000000E+00  0.00000000000E+00  0.10009660699E+04  0.10009660699E+04  0.00000000000E+00 0.  1.
          1   -1    0    0  501    0  0.00000000000E+00 -0.00000000000E+00 -0.60289724211E+03  0.60289724211E+03  0.00000000000E+00 0. -1.
         23    2    1    2    0    0 -0.19435327546E+03  0.45144265711E+03  0.23236110997E+03  0.55140250294E+03  0.92083475605E+02 0.  0.
        254    2    1    2    0    0  0.19435327546E+03 -0.45144265711E+03  0.16570771779E+03  0.10524608090E+04  0.91577346461E+03 0.  0.
        -24    2    4    4    0    0 -0.56572843438E+02 -0.10277745929E+03  0.48966802585E+03  0.50990100378E+03  0.80377642190E+02 0.  0.
         24    2    4    4    0    0  0.25092611890E+03 -0.34866519783E+03 -0.32396030806E+03  0.54255980526E+03  0.69925129746E+02 0.  0.
         13    1    3    3    0    0 -0.52303567481E+02  0.47761393709E+02  0.47215113105E+02  0.85123914418E+02  0.00000000000E+00 0.  1.
        -13    1    3    3    0    0 -0.14204970798E+03  0.40368126340E+03  0.18514599687E+03  0.46627858853E+03  0.00000000000E+00 0. -1.
          2    1    6    6  502    0  0.23939057649E+03 -0.32054592554E+03 -0.31917661354E+03  0.51179219330E+03  0.00000000000E+00 0. -1.
          3    1    5    5  503    0 -0.65392710843E+02 -0.11132690045E+03  0.46036927679E+03  0.47813152626E+03  0.00000000000E+00 0. -1.
         -4    1    5    5    0  503  0.88198674049E+01  0.85494411611E+01  0.29298749059E+02  0.31769477516E+02  0.00000000000E+00 0.  1.
         -1    1    6    6    0  502  0.11535542416E+02 -0.28119272286E+02 -0.47836945127E+01  0.30767611964E+02  0.00000000000E+00 0.  1.
<mgrwt>
<rscale>  0 0.15536791E+04</rscale>
<asrwt>0</asrwt>
<pdfrwt beam="1">  1        1 0.92753421E-01 0.15536791E+04</pdfrwt>
<pdfrwt beam="2">  1       -1 0.15399478E+00 0.15536791E+04</pdfrwt>
<totfact> 0.10641906E+01</totfact>
</mgrwt>
</event>
<event>
12    1  0.2214165E-007  0.2120774E+04  0.7818608E-02  0.8552147E-01
          2   -1    0    0  501    0  0.00000000000E+00  0.00000000000E+00  0.21973139247E+04  0.21973139247E+04  0.00000000000E+00 0. -1.
         -2   -1    0    0    0  501 -0.00000000000E+00 -0.00000000000E+00 -0.51172501060E+03  0.51172501060E+03  0.00000000000E+00 0.  1.
         23    2    1    2    0    0 -0.24734797518E+03  0.70142506913E+03  0.12576610506E+04  0.14640551859E+04  0.92564143742E+02 0.  0.
        254    2    1    2    0    0  0.24734797518E+03 -0.70142506913E+03  0.42792786347E+03  0.12449837494E+04  0.90204441766E+03 0.  0.
        -24    2    4    4    0    0 -0.14533443616E+03 -0.50921999197E+03  0.56569628861E+03  0.77904442703E+03  0.80441468084E+02 0.  0.
         24    2    4    4    0    0  0.39268241134E+03 -0.19220507717E+03 -0.13776842514E+03  0.46593932235E+03  0.83528709307E+02 0.  0.
         11    1    3    3    0    0 -0.10217404939E+03  0.36143281108E+03  0.71124455843E+03  0.80432706979E+03  0.00000000000E+00 0. -1.
        -11    1    3    3    0    0 -0.14517392580E+03  0.33999225805E+03  0.54641649218E+03  0.65972811611E+03  0.00000000000E+00 0.  1.
          4    1    6    6  502    0  0.11827078546E+03 -0.62608639286E+02 -0.29163078864E+01  0.13385187806E+03  0.00000000000E+00 0. -1.
          1    1    5    5  503    0 -0.26717267035E+02 -0.38767783911E+02  0.78063637565E+02  0.91162958141E+02  0.00000000000E+00 0. -1.
         -2    1    5    5    0  503 -0.11861716912E+03 -0.47045220805E+03  0.48763265105E+03  0.68788146889E+03  0.00000000000E+00 0.  1.
         -3    1    6    6    0  502  0.27441162588E+03 -0.12959643788E+03 -0.13485211725E+03  0.33208744429E+03  0.00000000000E+00 0.  1.
<mgrwt>
<rscale>  0 0.21207739E+04</rscale>
<asrwt>0</asrwt>
<pdfrwt beam="1">  1        2 0.33804829E+00 0.21207739E+04</pdfrwt>
<pdfrwt beam="2">  1       -2 0.78726926E-01 0.21207739E+04</pdfrwt>
<totfact> 0.68311028E+00</totfact>
</mgrwt>
</event>
<event>
12    1  0.2214165E-007  0.1831371E+04  0.7818608E-02  0.8689792E-01
         -2   -1    0    0    0  501 -0.00000000000E+00  0.00000000000E+00  0.51340310754E+03  0.51340310754E+03  0.00000000000E+00 0.  1.
          2   -1    0    0  501    0  0.00000000000E+00 -0.00000000000E+00 -0.16331807633E+04  0.16331807633E+04  0.00000000000E+00 0. -1.
         23    2    1    2    0    0  0.43094594691E+03  0.44165898844E+03 -0.62945082033E+02  0.62682439420E+03  0.90386207990E+02 0.  0.
        254    2    1    2    0    0 -0.43094594691E+03 -0.44165898844E+03 -0.10568325737E+04  0.15197594766E+04  0.90110859873E+03 0.  0.
        -24    2    4    4    0    0 -0.66729923880E+02  0.26936334701E+03 -0.31505880040E+03  0.42670130366E+03  0.76173876020E+02 0.  0.
         24    2    4    4    0    0 -0.36421602303E+03 -0.71102233544E+03 -0.74177377329E+03  0.10930581729E+04  0.79635204346E+02 0.  0.
         13    1    3    3    0    0  0.17646135395E+03  0.21997641491E+03  0.72595897323E+01  0.28210092909E+03  0.00000000000E+00 0.  1.
        -13    1    3    3    0    0  0.25448459296E+03  0.22168257353E+03 -0.70204671765E+02  0.34472346511E+03  0.00000000000E+00 0. -1.
          4    1    6    6  502    0 -0.31028092818E+03 -0.55496889160E+03 -0.55731610095E+03  0.84549746387E+03  0.00000000000E+00 0. -1.
          3    1    5    5  503    0 -0.71595629511E+02  0.26703729026E+03 -0.28843487591E+03  0.39953663936E+03  0.00000000000E+00 0. -1.
         -4    1    5    5    0  503  0.48657056313E+01  0.23260567491E+01 -0.26623924491E+02  0.27164664301E+02  0.00000000000E+00 0.  1.
         -3    1    6    6    0  502 -0.53935094847E+02 -0.15605344384E+03 -0.18445767234E+03  0.24756070907E+03  0.00000000000E+00 0.  1.
<mgrwt>
<rscale>  0 0.18313712E+04</rscale>
<asrwt>0</asrwt>
<pdfrwt beam="1">  1        2 0.25125858E+00 0.18313712E+04</pdfrwt>
<pdfrwt beam="2">  1       -2 0.78985093E-01 0.18313712E+04</pdfrwt>
<totfact> 0.14313549E+01</totfact>
</mgrwt>
</event>
<event>
12    1  0.2214165E-007  0.1476089E+04  0.7818608E-02  0.8900511E-01
          2   -1    0    0  501    0  0.00000000000E+00  0.00000000000E+00  0.68818899541E+03  0.68818899541E+03  0.00000000000E+00 0. -1.
         -2   -1    0    0    0  501 -0.00000000000E+00 -0.00000000000E+00 -0.79151199783E+03  0.79151199783E+03  0.00000000000E+00 0.  1.
         23    2    1    2    0    0  0.22194630130E+03 -0.30837902454E+03  0.22447928554E+03  0.45038404176E+03  0.89983620744E+02 0.  0.
        254    2    1    2    0    0 -0.22194630130E+03  0.30837902454E+03 -0.32780228796E+03  0.10293169515E+04  0.89871088965E+03 0.  0.
        -24    2    4    4    0    0 -0.49688734968E+03  0.42719595569E+03 -0.16948748651E+03  0.68136490479E+03  0.78349872800E+02 0.  0.
         24    2    4    4    0    0  0.27494104839E+03 -0.11881693115E+03 -0.15831480145E+03  0.34795204669E+03  0.79353684358E+02 0.  0.
         13    1    3    3    0    0  0.18985891316E+03 -0.19400661294E+03  0.16300263450E+03  0.31663043383E+03  0.00000000000E+00 0. -1.
        -13    1    3    3    0    0  0.32087388131E+02 -0.11437241160E+03  0.61476651035E+02  0.13375360793E+03  0.00000000000E+00 0.  1.
          2    1    6    6  502    0  0.30525749753E+01  0.89086415065E+01 -0.57656637983E+01  0.11041964794E+02  0.00000000000E+00 0. -1.
          1    1    5    5  503    0 -0.45268577544E+02  0.46243084761E+02 -0.41352055591E+02  0.76796220628E+02  0.00000000000E+00 0. -1.
         -4    1    5    5    0  503 -0.45161877214E+03  0.38095287093E+03 -0.12813543092E+03  0.60456868417E+03  0.00000000000E+00 0.  1.
         -1    1    6    6    0  502  0.27188847341E+03 -0.12772557266E+03 -0.15254913765E+03  0.33691008190E+03  0.00000000000E+00 0.  1.
<mgrwt>
<rscale>  0 0.14760892E+04</rscale>
<asrwt>0</asrwt>
<pdfrwt beam="1">  1        2 0.10587523E+00 0.14760892E+04</pdfrwt>
<pdfrwt beam="2">  1       -2 0.12177108E+00 0.14760892E+04</pdfrwt>
<totfact> 0.20741865E+01</totfact>
</mgrwt>
</event>
<event>
12    1  0.2214165E-007  0.1393070E+04  0.7818608E-02  0.8958850E-01
         -1   -1    0    0    0  501 -0.00000000000E+00  0.00000000000E+00  0.65319191388E+03  0.65319191388E+03  0.00000000000E+00 0.  1.
          1   -1    0    0  501    0  0.00000000000E+00 -0.00000000000E+00 -0.74275455930E+03  0.74275455930E+03  0.00000000000E+00 0. -1.
         23    2    1    2    0    0  0.30350616731E+03 -0.20192928933E+03 -0.18856654022E+03  0.42033858762E+03  0.90751069771E+02 0.  0.
        254    2    1    2    0    0 -0.30350616731E+03  0.20192928933E+03  0.99003894802E+02  0.97560788556E+03  0.89950961290E+03 0.  0.
        -24    2    4    4    0    0 -0.50651341336E+03  0.22454493292E+03  0.33526387592E+03  0.65267907709E+03  0.81313260669E+02 0.  0.
         24    2    4    4    0    0  0.20300724606E+03 -0.22615643590E+02 -0.23625998112E+03  0.32292880847E+03  0.82102541841E+02 0.  0.
         13    1    3    3    0    0  0.92433021385E+02 -0.85551185483E+02 -0.23284778637E+02  0.12808219898E+03  0.00000000000E+00 0.  1.
        -13    1    3    3    0    0  0.21107314592E+03 -0.11637810384E+03 -0.16528176158E+03  0.29225638863E+03  0.00000000000E+00 0. -1.
          4    1    6    6  502    0  0.19771978475E+03 -0.40131418449E+02 -0.21919156071E+03  0.29790700615E+03  0.00000000000E+00 0. -1.
          1    1    5    5  503    0 -0.22050044698E+03  0.11043607771E+03  0.10433306530E+03  0.26777222204E+03  0.00000000000E+00 0. -1.
         -2    1    5    5    0  503 -0.28601296638E+03  0.11410885520E+03  0.23093081062E+03  0.38490685505E+03  0.00000000000E+00 0.  1.
         -3    1    6    6    0  502  0.52874613014E+01  0.17515774858E+02 -0.17068420407E+02  0.25021802315E+02  0.00000000000E+00 0.  1.
<mgrwt>
<rscale>  0 0.13930704E+04</rscale>
<asrwt>0</asrwt>
<pdfrwt beam="1">  1        1 0.11426993E+00 0.13930704E+04</pdfrwt>
<pdfrwt beam="2">  1       -1 0.10049106E+00 0.13930704E+04</pdfrwt>
<totfact> 0.22873549E+01</totfact>
</mgrwt>
</event>
<event>
12    1  0.2214165E-007  0.2212189E+04  0.7818608E-02  0.8513372E-01
         -1   -1    0    0    0  501 -0.00000000000E+00  0.00000000000E+00  0.26369884664E+04  0.26369884664E+04  0.00000000000E+00 0.  1.
          1   -1    0    0  501    0  0.00000000000E+00 -0.00000000000E+00 -0.46395546356E+03  0.46395546356E+03  0.00000000000E+00 0. -1.
         23    2    1    2    0    0 -0.55598716495E+03 -0.72813486568E+03  0.10286398064E+04  0.13805504746E+04  0.92291122367E+02 0.  0.
        254    2    1    2    0    0  0.55598716495E+03  0.72813486568E+03  0.11443931964E+04  0.17203934554E+04  0.90045307657E+03 0.  0.
        -24    2    4    4    0    0  0.79513513628E+03  0.60968850204E+03  0.88033395096E+03  0.13363925975E+04  0.83650194112E+02 0.  0.
         24    2    4    4    0    0 -0.23914797133E+03  0.11844636365E+03  0.26405924545E+03  0.38400085788E+03  0.80672675010E+02 0.  0.
         11    1    3    3    0    0 -0.28689834227E+03 -0.34313388302E+03  0.56431896098E+03  0.72007458655E+03  0.00000000000E+00 0.  1.
        -11    1    3    3    0    0 -0.26908882268E+03 -0.38500098266E+03  0.46432084542E+03  0.66047588800E+03  0.00000000000E+00 0. -1.
          4    1    6    6  502    0 -0.16224163970E+01 -0.45796862070E+01  0.24302863478E+02  0.24783763514E+02  0.00000000000E+00 0. -1.
          3    1    5    5  503    0  0.45781781740E+03  0.39552390157E+03  0.50246838660E+03  0.78645456968E+03  0.00000000000E+00 0. -1.
         -4    1    5    5    0  503  0.33731731888E+03  0.21416460047E+03  0.37786556437E+03  0.54993802782E+03  0.00000000000E+00 0.  1.
         -3    1    6    6    0  502 -0.23752555493E+03  0.12302604985E+03  0.23975638198E+03  0.35921709437E+03  0.00000000000E+00 0.  1.
<mgrwt>
<rscale>  0 0.22121891E+04</rscale>
<asrwt>0</asrwt>
<pdfrwt beam="1">  1        1 0.71377765E-01 0.22121891E+04</pdfrwt>
<pdfrwt beam="2">  1       -1 0.40569052E+00 0.22121891E+04</pdfrwt>
<totfact> 0.29279816E-01</totfact>
</mgrwt>
</event>
<event>
12    1  0.2214165E-007  0.3063832E+04  0.7818608E-02  0.8225735E-01
         -2   -1    0    0    0  501 -0.00000000000E+00  0.00000000000E+00  0.77653452748E+03  0.77653452748E+03  0.00000000000E+00 0.  1.
          2   -1    0    0  501    0  0.00000000000E+00 -0.00000000000E+00 -0.30221013558E+04  0.30221013558E+04  0.00000000000E+00 0. -1.
         23    2    1    2    0    0  0.87984580645E+03  0.10728061582E+04 -0.12477390545E+04  0.18680377730E+04  0.87582401054E+02 0.  0.
        254    2    1    2    0    0 -0.87984580645E+03 -0.10728061582E+04 -0.99782777387E+03  0.19305981103E+04  0.89805740412E+03 0.  0.
        -24    2    4    4    0    0 -0.52376091680E+03 -0.62391921578E+03 -0.49965290002E+02  0.82030466189E+03  0.82477404943E+02 0.  0.
         24    2    4    4    0    0 -0.35608488965E+03 -0.44888694244E+03 -0.94786248387E+03  0.11102934485E+04  0.77539136048E+02 0.  0.
         13    1    3    3    0    0  0.77874234065E+03  0.98493302919E+03 -0.11440530531E+04  0.16986436040E+04  0.00000000000E+00 0. -1.
        -13    1    3    3    0    0  0.10110346581E+03  0.87873129025E+02 -0.10368600139E+03  0.16939416898E+03  0.00000000000E+00 0.  1.
          2    1    6    6  502    0 -0.33551955760E+03 -0.41602573918E+03 -0.91412412305E+03  0.10589021208E+04  0.00000000000E+00 0. -1.
          3    1    5    5  503    0 -0.41881221780E+03 -0.53699841453E+03 -0.60127028478E+02  0.68365651503E+03  0.00000000000E+00 0. -1.
         -4    1    5    5    0  503 -0.10494869900E+03 -0.86920801245E+02  0.10161738476E+02  0.13664814686E+03  0.00000000000E+00 0.  1.
         -1    1    6    6    0  502 -0.20565332052E+02 -0.32861203263E+02 -0.33738360813E+02  0.51391327601E+02  0.00000000000E+00 0.  1.
<mgrwt>
<rscale>  0 0.30638316E+04</rscale>
<asrwt>0</asrwt>
<pdfrwt beam="1">  1        2 0.46493866E+00 0.30638316E+04</pdfrwt>
<pdfrwt beam="2">  1       -2 0.11946685E+00 0.30638316E+04</pdfrwt>
<totfact> 0.77049449E-01</totfact>
</mgrwt>
</event>
<event>
12    1  0.2214165E-007  0.1680652E+04  0.7818608E-02  0.8772477E-01
         -1   -1    0    0    0  501 -0.00000000000E+00  0.00000000000E+00  0.61558097951E+03  0.61558097951E+03  0.00000000000E+00 0.  1.
          1   -1    0    0  501    0  0.00000000000E+00 -0.00000000000E+00 -0.11471241434E+04  0.11471241434E+04  0.00000000000E+00 0. -1.
         23    2    1    2    0    0  0.27326651479E+03  0.15853890754E+02  0.36324694368E+03  0.46380755152E+03  0.90791898299E+02 0.  0.
        254    2    1    2    0    0 -0.27326651479E+03 -0.15853890754E+02 -0.89479010757E+03  0.12988975714E+04  0.90086604464E+03 0.  0.
        -24    2    4    4    0    0 -0.77904717770E+02 -0.42938717124E+03 -0.26526039745E+03  0.51661943587E+03  0.78038933821E+02 0.  0.
         24    2    4    4    0    0 -0.19536179703E+03  0.41353328048E+03 -0.62952971012E+03  0.78227813552E+03  0.80469991762E+02 0.  0.
         11    1    3    3    0    0  0.22596335869E+03 -0.33432650283E+01  0.23624088498E+03  0.32692563776E+03  0.00000000000E+00 0. -1.
        -11    1    3    3    0    0  0.47303156107E+02  0.19197155782E+02  0.12700605871E+03  0.13688191376E+03  0.00000000000E+00 0.  1.
          2    1    6    6  502    0 -0.90452380519E+02  0.28138637437E+03 -0.40807822819E+03  0.50387276682E+03  0.00000000000E+00 0. -1.
          1    1    5    5  503    0 -0.49801139329E+02 -0.93109440692E+02 -0.55503190183E+02  0.11929008989E+03  0.00000000000E+00 0. -1.
         -2    1    5    5    0  503 -0.28103578441E+02 -0.33627773055E+03 -0.20975720727E+03  0.39732934599E+03  0.00000000000E+00 0.  1.
         -1    1    6    6    0  502 -0.10490941651E+03  0.13214690612E+03 -0.22145148193E+03  0.27840536869E+03  0.00000000000E+00 0.  1.
<mgrwt>
<rscale>  0 0.16806520E+04</rscale>
<asrwt>0</asrwt>
<pdfrwt beam="1">  1        1 0.17648063E+00 0.16806520E+04</pdfrwt>
<pdfrwt beam="2">  1       -1 0.94704768E-01 0.16806520E+04</pdfrwt>
<totfact> 0.12015915E+01</totfact>
</mgrwt>
</event>
<event>
12    1  0.2214165E-007  0.1226962E+04  0.7818608E-02  0.9089579E-01
          2   -1    0    0  501    0  0.00000000000E+00  0.00000000000E+00  0.85300205370E+03  0.85300205370E+03  0.00000000000E+00 0. -1.
         -2   -1    0    0    0  501 -0.00000000000E+00 -0.00000000000E+00 -0.44121685050E+03  0.44121685050E+03  0.00000000000E+00 0.  1.
         23    2    1    2    0    0 -0.47604100176E+02  0.22001139819E+03  0.25236430531E+03  0.35027333015E+03  0.91282514939E+02 0.  0.
        254    2    1    2    0    0  0.47604100176E+02 -0.22001139819E+03  0.15942089789E+03  0.94394557405E+03  0.90274418214E+03 0.  0.
        -24    2    4    4    0    0 -0.19655892281E+03 -0.10961695312E+03 -0.31356855205E+03  0.39454098546E+03  0.81768366896E+02 0.  0.
         24    2    4    4    0    0  0.24416302299E+03 -0.11039444507E+03  0.47298944994E+03  0.54940458858E+03  0.79522744570E+02 0.  0.
         11    1    3    3    0    0 -0.46991893441E+02  0.93547443227E+02  0.16902066494E+03  0.19881485699E+03  0.00000000000E+00 0. -1.
        -11    1    3    3    0    0 -0.61220673494E+00  0.12646395496E+03  0.83343640369E+02  0.15145847316E+03  0.00000000000E+00 0.  1.
          2    1    6    6  502    0  0.16441581130E+03 -0.79291746546E+02  0.24241850421E+03  0.30345752794E+03  0.00000000000E+00 0. -1.
          1    1    5    5  503    0 -0.97738986835E+02 -0.16525779900E+02 -0.17113378863E+03  0.19776952384E+03  0.00000000000E+00 0. -1.
         -2    1    5    5    0  503 -0.98819935980E+02 -0.93091173217E+02 -0.14243476342E+03  0.19677146162E+03  0.00000000000E+00 0.  1.
         -1    1    6    6    0  502  0.79747211687E+02 -0.31102698526E+02  0.23057094573E+03  0.24594706065E+03  0.00000000000E+00 0.  1.
<mgrwt>
<rscale>  0 0.12269619E+04</rscale>
<asrwt>0</asrwt>
<pdfrwt beam="1">  1        2 0.13123109E+00 0.12269619E+04</pdfrwt>
<pdfrwt beam="2">  1       -2 0.67879515E-01 0.12269619E+04</pdfrwt>
<totfact> 0.61868648E+01</totfact>
</mgrwt>
</event>
<event>
12    1  0.2214165E-007  0.1472262E+04  0.7818608E-02  0.8903111E-01
         -2   -1    0    0    0  501 -0.00000000000E+00  0.00000000000E+00  0.43379049947E+03  0.43379049947E+03  0.00000000000E+00 0.  1.
          2   -1    0    0  501    0  0.00000000000E+00 -0.00000000000E+00 -0.12491944054E+04  0.12491944054E+04  0.00000000000E+00 0. -1.
         23    2    1    2    0    0  0.65740289055E+02 -0.43123711969E+03 -0.11875949784E+03  0.46145970277E+03  0.92487836761E+02 0.  0.
        254    2    1    2    0    0 -0.65740289055E+02  0.43123711969E+03 -0.69664440809E+03  0.12215252021E+04  0.90361670472E+03 0.  0.
        -24    2    4    4    0    0  0.16576695922E+03  0.62341202259E+03 -0.29668005857E+03  0.71444744889E+03  0.79340187773E+02 0.  0.
         24    2    4    4    0    0 -0.23150724827E+03 -0.19217490290E+03 -0.39996434953E+03  0.50707775321E+03  0.81422156677E+02 0.  0.
         11    1    3    3    0    0  0.78746726352E+02 -0.21456501586E+03 -0.69299684916E+02  0.23883391566E+03  0.00000000000E+00 0.  1.
        -11    1    3    3    0    0 -0.13006437297E+02 -0.21667210383E+03 -0.49459812922E+02  0.22262578711E+03  0.00000000000E+00 0. -1.
          4    1    6    6  502    0 -0.23832639706E+03 -0.18511546797E+03 -0.38959776150E+03  0.49280180984E+03  0.00000000000E+00 0. -1.
          3    1    5    5  503    0  0.11077809136E+03  0.52014932465E+03 -0.25905802793E+03  0.59155571783E+03  0.00000000000E+00 0. -1.
         -4    1    5    5    0  503  0.54988867860E+02  0.10326269795E+03 -0.37622030632E+02  0.12289173107E+03  0.00000000000E+00 0.  1.
         -1    1    6    6    0  502  0.68191487843E+01 -0.70594349373E+01 -0.10366588024E+02  0.14275943368E+02  0.00000000000E+00 0.  1.
<mgrwt>
<rscale>  0 0.14722617E+04</rscale>
<asrwt>0</asrwt>
<pdfrwt beam="1">  1        2 0.19218375E+00 0.14722617E+04</pdfrwt>
<pdfrwt beam="2">  1       -2 0.66737001E-01 0.14722617E+04</pdfrwt>
<totfact> 0.35357548E+01</totfact>
</mgrwt>
</event>
<event>
12    1  0.2214165E-007  0.1562291E+04  0.7818608E-02  0.8844055E-01
          1   -1    0    0  501    0  0.00000000000E+00  0.00000000000E+00  0.77623217162E+03  0.77623217162E+03  0.00000000000E+00 0. -1.
         -1   -1    0    0    0  501 -0.00000000000E+00 -0.00000000000E+00 -0.78608952298E+03  0.78608952298E+03  0.00000000000E+00 0.  1.
         23    2    1    2    0    0  0.26531321049E+02 -0.31970790583E+03  0.40113345083E+03  0.52162802857E+03  0.90943382217E+02 0.  0.
        254    2    1    2    0    0 -0.26531321049E+02  0.31970790583E+03 -0.41099080219E+03  0.10406936660E+04  0.90067353184E+03 0.  0.
        -24    2    4    4    0    0  0.69712664388E+02  0.47344311053E+03  0.97453664996E+02  0.49497080782E+03  0.80564565931E+02 0.  0.
         24    2    4    4    0    0 -0.96243985437E+02 -0.15373520470E+03 -0.50844446719E+03  0.54572285820E+03  0.80001524086E+02 0.  0.
         11    1    3    3    0    0  0.58908347798E+02 -0.18850844400E+03  0.22008925939E+03  0.29571085370E+03  0.00000000000E+00 0.  1.
        -11    1    3    3    0    0 -0.32377026749E+02 -0.13119946183E+03  0.18104419144E+03  0.22591717487E+03  0.00000000000E+00 0. -1.
          4    1    6    6  502    0 -0.50890827024E+02 -0.48385282883E+02 -0.29683442399E+03  0.30502735474E+03  0.00000000000E+00 0. -1.
          1    1    5    5  503    0 -0.24546060547E+01  0.25149298556E+01 -0.64511861586E+01  0.73462756493E+01  0.00000000000E+00 0. -1.
         -2    1    5    5    0  503  0.72167270443E+02  0.47092818068E+03  0.10390485115E+03  0.48762453217E+03  0.00000000000E+00 0.  1.
         -3    1    6    6    0  502 -0.45353158413E+02 -0.10534992182E+03 -0.21161004319E+03  0.24069550346E+03  0.00000000000E+00 0.  1.
<mgrwt>
<rscale>  0 0.15622906E+04</rscale>
<asrwt>0</asrwt>
<pdfrwt beam="1">  1        1 0.11942033E+00 0.15622906E+04</pdfrwt>
<pdfrwt beam="2">  1       -1 0.12093685E+00 0.15622906E+04</pdfrwt>
<totfact> 0.13566795E+01</totfact>
</mgrwt>
</event>
<event>
12    1  0.2214165E-007  0.3370207E+04  0.7818608E-02  0.8145257E-01
          1   -1    0    0  501    0  0.00000000000E+00  0.00000000000E+00  0.15096103019E+04  0.15096103019E+04  0.00000000000E+00 0. -1.
         -1   -1    0    0    0  501 -0.00000000000E+00 -0.00000000000E+00 -0.18809978950E+04  0.18809978950E+04  0.00000000000E+00 0.  1.
         23    2    1    2    0    0  0.36359976757E+02  0.11692509579E+04  0.87088920101E+03  0.14612684275E+04  0.91583657463E+02 0.  0.
        254    2    1    2    0    0 -0.36359976757E+02 -0.11692509579E+04 -0.12422767941E+04  0.19293397693E+04  0.90035018839E+03 0.  0.
        -24    2    4    4    0    0  0.39807596534E+03 -0.66211239974E+03 -0.48236390860E+03  0.91443276635E+03  0.81578427193E+02 0.  0.
         24    2    4    4    0    0 -0.43443594209E+03 -0.50713855820E+03 -0.75991288552E+03  0.10149070030E+04  0.81513962709E+02 0.  0.
         13    1    3    3    0    0 -0.49793058173E+00  0.67454156698E+03  0.45189421095E+03  0.81192053269E+03  0.00000000000E+00 0. -1.
        -13    1    3    3    0    0  0.36857907339E+02  0.49470939097E+03  0.41899499006E+03  0.64934789485E+03  0.00000000000E+00 0.  1.
          2    1    6    6  502    0 -0.18833216973E+03 -0.24323107085E+03 -0.29324568709E+03  0.42499810939E+03  0.00000000000E+00 0. -1.
          1    1    5    5  503    0  0.37424113830E+03 -0.58063604498E+03 -0.44474754012E+03  0.82158080598E+03  0.00000000000E+00 0. -1.
         -2    1    5    5    0  503  0.23834827041E+02 -0.81476354769E+02 -0.37616368478E+02  0.92851960366E+02  0.00000000000E+00 0.  1.
         -1    1    6    6    0  502 -0.24610377236E+03 -0.26390748735E+03 -0.46666719843E+03  0.58990889359E+03  0.00000000000E+00 0.  1.
<mgrwt>
<rscale>  0 0.33702070E+04</rscale>
<asrwt>0</asrwt>
<pdfrwt beam="1">  1        1 0.23224774E+00 0.33702070E+04</pdfrwt>
<pdfrwt beam="2">  1       -1 0.28938429E+00 0.33702070E+04</pdfrwt>
<totfact> 0.20556541E-01</totfact>
</mgrwt>
</event>
<event>
12    1  0.2214165E-007  0.2318254E+04  0.7818608E-02  0.8470758E-01
          2   -1    0    0  501    0  0.00000000000E+00  0.00000000000E+00  0.25366285458E+04  0.25366285458E+04  0.00000000000E+00 0. -1.
         -2   -1    0    0    0  501 -0.00000000000E+00 -0.00000000000E+00 -0.52966966954E+03  0.52966966954E+03  0.00000000000E+00 0.  1.
         23    2    1    2    0    0  0.26403582816E+03 -0.34353082470E+03  0.20187122449E+04  0.20667219196E+04  0.91717059821E+02 0.  0.
        254    2    1    2    0    0 -0.26403582816E+03  0.34353082470E+03 -0.11753368580E+02  0.99957629582E+03  0.90071431843E+03 0.  0.
        -24    2    4    4    0    0 -0.23738233461E+03  0.60759291666E+03 -0.17109135304E+03  0.67944174046E+03  0.82760512482E+02 0.  0.
         24    2    4    4    0    0 -0.26653493546E+02 -0.26406209196E+03  0.15933798446E+03  0.32013455536E+03  0.81598671051E+02 0.  0.
         11    1    3    3    0    0  0.14245728238E+03 -0.11404126689E+03  0.89043637654E+03  0.90894247811E+03  0.00000000000E+00 0. -1.
        -11    1    3    3    0    0  0.12157854578E+03 -0.22948955781E+03  0.11282758683E+04  0.11577794414E+04  0.00000000000E+00 0.  1.
          4    1    6    6  502    0 -0.19051159480E+02 -0.26814275749E+03  0.15205430749E+03  0.30884299814E+03  0.00000000000E+00 0. -1.
          1    1    5    5  503    0 -0.18927175276E+03  0.37577040002E+03 -0.11305332607E+03  0.43566988014E+03  0.00000000000E+00 0. -1.
         -2    1    5    5    0  503 -0.48110581848E+02  0.23182251664E+03 -0.58038026966E+02  0.24377186031E+03  0.00000000000E+00 0.  1.
         -3    1    6    6    0  502 -0.76023340666E+01  0.40806655290E+01  0.72836769676E+01  0.11291557226E+02  0.00000000000E+00 0.  1.
<mgrwt>
<rscale>  0 0.23182538E+04</rscale>
<asrwt>0</asrwt>
<pdfrwt beam="1">  1        2 0.39025054E+00 0.23182538E+04</pdfrwt>
<pdfrwt beam="2">  1       -2 0.81487643E-01 0.23182538E+04</pdfrwt>
<totfact> 0.39787079E+00</totfact>
</mgrwt>
</event>
<event>
12    1  0.2214165E-007  0.1303401E+04  0.7818608E-02  0.9026872E-01
         -1   -1    0    0    0  501 -0.00000000000E+00  0.00000000000E+00  0.32597807545E+03  0.32597807545E+03  0.00000000000E+00 0.  1.
          1   -1    0    0  501    0  0.00000000000E+00 -0.00000000000E+00 -0.13028905354E+04  0.13028905354E+04  0.00000000000E+00 0. -1.
         23    2    1    2    0    0  0.61220025773E+02  0.30187202453E+03 -0.40161466431E+03  0.51459818332E+03  0.92964191689E+02 0.  0.
        254    2    1    2    0    0 -0.61220025773E+02 -0.30187202453E+03 -0.57529779561E+03  0.11142704275E+04  0.90319235006E+03 0.  0.
        -24    2    4    4    0    0 -0.26051240431E+03 -0.52387461949E+03 -0.54655267755E+03  0.80406801344E+03  0.74122946272E+02 0.  0.
         24    2    4    4    0    0  0.19929237854E+03  0.22200259496E+03 -0.28745118069E+02  0.31020241405E+03  0.79979069509E+02 0.  0.
         13    1    3    3    0    0  0.12138214629E+02  0.11825159626E+03 -0.88068133800E+02  0.14794178741E+03  0.00000000000E+00 0.  1.
        -13    1    3    3    0    0  0.49081811144E+02  0.18362042828E+03 -0.31354653051E+03  0.36665639591E+03  0.00000000000E+00 0. -1.
          2    1    6    6  502    0  0.19321398109E+03  0.22471832662E+03 -0.38015183354E+02  0.29878942915E+03  0.00000000000E+00 0. -1.
          1    1    5    5  503    0 -0.21128720034E+03 -0.47733728086E+03 -0.48340128906E+03  0.71145622985E+03  0.00000000000E+00 0. -1.
         -2    1    5    5    0  503 -0.49225203969E+02 -0.46537338628E+02 -0.63151388483E+02  0.92611783590E+02  0.00000000000E+00 0.  1.
         -1    1    6    6    0  502  0.60783974447E+01 -0.27157316590E+01  0.92700652852E+01  0.11412984900E+02  0.00000000000E+00 0.  1.
<mgrwt>
<rscale>  0 0.13034013E+04</rscale>
<asrwt>0</asrwt>
<pdfrwt beam="1">  1        1 0.20044470E+00 0.13034013E+04</pdfrwt>
<pdfrwt beam="2">  1       -1 0.50150473E-01 0.13034013E+04</pdfrwt>
<totfact> 0.35285111E+01</totfact>
</mgrwt>
</event>
<event>
12    1  0.2214165E-007  0.3031080E+04  0.7818608E-02  0.8234911E-01
          2   -1    0    0  501    0  0.00000000000E+00  0.00000000000E+00  0.24257530575E+04  0.24257530575E+04  0.00000000000E+00 0. -1.
         -2   -1    0    0    0  501 -0.00000000000E+00 -0.00000000000E+00 -0.94686505343E+03  0.94686505343E+03  0.00000000000E+00 0.  1.
         23    2    1    2    0    0  0.63848866437E+03  0.11205780435E+04  0.12056317674E+04  0.17677682757E+04  0.89965504445E+02 0.  0.
        254    2    1    2    0    0 -0.63848866437E+03 -0.11205780435E+04  0.27325623659E+03  0.16048498352E+04  0.91515632352E+03 0.  0.
        -24    2    4    4    0    0  0.20097222385E+03 -0.20946477187E+03  0.19945280529E+03  0.36130638872E+03  0.80595034442E+02 0.  0.
         24    2    4    4    0    0 -0.83946088822E+03 -0.91111327162E+03  0.73803431295E+02  0.12435434464E+04  0.78303129764E+02 0.  0.
         13    1    3    3    0    0  0.31694838674E+03  0.51596303063E+03  0.62092890284E+03  0.86731011248E+03  0.00000000000E+00 0.  1.
        -13    1    3    3    0    0  0.32154027763E+03  0.60461501285E+03  0.58470286460E+03  0.90045816325E+03  0.00000000000E+00 0. -1.
          4    1    6    6  502    0 -0.72732544402E+03 -0.78585203360E+03  0.36866952496E+02  0.10714125687E+04  0.00000000000E+00 0. -1.
          3    1    5    5  503    0  0.23404975012E+02 -0.70933789022E+02  0.64961907148E+02  0.98992144439E+02  0.00000000000E+00 0. -1.
         -4    1    5    5    0  503  0.17756724884E+03 -0.13853098285E+03  0.13449089814E+03  0.26231424428E+03  0.00000000000E+00 0.  1.
         -1    1    6    6    0  502 -0.11213544420E+03 -0.12526123802E+03  0.36936478798E+02  0.17213087771E+03  0.00000000000E+00 0.  1.
<mgrwt>
<rscale>  0 0.30310795E+04</rscale>
<asrwt>0</asrwt>
<pdfrwt beam="1">  1        2 0.37319278E+00 0.30310795E+04</pdfrwt>
<pdfrwt beam="2">  1       -2 0.14567155E+00 0.30310795E+04</pdfrwt>
<totfact> 0.10618845E+00</totfact>
</mgrwt>
</event>
<event>
12    1  0.2214165E-007  0.3575970E+04  0.7818608E-02  0.8096018E-01
          2   -1    0    0  501    0  0.00000000000E+00  0.00000000000E+00  0.15734117600E+04  0.15734117600E+04  0.00000000000E+00 0. -1.
         -2   -1    0    0    0  501 -0.00000000000E+00 -0.00000000000E+00 -0.20318209679E+04  0.20318209679E+04  0.00000000000E+00 0.  1.
         23    2    1    2    0    0  0.12943399007E+04  0.10099240798E+04  0.10481935438E+03  0.16475681387E+04  0.90726231172E+02 0.  0.
        254    2    1    2    0    0 -0.12943399007E+04 -0.10099240798E+04 -0.56322856231E+03  0.19576645892E+04  0.90551742387E+03 0.  0.
        -24    2    4    4    0    0 -0.12223838306E+04 -0.78390251575E+03 -0.13325740281E+03  0.14603572870E+04  0.78488769347E+02 0.  0.
         24    2    4    4    0    0 -0.71956070194E+02 -0.22602156404E+03 -0.42997115950E+03  0.49730730223E+03  0.78587094336E+02 0.  0.
         13    1    3    3    0    0  0.94220582062E+03  0.78371033318E+03  0.68314330282E+02  0.12274447207E+04  0.00000000000E+00 0.  1.
        -13    1    3    3    0    0  0.35213408012E+03  0.22621374661E+03  0.36505024102E+02  0.42012341797E+03  0.00000000000E+00 0. -1.
          2    1    6    6  502    0 -0.23160381687E+02 -0.27934098547E+02 -0.25662871874E+02  0.44444348733E+02  0.00000000000E+00 0. -1.
          1    1    5    5  503    0 -0.20088288884E+03 -0.15715871622E+03 -0.54119681897E+01  0.25511190978E+03  0.00000000000E+00 0. -1.
         -2    1    5    5    0  503 -0.10215009417E+04 -0.62674379953E+03 -0.12784543462E+03  0.12052453772E+04  0.00000000000E+00 0.  1.
         -1    1    6    6    0  502 -0.48795688507E+02 -0.19808746550E+03 -0.40430828763E+03  0.45286295349E+03  0.00000000000E+00 0.  1.
<mgrwt>
<rscale>  0 0.35759704E+04</rscale>
<asrwt>0</asrwt>
<pdfrwt beam="1">  1        2 0.24206335E+00 0.35759704E+04</pdfrwt>
<pdfrwt beam="2">  1       -2 0.31258784E+00 0.35759704E+04</pdfrwt>
<totfact> 0.25068384E-01</totfact>
</mgrwt>
</event>
<event>
12    1  0.2214165E-007  0.3250249E+04  0.7818608E-02  0.8175671E-01
          1   -1    0    0  501    0  0.00000000000E+00  0.00000000000E+00  0.19121605187E+04  0.19121605187E+04  0.00000000000E+00 0. -1.
         -1   -1    0    0    0  501 -0.00000000000E+00 -0.00000000000E+00 -0.13811758132E+04  0.13811758132E+04  0.00000000000E+00 0.  1.
         23    2    1    2    0    0 -0.37676609353E+03 -0.40322695870E+03  0.16577466017E+04  0.17495638264E+04  0.91132417444E+02 0.  0.
        254    2    1    2    0    0  0.37676609353E+03  0.40322695870E+03 -0.11267618962E+04  0.15437725055E+04  0.89949792030E+03 0.  0.
        -24    2    4    4    0    0 -0.30483784325E+02  0.58413166131E+03 -0.51893709137E+03  0.78595440265E+03  0.79306742445E+02 0.  0.
         24    2    4    4    0    0  0.40724987785E+03 -0.18090470261E+03 -0.60782480481E+03  0.75781810285E+03  0.79109476279E+02 0.  0.
         11    1    3    3    0    0 -0.31208957928E+03 -0.36836820861E+03  0.13698826733E+04  0.14524715423E+04  0.00000000000E+00 0.  1.
        -11    1    3    3    0    0 -0.64676514252E+02 -0.34858750095E+02  0.28786392840E+03  0.29709228402E+03  0.00000000000E+00 0. -1.
          4    1    6    6  502    0  0.75900775343E+02 -0.67476787978E+02 -0.15611168331E+03  0.18623883129E+03  0.00000000000E+00 0. -1.
          1    1    5    5  503    0  0.15670584287E+02  0.12927801078E+03 -0.14863765929E+03  0.19761458712E+03  0.00000000000E+00 0. -1.
         -2    1    5    5    0  503 -0.46154368611E+02  0.45485365053E+03 -0.37029943208E+03  0.58833981553E+03  0.00000000000E+00 0.  1.
         -3    1    6    6    0  502  0.33134910251E+03 -0.11342791463E+03 -0.45171312149E+03  0.57157927156E+03  0.00000000000E+00 0.  1.
<mgrwt>
<rscale>  0 0.32502491E+04</rscale>
<asrwt>0</asrwt>
<pdfrwt beam="1">  1        1 0.29417854E+00 0.32502491E+04</pdfrwt>
<pdfrwt beam="2">  1       -1 0.21248859E+00 0.32502491E+04</pdfrwt>
<totfact> 0.35218681E-01</totfact>
</mgrwt>
</event>
<event>
12    1  0.2214165E-007  0.1943426E+04  0.7818608E-02  0.8633538E-01
          2   -1    0    0  501    0  0.00000000000E+00  0.00000000000E+00  0.64131903443E+03  0.64131903443E+03  0.00000000000E+00 0. -1.
         -2   -1    0    0    0  501 -0.00000000000E+00 -0.00000000000E+00 -0.14723183225E+04  0.14723183225E+04  0.00000000000E+00 0.  1.
         23    2    1    2    0    0 -0.75818592792E+03  0.62544884942E+01 -0.28672240407E+03  0.81550152856E+03  0.89151478750E+02 0.  0.
        254    2    1    2    0    0  0.75818592792E+03 -0.62544884942E+01 -0.54427688397E+03  0.12981358283E+04  0.90223848427E+03 0.  0.
        -24    2    4    4    0    0  0.82418356456E+03 -0.24667079701E+03 -0.56846854856E+03  0.10342068823E+04  0.79387369348E+02 0.  0.
         24    2    4    4    0    0 -0.65997636638E+02  0.24041630852E+03  0.24191664586E+02  0.26392894610E+03  0.83171885321E+02 0.  0.
         13    1    3    3    0    0 -0.24157218860E+03  0.24981583885E+02 -0.55110803312E+02  0.24903494229E+03  0.00000000000E+00 0. -1.
        -13    1    3    3    0    0 -0.51661373932E+03 -0.18727095391E+02 -0.23161160075E+03  0.56646658627E+03  0.00000000000E+00 0.  1.
          2    1    6    6  502    0 -0.78264948167E+02  0.20234766643E+03  0.40556250074E+02  0.22071427149E+03  0.00000000000E+00 0. -1.
          1    1    5    5  503    0  0.73779145524E+03 -0.20252564680E+03 -0.48204875316E+03  0.90428085762E+03  0.00000000000E+00 0. -1.
         -2    1    5    5    0  503  0.86392109317E+02 -0.44145150210E+02 -0.86419795402E+02  0.12992602463E+03  0.00000000000E+00 0.  1.
         -1    1    6    6    0  502  0.12267311529E+02  0.38068642090E+02 -0.16364585489E+02  0.43214674602E+02  0.00000000000E+00 0.  1.
<mgrwt>
<rscale>  0 0.19434256E+04</rscale>
<asrwt>0</asrwt>
<pdfrwt beam="1">  1        2 0.98664467E-01 0.19434256E+04</pdfrwt>
<pdfrwt beam="2">  1       -2 0.22651051E+00 0.19434256E+04</pdfrwt>
<totfact> 0.38344933E+00</totfact>
</mgrwt>
</event>
<event>
12    1  0.3290831E-007  0.1996772E+04  0.7818608E-02  0.8608131E-01
         -2   -1    0    0    0  501 -0.00000000000E+00  0.00000000000E+00  0.37447098917E+03  0.37447098917E+03  0.00000000000E+00 0.  1.
          2   -1    0    0  501    0  0.00000000000E+00 -0.00000000000E+00 -0.26618198154E+04  0.26618198154E+04  0.00000000000E+00 0. -1.
         23    2    1    2    0    0  0.61785006146E+03  0.17699823751E+03 -0.16170586383E+04  0.17418489753E+04  0.78052152397E+02 0.  0.
        254    2    1    2    0    0 -0.61785006146E+03 -0.17699823751E+03 -0.67029018793E+03  0.12944418293E+04  0.90178913213E+03 0.  0.
        -24    2    4    4    0    0 -0.42982606958E+03 -0.37462021576E+03 -0.79698319359E+03  0.98347384430E+03  0.83353676660E+02 0.  0.
         24    2    4    4    0    0 -0.18802399188E+03  0.19762197825E+03  0.12669300565E+03  0.31096798499E+03  0.79009506997E+02 0.  0.
         11    1    3    3    0    0  0.28538234911E+03  0.11189417718E+03 -0.69824437040E+03  0.76256710713E+03  0.00000000000E+00 0.  1.
        -11    1    3    3    0    0  0.33246771236E+03  0.65104060329E+02 -0.91881426789E+03  0.97928186816E+03  0.00000000000E+00 0. -1.
          4    1    6    6  502    0 -0.17023876364E+03  0.16422811096E+03  0.13482666892E+03  0.27226887396E+03  0.00000000000E+00 0. -1.
          1    1    5    5  503    0 -0.39566855641E+03 -0.34153695849E+03 -0.76366383278E+03  0.92540993622E+03  0.00000000000E+00 0. -1.
         -2    1    5    5    0  503 -0.34157513173E+02 -0.33083257263E+02 -0.33319360804E+02  0.58063908082E+02  0.00000000000E+00 0.  1.
         -1    1    6    6    0  502 -0.17785228238E+02  0.33393867285E+02 -0.81336632696E+01  0.38699111022E+02  0.00000000000E+00 0.  1.
<mgrwt>
<rscale>  0 0.19967717E+04</rscale>
<asrwt>0</asrwt>
<pdfrwt beam="1">  1        2 0.40951075E+00 0.19967717E+04</pdfrwt>
<pdfrwt beam="2">  1       -2 0.57610920E-01 0.19967717E+04</pdfrwt>
<totfact> 0.73442146E+00</totfact>
</mgrwt>
</event>
<event>
12    1  0.2214165E-007  0.2802456E+04  0.7818608E-02  0.8302506E-01
          1   -1    0    0  501    0  0.00000000000E+00  0.00000000000E+00  0.26986147006E+04  0.26986147006E+04  0.00000000000E+00 0. -1.
         -1   -1    0    0    0  501 -0.00000000000E+00 -0.00000000000E+00 -0.72757337890E+03  0.72757337890E+03  0.00000000000E+00 0.  1.
         23    2    1    2    0    0  0.66770551855E+03  0.56617168830E+03  0.19833575550E+04  0.21702156252E+04  0.98730080858E+02 0.  0.
        254    2    1    2    0    0 -0.66770551855E+03 -0.56617168830E+03 -0.12316233247E+02  0.12559724543E+04  0.90051878176E+03 0.  0.
        -24    2    4    4    0    0 -0.26332239296E+03  0.22152820407E+03  0.74904003469E+02  0.36223591933E+03  0.84798724543E+02 0.  0.
         24    2    4    4    0    0 -0.40438312559E+03 -0.78769989237E+03 -0.87220236716E+02  0.89373653500E+03  0.84621460638E+02 0.  0.
         13    1    3    3    0    0  0.29873997295E+03  0.27125329984E+03  0.79819318191E+03  0.89439156960E+03  0.00000000000E+00 0.  1.
        -13    1    3    3    0    0  0.36896554560E+03  0.29491838846E+03  0.11851643731E+04  0.12758240556E+04  0.00000000000E+00 0. -1.
          4    1    6    6  502    0 -0.12895749766E+03 -0.17524619098E+03 -0.10501618671E+02  0.21783376151E+03  0.00000000000E+00 0. -1.
          3    1    5    5  503    0 -0.53553813045E+02  0.50602969048E+02 -0.18523084288E+02  0.75972205573E+02  0.00000000000E+00 0. -1.
         -4    1    5    5    0  503 -0.20976857992E+03  0.17092523502E+03  0.93427087757E+02  0.28626371376E+03  0.00000000000E+00 0.  1.
         -3    1    6    6    0  502 -0.27542562792E+03 -0.61245370138E+03 -0.76718618045E+02  0.67590277349E+03  0.00000000000E+00 0.  1.
<mgrwt>
<rscale>  0 0.28024562E+04</rscale>
<asrwt>0</asrwt>
<pdfrwt beam="1">  1        1 0.41517149E+00 0.28024562E+04</pdfrwt>
<pdfrwt beam="2">  1       -1 0.11193437E+00 0.28024562E+04</pdfrwt>
<totfact> 0.62304635E-01</totfact>
</mgrwt>
</event>
<event>
12    1  0.2214165E-007  0.1508322E+04  0.7818608E-02  0.8878938E-01
          1   -1    0    0  501    0  0.00000000000E+00  0.00000000000E+00  0.26961577701E+04  0.26961577701E+04  0.00000000000E+00 0. -1.
         -1   -1    0    0    0  501 -0.00000000000E+00 -0.00000000000E+00 -0.21095167054E+03  0.21095167054E+03  0.00000000000E+00 0.  1.
         23    2    1    2    0    0 -0.43235455127E+03  0.23202004497E+02  0.11874248413E+04  0.12670685131E+04  0.89532519802E+02 0.  0.
        254    2    1    2    0    0  0.43235455127E+03 -0.23202004497E+02  0.12977812583E+04  0.16400409276E+04  0.90444969941E+03 0.  0.
        -24    2    4    4    0    0  0.53090094221E+03 -0.23184693376E+03  0.39761686912E+03  0.70749570899E+03  0.82717546441E+02 0.  0.
         24    2    4    4    0    0 -0.98546390944E+02  0.20864492926E+03  0.90016438913E+03  0.93254521857E+03  0.78106078764E+02 0.  0.
         13    1    3    3    0    0 -0.18074210630E+03  0.34475143596E+02  0.60894041456E+03  0.63613259074E+03  0.00000000000E+00 0. -1.
        -13    1    3    3    0    0 -0.25161244497E+03 -0.11273139099E+02  0.57848442678E+03  0.63093592239E+03  0.00000000000E+00 0.  1.
          2    1    6    6  502    0 -0.49965302113E+02  0.93761153562E+02  0.26992919966E+03  0.29008526016E+03  0.00000000000E+00 0. -1.
          3    1    5    5  503    0  0.74883402397E+02 -0.29659683073E+01  0.52746107409E+02  0.91643181794E+02  0.00000000000E+00 0. -1.
         -4    1    5    5    0  503  0.45601753981E+03 -0.22888096545E+03  0.34487076171E+03  0.61585252719E+03  0.00000000000E+00 0.  1.
         -1    1    6    6    0  502 -0.48581088832E+02  0.11488377570E+03  0.63023518947E+03  0.64245995841E+03  0.00000000000E+00 0.  1.
<mgrwt>
<rscale>  0 0.15083222E+04</rscale>
<asrwt>0</asrwt>
<pdfrwt beam="1">  1        1 0.41479348E+00 0.15083222E+04</pdfrwt>
<pdfrwt beam="2">  1       -1 0.32454105E-01 0.15083222E+04</pdfrwt>
<totfact> 0.85094175E+00</totfact>
</mgrwt>
</event>
<event>
12    1  0.2214165E-007  0.1188013E+04  0.7818608E-02  0.9123414E-01
          2   -1    0    0  501    0  0.00000000000E+00  0.00000000000E+00  0.18669697496E+04  0.18669697496E+04  0.00000000000E+00 0. -1.
         -2   -1    0    0    0  501 -0.00000000000E+00 -0.00000000000E+00 -0.18899261171E+03  0.18899261171E+03  0.00000000000E+00 0.  1.
         23    2    1    2    0    0 -0.11847812191E+03  0.21481631215E+03  0.27917858000E+03  0.38166520294E+03  0.86859278548E+02 0.  0.
        254    2    1    2    0    0  0.11847812191E+03 -0.21481631215E+03  0.13987985579E+04  0.16742971584E+04  0.88682041906E+03 0.  0.
        -24    2    4    4    0    0  0.46206672435E+03 -0.11100035410E+02  0.99810156107E+03  0.11029987576E+04  0.82284047401E+02 0.  0.
         24    2    4    4    0    0 -0.34358860244E+03 -0.20371627674E+03  0.40069699686E+03  0.57129840084E+03  0.79185417677E+02 0.  0.
         11    1    3    3    0    0 -0.11959618281E+03  0.13543666340E+03  0.20032808849E+03  0.26977338596E+03  0.00000000000E+00 0. -1.
        -11    1    3    3    0    0  0.11180609002E+01  0.79379648750E+02  0.78850491509E+02  0.11189181698E+03  0.00000000000E+00 0.  1.
          4    1    6    6  502    0 -0.11959688178E+03 -0.75665082821E+02  0.19703159961E+03  0.24259033397E+03  0.00000000000E+00 0. -1.
          3    1    5    5  503    0  0.14892586802E+03  0.27213060634E+02  0.27129099132E+03  0.31067389141E+03  0.00000000000E+00 0. -1.
         -4    1    5    5    0  503  0.31314085633E+03 -0.38313096044E+02  0.72681056976E+03  0.79232486616E+03  0.00000000000E+00 0.  1.
         -3    1    6    6    0  502 -0.22399172066E+03 -0.12805119392E+03  0.20366539725E+03  0.32870806687E+03  0.00000000000E+00 0.  1.
<mgrwt>
<rscale>  0 0.11880126E+04</rscale>
<asrwt>0</asrwt>
<pdfrwt beam="1">  1        2 0.28722610E+00 0.11880126E+04</pdfrwt>
<pdfrwt beam="2">  1       -2 0.29075788E-01 0.11880126E+04</pdfrwt>
<totfact> 0.85077245E+01</totfact>
</mgrwt>
</event>
<event>
12    1  0.2214165E-007  0.2525017E+04  0.7818608E-02  0.8394127E-01
         -1   -1    0    0    0  501 -0.00000000000E+00  0.00000000000E+00  0.13764565042E+04  0.13764565042E+04  0.00000000000E+00 0.  1.
          1   -1    0    0  501    0  0.00000000000E+00 -0.00000000000E+00 -0.11579930631E+04  0.11579930631E+04  0.00000000000E+00 0. -1.
         23    2    1    2    0    0 -0.90592273011E+03  0.61377797908E+03  0.18373269410E+03  0.11133009189E+04  0.90894623759E+02 0.  0.
        254    2    1    2    0    0  0.90592273011E+03 -0.61377797908E+03  0.34730746930E+02  0.14211486484E+04  0.90611139249E+03 0.  0.
        -24    2    4    4    0    0  0.85836332702E+03 -0.14033604533E+03  0.22621128232E+03  0.90187060723E+03  0.75612440430E+02 0.  0.
         24    2    4    4    0    0  0.47559403092E+02 -0.47344193376E+03 -0.19148053539E+03  0.51927804119E+03  0.81090857500E+02 0.  0.
         13    1    3    3    0    0 -0.30405061800E+03  0.22710031314E+03  0.10397919437E+03  0.39348825065E+03  0.00000000000E+00 0.  1.
        -13    1    3    3    0    0 -0.60187211210E+03  0.38667766594E+03  0.79753499732E+02  0.71981266826E+03  0.00000000000E+00 0. -1.
          2    1    6    6  502    0  0.44674636604E+01 -0.37724786309E+03 -0.14861613448E+03  0.40549064584E+03  0.00000000000E+00 0. -1.
          3    1    5    5  503    0  0.23153604531E+03 -0.32467816522E+02  0.26961023174E+02  0.23535079384E+03  0.00000000000E+00 0. -1.
         -4    1    5    5    0  503  0.62682728170E+03 -0.10786822880E+03  0.19925025915E+03  0.66651981339E+03  0.00000000000E+00 0.  1.
         -1    1    6    6    0  502  0.43091939431E+02 -0.96194070668E+02 -0.42864400914E+02  0.11378739535E+03  0.00000000000E+00 0.  1.
<mgrwt>
<rscale>  0 0.25250165E+04</rscale>
<asrwt>0</asrwt>
<pdfrwt beam="1">  1        1 0.17815278E+00 0.25250165E+04</pdfrwt>
<pdfrwt beam="2">  1       -1 0.21176254E+00 0.25250165E+04</pdfrwt>
<totfact> 0.12721751E+00</totfact>
</mgrwt>
</event>
<event>
12    1  0.2214165E-007  0.1754239E+04  0.7818608E-02  0.8731021E-01
          2   -1    0    0  501    0  0.00000000000E+00  0.00000000000E+00  0.18264796376E+04  0.18264796376E+04  0.00000000000E+00 0. -1.
         -2   -1    0    0    0  501 -0.00000000000E+00 -0.00000000000E+00 -0.42121377614E+03  0.42121377614E+03  0.00000000000E+00 0.  1.
         23    2    1    2    0    0 -0.56945085851E+03 -0.65252030402E+02  0.15355883199E+03  0.60031303295E+03  0.90902777249E+02 0.  0.
        254    2    1    2    0    0  0.56945085851E+03  0.65252030402E+02  0.12517070295E+04  0.16473803808E+04  0.90474279419E+03 0.  0.
        -24    2    4    4    0    0  0.73304049651E+03  0.27194059539E+03  0.82208726536E+03  0.11373252355E+04  0.79882178663E+02 0.  0.
         24    2    4    4    0    0 -0.16358963799E+03 -0.20668856499E+03  0.42961976410E+03  0.51005514529E+03  0.78111311457E+02 0.  0.
         11    1    3    3    0    0 -0.43202849766E+02 -0.11049989354E+02  0.38499460063E+02  0.58913469748E+02  0.00000000000E+00 0. -1.
        -11    1    3    3    0    0 -0.52624800875E+03 -0.54202041048E+02  0.11505937192E+03  0.54139956320E+03  0.00000000000E+00 0.  1.
          4    1    6    6  502    0 -0.15854391306E+03 -0.15298554280E+03  0.35860417279E+03  0.42087729971E+03  0.00000000000E+00 0. -1.
          3    1    5    5  503    0  0.43866404663E+03  0.12095512535E+03  0.46940524583E+03  0.65375650893E+03  0.00000000000E+00 0. -1.
         -4    1    5    5    0  503  0.29437644987E+03  0.15098547003E+03  0.35268201953E+03  0.48356872656E+03  0.00000000000E+00 0.  1.
         -3    1    6    6    0  502 -0.50457249304E+01 -0.53703022187E+02  0.71015591315E+02  0.89177845578E+02  0.00000000000E+00 0.  1.
<mgrwt>
<rscale>  0 0.17542387E+04</rscale>
<asrwt>0</asrwt>
<pdfrwt beam="1">  1        2 0.28099686E+00 0.17542387E+04</pdfrwt>
<pdfrwt beam="2">  1       -2 0.64802121E-01 0.17542387E+04</pdfrwt>
<totfact> 0.17366956E+01</totfact>
</mgrwt>
</event>
<event>
12    1  0.2214165E-007  0.2088202E+04  0.7818608E-02  0.8566458E-01
         -2   -1    0    0    0  501 -0.00000000000E+00  0.00000000000E+00  0.10455756699E+04  0.10455756699E+04  0.00000000000E+00 0.  1.
          2   -1    0    0  501    0  0.00000000000E+00 -0.00000000000E+00 -0.10426285787E+04  0.10426285787E+04  0.00000000000E+00 0. -1.
         23    2    1    2    0    0  0.51731977498E+03 -0.35477651918E+03  0.57096158905E+03  0.85277968673E+03  0.88033685457E+02 0.  0.
        254    2    1    2    0    0 -0.51731977498E+03  0.35477651918E+03 -0.56801449789E+03  0.12354245618E+04  0.90008180186E+03 0.  0.
        -24    2    4    4    0    0 -0.81909875132E+02 -0.29282032776E+03 -0.17787952972E+03  0.35942645216E+03  0.71367187305E+02 0.  0.
         24    2    4    4    0    0 -0.43540989985E+03  0.64759684695E+03 -0.39013496817E+03  0.87599810968E+03  0.78765079245E+02 0.  0.
         13    1    3    3    0    0  0.41326938489E+02 -0.55246544473E+02  0.42363480317E+02  0.80961478406E+02  0.00000000000E+00 0.  1.
        -13    1    3    3    0    0  0.47599283649E+03 -0.29952997471E+03  0.52859810874E+03  0.77181820832E+03  0.00000000000E+00 0. -1.
          2    1    6    6  502    0 -0.29655533933E+03  0.45059813928E+03 -0.30915913980E+03  0.62174200930E+03  0.00000000000E+00 0. -1.
          1    1    5    5  503    0 -0.86368767746E+02 -0.28114359667E+03 -0.15286942651E+03  0.33146696299E+03  0.00000000000E+00 0. -1.
         -2    1    5    5    0  503  0.44588926138E+01 -0.11676731097E+02 -0.25010103210E+02  0.27959489177E+02  0.00000000000E+00 0.  1.
         -1    1    6    6    0  502 -0.13885456052E+03  0.19699870767E+03 -0.80975828377E+02  0.25425610038E+03  0.00000000000E+00 0.  1.
<mgrwt>
<rscale>  0 0.20882022E+04</rscale>
<asrwt>0</asrwt>
<pdfrwt beam="1">  1        2 0.16040440E+00 0.20882022E+04</pdfrwt>
<pdfrwt beam="2">  1       -2 0.16085780E+00 0.20882022E+04</pdfrwt>
<totfact> 0.54174120E+00</totfact>
</mgrwt>
</event>
<event>
12    1  0.2214165E-007  0.1337470E+04  0.7818608E-02  0.9000367E-01
         -2   -1    0    0    0  501 -0.00000000000E+00  0.00000000000E+00  0.14416185984E+04  0.14416185984E+04  0.00000000000E+00 0. -1.
          2   -1    0    0  501    0  0.00000000000E+00 -0.00000000000E+00 -0.31021158182E+03  0.31021158182E+03  0.00000000000E+00 0.  1.
         23    2    1    2    0    0  0.28839447438E+03  0.16649301168E+03  0.14994859458E+03  0.37680629137E+03  0.92774481485E+02 0.  0.
        254    2    1    2    0    0 -0.28839447438E+03 -0.16649301168E+03  0.98145842203E+03  0.13750238889E+04  0.90362534550E+03 0.  0.
        -24    2    4    4    0    0 -0.48981352526E+03  0.18799425922E+03  0.67500665577E+03  0.85870777216E+03  0.80535219664E+02 0.  0.
         24    2    4    4    0    0  0.20141905088E+03 -0.35448727090E+03  0.30645176626E+03  0.51631611673E+03  0.80242059169E+02 0.  0.
         11    1    3    3    0    0  0.26561538911E+02  0.45380083156E+02  0.20623339142E+01  0.52622433598E+02  0.00000000000E+00 0.  1.
        -11    1    3    3    0    0  0.26183293547E+03  0.12111292852E+03  0.14788626066E+03  0.32418385778E+03  0.00000000000E+00 0. -1.
          4    1    6    6  502    0  0.13289457693E+03 -0.15597200683E+03  0.13730079368E+03  0.24665713741E+03  0.00000000000E+00 0. -1.
          3    1    5    5  503    0 -0.42405583859E+03  0.18129481655E+03  0.61999174448E+03  0.77271011898E+03  0.00000000000E+00 0. -1.
         -4    1    5    5    0  503 -0.65757686671E+02  0.66994426718E+01  0.55014911292E+02  0.85997653183E+02  0.00000000000E+00 0.  1.
         -3    1    6    6    0  502  0.68524473952E+02 -0.19851526407E+03  0.16915097259E+03  0.26965897932E+03  0.00000000000E+00 0.  1.
<mgrwt>
<rscale>  0 0.13374704E+04</rscale>
<asrwt>0</asrwt>
<pdfrwt beam="1">  1        2 0.47724860E-01 0.13374704E+04</pdfrwt>
<pdfrwt beam="2">  1       -2 0.22178747E+00 0.13374704E+04</pdfrwt>
<totfact> 0.99553162E+00</totfact>
</mgrwt>
</event>
<event>
12    1  0.2214165E-007  0.1583249E+04  0.7818608E-02  0.8830905E-01
         -2   -1    0    0    0  501 -0.00000000000E+00  0.00000000000E+00  0.13067722589E+04  0.13067722589E+04  0.00000000000E+00 0.  1.
          2   -1    0    0  501    0  0.00000000000E+00 -0.00000000000E+00 -0.47955527535E+03  0.47955527535E+03  0.00000000000E+00 0. -1.
         23    2    1    2    0    0 -0.35405403367E+03  0.35563969844E+03  0.47302932509E+03  0.69570400751E+03  0.91724968322E+02 0.  0.
        254    2    1    2    0    0  0.35405403367E+03 -0.35563969844E+03  0.35418765846E+03  0.10906235267E+04  0.90120859173E+03 0.  0.
        -24    2    4    4    0    0  0.59237042946E+03 -0.13168757121E+03  0.14595460065E+02  0.61207063453E+03  0.78569027561E+02 0.  0.
         24    2    4    4    0    0 -0.23831639579E+03 -0.22395212722E+03  0.33959219840E+03  0.47855289221E+03  0.82102068425E+02 0.  0.
         13    1    3    3    0    0 -0.28610963847E+03  0.24105498234E+03  0.37972396650E+03  0.53306333627E+03  0.00000000000E+00 0.  1.
        -13    1    3    3    0    0 -0.67944395198E+02  0.11458471610E+03  0.93305358591E+02  0.16264067125E+03  0.00000000000E+00 0. -1.
          2    1    6    6  502    0 -0.62101689083E+02 -0.21402908194E+02  0.43063576387E+02  0.78544101480E+02  0.00000000000E+00 0. -1.
          1    1    5    5  503    0  0.79712372269E+02 -0.42246020535E+02  0.16245003468E+02  0.91666180685E+02  0.00000000000E+00 0. -1.
         -2    1    5    5    0  503  0.51265805719E+03 -0.89441550679E+02 -0.16495434022E+01  0.52040445385E+03  0.00000000000E+00 0.  1.
         -1    1    6    6    0  502 -0.17621470671E+03 -0.20254921903E+03  0.29652862201E+03  0.40000879073E+03  0.00000000000E+00 0.  1.
<mgrwt>
<rscale>  0 0.15832492E+04</rscale>
<asrwt>0</asrwt>
<pdfrwt beam="1">  1        2 0.73777735E-01 0.15832492E+04</pdfrwt>
<pdfrwt beam="2">  1       -2 0.20104188E+00 0.15832492E+04</pdfrwt>
<totfact> 0.81172986E+00</totfact>
</mgrwt>
</event>
<event>
12    1  0.2214165E-007  0.1684611E+04  0.7818608E-02  0.8770190E-01
         -1   -1    0    0    0  501 -0.00000000000E+00  0.00000000000E+00  0.43356261016E+03  0.43356261016E+03  0.00000000000E+00 0.  1.
          1   -1    0    0  501    0  0.00000000000E+00 -0.00000000000E+00 -0.16363928251E+04  0.16363928251E+04  0.00000000000E+00 0. -1.
         23    2    1    2    0    0  0.21675181296E+02 -0.22293220188E+03  0.24824928443E+03  0.34933031515E+03  0.10117006349E+03 0.  0.
        254    2    1    2    0    0 -0.21675181296E+02  0.22293220188E+03 -0.14510794994E+04  0.17206251201E+04  0.89707887631E+03 0.  0.
        -24    2    4    4    0    0 -0.16547880380E+03  0.17287719993E+03  0.71901450110E+01  0.25204562520E+03  0.78775238725E+02 0.  0.
         24    2    4    4    0    0  0.14380362250E+03  0.50055001952E+02 -0.14582696444E+04  0.14685794949E+04  0.83608564563E+02 0.  0.
         13    1    3    3    0    0  0.48964875699E+02 -0.13638942789E+03  0.19873257552E+03  0.24595583275E+03  0.00000000000E+00 0.  1.
        -13    1    3    3    0    0 -0.27289694403E+02 -0.86542773990E+02  0.49516708912E+02  0.10337448240E+03  0.00000000000E+00 0. -1.
          4    1    6    6  502    0  0.82016532435E+02  0.70981443047E+02 -0.90334265279E+03  0.90983131689E+03  0.00000000000E+00 0. -1.
          3    1    5    5  503    0 -0.14754069946E+03  0.10504184149E+03  0.13375008170E+02  0.18160654533E+03  0.00000000000E+00 0. -1.
         -4    1    5    5    0  503 -0.17938104335E+02  0.67835358435E+02 -0.61848631592E+01  0.70439079874E+02  0.00000000000E+00 0.  1.
         -3    1    6    6    0  502  0.61787090065E+02 -0.20926441095E+02 -0.55492699159E+03  0.55874817801E+03  0.00000000000E+00 0.  1.
<mgrwt>
<rscale>  0 0.16846112E+04</rscale>
<asrwt>0</asrwt>
<pdfrwt beam="1">  1        1 0.25175274E+00 0.16846112E+04</pdfrwt>
<pdfrwt beam="2">  1       -1 0.66701940E-01 0.16846112E+04</pdfrwt>
<totfact> 0.11430784E+01</totfact>
</mgrwt>
</event>
<event>
12    1  0.2214165E-007  0.1481147E+04  0.7818608E-02  0.8897088E-01
          1   -1    0    0  501    0  0.00000000000E+00  0.00000000000E+00  0.12635006518E+04  0.12635006518E+04  0.00000000000E+00 0. -1.
         -1   -1    0    0    0  501 -0.00000000000E+00 -0.00000000000E+00 -0.43407116625E+03  0.43407116625E+03  0.00000000000E+00 0.  1.
         23    2    1    2    0    0 -0.34497314267E+02 -0.40386920805E+03  0.11364639354E+02  0.41576148910E+03  0.91804460051E+02 0.  0.
        254    2    1    2    0    0  0.34497314267E+02  0.40386920805E+03  0.81806484618E+03  0.12818103289E+04  0.89972619443E+03 0.  0.
        -24    2    4    4    0    0 -0.21441696603E+03  0.42077198489E+03  0.88979788319E+03  0.10103090483E+04  0.77203636475E+02 0.  0.
         24    2    4    4    0    0  0.24891428030E+03 -0.16902776842E+02 -0.71733037008E+02  0.27150128069E+03  0.79519142447E+02 0.  0.
         11    1    3    3    0    0  0.28711542872E+01 -0.24097236113E+02  0.23748543808E+02  0.33954582139E+02  0.00000000000E+00 0. -1.
        -11    1    3    3    0    0 -0.37368468554E+02 -0.37977197194E+03 -0.12383904454E+02  0.38180690696E+03  0.00000000000E+00 0.  1.
          4    1    6    6  502    0  0.63541069754E+02  0.22711064674E+02  0.34770379244E+01  0.67567372280E+02  0.00000000000E+00 0. -1.
          1    1    5    5  503    0 -0.24056281407E+02  0.34760749010E+02  0.13453037194E+03  0.14101572721E+03  0.00000000000E+00 0. -1.
         -2    1    5    5    0  503 -0.19036068462E+03  0.38601123588E+03  0.75526751125E+03  0.86929332105E+03  0.00000000000E+00 0.  1.
         -1    1    6    6    0  502  0.18537321054E+03 -0.39613841516E+02 -0.75210074933E+02  0.20393390841E+03  0.00000000000E+00 0.  1.
<mgrwt>
<rscale>  0 0.14811471E+04</rscale>
<asrwt>0</asrwt>
<pdfrwt beam="1">  1        1 0.19438471E+00 0.14811471E+04</pdfrwt>
<pdfrwt beam="2">  1       -1 0.66780180E-01 0.14811471E+04</pdfrwt>
<totfact> 0.21148516E+01</totfact>
</mgrwt>
</event>
<event>
12    1  0.2214165E-007  0.3928153E+04  0.7818608E-02  0.8019199E-01
          2   -1    0    0  501    0  0.00000000000E+00  0.00000000000E+00  0.20815398389E+04  0.20815398389E+04  0.00000000000E+00 0. -1.
         -2   -1    0    0    0  501 -0.00000000000E+00 -0.00000000000E+00 -0.18532412799E+04  0.18532412799E+04  0.00000000000E+00 0.  1.
         23    2    1    2    0    0  0.13775200256E+04  0.10255195278E+04 -0.60707940115E+03  0.18236884157E+04  0.89678956512E+02 0.  0.
        254    2    1    2    0    0 -0.13775200256E+04 -0.10255195278E+04  0.83537796010E+03  0.21110927031E+04  0.89978016310E+03 0.  0.
        -24    2    4    4    0    0 -0.11339252064E+04 -0.32673361224E+03  0.39923764545E+03  0.12483111916E+04  0.79680024010E+02 0.  0.
         24    2    4    4    0    0 -0.24359481917E+03 -0.69878591560E+03  0.43614031464E+03  0.86278151154E+03  0.80829269698E+02 0.  0.
         11    1    3    3    0    0  0.44603533301E+03  0.28989629759E+03 -0.21340570152E+03  0.57317482071E+03  0.00000000000E+00 0. -1.
        -11    1    3    3    0    0  0.93148469260E+03  0.73562323024E+03 -0.39367369964E+03  0.12505135950E+04  0.00000000000E+00 0.  1.
          4    1    6    6  502    0 -0.92271994093E+02 -0.15901988663E+03  0.10798395398E+03  0.21321815016E+03  0.00000000000E+00 0. -1.
          3    1    5    5  503    0 -0.64619972247E+02 -0.10065416937E+02  0.40035368015E+02  0.76680402473E+02  0.00000000000E+00 0. -1.
         -2    1    5    5    0  503 -0.10693052342E+04 -0.31666819530E+03  0.35920227744E+03  0.11716307891E+04  0.00000000000E+00 0.  1.
         -1    1    6    6    0  502 -0.15132282508E+03 -0.53976602896E+03  0.32815636067E+03  0.64956336139E+03  0.00000000000E+00 0.  1.
<mgrwt>
<rscale>  0 0.39281525E+04</rscale>
<asrwt>0</asrwt>
<pdfrwt beam="1">  1        2 0.32023690E+00 0.39281525E+04</pdfrwt>
<pdfrwt beam="2">  1       -2 0.28511404E+00 0.39281525E+04</pdfrwt>
<totfact> 0.18713216E-01</totfact>
</mgrwt>
</event>
<event>
12    1  0.2214165E-007  0.2776739E+04  0.7818608E-02  0.8310526E-01
          1   -1    0    0  501    0  0.00000000000E+00  0.00000000000E+00  0.16810598020E+04  0.16810598020E+04  0.00000000000E+00 0. -1.
         -1   -1    0    0    0  501 -0.00000000000E+00 -0.00000000000E+00 -0.11466399248E+04  0.11466399248E+04  0.00000000000E+00 0.  1.
         23    2    1    2    0    0  0.11979160408E+04  0.27677727186E+03  0.41147219941E+03  0.12993964931E+04  0.86679734525E+02 0.  0.
        254    2    1    2    0    0 -0.11979160408E+04 -0.27677727186E+03  0.12294767774E+03  0.15283032337E+04  0.89943657012E+03 0.  0.
        -24    2    4    4    0    0  0.10051816696E+03  0.91868235386E+02 -0.50070525730E+02  0.16527789132E+03  0.79158380795E+02 0.  0.
         24    2    4    4    0    0 -0.12984342077E+04 -0.36864550724E+03  0.17301820347E+03  0.13630253424E+04  0.77922290527E+02 0.  0.
         11    1    3    3    0    0  0.60998874561E+03  0.13248735237E+03  0.16401901280E+03  0.64540018971E+03  0.00000000000E+00 0.  1.
        -11    1    3    3    0    0  0.58792729517E+03  0.14428991949E+03  0.24745318661E+03  0.65399630338E+03  0.00000000000E+00 0. -1.
          4    1    6    6  502    0 -0.61006048034E+03 -0.13623249147E+03  0.95778137342E+02  0.63238163556E+03  0.00000000000E+00 0. -1.
          3    1    5    5  503    0 -0.35804310974E+01  0.12836563937E+02 -0.30286618328E+02  0.33088912195E+02  0.00000000000E+00 0. -1.
         -4    1    5    5    0  503  0.10409859806E+03  0.79031671449E+02 -0.19783907402E+02  0.13218897913E+03  0.00000000000E+00 0.  1.
         -3    1    6    6    0  502 -0.68837372740E+03 -0.23241301578E+03  0.77240066130E+02  0.73064370681E+03  0.00000000000E+00 0.  1.
<mgrwt>
<rscale>  0 0.27767393E+04</rscale>
<asrwt>0</asrwt>
<pdfrwt beam="1">  1        1 0.25862459E+00 0.27767393E+04</pdfrwt>
<pdfrwt beam="2">  1       -1 0.17640614E+00 0.27767393E+04</pdfrwt>
<totfact> 0.94102903E-01</totfact>
</mgrwt>
</event>
<event>
12    1  0.2214165E-007  0.1324825E+04  0.7818608E-02  0.9010107E-01
         -2   -1    0    0    0  501 -0.00000000000E+00  0.00000000000E+00  0.17269985167E+03  0.17269985167E+03  0.00000000000E+00 0.  1.
          2   -1    0    0  501    0  0.00000000000E+00 -0.00000000000E+00 -0.25407700110E+04  0.25407700110E+04  0.00000000000E+00 0. -1.
         23    2    1    2    0    0  0.30811564888E+03 -0.42197978801E+02 -0.98981520050E+03  0.10417428992E+04  0.93692126039E+02 0.  0.
        254    2    1    2    0    0 -0.30811564888E+03  0.42197978801E+02 -0.13782549588E+04  0.16717269634E+04  0.89351462563E+03 0.  0.
        -24    2    4    4    0    0 -0.41634330309E+02  0.80488050982E+01  0.11937572536E+03  0.14811014991E+03  0.76732339844E+02 0.  0.
         24    2    4    4    0    0 -0.26648131857E+03  0.34149173702E+02 -0.14976306841E+04  0.15236168135E+04  0.79574298854E+02 0.  0.
         13    1    3    3    0    0  0.10349015660E+03  0.15551584841E+02 -0.22905513287E+03  0.25182993904E+03  0.00000000000E+00 0.  1.
        -13    1    3    3    0    0  0.20462549228E+03 -0.57749563641E+02 -0.76076006763E+03  0.78991296020E+03  0.00000000000E+00 0. -1.
          2    1    6    6  502    0 -0.35796562287E+02  0.16228259324E+02 -0.39623623236E+03  0.39818074050E+03  0.00000000000E+00 0. -1.
          3    1    5    5  503    0 -0.22420262048E+02 -0.25033372221E+02  0.14732992755E+02  0.36693309344E+02  0.00000000000E+00 0. -1.
         -4    1    5    5    0  503 -0.19214068261E+02  0.33082177319E+02  0.10464273260E+03  0.11141684057E+03  0.00000000000E+00 0.  1.
         -1    1    6    6    0  502 -0.23068475628E+03  0.17920914379E+02 -0.11013944518E+04  0.11254360730E+04  0.00000000000E+00 0.  1.
<mgrwt>
<rscale>  0 0.13248254E+04</rscale>
<asrwt>0</asrwt>
<pdfrwt beam="1">  1        2 0.39088765E+00 0.13248254E+04</pdfrwt>
<pdfrwt beam="2">  1       -2 0.26569211E-01 0.13248254E+04</pdfrwt>
<totfact> 0.41610348E+01</totfact>
</mgrwt>
</event>
<event>
12    1  0.2214165E-007  0.1619848E+04  0.7818608E-02  0.8808446E-01
          2   -1    0    0  501    0  0.00000000000E+00  0.00000000000E+00  0.16072743425E+04  0.16072743425E+04  0.00000000000E+00 0. -1.
         -2   -1    0    0    0  501 -0.00000000000E+00 -0.00000000000E+00 -0.40813018823E+03  0.40813018823E+03  0.00000000000E+00 0.  1.
         23    2    1    2    0    0 -0.37930043273E+03 -0.36529209244E+03  0.19947808193E+03  0.57086352591E+03  0.93736486929E+02 0.  0.
        254    2    1    2    0    0  0.37930043273E+03  0.36529209244E+03  0.99966607236E+03  0.14445410048E+04  0.90003295905E+03 0.  0.
        -24    2    4    4    0    0  0.28645956848E+03  0.10260968629E+03 -0.81692326905E+02  0.32490262850E+03  0.79374111897E+02 0.  0.
         24    2    4    4    0    0  0.92840864248E+02  0.26268240615E+03  0.10813583993E+04  0.11196383763E+04  0.81440981869E+02 0.  0.
         13    1    3    3    0    0 -0.24717956451E+03 -0.28973169484E+03  0.16356488287E+03  0.41448240374E+03  0.00000000000E+00 0. -1.
        -13    1    3    3    0    0 -0.13212086822E+03 -0.75560397600E+02  0.35913199063E+02  0.15638112217E+03  0.00000000000E+00 0.  1.
          4    1    6    6  502    0 -0.58121092508E+01  0.55394279866E+02  0.13954214227E+03  0.15024751687E+03  0.00000000000E+00 0. -1.
          1    1    5    5  503    0  0.55184034629E+02 -0.11223051103E+02 -0.20834908755E+02  0.60044383392E+02  0.00000000000E+00 0. -1.
         -2    1    5    5    0  503  0.23127553385E+03  0.11383273739E+03 -0.60857418150E+02  0.26485824511E+03  0.00000000000E+00 0.  1.
         -3    1    6    6    0  502  0.98652973499E+02  0.20728812628E+03  0.94181625700E+03  0.96939085947E+03  0.00000000000E+00 0.  1.
<mgrwt>
<rscale>  0 0.16198484E+04</rscale>
<asrwt>0</asrwt>
<pdfrwt beam="1">  1        2 0.24727297E+00 0.16198484E+04</pdfrwt>
<pdfrwt beam="2">  1       -2 0.62789261E-01 0.16198484E+04</pdfrwt>
<totfact> 0.24869516E+01</totfact>
</mgrwt>
</event>
<event>
12    1  0.2214165E-007  0.1388550E+04  0.7818608E-02  0.8962148E-01
         -2   -1    0    0    0  501 -0.00000000000E+00  0.00000000000E+00  0.45626603659E+03  0.45626603659E+03  0.00000000000E+00 0.  1.
          2   -1    0    0  501    0  0.00000000000E+00 -0.00000000000E+00 -0.10564406973E+04  0.10564406973E+04  0.00000000000E+00 0. -1.
         23    2    1    2    0    0 -0.36843143495E+03  0.44867167293E+02 -0.24884122319E+02  0.38232456069E+03  0.88306654378E+02 0.  0.
        254    2    1    2    0    0  0.36843143495E+03 -0.44867167293E+02 -0.57529053841E+03  0.11303821732E+04  0.89947199456E+03 0.  0.
        -24    2    4    4    0    0  0.80614393564E+02  0.11760563875E+03 -0.73603233822E+03  0.75383688183E+03  0.78718960743E+02 0.  0.
         24    2    4    4    0    0  0.28781704138E+03 -0.16247280604E+03  0.16074179981E+03  0.37654529139E+03  0.81929043996E+02 0.  0.
         13    1    3    3    0    0 -0.24034317615E+03  0.15731231300E+02 -0.56103851927E+02  0.24730539048E+03  0.00000000000E+00 0. -1.
        -13    1    3    3    0    0 -0.12808825879E+03  0.29135935992E+02  0.31219729608E+02  0.13501917021E+03  0.00000000000E+00 0.  1.
          2    1    6    6  502    0  0.22775219681E+03 -0.88890106596E+02  0.12877594876E+03  0.27632545880E+03  0.00000000000E+00 0. -1.
          3    1    5    5  503    0  0.22946908309E+02 -0.44363096602E+01 -0.18702188486E+03  0.18847659500E+03  0.00000000000E+00 0. -1.
         -4    1    5    5    0  503  0.57667485255E+02  0.12204194841E+03 -0.54901045336E+03  0.56536028683E+03  0.00000000000E+00 0.  1.
         -1    1    6    6    0  502  0.60064844571E+02 -0.73582699446E+02  0.31965851052E+02  0.10021983259E+03  0.00000000000E+00 0.  1.
<mgrwt>
<rscale>  0 0.13885503E+04</rscale>
<asrwt>0</asrwt>
<pdfrwt beam="1">  1        2 0.16252934E+00 0.13885503E+04</pdfrwt>
<pdfrwt beam="2">  1       -2 0.70194775E-01 0.13885503E+04</pdfrwt>
<totfact> 0.41747536E+01</totfact>
</mgrwt>
</event>
<event>
12    1  0.2540590E-007  0.1906769E+04  0.7818608E-02  0.8651494E-01
         -1   -1    0    0    0  501 -0.00000000000E+00  0.00000000000E+00  0.86965073424E+03  0.86965073424E+03  0.00000000000E+00 0.  1.
          1   -1    0    0  501    0  0.00000000000E+00 -0.00000000000E+00 -0.10451807304E+04  0.10451807304E+04  0.00000000000E+00 0. -1.
         23    2    1    2    0    0  0.70800826174E+03 -0.20400639621E+03 -0.30374537118E+01  0.74226911114E+03  0.89776939371E+02 0.  0.
        254    2    1    2    0    0 -0.70800826174E+03  0.20400639621E+03 -0.17249254247E+03  0.11725623535E+04  0.89568660105E+03 0.  0.
        -24    2    4    4    0    0 -0.86170196362E+03  0.16345256777E+03  0.56581874435E+02  0.88260300106E+03  0.80867378713E+02 0.  0.
         24    2    4    4    0    0  0.15369370188E+03  0.40553828445E+02 -0.22907441690E+03  0.28995935246E+03  0.79592528553E+02 0.  0.
         11    1    3    3    0    0  0.28492572305E+03 -0.12690884119E+03 -0.11727581865E+02  0.31213147519E+03  0.00000000000E+00 0. -1.
        -11    1    3    3    0    0  0.42308253869E+03 -0.77097555021E+02  0.86901281534E+01  0.43013763595E+03  0.00000000000E+00 0.  1.
          4    1    6    6  502    0 -0.43561836855E+01 -0.10738857803E+02 -0.14045806967E+02  0.18209450749E+02  0.00000000000E+00 0. -1.
          1    1    5    5  503    0 -0.23470951238E+03  0.80593396507E+02  0.24037936721E+02  0.24932242812E+03  0.00000000000E+00 0. -1.
         -2    1    5    5    0  503 -0.62699245124E+03  0.82859171262E+02  0.32543937714E+02  0.63328057294E+03  0.00000000000E+00 0.  1.
         -3    1    6    6    0  502  0.15804988557E+03  0.51292686249E+02 -0.21502860994E+03  0.27174990172E+03  0.00000000000E+00 0.  1.
<mgrwt>
<rscale>  0 0.19067692E+04</rscale>
<asrwt>0</asrwt>
<pdfrwt beam="1">  1        1 0.16079703E+00 0.19067692E+04</pdfrwt>
<pdfrwt beam="2">  1       -1 0.13379242E+00 0.19067692E+04</pdfrwt>
<totfact> 0.61528953E+00</totfact>
</mgrwt>
</event>
<event>
12    1  0.2214165E-007  0.3796071E+04  0.7818608E-02  0.8046999E-01
         -2   -1    0    0    0  501 -0.00000000000E+00  0.00000000000E+00  0.50919882933E+04  0.50919882933E+04  0.00000000000E+00 0.  1.
          2   -1    0    0  501    0  0.00000000000E+00 -0.00000000000E+00 -0.70749147782E+03  0.70749147782E+03  0.00000000000E+00 0. -1.
         23    2    1    2    0    0  0.17163451312E+04 -0.16419949560E+03  0.28070565023E+04  0.32955727755E+04  0.91823897706E+02 0.  0.
        254    2    1    2    0    0 -0.17163451312E+04  0.16419949560E+03  0.15774403133E+04  0.25039069956E+04  0.89912747548E+03 0.  0.
        -24    2    4    4    0    0  0.45560085284E+02  0.14437712412E+02 -0.43948302930E+02  0.10320541218E+03  0.80223031995E+02 0.  0.
         24    2    4    4    0    0 -0.17619052165E+04  0.14976178319E+03  0.16213886162E+04  0.24007015834E+04  0.87911686001E+02 0.  0.
         13    1    3    3    0    0  0.10903752209E+04 -0.14327338617E+03  0.18285062972E+04  0.21337480321E+04  0.00000000000E+00 0. -1.
        -13    1    3    3    0    0  0.62596991025E+03 -0.20926109437E+02  0.97855020504E+03  0.11618247434E+04  0.00000000000E+00 0.  1.
          2    1    6    6  502    0 -0.33934600049E+03  0.33337062847E+02  0.36052978954E+03  0.49623461886E+03  0.00000000000E+00 0. -1.
          1    1    5    5  503    0 -0.62795580887E+01  0.22844946400E+02  0.11925891954E+02  0.26524541932E+02  0.00000000000E+00 0. -1.
         -2    1    5    5    0  503  0.51839643373E+02 -0.84072339886E+01 -0.55874194884E+02  0.76680870250E+02  0.00000000000E+00 0.  1.
         -1    1    6    6    0  502 -0.14225592160E+04  0.11642472035E+03  0.12608588266E+04  0.19044669646E+04  0.00000000000E+00 0.  1.
<mgrwt>
<rscale>  0 0.37960708E+04</rscale>
<asrwt>0</asrwt>
<pdfrwt beam="1">  1        2 0.10884485E+00 0.37960708E+04</pdfrwt>
<pdfrwt beam="2">  1       -2 0.78338279E+00 0.37960708E+04</pdfrwt>
<totfact> 0.31689977E-03</totfact>
</mgrwt>
</event>
<event>
12    1  0.2214165E-007  0.2417203E+04  0.7818608E-02  0.8433091E-01
          1   -1    0    0  501    0  0.00000000000E+00  0.00000000000E+00  0.17048927160E+04  0.17048927160E+04  0.00000000000E+00 0. -1.
         -1   -1    0    0    0  501 -0.00000000000E+00 -0.00000000000E+00 -0.85678004427E+03  0.85678004427E+03  0.00000000000E+00 0.  1.
         23    2    1    2    0    0 -0.10072901015E+04 -0.16154457614E+03  0.15749418107E+03  0.10354125817E+04  0.80899928904E+02 0.  0.
        254    2    1    2    0    0  0.10072901015E+04  0.16154457614E+03  0.69061849067E+03  0.15262601786E+04  0.90099180593E+03 0.  0.
        -24    2    4    4    0    0  0.85925154929E+02  0.35862721680E+03  0.36767342847E+03  0.52706774248E+03  0.81363642248E+02 0.  0.
         24    2    4    4    0    0  0.92136494662E+03 -0.19708264066E+03  0.32294506220E+03  0.99919243612E+03  0.79605772988E+02 0.  0.
         13    1    3    3    0    0 -0.77116496005E+03 -0.14617735639E+03  0.14708222949E+03  0.79855895046E+03  0.00000000000E+00 0. -1.
        -13    1    3    3    0    0 -0.23612514149E+03 -0.15367219742E+02  0.10411951572E+02  0.23685363122E+03  0.00000000000E+00 0.  1.
          4    1    6    6  502    0  0.68536850262E+03 -0.17808084207E+03  0.22551189368E+03  0.74316780399E+03  0.00000000000E+00 0. -1.
          3    1    5    5  503    0  0.99055918522E+02  0.26920305057E+03  0.28990785981E+03  0.40783443284E+03  0.00000000000E+00 0. -1.
         -4    1    5    5    0  503 -0.13130763593E+02  0.89424166230E+02  0.77765568658E+02  0.11923330964E+03  0.00000000000E+00 0.  1.
         -3    1    6    6    0  502  0.23599644400E+03 -0.19001798591E+02  0.97433168520E+02  0.25602463213E+03  0.00000000000E+00 0.  1.
<mgrwt>
<rscale>  0 0.24172034E+04</rscale>
<asrwt>0</asrwt>
<pdfrwt beam="1">  1        1 0.26229119E+00 0.24172034E+04</pdfrwt>
<pdfrwt beam="2">  1       -1 0.13181231E+00 0.24172034E+04</pdfrwt>
<totfact> 0.20720230E+00</totfact>
</mgrwt>
</event>
<event>
12    1  0.2214165E-007  0.2441347E+04  0.7818608E-02  0.8424184E-01
          1   -1    0    0  501    0  0.00000000000E+00  0.00000000000E+00  0.13038513752E+04  0.13038513752E+04  0.00000000000E+00 0.  1.
         -1   -1    0    0    0  501 -0.00000000000E+00 -0.00000000000E+00 -0.11428017791E+04  0.11428017791E+04  0.00000000000E+00 0. -1.
         23    2    1    2    0    0  0.10329769670E+04  0.12897119100E+03  0.22075073343E+03  0.10683565484E+04  0.94762048147E+02 0.  0.
        254    2    1    2    0    0 -0.10329769670E+04 -0.12897119100E+03 -0.59701137350E+02  0.13782966059E+04  0.90136692060E+03 0.  0.
        -24    2    4    4    0    0 -0.59553176771E+03  0.27712151612E+02 -0.46120269821E+03  0.75782983118E+03  0.78562551449E+02 0.  0.
         24    2    4    4    0    0 -0.43744519931E+03 -0.15668334261E+03  0.40150156086E+03  0.62046677473E+03  0.88699170888E+02 0.  0.
         11    1    3    3    0    0  0.62535310053E+03  0.10503249360E+03  0.17272657902E+03  0.65721594332E+03  0.00000000000E+00 0.  1.
        -11    1    3    3    0    0  0.40762386649E+03  0.23938697395E+02  0.48024154408E+02  0.41114060512E+03  0.00000000000E+00 0. -1.
          2    1    6    6  502    0 -0.23637907895E+02 -0.33052550102E+02  0.26626057513E+02  0.48581567457E+02  0.00000000000E+00 0. -1.
          1    1    5    5  503    0 -0.24557094477E+03 -0.16356578635E+02 -0.15598192053E+03  0.29138116979E+03  0.00000000000E+00 0. -1.
         -2    1    5    5    0  503 -0.34996082295E+03  0.44068730247E+02 -0.30522077768E+03  0.46644866139E+03  0.00000000000E+00 0.  1.
         -1    1    6    6    0  502 -0.41380729142E+03 -0.12363079251E+03  0.37487550335E+03  0.57188520727E+03  0.00000000000E+00 0.  1.
<mgrwt>
<rscale>  0 0.24413469E+04</rscale>
<asrwt>0</asrwt>
<pdfrwt beam="1">  1        1 0.20059252E+00 0.24413469E+04</pdfrwt>
<pdfrwt beam="2">  1       -1 0.17581566E+00 0.24413469E+04</pdfrwt>
<totfact> 0.17908601E+00</totfact>
</mgrwt>
</event>
<event>
12    1  0.2214165E-007  0.1575672E+04  0.7818608E-02  0.8835635E-01
         -1   -1    0    0    0  501 -0.00000000000E+00  0.00000000000E+00  0.97280716168E+03  0.97280716168E+03  0.00000000000E+00 0.  1.
          1   -1    0    0  501    0  0.00000000000E+00 -0.00000000000E+00 -0.63803553495E+03  0.63803553495E+03  0.00000000000E+00 0. -1.
         23    2    1    2    0    0 -0.31279818052E+03  0.20268207567E+03  0.48355971249E+03  0.61726908161E+03  0.90930732081E+02 0.  0.
        254    2    1    2    0    0  0.31279818052E+03 -0.20268207567E+03 -0.14878808575E+03  0.99357361502E+03  0.90891578733E+03 0.  0.
        -24    2    4    4    0    0 -0.16976689243E+03  0.18764089127E+03  0.14454224046E+03  0.30238371764E+03  0.80706577027E+02 0.  0.
         24    2    4    4    0    0  0.48256507295E+03 -0.39032296694E+03 -0.29333032621E+03  0.69118989738E+03  0.80496744081E+02 0.  0.
         13    1    3    3    0    0 -0.29123850487E+03  0.18943698363E+03  0.47872229001E+03  0.59150762332E+03  0.00000000000E+00 0.  1.
        -13    1    3    3    0    0 -0.21559675650E+02  0.13245092038E+02  0.48374224743E+01  0.25761458293E+02  0.00000000000E+00 0. -1.
          2    1    6    6  502    0  0.22930846302E+02 -0.40807952464E+02 -0.94572146059E+01  0.47755121239E+02  0.00000000000E+00 0. -1.
          3    1    5    5  503    0 -0.46495197822E+02  0.33670380525E+02 -0.74598693534E+00  0.57411274517E+02  0.00000000000E+00 0. -1.
         -4    1    5    5    0  503 -0.12327169461E+03  0.15397051075E+03  0.14528822739E+03  0.24497244313E+03  0.00000000000E+00 0.  1.
         -1    1    6    6    0  502  0.45963422665E+03 -0.34951501447E+03 -0.28387311160E+03  0.64343477614E+03  0.00000000000E+00 0.  1.
<mgrwt>
<rscale>  0 0.15756720E+04</rscale>
<asrwt>0</asrwt>
<pdfrwt beam="1">  1        1 0.98159313E-01 0.15756720E+04</pdfrwt>
<pdfrwt beam="2">  1       -1 0.14966264E+00 0.15756720E+04</pdfrwt>
<totfact> 0.10566190E+01</totfact>
</mgrwt>
</event>
<event>
12    1  0.2214165E-007  0.1593641E+04  0.7818608E-02  0.8824464E-01
         -1   -1    0    0    0  501 -0.00000000000E+00  0.00000000000E+00  0.15148032204E+04  0.15148032204E+04  0.00000000000E+00 0.  1.
          1   -1    0    0  501    0  0.00000000000E+00 -0.00000000000E+00 -0.41914557546E+03  0.41914557546E+03  0.00000000000E+00 0. -1.
         23    2    1    2    0    0 -0.21356869135E+03 -0.33113613262E+03  0.82174168264E+03  0.91574786149E+03  0.89844468925E+02 0.  0.
        254    2    1    2    0    0  0.21356869135E+03  0.33113613262E+03  0.27391596233E+03  0.10182009344E+04  0.89802030274E+03 0.  0.
        -24    2    4    4    0    0 -0.92530344886E+02 -0.25061232710E+03  0.21845659332E+03  0.35374395604E+03  0.77737378704E+02 0.  0.
         24    2    4    4    0    0  0.30609903624E+03  0.58174845972E+03  0.55459369010E+02  0.66445697836E+03  0.79369037452E+02 0.  0.
         13    1    3    3    0    0 -0.16096875320E+03 -0.18178581301E+03  0.55051021333E+03  0.60167974562E+03  0.00000000000E+00 0.  1.
        -13    1    3    3    0    0 -0.52599938153E+02 -0.14935031961E+03  0.27123146931E+03  0.31406811587E+03  0.00000000000E+00 0. -1.
          2    1    6    6  502    0  0.27888535923E+03  0.50163730287E+03  0.71362641835E+02  0.57836809549E+03  0.00000000000E+00 0. -1.
          1    1    5    5  503    0 -0.93175705494E+02 -0.23917243752E+03  0.17970884304E+03  0.31333757392E+03  0.00000000000E+00 0. -1.
         -2    1    5    5    0  503  0.64536060765E+00 -0.11439889581E+02  0.38747750282E+02  0.40406382117E+02  0.00000000000E+00 0.  1.
         -1    1    6    6    0  502  0.27213677005E+02  0.80111156842E+02 -0.15903272825E+02  0.86088882867E+02  0.00000000000E+00 0.  1.
<mgrwt>
<rscale>  0 0.15936412E+04</rscale>
<asrwt>0</asrwt>
<pdfrwt beam="1">  1        1 0.64483935E-01 0.15936412E+04</pdfrwt>
<pdfrwt beam="2">  1       -1 0.23304665E+00 0.15936412E+04</pdfrwt>
<totfact> 0.48753869E+00</totfact>
</mgrwt>
</event>
<event>
12    1  0.2214165E-007  0.2109155E+04  0.7818608E-02  0.8557221E-01
          2   -1    0    0  501    0  0.00000000000E+00  0.00000000000E+00  0.21093891963E+04  0.21093891963E+04  0.00000000000E+00 0. -1.
         -2   -1    0    0    0  501 -0.00000000000E+00 -0.00000000000E+00 -0.52723019243E+03  0.52723019243E+03  0.00000000000E+00 0.  1.
         23    2    1    2    0    0 -0.83460857728E+03  0.48874948825E+02  0.40266724472E+03  0.93406889164E+03  0.10669370397E+03 0.  0.
        254    2    1    2    0    0  0.83460857728E+03 -0.48874948825E+02  0.11794917592E+04  0.17025504971E+04  0.89917581560E+03 0.  0.
        -24    2    4    4    0    0  0.65294536278E+03 -0.41682374147E+03  0.57607124545E+03  0.96859299075E+03  0.78959633206E+02 0.  0.
         24    2    4    4    0    0  0.18166321450E+03  0.36794879265E+03  0.60342051372E+03  0.73395750636E+03  0.78673167219E+02 0.  0.
         13    1    3    3    0    0 -0.37634602569E+03 -0.16357808635E+01  0.12856481012E+03  0.39770330302E+03  0.00000000000E+00 0.  1.
        -13    1    3    3    0    0 -0.45826255159E+03  0.50510729688E+02  0.27410243459E+03  0.53636558862E+03  0.00000000000E+00 0. -1.
          4    1    6    6  502    0  0.83885555695E+02  0.90080052054E+02  0.18731562392E+03  0.22413912018E+03  0.00000000000E+00 0. -1.
          1    1    5    5  503    0  0.60489283662E+03 -0.39967694245E+03  0.51657866598E+03  0.89021936638E+03  0.00000000000E+00 0. -1.
         -4    1    5    5    0  503  0.48052526156E+02 -0.17146799024E+02  0.59492579463E+02  0.78373624377E+02  0.00000000000E+00 0.  1.
         -3    1    6    6    0  502  0.97777658806E+02  0.27786874059E+03  0.41610488980E+03  0.50981838617E+03  0.00000000000E+00 0.  1.
<mgrwt>
<rscale>  0 0.21091550E+04</rscale>
<asrwt>0</asrwt>
<pdfrwt beam="1">  1        2 0.32452141E+00 0.21091550E+04</pdfrwt>
<pdfrwt beam="2">  1       -2 0.81112339E-01 0.21091550E+04</pdfrwt>
<totfact> 0.71623446E+00</totfact>
</mgrwt>
</event>
<event>
12    1  0.2214165E-007  0.2395346E+04  0.7818608E-02  0.8441248E-01
          2   -1    0    0  501    0  0.00000000000E+00  0.00000000000E+00  0.60399302817E+03  0.60399302817E+03  0.00000000000E+00 0. -1.
         -2   -1    0    0    0  501 -0.00000000000E+00 -0.00000000000E+00 -0.23748968674E+04  0.23748968674E+04  0.00000000000E+00 0.  1.
         23    2    1    2    0    0  0.75925565464E+03  0.50038454734E+03 -0.17029472977E+03  0.92866744523E+03  0.81049889022E+02 0.  0.
        254    2    1    2    0    0 -0.75925565464E+03 -0.50038454734E+03 -0.16006091095E+04  0.20502224503E+04  0.90255677399E+03 0.  0.
        -24    2    4    4    0    0 -0.23175150253E+03 -0.30230461870E+03 -0.13901483650E+04  0.14434748577E+04  0.77526426777E+02 0.  0.
         24    2    4    4    0    0 -0.52750415211E+03 -0.19807992864E+03 -0.21046074451E+03  0.60674759263E+03  0.79703372323E+02 0.  0.
         13    1    3    3    0    0  0.62669722773E+03  0.38865015394E+03 -0.11273443251E+03  0.74599424239E+03  0.00000000000E+00 0. -1.
        -13    1    3    3    0    0  0.13255842691E+03  0.11173439340E+03 -0.57560297264E+02  0.18267320284E+03  0.00000000000E+00 0.  1.
          2    1    6    6  502    0 -0.14554080443E+03 -0.34926274148E+02 -0.88423162527E+02  0.17384080663E+03  0.00000000000E+00 0. -1.
          1    1    5    5  503    0 -0.74651533100E+02 -0.14915213473E+03 -0.52008847742E+03  0.54617875740E+03  0.00000000000E+00 0. -1.
         -2    1    5    5    0  503 -0.15709996943E+03 -0.15315248397E+03 -0.87005988753E+03  0.89729610031E+03  0.00000000000E+00 0.  1.
         -1    1    6    6    0  502 -0.38196334768E+03 -0.16315365449E+03 -0.12203758198E+03  0.43290678600E+03  0.00000000000E+00 0.  1.
<mgrwt>
<rscale>  0 0.23953464E+04</rscale>
<asrwt>0</asrwt>
<pdfrwt beam="1">  1        2 0.92922006E-01 0.23953464E+04</pdfrwt>
<pdfrwt beam="2">  1       -2 0.36536874E+00 0.23953464E+04</pdfrwt>
<totfact> 0.55055030E-01</totfact>
</mgrwt>
</event>
<event>
12    1  0.2214165E-007  0.1435724E+04  0.7818608E-02  0.8928358E-01
         -2   -1    0    0    0  501 -0.00000000000E+00  0.00000000000E+00  0.42556250068E+03  0.42556250068E+03  0.00000000000E+00 0.  1.
          2   -1    0    0  501    0  0.00000000000E+00 -0.00000000000E+00 -0.12109279855E+04  0.12109279855E+04  0.00000000000E+00 0. -1.
         23    2    1    2    0    0 -0.18301909022E+03  0.18481312752E+03 -0.62647274589E+03  0.68441372896E+03  0.91116252959E+02 0.  0.
        254    2    1    2    0    0  0.18301909022E+03 -0.18481312752E+03 -0.15889273889E+03  0.95207675718E+03  0.90197082525E+03 0.  0.
        -24    2    4    4    0    0  0.30911002744E+03 -0.46862823164E+03 -0.24777535567E+03  0.61889493002E+03  0.80479059159E+02 0.  0.
         24    2    4    4    0    0 -0.12609093722E+03  0.28381510412E+03  0.88882616782E+02  0.33318182717E+03  0.81609267929E+02 0.  0.
         13    1    3    3    0    0 -0.12088318098E+03  0.14823608802E+03 -0.35182339156E+03  0.40045771323E+03  0.00000000000E+00 0.  1.
        -13    1    3    3    0    0 -0.62135909246E+02  0.36577039507E+02 -0.27464935433E+03  0.28395601573E+03  0.00000000000E+00 0. -1.
          4    1    6    6  502    0 -0.10583820610E+03  0.15263643257E+03  0.30715995171E+02  0.18826332297E+03  0.00000000000E+00 0. -1.
          1    1    5    5  503    0  0.19959433654E+03 -0.27286875849E+03 -0.10939866362E+03  0.35533551207E+03  0.00000000000E+00 0. -1.
         -2    1    5    5    0  503  0.10951569090E+03 -0.19575947316E+03 -0.13837669205E+03  0.26355941794E+03  0.00000000000E+00 0.  1.
         -3    1    6    6    0  502 -0.20252731122E+02  0.13117867155E+03  0.58166621611E+02  0.14491850419E+03  0.00000000000E+00 0.  1.
<mgrwt>
<rscale>  0 0.14357236E+04</rscale>
<asrwt>0</asrwt>
<pdfrwt beam="1">  1        2 0.18629661E+00 0.14357236E+04</pdfrwt>
<pdfrwt beam="2">  1       -2 0.65471156E-01 0.14357236E+04</pdfrwt>
<totfact> 0.38934999E+01</totfact>
</mgrwt>
</event>
<event>
12    1  0.2214165E-007  0.4193316E+04  0.7818608E-02  0.7966645E-01
         -2   -1    0    0    0  501 -0.00000000000E+00  0.00000000000E+00  0.21105308305E+04  0.21105308305E+04  0.00000000000E+00 0.  1.
          2   -1    0    0  501    0  0.00000000000E+00 -0.00000000000E+00 -0.20828761233E+04  0.20828761233E+04  0.00000000000E+00 0. -1.
         23    2    1    2    0    0 -0.16797619727E+04  0.10768681891E+04 -0.11216578059E+03  0.20005342156E+04  0.91162512913E+02 0.  0.
        254    2    1    2    0    0  0.16797619727E+04 -0.10768681891E+04  0.13982048776E+03  0.21928727381E+04  0.89883018148E+03 0.  0.
        -24    2    4    4    0    0  0.15081123564E+04 -0.81469807602E+03  0.41835068886E+03  0.17661663486E+04  0.78679332720E+02 0.  0.
         24    2    4    4    0    0  0.17164961634E+03 -0.26217011311E+03 -0.27853020110E+03  0.42670638958E+03  0.79388355468E+02 0.  0.
         13    1    3    3    0    0 -0.23179448874E+03  0.18238528483E+03 -0.31972502928E+02  0.29667375697E+03  0.00000000000E+00 0. -1.
        -13    1    3    3    0    0 -0.14479674840E+04  0.89448290430E+03 -0.80193277662E+02  0.17038604586E+04  0.00000000000E+00 0.  1.
          2    1    6    6  502    0  0.70593565107E+02 -0.17626261605E+03 -0.14953726136E+03  0.24168854707E+03  0.00000000000E+00 0. -1.
          1    1    5    5  503    0  0.13956916170E+04 -0.75008587440E+03  0.40752118386E+03  0.16360493342E+04  0.00000000000E+00 0. -1.
         -2    1    5    5    0  503  0.11242073943E+03 -0.64612201618E+02  0.10829505001E+02  0.13011701438E+03  0.00000000000E+00 0.  1.
         -1    1    6    6    0  502  0.10105605123E+03 -0.85907497056E+02 -0.12899293974E+03  0.18501784250E+03  0.00000000000E+00 0.  1.
<mgrwt>
<rscale>  0 0.41933158E+04</rscale>
<asrwt>0</asrwt>
<pdfrwt beam="1">  1        2 0.32044248E+00 0.41933158E+04</pdfrwt>
<pdfrwt beam="2">  1       -2 0.32469705E+00 0.41933158E+04</pdfrwt>
<totfact> 0.10447067E-01</totfact>
</mgrwt>
</event>
<event>
12    1  0.2214165E-007  0.1702562E+04  0.7818608E-02  0.8759904E-01
          1   -1    0    0  501    0  0.00000000000E+00  0.00000000000E+00  0.58249801605E+03  0.58249801605E+03  0.00000000000E+00 0. -1.
         -1   -1    0    0    0  501 -0.00000000000E+00 -0.00000000000E+00 -0.12440892485E+04  0.12440892485E+04  0.00000000000E+00 0.  1.
         23    2    1    2    0    0  0.57436111556E+03  0.76569656094E+02 -0.44857513524E+03  0.73824446149E+03  0.89619359886E+02 0.  0.
        254    2    1    2    0    0 -0.57436111556E+03 -0.76569656094E+02 -0.21301609725E+03  0.10883428031E+04  0.89630385253E+03 0.  0.
        -24    2    4    4    0    0 -0.90689108493E+02 -0.63742294554E+02  0.32992651556E+03  0.35706245470E+03  0.79715095019E+02 0.  0.
         24    2    4    4    0    0 -0.48367200707E+03 -0.12827361540E+02 -0.54294261281E+03  0.73128034840E+03  0.76688431496E+02 0.  0.
         13    1    3    3    0    0  0.19136751502E+03  0.10391378974E+02 -0.10003099784E+03  0.21618442842E+03  0.00000000000E+00 0. -1.
        -13    1    3    3    0    0  0.38299360054E+03  0.66178277121E+02 -0.34854413740E+03  0.52206003307E+03  0.00000000000E+00 0.  1.
          4    1    6    6  502    0 -0.37069840978E+03 -0.41108923711E+02 -0.40012010005E+03  0.54699483460E+03  0.00000000000E+00 0. -1.
          1    1    5    5  503    0 -0.72914759653E+02 -0.58493781100E+02  0.32458162230E+03  0.33777405782E+03  0.00000000000E+00 0. -1.
         -2    1    5    5    0  503 -0.17774348840E+02 -0.52485134548E+01  0.53448932572E+01  0.19288396877E+02  0.00000000000E+00 0.  1.
         -3    1    6    6    0  502 -0.11297359729E+03  0.28281562170E+02 -0.14282251276E+03  0.18428551379E+03  0.00000000000E+00 0.  1.
<mgrwt>
<rscale>  0 0.17025622E+04</rscale>
<asrwt>0</asrwt>
<pdfrwt beam="1">  1        1 0.89615080E-01 0.17025622E+04</pdfrwt>
<pdfrwt beam="2">  1       -1 0.19139834E+00 0.17025622E+04</pdfrwt>
<totfact> 0.58735599E+00</totfact>
</mgrwt>
</event>
<event>
12    1  0.2214165E-007  0.3005738E+04  0.7818608E-02  0.8242094E-01
         -1   -1    0    0    0  501 -0.00000000000E+00  0.00000000000E+00  0.10983070529E+04  0.10983070529E+04  0.00000000000E+00 0.  1.
          1   -1    0    0  501    0  0.00000000000E+00 -0.00000000000E+00 -0.20564514446E+04  0.20564514446E+04  0.00000000000E+00 0. -1.
         23    2    1    2    0    0 -0.32527464785E+03 -0.87435264526E+03 -0.14853642332E+04  0.17562419178E+04  0.88219178472E+02 0.  0.
        254    2    1    2    0    0  0.32527464785E+03  0.87435264526E+03  0.52721984157E+03  0.13985165798E+04  0.89866106952E+03 0.  0.
        -24    2    4    4    0    0  0.16852714514E+03  0.61644848877E+03 -0.14248432595E+03  0.65955840940E+03  0.79406387158E+02 0.  0.
         24    2    4    4    0    0  0.15674750270E+03  0.25790415649E+03  0.66970416752E+03  0.73895817041E+03  0.80443595673E+02 0.  0.
         13    1    3    3    0    0 -0.14244362946E+03 -0.37246518580E+03 -0.55434033734E+03  0.68287166570E+03  0.00000000000E+00 0.  1.
        -13    1    3    3    0    0 -0.18283101839E+03 -0.50188745946E+03 -0.93102389591E+03  0.10733702521E+04  0.00000000000E+00 0. -1.
          4    1    6    6  502    0  0.16498835942E+03  0.25429392244E+03  0.64536902950E+03  0.71301314292E+03  0.00000000000E+00 0. -1.
          1    1    5    5  503    0  0.83889274159E+02  0.44245214519E+03 -0.92915849708E+02  0.45982025426E+03  0.00000000000E+00 0. -1.
         -2    1    5    5    0  503  0.84637870985E+02  0.17399634358E+03 -0.49568476243E+02  0.19973815514E+03  0.00000000000E+00 0.  1.
         -3    1    6    6    0  502 -0.82408567134E+01  0.36102340500E+01  0.24335138021E+02  0.25945027496E+02  0.00000000000E+00 0.  1.
<mgrwt>
<rscale>  0 0.30057379E+04</rscale>
<asrwt>0</asrwt>
<pdfrwt beam="1">  1        1 0.31637714E+00 0.30057379E+04</pdfrwt>
<pdfrwt beam="2">  1       -1 0.16897032E+00 0.30057379E+04</pdfrwt>
<totfact> 0.58108426E-01</totfact>
</mgrwt>
</event>
<event>
12    1  0.2214165E-007  0.3205936E+04  0.7818608E-02  0.8187251E-01
         -1   -1    0    0    0  501 -0.00000000000E+00  0.00000000000E+00  0.17070197386E+04  0.17070197386E+04  0.00000000000E+00 0.  1.
          1   -1    0    0  501    0  0.00000000000E+00 -0.00000000000E+00 -0.15052590728E+04  0.15052590728E+04  0.00000000000E+00 0. -1.
         23    2    1    2    0    0  0.12503994208E+04  0.53317015705E+03 -0.48157628867E+03  0.14448568322E+04  0.89030420485E+02 0.  0.
        254    2    1    2    0    0 -0.12503994208E+04 -0.53317015705E+03  0.68333695452E+03  0.17674219792E+04  0.89947869967E+03 0.  0.
        -24    2    4    4    0    0 -0.59827126566E+03  0.12989472882E+03  0.54520947501E+03  0.82375263702E+03  0.80708657886E+02 0.  0.
         24    2    4    4    0    0 -0.65212815517E+03 -0.66306488587E+03  0.13812747951E+03  0.94366934218E+03  0.80662588181E+02 0.  0.
         11    1    3    3    0    0  0.60109021634E+03  0.29199222767E+03 -0.20460227959E+03  0.69887838857E+03  0.00000000000E+00 0.  1.
        -11    1    3    3    0    0  0.64930920448E+03  0.24117792938E+03 -0.27697400908E+03  0.74597844362E+03  0.00000000000E+00 0. -1.
          4    1    6    6  502    0 -0.26422242667E+03 -0.21457874597E+03  0.58772577584E+02  0.34541532226E+03  0.00000000000E+00 0. -1.
          1    1    5    5  503    0 -0.24474499500E+03  0.12758428734E+02  0.21513356470E+03  0.32610633349E+03  0.00000000000E+00 0. -1.
         -2    1    5    5    0  503 -0.35352627066E+03  0.11713630009E+03  0.33007591032E+03  0.49764630353E+03  0.00000000000E+00 0.  1.
         -3    1    6    6    0  502 -0.38790572850E+03 -0.44848613991E+03  0.79354901925E+02  0.59825401992E+03  0.00000000000E+00 0.  1.
<mgrwt>
<rscale>  0 0.32059363E+04</rscale>
<asrwt>0</asrwt>
<pdfrwt beam="1">  1        1 0.23157832E+00 0.32059363E+04</pdfrwt>
<pdfrwt beam="2">  1       -1 0.26261842E+00 0.32059363E+04</pdfrwt>
<totfact> 0.31296909E-01</totfact>
</mgrwt>
</event>
<event>
12    1  0.2214165E-007  0.1396524E+04  0.7818608E-02  0.8956339E-01
         -2   -1    0    0    0  501 -0.00000000000E+00  0.00000000000E+00  0.16479090296E+03  0.16479090296E+03  0.00000000000E+00 0.  1.
          2   -1    0    0  501    0  0.00000000000E+00 -0.00000000000E+00 -0.29587159522E+04  0.29587159522E+04  0.00000000000E+00 0. -1.
         23    2    1    2    0    0 -0.38991635888E+03 -0.89865260123E+02 -0.77345849955E+03  0.87694362773E+03  0.10335155439E+03 0.  0.
        254    2    1    2    0    0  0.38991635888E+03  0.89865260123E+02 -0.20204665497E+04  0.22465632274E+04  0.89702325752E+03 0.  0.
        -24    2    4    4    0    0 -0.27191450509E+03  0.59301572483E+02 -0.86321406598E+03  0.91059606013E+03  0.81194128111E+02 0.  0.
         24    2    4    4    0    0  0.66183086396E+03  0.30563687639E+02 -0.11572524837E+04  0.13359671673E+04  0.81367865633E+02 0.  0.
         13    1    3    3    0    0 -0.34816102000E+03 -0.78928605291E+02 -0.74237809860E+03  0.82375424846E+03  0.00000000000E+00 0. -1.
        -13    1    3    3    0    0 -0.41755338874E+02 -0.10936654831E+02 -0.31080400948E+02  0.53189379264E+02  0.00000000000E+00 0.  1.
          2    1    6    6  502    0  0.40865384654E+01  0.29260232969E+01 -0.56373197192E+00  0.50575886250E+01  0.00000000000E+00 0. -1.
          3    1    5    5  503    0 -0.11623578094E+03 -0.13291811927E+02 -0.31071950931E+03  0.33201512390E+03  0.00000000000E+00 0. -1.
         -2    1    5    5    0  503 -0.15567872415E+03  0.72593384411E+02 -0.55249455667E+03  0.57858093623E+03  0.00000000000E+00 0.  1.
         -1    1    6    6    0  502  0.65774432550E+03  0.27637664342E+02 -0.11566887518E+04  0.13309095787E+04  0.00000000000E+00 0.  1.
<mgrwt>
<rscale>  0 0.13965235E+04</rscale>
<asrwt>0</asrwt>
<pdfrwt beam="1">  1        2 0.45518701E+00 0.13965235E+04</pdfrwt>
<pdfrwt beam="2">  1       -2 0.25352450E-01 0.13965235E+04</pdfrwt>
<totfact> 0.25377285E+01</totfact>
</mgrwt>
</event>
<event>
12    1  0.2214165E-007  0.1949254E+04  0.7818608E-02  0.8630720E-01
         -1   -1    0    0    0  501 -0.00000000000E+00  0.00000000000E+00  0.15929689372E+04  0.15929689372E+04  0.00000000000E+00 0.  1.
          1   -1    0    0  501    0  0.00000000000E+00 -0.00000000000E+00 -0.59630673257E+03  0.59630673257E+03  0.00000000000E+00 0. -1.
         23    2    1    2    0    0  0.67847415043E+03  0.10200360376E+03  0.16512740899E+02  0.69250713935E+03  0.92528695296E+02 0.  0.
        254    2    1    2    0    0 -0.67847415043E+03 -0.10200360376E+03  0.98014946375E+03  0.14967685304E+04  0.89938376371E+03 0.  0.
        -24    2    4    4    0    0 -0.57663199816E+03  0.30915804521E+03  0.78108252202E+03  0.10219995141E+04  0.79435145655E+02 0.  0.
         24    2    4    4    0    0 -0.10184215227E+03 -0.41116164897E+03  0.19906694173E+03  0.47476901635E+03  0.79700978892E+02 0.  0.
         11    1    3    3    0    0  0.17496684409E+03 -0.11396710632E+02 -0.10761740424E+02  0.17566757413E+03  0.00000000000E+00 0.  1.
        -11    1    3    3    0    0  0.50350730634E+03  0.11340031439E+03  0.27274481323E+02  0.51683956522E+03  0.00000000000E+00 0. -1.
          2    1    6    6  502    0 -0.41179197438E+02 -0.14811899530E+03  0.11514970518E+03  0.19207919636E+03  0.00000000000E+00 0. -1.
          1    1    5    5  503    0 -0.55302303257E+03  0.31236704984E+03  0.74914400734E+03  0.98215293723E+03  0.00000000000E+00 0. -1.
         -2    1    5    5    0  503 -0.23608965590E+02 -0.32090046317E+01  0.31938514684E+02  0.39846576856E+02  0.00000000000E+00 0.  1.
         -1    1    6    6    0  502 -0.60662954832E+02 -0.26304265367E+03  0.83917236551E+02  0.28268981999E+03  0.00000000000E+00 0.  1.
<mgrwt>
<rscale>  0 0.19492543E+04</rscale>
<asrwt>0</asrwt>
<pdfrwt beam="1">  1        1 0.91739498E-01 0.19492543E+04</pdfrwt>
<pdfrwt beam="2">  1       -1 0.24507214E+00 0.19492543E+04</pdfrwt>
<totfact> 0.24175861E+00</totfact>
</mgrwt>
</event>
<event>
12    1  0.2214165E-007  0.1805139E+04  0.7818608E-02  0.8703571E-01
         -2   -1    0    0    0  501 -0.00000000000E+00  0.00000000000E+00  0.57044907802E+03  0.57044907802E+03  0.00000000000E+00 0.  1.
          2   -1    0    0  501    0  0.00000000000E+00 -0.00000000000E+00 -0.14280532153E+04  0.14280532153E+04  0.00000000000E+00 0. -1.
         23    2    1    2    0    0 -0.62932507008E+03 -0.21616283213E+03 -0.19685953065E+03  0.69960224175E+03  0.88956214060E+02 0.  0.
        254    2    1    2    0    0  0.62932507008E+03  0.21616283213E+03 -0.66074460662E+03  0.12989000516E+04  0.89876665212E+03 0.  0.
        -24    2    4    4    0    0  0.57536999429E+03  0.43931624923E+03 -0.74466834717E+03  0.10421113902E+04  0.86115068861E+02 0.  0.
         24    2    4    4    0    0  0.53955075797E+02 -0.22315341710E+03  0.83923740550E+02  0.25678866140E+03  0.78667811901E+02 0.  0.
         13    1    3    3    0    0 -0.19994245257E+03 -0.57303924452E+02 -0.20568872344E+02  0.20900670469E+03  0.00000000000E+00 0. -1.
        -13    1    3    3    0    0 -0.42938261751E+03 -0.15885890768E+03 -0.17629065830E+03  0.49059553705E+03  0.00000000000E+00 0.  1.
          2    1    6    6  502    0 -0.15982450051E+02 -0.98200181455E+02  0.34033667297E+02  0.10515229364E+03  0.00000000000E+00 0. -1.
          1    1    5    5  503    0  0.51979704045E+03  0.40335547123E+03 -0.70770278267E+03  0.96629593192E+03  0.00000000000E+00 0. -1.
         -2    1    5    5    0  503  0.55572953831E+02  0.35960777994E+02 -0.36965564503E+02  0.75815458255E+02  0.00000000000E+00 0.  1.
         -1    1    6    6    0  502  0.69937525848E+02 -0.12495323564E+03  0.49890073253E+02  0.15163636776E+03  0.00000000000E+00 0.  1.
<mgrwt>
<rscale>  0 0.18051389E+04</rscale>
<asrwt>0</asrwt>
<pdfrwt beam="1">  1        2 0.21970049E+00 0.18051389E+04</pdfrwt>
<pdfrwt beam="2">  1       -2 0.87761398E-01 0.18051389E+04</pdfrwt>
<totfact> 0.14739661E+01</totfact>
</mgrwt>
</event>
<event>
12    1  0.2214165E-007  0.1016032E+04  0.7818608E-02  0.9291134E-01
         -1   -1    0    0    0  501 -0.00000000000E+00  0.00000000000E+00  0.12537800682E+04  0.12537800682E+04  0.00000000000E+00 0. -1.
          1   -1    0    0  501    0  0.00000000000E+00 -0.00000000000E+00 -0.20584185873E+03  0.20584185873E+03  0.00000000000E+00 0.  1.
         23    2    1    2    0    0 -0.43150240835E+01  0.62631158781E+02  0.10431480521E+03  0.15400452003E+03  0.94310827171E+02 0.  0.
        254    2    1    2    0    0  0.43150240835E+01 -0.62631158781E+02  0.94362340425E+03  0.13056174069E+04  0.90015021115E+03 0.  0.
        -24    2    4    4    0    0  0.42439871630E+03  0.79508584433E+02  0.35641957984E+03  0.56539781929E+03  0.78764787646E+02 0.  0.
         24    2    4    4    0    0 -0.42008369222E+03 -0.14213974321E+03  0.58720382441E+03  0.74021958759E+03  0.80266377629E+02 0.  0.
         11    1    3    3    0    0 -0.12098008981E+00  0.34795734025E+02  0.11777119229E+03  0.12280395546E+03  0.00000000000E+00 0. -1.
        -11    1    3    3    0    0 -0.41940439937E+01  0.27835424757E+02 -0.13456387084E+02  0.31200564574E+02  0.00000000000E+00 0.  1.
          4    1    6    6  502    0 -0.21400972153E+03 -0.30808931639E+02  0.26969902835E+03  0.34566879679E+03  0.00000000000E+00 0. -1.
          1    1    5    5  503    0  0.16637269732E+03 -0.69823846849E+01  0.12605151571E+03  0.20884830074E+03  0.00000000000E+00 0. -1.
         -2    1    5    5    0  503  0.25802601898E+03  0.86490969118E+02  0.23036806412E+03  0.35654951855E+03  0.00000000000E+00 0.  1.
         -3    1    6    6    0  502 -0.20607397069E+03 -0.11133081157E+03  0.31750479606E+03  0.39455079080E+03  0.00000000000E+00 0.  1.
<mgrwt>
<rscale>  0 0.10160323E+04</rscale>
<asrwt>0</asrwt>
<pdfrwt beam="1">  1        1 0.31667979E-01 0.10160323E+04</pdfrwt>
<pdfrwt beam="2">  1       -1 0.19288924E+00 0.10160323E+04</pdfrwt>
<totfact> 0.24238328E+01</totfact>
</mgrwt>
</event>
<event>
12    1  0.2214165E-007  0.3312937E+04  0.7818608E-02  0.8159611E-01
         -2   -1    0    0    0  501 -0.00000000000E+00  0.00000000000E+00  0.85013435455E+03  0.85013435455E+03  0.00000000000E+00 0. -1.
          2   -1    0    0  501    0  0.00000000000E+00 -0.00000000000E+00 -0.32275922731E+04  0.32275922731E+04  0.00000000000E+00 0.  1.
         23    2    1    2    0    0  0.91862139605E+03 -0.68057888130E+02  0.40626280622E+03  0.10106488731E+04  0.88682193558E+02 0.  0.
        254    2    1    2    0    0 -0.91862139605E+03  0.68057888130E+02 -0.27837207248E+04  0.30670777546E+04  0.89964867239E+03 0.  0.
        -24    2    4    4    0    0 -0.31510916497E+03  0.44612326081E+03 -0.96067170602E+03  0.11082377775E+04  0.83552947994E+02 0.  0.
         24    2    4    4    0    0 -0.60351223108E+03 -0.37806537268E+03 -0.18230490187E+04  0.19588399770E+04  0.79911775398E+02 0.  0.
         13    1    3    3    0    0  0.75915524520E+03 -0.88129547112E+02  0.32400777470E+03  0.83009911544E+03  0.00000000000E+00 0.  1.
        -13    1    3    3    0    0  0.15946615085E+03  0.20071658982E+02  0.82255031520E+02  0.18054975761E+03  0.00000000000E+00 0. -1.
          2    1    6    6  502    0 -0.34073814616E+02 -0.15279068427E+02 -0.15249668146E+03  0.15700226951E+03  0.00000000000E+00 0. -1.
          3    1    5    5  503    0 -0.56880262926E+02  0.56966572558E+02 -0.94204916608E+02  0.12391578194E+03  0.00000000000E+00 0. -1.
         -4    1    5    5    0  503 -0.25822890205E+03  0.38915668825E+03 -0.86646678941E+03  0.98432199560E+03  0.00000000000E+00 0.  1.
         -1    1    6    6    0  502 -0.56943841646E+03 -0.36278630426E+03 -0.16705523373E+04  0.18018377075E+04  0.00000000000E+00 0.  1.
<mgrwt>
<rscale>  0 0.33129365E+04</rscale>
<asrwt>0</asrwt>
<pdfrwt beam="1">  1        2 0.49655265E+00 0.33129365E+04</pdfrwt>
<pdfrwt beam="2">  1       -2 0.13078990E+00 0.33129365E+04</pdfrwt>
<totfact> 0.44339209E-01</totfact>
</mgrwt>
</event>
<event>
12    1  0.2214165E-007  0.2824329E+04  0.7818608E-02  0.8295755E-01
         -2   -1    0    0    0  501 -0.00000000000E+00  0.00000000000E+00  0.99131358844E+03  0.99131358844E+03  0.00000000000E+00 0.  1.
          2   -1    0    0  501    0  0.00000000000E+00 -0.00000000000E+00 -0.20116830204E+04  0.20116830204E+04  0.00000000000E+00 0. -1.
         23    2    1    2    0    0  0.10162962224E+04 -0.16867471546E+03  0.32611643077E+03  0.10851737505E+04  0.99704418117E+02 0.  0.
        254    2    1    2    0    0 -0.10162962224E+04  0.16867471546E+03 -0.13464858627E+04  0.19178228583E+04  0.89649939548E+03 0.  0.
        -24    2    4    4    0    0 -0.79114011381E+03  0.50769965653E+03 -0.83621097967E+03  0.12601902168E+04  0.71895473056E+02 0.  0.
         24    2    4    4    0    0 -0.22515610861E+03 -0.33902494107E+03 -0.51027488301E+03  0.65763264151E+03  0.80417977122E+02 0.  0.
         11    1    3    3    0    0  0.72530135410E+03 -0.75605916591E+02  0.21858903763E+03  0.76128803764E+03  0.00000000000E+00 0. -1.
        -11    1    3    3    0    0  0.29099486832E+03 -0.93068798873E+02  0.10752739314E+03  0.32388571285E+03  0.00000000000E+00 0.  1.
          2    1    6    6  502    0 -0.68869003072E+02 -0.48084885947E+02 -0.89732783612E+02  0.12291081440E+03  0.00000000000E+00 0. -1.
          3    1    5    5  503    0 -0.62931232065E+03  0.43709701625E+03 -0.67839021430E+03  0.10233772918E+04  0.00000000000E+00 0. -1.
         -4    1    5    5    0  503 -0.16182779316E+03  0.70602640277E+02 -0.15782076537E+03  0.23681292498E+03  0.00000000000E+00 0.  1.
         -1    1    6    6    0  502 -0.15628710554E+03 -0.29094005512E+03 -0.42054209940E+03  0.53472182712E+03  0.00000000000E+00 0.  1.
<mgrwt>
<rscale>  0 0.28243291E+04</rscale>
<asrwt>0</asrwt>
<pdfrwt beam="1">  1        2 0.30948969E+00 0.28243291E+04</pdfrwt>
<pdfrwt beam="2">  1       -2 0.15250979E+00 0.28243291E+04</pdfrwt>
<totfact> 0.16387327E+00</totfact>
</mgrwt>
</event>
<event>
12    1  0.2214165E-007  0.2243316E+04  0.7818608E-02  0.8500612E-01
         -2   -1    0    0    0  501 -0.00000000000E+00  0.00000000000E+00  0.37549514368E+03  0.37549514368E+03  0.00000000000E+00 0.  1.
          2   -1    0    0  501    0  0.00000000000E+00 -0.00000000000E+00 -0.33505550786E+04  0.33505550786E+04  0.00000000000E+00 0. -1.
         23    2    1    2    0    0 -0.77891923785E+03 -0.24823738856E+03 -0.48706584662E+03  0.95578928043E+03  0.89235808223E+02 0.  0.
        254    2    1    2    0    0  0.77891923785E+03  0.24823738856E+03 -0.24879940883E+04  0.27702609419E+04  0.90326857708E+03 0.  0.
        -24    2    4    4    0    0  0.83211294924E+03  0.46821252884E+03 -0.17605731009E+04  0.20043820867E+04  0.79340867809E+02 0.  0.
         24    2    4    4    0    0 -0.53193711387E+02 -0.21997514029E+03 -0.72742098742E+03  0.76587885519E+03  0.78806691462E+02 0.  0.
         13    1    3    3    0    0 -0.60757429570E+03 -0.15390677437E+03 -0.37368699771E+03  0.72970938890E+03  0.00000000000E+00 0. -1.
        -13    1    3    3    0    0 -0.17134494215E+03 -0.94330614188E+02 -0.11337884890E+03  0.22607989153E+03  0.00000000000E+00 0.  1.
          4    1    6    6  502    0 -0.20137010867E+02 -0.10689885223E+03 -0.47533403523E+03  0.48762209637E+03  0.00000000000E+00 0. -1.
          1    1    5    5  503    0  0.42401211225E+03  0.23341964157E+03 -0.80991725774E+03  0.94352369593E+03  0.00000000000E+00 0. -1.
         -2    1    5    5    0  503  0.40810083699E+03  0.23479288727E+03 -0.95065584315E+03  0.10608583907E+04  0.00000000000E+00 0.  1.
         -3    1    6    6    0  502 -0.33056700520E+02 -0.11307628806E+03 -0.25208695218E+03  0.27825675882E+03  0.00000000000E+00 0.  1.
<mgrwt>
<rscale>  0 0.22433164E+04</rscale>
<asrwt>0</asrwt>
<pdfrwt beam="1">  1        2 0.51547002E+00 0.22433164E+04</pdfrwt>
<pdfrwt beam="2">  1       -2 0.57768482E-01 0.22433164E+04</pdfrwt>
<totfact> 0.26384021E+00</totfact>
</mgrwt>
</event>
<event>
12    1  0.2214165E-007  0.1766106E+04  0.7818608E-02  0.8724535E-01
         -2   -1    0    0    0  501 -0.00000000000E+00  0.00000000000E+00  0.31515917792E+03  0.31515917792E+03  0.00000000000E+00 0.  1.
          2   -1    0    0  501    0  0.00000000000E+00 -0.00000000000E+00 -0.24742490943E+04  0.24742490943E+04  0.00000000000E+00 0. -1.
         23    2    1    2    0    0 -0.60080856753E+03 -0.20821553820E+03 -0.58826311586E+03  0.87092807711E+03  0.90208518686E+02 0.  0.
        254    2    1    2    0    0  0.60080856753E+03  0.20821553820E+03 -0.15708268005E+04  0.19184801951E+04  0.89930238332E+03 0.  0.
        -24    2    4    4    0    0 -0.11018287337E+03 -0.18055917980E+03 -0.12271700949E+03  0.25721657736E+03  0.79743465277E+02 0.  0.
         24    2    4    4    0    0  0.71099144090E+03  0.38877471801E+03 -0.14481097910E+04  0.16612636177E+04  0.78231901558E+02 0.  0.
         13    1    3    3    0    0 -0.52752263892E+03 -0.17165137340E+03 -0.47002895884E+03  0.72709803377E+03  0.00000000000E+00 0.  1.
        -13    1    3    3    0    0 -0.73285928612E+02 -0.36564164801E+02 -0.11823415702E+03  0.14383004334E+03  0.00000000000E+00 0. -1.
          2    1    6    6  502    0  0.62895266110E+03  0.32190118097E+03 -0.12936637695E+04  0.14740311289E+04  0.00000000000E+00 0. -1.
          1    1    5    5  503    0 -0.13311106506E+02 -0.23809013048E+02  0.11136760901E+02  0.29463233056E+02  0.00000000000E+00 0. -1.
         -2    1    5    5    0  503 -0.96871766859E+02 -0.15675016676E+03 -0.13385377039E+03  0.22775334430E+03  0.00000000000E+00 0.  1.
         -1    1    6    6    0  502  0.82038779801E+02  0.66873537035E+02 -0.15444602147E+03  0.18723248888E+03  0.00000000000E+00 0.  1.
<mgrwt>
<rscale>  0 0.17661057E+04</rscale>
<asrwt>0</asrwt>
<pdfrwt beam="1">  1        2 0.38065371E+00 0.17661057E+04</pdfrwt>
<pdfrwt beam="2">  1       -2 0.48486027E-01 0.17661057E+04</pdfrwt>
<totfact> 0.13756936E+01</totfact>
</mgrwt>
</event>
<event>
12    1  0.2214165E-007  0.2132854E+04  0.7818608E-02  0.8546908E-01
         -2   -1    0    0    0  501 -0.00000000000E+00  0.00000000000E+00  0.68307466700E+03  0.68307466700E+03  0.00000000000E+00 0.  1.
          2   -1    0    0  501    0  0.00000000000E+00 -0.00000000000E+00 -0.16649221936E+04  0.16649221936E+04  0.00000000000E+00 0. -1.
         23    2    1    2    0    0 -0.24863262403E+03 -0.58732954840E+03 -0.10612662750E+04  0.12413315105E+04  0.88564283622E+02 0.  0.
        254    2    1    2    0    0  0.24863262403E+03  0.58732954840E+03  0.79418748468E+02  0.11066653501E+04  0.90090325743E+03 0.  0.
        -24    2    4    4    0    0  0.36898550491E+03  0.60113484650E+03  0.35555775228E+03  0.79394356148E+03  0.80072823753E+02 0.  0.
         24    2    4    4    0    0 -0.12035288088E+03 -0.13805298106E+02 -0.27613900381E+03  0.31272178857E+03  0.82865948544E+02 0.  0.
         11    1    3    3    0    0 -0.11099581854E+03 -0.17613406548E+03 -0.39236676485E+03  0.44417897172E+03  0.00000000000E+00 0. -1.
        -11    1    3    3    0    0 -0.13763680549E+03 -0.41119548292E+03 -0.66889951017E+03  0.79715253879E+03  0.00000000000E+00 0.  1.
          2    1    6    6  502    0 -0.11772461156E+03 -0.30867279096E+02 -0.26644119029E+03  0.29292111732E+03  0.00000000000E+00 0. -1.
          3    1    5    5  503    0  0.34219667499E+03  0.50655623256E+03  0.29865010083E+03  0.68035995167E+03  0.00000000000E+00 0. -1.
         -4    1    5    5    0  503  0.26788829924E+02  0.94578613945E+02  0.56907651448E+02  0.11358360981E+03  0.00000000000E+00 0.  1.
         -1    1    6    6    0  502 -0.26282693164E+01  0.17061980990E+02 -0.96978135168E+01  0.19800671249E+02  0.00000000000E+00 0.  1.
<mgrwt>
<rscale>  0 0.21328536E+04</rscale>
<asrwt>0</asrwt>
<pdfrwt beam="1">  1        2 0.25614187E+00 0.21328536E+04</pdfrwt>
<pdfrwt beam="2">  1       -2 0.10508841E+00 0.21328536E+04</pdfrwt>
<totfact> 0.69170535E+00</totfact>
</mgrwt>
</event>
<event>
12    1  0.2214165E-007  0.1470576E+04  0.7818608E-02  0.8904259E-01
          2   -1    0    0  501    0  0.00000000000E+00  0.00000000000E+00  0.59430961605E+03  0.59430961605E+03  0.00000000000E+00 0. -1.
         -2   -1    0    0    0  501 -0.00000000000E+00 -0.00000000000E+00 -0.90970780488E+03  0.90970780488E+03  0.00000000000E+00 0.  1.
         23    2    1    2    0    0 -0.43678361894E+03 -0.60977683117E+02  0.91532065479E+01  0.45080968680E+03  0.92991316290E+02 0.  0.
        254    2    1    2    0    0  0.43678361894E+03  0.60977683117E+02 -0.32455139538E+03  0.10532077341E+04  0.89967478312E+03 0.  0.
        -24    2    4    4    0    0 -0.95401387020E+02 -0.26898285323E+03 -0.30028142503E+03  0.42165397994E+03  0.78548994931E+02 0.  0.
         24    2    4    4    0    0  0.53218500596E+03  0.32996053635E+03 -0.24269970353E+02  0.63155375419E+03  0.78589292216E+02 0.  0.
         11    1    3    3    0    0 -0.24810160823E+03 -0.60240121155E+02  0.43603968166E+02  0.25900692316E+03  0.00000000000E+00 0. -1.
        -11    1    3    3    0    0 -0.18868201071E+03 -0.73756196187E+00 -0.34450761619E+02  0.19180276364E+03  0.00000000000E+00 0.  1.
          4    1    6    6  502    0  0.91598395733E+02  0.93802629206E+02 -0.65633359311E+00  0.13110922973E+03  0.00000000000E+00 0. -1.
          3    1    5    5  503    0 -0.13971804081E+02 -0.44637590565E+02 -0.98806334981E+02  0.10931796574E+03  0.00000000000E+00 0. -1.
         -2    1    5    5    0  503 -0.81429582938E+02 -0.22434526267E+03 -0.20147509005E+03  0.31233601420E+03  0.00000000000E+00 0.  1.
         -3    1    6    6    0  502  0.44058661023E+03  0.23615790714E+03 -0.23613636760E+02  0.50044452446E+03  0.00000000000E+00 0.  1.
<mgrwt>
<rscale>  0 0.14705755E+04</rscale>
<asrwt>0</asrwt>
<pdfrwt beam="1">  1        2 0.91432249E-01 0.14705755E+04</pdfrwt>
<pdfrwt beam="2">  1       -2 0.13995505E+00 0.14705755E+04</pdfrwt>
<totfact> 0.17452836E+01</totfact>
</mgrwt>
</event>
<event>
12    1  0.2214165E-007  0.3996989E+04  0.7818608E-02  0.8005154E-01
         -2   -1    0    0    0  501 -0.00000000000E+00  0.00000000000E+00  0.17971317144E+04  0.17971317144E+04  0.00000000000E+00 0.  1.
          2   -1    0    0  501    0  0.00000000000E+00 -0.00000000000E+00 -0.22224191998E+04  0.22224191998E+04  0.00000000000E+00 0. -1.
         23    2    1    2    0    0  0.14328785945E+04  0.30417075455E+03  0.10090697774E+04  0.17810525016E+04  0.90913602332E+02 0.  0.
        254    2    1    2    0    0 -0.14328785945E+04 -0.30417075455E+03 -0.14343572628E+04  0.22384984126E+04  0.89879556696E+03 0.  0.
        -24    2    4    4    0    0 -0.10322003046E+04 -0.55062650865E+03 -0.12829345766E+04  0.17380647624E+04  0.79504525380E+02 0.  0.
         24    2    4    4    0    0 -0.40067828989E+03  0.24645575409E+03 -0.15142268619E+03  0.50043365016E+03  0.78876343771E+02 0.  0.
         13    1    3    3    0    0  0.38467209981E+03  0.11071047154E+03  0.24091052870E+03  0.46719087717E+03  0.00000000000E+00 0.  1.
        -13    1    3    3    0    0  0.10482064947E+04  0.19346028302E+03  0.76815924870E+03  0.13138616244E+04  0.00000000000E+00 0. -1.
          4    1    6    6  502    0 -0.55378755630E+02  0.52601718672E+02 -0.51205660440E+02  0.91955244785E+02  0.00000000000E+00 0. -1.
          1    1    5    5  503    0 -0.31888728783E+03 -0.15566640973E+03 -0.44084181028E+03  0.56591751621E+03  0.00000000000E+00 0. -1.
         -2    1    5    5    0  503 -0.71331301680E+03 -0.39496009891E+03 -0.84209276636E+03  0.11721472462E+04  0.00000000000E+00 0.  1.
         -3    1    6    6    0  502 -0.34529953426E+03  0.19385403542E+03 -0.10021702575E+03  0.40847840538E+03  0.00000000000E+00 0.  1.
<mgrwt>
<rscale>  0 0.39969889E+04</rscale>
<asrwt>0</asrwt>
<pdfrwt beam="1">  1        2 0.34191064E+00 0.39969889E+04</pdfrwt>
<pdfrwt beam="2">  1       -2 0.27648180E+00 0.39969889E+04</pdfrwt>
<totfact> 0.17512980E-01</totfact>
</mgrwt>
</event>
<event>
12    1  0.2214165E-007  0.1587782E+04  0.7818608E-02  0.8828089E-01
          1   -1    0    0  501    0  0.00000000000E+00  0.00000000000E+00  0.63626972372E+03  0.63626972372E+03  0.00000000000E+00 0. -1.
         -1   -1    0    0    0  501 -0.00000000000E+00 -0.00000000000E+00 -0.99055910829E+03  0.99055910829E+03  0.00000000000E+00 0.  1.
         23    2    1    2    0    0 -0.29095976494E+03  0.41475992254E+03 -0.29168447978E+03  0.59113491251E+03  0.87620037043E+02 0.  0.
        254    2    1    2    0    0  0.29095976494E+03 -0.41475992254E+03 -0.62604904792E+02  0.10356939195E+04  0.90114324202E+03 0.  0.
        -24    2    4    4    0    0 -0.35824768505E+02 -0.51629545176E+03  0.23673934497E+03  0.57406022754E+03  0.75201195762E+02 0.  0.
         24    2    4    4    0    0  0.32678453344E+03  0.10153552922E+03 -0.29934424977E+03  0.46163369196E+03  0.80006816570E+02 0.  0.
         11    1    3    3    0    0 -0.15969541417E+03  0.27569021376E+03 -0.21872036240E+03  0.38645351104E+03  0.00000000000E+00 0.  1.
        -11    1    3    3    0    0 -0.13126435077E+03  0.13906970878E+03 -0.72964117378E+02  0.20468140147E+03  0.00000000000E+00 0. -1.
          2    1    6    6  502    0  0.36694797905E+02  0.21559370517E+02 -0.90315725147E+01  0.43507286200E+02  0.00000000000E+00 0. -1.
          3    1    5    5  503    0 -0.34979431843E+01 -0.32436432851E+03  0.11338644706E+03  0.34362907269E+03  0.00000000000E+00 0. -1.
         -4    1    5    5    0  503 -0.32326825321E+02 -0.19193112325E+03  0.12335289791E+03  0.23043115486E+03  0.00000000000E+00 0.  1.
         -1    1    6    6    0  502  0.29008973554E+03  0.79976158703E+02 -0.29031267725E+03  0.41812640576E+03  0.00000000000E+00 0.  1.
<mgrwt>
<rscale>  0 0.15877818E+04</rscale>
<asrwt>0</asrwt>
<pdfrwt beam="1">  1        1 0.97887650E-01 0.15877818E+04</pdfrwt>
<pdfrwt beam="2">  1       -1 0.15239371E+00 0.15877818E+04</pdfrwt>
<totfact> 0.10092165E+01</totfact>
</mgrwt>
</event>
<event>
12    1  0.2214165E-007  0.1110351E+04  0.7818608E-02  0.9195162E-01
         -2   -1    0    0    0  501 -0.00000000000E+00  0.00000000000E+00  0.14879965789E+03  0.14879965789E+03  0.00000000000E+00 0.  1.
          2   -1    0    0  501    0  0.00000000000E+00 -0.00000000000E+00 -0.20713729443E+04  0.20713729443E+04  0.00000000000E+00 0. -1.
         23    2    1    2    0    0  0.70951157679E+02 -0.74587204776E+02 -0.58911083328E+03  0.60620670534E+03  0.99185068503E+02 0.  0.
        254    2    1    2    0    0 -0.70951157679E+02  0.74587204776E+02 -0.13334624531E+04  0.16139658968E+04  0.90341932920E+03 0.  0.
        -24    2    4    4    0    0 -0.24546429925E+02 -0.34179877926E+03 -0.10355494114E+04  0.10936509329E+04  0.79251794164E+02 0.  0.
         24    2    4    4    0    0 -0.46404727755E+02  0.41638598404E+03 -0.29791304171E+03  0.52031496392E+03  0.80279479298E+02 0.  0.
         11    1    3    3    0    0  0.12495622956E+02 -0.11843999231E+02 -0.83247153097E+01  0.19123854105E+02  0.00000000000E+00 0.  1.
        -11    1    3    3    0    0  0.58455534723E+02 -0.62743205545E+02 -0.58078611797E+03  0.58708285123E+03  0.00000000000E+00 0. -1.
          2    1    6    6  502    0  0.14527443427E+02  0.10386608079E+03 -0.10295164668E+03  0.14696343391E+03  0.00000000000E+00 0. -1.
          3    1    5    5  503    0 -0.33713201781E+01  0.61705041115E-01 -0.53098730569E+02  0.53205683863E+02  0.00000000000E+00 0. -1.
         -4    1    5    5    0  503 -0.21175109746E+02 -0.34186048430E+03 -0.98245068080E+03  0.10404452490E+04  0.00000000000E+00 0.  1.
         -1    1    6    6    0  502 -0.60932171182E+02  0.31251990325E+03 -0.19496139503E+03  0.37335153001E+03  0.00000000000E+00 0.  1.
<mgrwt>
<rscale>  0 0.11103505E+04</rscale>
<asrwt>0</asrwt>
<pdfrwt beam="1">  1        2 0.31867276E+00 0.11103505E+04</pdfrwt>
<pdfrwt beam="2">  1       -2 0.22892255E-01 0.11103505E+04</pdfrwt>
<totfact> 0.10200976E+02</totfact>
</mgrwt>
</event>
<event>
12    1  0.2214165E-007  0.2409809E+04  0.7818608E-02  0.8435840E-01
          2   -1    0    0  501    0  0.00000000000E+00  0.00000000000E+00  0.15693436239E+04  0.15693436239E+04  0.00000000000E+00 0. -1.
         -2   -1    0    0    0  501 -0.00000000000E+00 -0.00000000000E+00 -0.92509661243E+03  0.92509661243E+03  0.00000000000E+00 0.  1.
         23    2    1    2    0    0 -0.97129826666E+03  0.16010966198E+03  0.60674519888E+03  0.11598236020E+04  0.89418256865E+02 0.  0.
        254    2    1    2    0    0  0.97129826666E+03 -0.16010966198E+03  0.37501812597E+02  0.13346166344E+04  0.90041087738E+03 0.  0.
        -24    2    4    4    0    0  0.28833554370E+03 -0.28713779036E+03 -0.34371991779E+03  0.53830283870E+03  0.77724306748E+02 0.  0.
         24    2    4    4    0    0  0.68296272296E+03  0.12702812838E+03  0.38122173039E+03  0.79631379566E+03  0.78812607443E+02 0.  0.
         11    1    3    3    0    0 -0.28061225727E+03  0.90454256221E+01  0.19215482907E+03  0.34021836663E+03  0.00000000000E+00 0.  1.
        -11    1    3    3    0    0 -0.69068600939E+03  0.15106423636E+03  0.41459036981E+03  0.81960523535E+03  0.00000000000E+00 0. -1.
          4    1    6    6  502    0  0.17235835949E+03 -0.31319044555E+00  0.80838639484E+02  0.19037433600E+03  0.00000000000E+00 0. -1.
          3    1    5    5  503    0  0.13841501034E+03 -0.10645086392E+03 -0.10644714038E+03  0.20450304450E+03  0.00000000000E+00 0. -1.
         -4    1    5    5    0  503  0.14992053336E+03 -0.18068692644E+03 -0.23727277741E+03  0.33379979420E+03  0.00000000000E+00 0.  1.
         -3    1    6    6    0  502  0.51060436346E+03  0.12734131882E+03  0.30038309090E+03  0.60593945966E+03  0.00000000000E+00 0.  1.
<mgrwt>
<rscale>  0 0.24098087E+04</rscale>
<asrwt>0</asrwt>
<pdfrwt beam="1">  1        2 0.24143748E+00 0.24098087E+04</pdfrwt>
<pdfrwt beam="2">  1       -2 0.14232256E+00 0.24098087E+04</pdfrwt>
<totfact> 0.35874907E+00</totfact>
</mgrwt>
</event>
<event>
12    1  0.2214165E-007  0.2599381E+04  0.7818608E-02  0.8368412E-01
          1   -1    0    0  501    0  0.00000000000E+00  0.00000000000E+00  0.27517357693E+04  0.27517357693E+04  0.00000000000E+00 0. -1.
         -1   -1    0    0    0  501 -0.00000000000E+00 -0.00000000000E+00 -0.61386528414E+03  0.61386528414E+03  0.00000000000E+00 0.  1.
         23    2    1    2    0    0  0.63451472694E+03  0.82073567519E+03  0.32739853833E+03  0.10917105671E+04  0.91794183229E+02 0.  0.
        254    2    1    2    0    0 -0.63451472694E+03 -0.82073567519E+03  0.18104719468E+04  0.22738904864E+04  0.90363338062E+03 0.  0.
        -24    2    4    4    0    0 -0.16327775897E+03 -0.76177086766E+03  0.65040170743E+03  0.10179582139E+04  0.79133196722E+02 0.  0.
         24    2    4    4    0    0 -0.47123696797E+03 -0.58964807537E+02  0.11600702394E+04  0.12559322725E+04  0.77857460939E+02 0.  0.
         11    1    3    3    0    0  0.23731042632E+03  0.35822371403E+03  0.10133738508E+03  0.44148582463E+03  0.00000000000E+00 0. -1.
        -11    1    3    3    0    0  0.39720430062E+03  0.46251196116E+03  0.22606115326E+03  0.65022474242E+03  0.00000000000E+00 0.  1.
          2    1    6    6  502    0 -0.24157666024E+03 -0.12735012091E+02  0.49823144321E+03  0.55385560782E+03  0.00000000000E+00 0. -1.
          3    1    5    5  503    0  0.23691229285E+01 -0.59051400106E+02  0.69993777989E+02  0.91606820462E+02  0.00000000000E+00 0. -1.
         -4    1    5    5    0  503 -0.16564688190E+03 -0.70271946755E+03  0.58040792944E+03  0.92635139343E+03  0.00000000000E+00 0.  1.
         -1    1    6    6    0  502 -0.22966030773E+03 -0.46229795446E+02  0.66183879620E+03  0.70207666468E+03  0.00000000000E+00 0.  1.
<mgrwt>
<rscale>  0 0.25993807E+04</rscale>
<asrwt>0</asrwt>
<pdfrwt beam="1">  1        1 0.42334396E+00 0.25993807E+04</pdfrwt>
<pdfrwt beam="2">  1       -1 0.94440815E-01 0.25993807E+04</pdfrwt>
<totfact> 0.86170809E-01</totfact>
</mgrwt>
</event>
<event>
12    1  0.2214165E-007  0.2534187E+04  0.7818608E-02  0.8390906E-01
          2   -1    0    0  501    0  0.00000000000E+00  0.00000000000E+00  0.21241815230E+04  0.21241815230E+04  0.00000000000E+00 0. -1.
         -2   -1    0    0    0  501 -0.00000000000E+00 -0.00000000000E+00 -0.75583291030E+03  0.75583291030E+03  0.00000000000E+00 0.  1.
         23    2    1    2    0    0 -0.43010992824E+02 -0.10255924005E+04  0.10661176668E+04  0.14827266903E+04  0.90453531209E+02 0.  0.
        254    2    1    2    0    0  0.43010992824E+02  0.10255924005E+04  0.30223094586E+03  0.13972877430E+04  0.89854314010E+03 0.  0.
        -24    2    4    4    0    0  0.20805878533E+03  0.10608299305E+04  0.43495954520E+03  0.11680412420E+04  0.80510480595E+02 0.  0.
         24    2    4    4    0    0 -0.16504779250E+03 -0.35237530046E+02 -0.13272859934E+03  0.22924650095E+03  0.80340648382E+02 0.  0.
         13    1    3    3    0    0 -0.38156150321E+02 -0.16802755618E+03  0.16007761697E+03  0.23518927463E+03  0.00000000000E+00 0. -1.
        -13    1    3    3    0    0 -0.48548425033E+01 -0.85756484427E+03  0.90604004983E+03  0.12475374157E+04  0.00000000000E+00 0.  1.
          2    1    6    6  502    0 -0.26284609354E+02  0.80417188277E+01 -0.61528582412E+02  0.67389289834E+02  0.00000000000E+00 0. -1.
          1    1    5    5  503    0  0.12923542947E+03  0.62198286558E+03  0.29738977638E+03  0.70143079516E+03  0.00000000000E+00 0. -1.
         -2    1    5    5    0  503  0.78823355857E+02  0.43884706491E+03  0.13756976882E+03  0.46661044685E+03  0.00000000000E+00 0.  1.
         -1    1    6    6    0  502 -0.13876318315E+03 -0.43279248874E+02 -0.71200016923E+02  0.16185721112E+03  0.00000000000E+00 0.  1.
<mgrwt>
<rscale>  0 0.25341873E+04</rscale>
<asrwt>0</asrwt>
<pdfrwt beam="1">  1        2 0.32679715E+00 0.25341873E+04</pdfrwt>
<pdfrwt beam="2">  1       -2 0.11628199E+00 0.25341873E+04</pdfrwt>
<totfact> 0.29067623E+00</totfact>
</mgrwt>
</event>
<event>
12    1  0.2214165E-007  0.3161154E+04  0.7818608E-02  0.8199152E-01
          1   -1    0    0  501    0  0.00000000000E+00  0.00000000000E+00  0.21093546525E+04  0.21093546525E+04  0.00000000000E+00 0. -1.
         -1   -1    0    0    0  501 -0.00000000000E+00 -0.00000000000E+00 -0.11843544924E+04  0.11843544924E+04  0.00000000000E+00 0.  1.
         23    2    1    2    0    0  0.62106612061E+03 -0.72868238023E+03  0.15613002383E+04  0.18341900018E+04  0.99465528956E+02 0.  0.
        254    2    1    2    0    0 -0.62106612061E+03  0.72868238023E+03 -0.63630007811E+03  0.14595191431E+04  0.89923145082E+03 0.  0.
        -24    2    4    4    0    0 -0.72451880631E+02  0.72867659676E+03 -0.49546603990E+03  0.88759903958E+03  0.78272605003E+02 0.  0.
         24    2    4    4    0    0 -0.54861423998E+03  0.57834645322E-02 -0.14083403821E+03  0.57192010348E+03  0.79251461241E+02 0.  0.
         11    1    3    3    0    0  0.33143406790E+03 -0.31383816875E+03  0.72162513033E+03  0.85386519208E+03  0.00000000000E+00 0. -1.
        -11    1    3    3    0    0  0.28963205271E+03 -0.41484421148E+03  0.83967510794E+03  0.98032480977E+03  0.00000000000E+00 0.  1.
          2    1    6    6  502    0 -0.16245771906E+03 -0.27009425709E+02 -0.67243563229E+02  0.17788680770E+03  0.00000000000E+00 0. -1.
          3    1    5    5  503    0  0.11399279942E+02  0.17239079992E+03 -0.13741165354E+03  0.22074984487E+03  0.00000000000E+00 0. -1.
         -4    1    5    5    0  503 -0.83851160573E+02  0.55628579684E+03 -0.35805438636E+03  0.66684919472E+03  0.00000000000E+00 0.  1.
         -1    1    6    6    0  502 -0.38615652092E+03  0.27015209174E+02 -0.73590474977E+02  0.39403329578E+03  0.00000000000E+00 0.  1.
<mgrwt>
<rscale>  0 0.31611540E+04</rscale>
<asrwt>0</asrwt>
<pdfrwt beam="1">  1        1 0.32451610E+00 0.31611540E+04</pdfrwt>
<pdfrwt beam="2">  1       -1 0.18220838E+00 0.31611540E+04</pdfrwt>
<totfact> 0.42300475E-01</totfact>
</mgrwt>
</event>
<event>
12    1  0.2214165E-007  0.3209446E+04  0.7818608E-02  0.8186327E-01
         -1   -1    0    0    0  501 -0.00000000000E+00  0.00000000000E+00  0.14350981936E+04  0.14350981936E+04  0.00000000000E+00 0.  1.
          1   -1    0    0  501    0  0.00000000000E+00 -0.00000000000E+00 -0.17943971956E+04  0.17943971956E+04  0.00000000000E+00 0. -1.
         23    2    1    2    0    0  0.14186674083E+04 -0.15597396722E+03  0.20726303790E+03  0.14449975022E+04  0.90081745550E+02 0.  0.
        254    2    1    2    0    0 -0.14186674083E+04  0.15597396722E+03 -0.56656203998E+03  0.17844978869E+04  0.90911774245E+03 0.  0.
        -24    2    4    4    0    0 -0.13260410741E+04 -0.16879699130E+03 -0.50906293414E+03  0.14326940549E+04  0.81177766657E+02 0.  0.
         24    2    4    4    0    0 -0.92626334211E+02  0.32477095853E+03 -0.57499105843E+02  0.35180383200E+03  0.80024844567E+02 0.  0.
         11    1    3    3    0    0  0.72315300710E+03 -0.12228799712E+03  0.12126858015E+03  0.74337789478E+03  0.00000000000E+00 0. -1.
        -11    1    3    3    0    0  0.69551440116E+03 -0.33685970101E+02  0.85994457755E+02  0.70161960746E+03  0.00000000000E+00 0.  1.
          4    1    6    6  502    0 -0.63392878249E+01  0.53132495936E+02 -0.38955295101E+02  0.66187337995E+02  0.00000000000E+00 0. -1.
          1    1    5    5  503    0 -0.11979583778E+03 -0.28419381931E+02 -0.26487959474E+02  0.12593774659E+03  0.00000000000E+00 0. -1.
         -2    1    5    5    0  503 -0.12062452363E+04 -0.14037760937E+03 -0.48257497467E+03  0.13067563084E+04  0.00000000000E+00 0.  1.
         -3    1    6    6    0  502 -0.86287046386E+02  0.27163846259E+03 -0.18543810743E+02  0.28561649401E+03  0.00000000000E+00 0.  1.
<mgrwt>
<rscale>  0 0.32094462E+04</rscale>
<asrwt>0</asrwt>
<pdfrwt beam="1">  1        1 0.27606111E+00 0.32094462E+04</pdfrwt>
<pdfrwt beam="2">  1       -1 0.22078434E+00 0.32094462E+04</pdfrwt>
<totfact> 0.37358858E-01</totfact>
</mgrwt>
</event>
<event>
12    1  0.2214165E-007  0.1519158E+04  0.7818608E-02  0.8871812E-01
         -2   -1    0    0    0  501 -0.00000000000E+00  0.00000000000E+00  0.40250355540E+03  0.40250355540E+03  0.00000000000E+00 0.  1.
          2   -1    0    0  501    0  0.00000000000E+00 -0.00000000000E+00 -0.14334299128E+04  0.14334299128E+04  0.00000000000E+00 0. -1.
         23    2    1    2    0    0  0.43520255682E+03  0.13642316179E+03 -0.53925643010E+03  0.71203689937E+03  0.90479302197E+02 0.  0.
        254    2    1    2    0    0 -0.43520255682E+03 -0.13642316179E+03 -0.49166992730E+03  0.11238965688E+04  0.90188227363E+03 0.  0.
        -24    2    4    4    0    0 -0.55810560371E+03 -0.65212688817E+02  0.38448442076E+02  0.56879547281E+03  0.79469789966E+02 0.  0.
         24    2    4    4    0    0  0.12290304689E+03 -0.71210472975E+02 -0.53011836937E+03  0.55510109602E+03  0.83280555134E+02 0.  0.
         11    1    3    3    0    0  0.56742525266E+02 -0.27234895147E+01 -0.36370503252E+02  0.67453280687E+02  0.00000000000E+00 0.  1.
        -11    1    3    3    0    0  0.37846003155E+03  0.13914665131E+03 -0.50288592685E+03  0.64458361868E+03  0.00000000000E+00 0. -1.
          2    1    6    6  502    0  0.11858695774E+03 -0.44040144666E+02 -0.49256050670E+03  0.50854523265E+03  0.00000000000E+00 0. -1.
          3    1    5    5  503    0 -0.38744599833E+03 -0.75940825294E+02  0.46877436232E+02  0.39759137892E+03  0.00000000000E+00 0. -1.
         -4    1    5    5    0  503 -0.17065960538E+03  0.10728136477E+02 -0.84289941563E+01  0.17120409389E+03  0.00000000000E+00 0.  1.
         -1    1    6    6    0  502  0.43160891473E+01 -0.27170328309E+02 -0.37557862668E+02  0.46555863371E+02  0.00000000000E+00 0.  1.
<mgrwt>
<rscale>  0 0.15191585E+04</rscale>
<asrwt>0</asrwt>
<pdfrwt beam="1">  1        2 0.22052768E+00 0.15191585E+04</pdfrwt>
<pdfrwt beam="2">  1       -2 0.61923623E-01 0.15191585E+04</pdfrwt>
<totfact> 0.32356040E+01</totfact>
</mgrwt>
</event>
<event>
12    1  0.2214165E-007  0.2193731E+04  0.7818608E-02  0.8521042E-01
          2   -1    0    0  501    0  0.00000000000E+00  0.00000000000E+00  0.38297716162E+04  0.38297716162E+04  0.00000000000E+00 0. -1.
         -2   -1    0    0    0  501 -0.00000000000E+00 -0.00000000000E+00 -0.31414762739E+03  0.31414762739E+03  0.00000000000E+00 0.  1.
         23    2    1    2    0    0  0.15111309897E+03 -0.81058843676E+03  0.73664066986E+03  0.11094456017E+04  0.91330630834E+02 0.  0.
        254    2    1    2    0    0 -0.15111309897E+03  0.81058843676E+03  0.27789833190E+04  0.30344736419E+04  0.89743702505E+03 0.  0.
        -24    2    4    4    0    0 -0.20583937638E+03  0.97623598396E+03  0.25255609017E+04  0.27165660551E+04  0.76594506348E+02 0.  0.
         24    2    4    4    0    0  0.54726277416E+02 -0.16564754720E+03  0.25342241724E+03  0.31790758678E+03  0.80051463671E+02 0.  0.
         13    1    3    3    0    0  0.15843431371E+03 -0.69520349086E+03  0.65167696218E+03  0.96596697071E+03  0.00000000000E+00 0. -1.
        -13    1    3    3    0    0 -0.73212147404E+01 -0.11538494590E+03  0.84963707684E+02  0.14347863098E+03  0.00000000000E+00 0.  1.
          4    1    6    6  502    0 -0.60817584934E+00 -0.16209847763E+02  0.83076633653E+02  0.84645473012E+02  0.00000000000E+00 0. -1.
          3    1    5    5  503    0 -0.37224318643E+02  0.30617419458E+03  0.71777785306E+03  0.78123833347E+03  0.00000000000E+00 0. -1.
         -4    1    5    5    0  503 -0.16861505774E+03  0.67006178938E+03  0.18077830487E+04  0.19353277217E+04  0.00000000000E+00 0.  1.
         -3    1    6    6    0  502  0.55334453265E+02 -0.14943769944E+03  0.17034578359E+03  0.23326211376E+03  0.00000000000E+00 0.  1.
<mgrwt>
<rscale>  0 0.21937308E+04</rscale>
<asrwt>0</asrwt>
<pdfrwt beam="1">  1        2 0.58919560E+00 0.21937308E+04</pdfrwt>
<pdfrwt beam="2">  1       -2 0.48330407E-01 0.21937308E+04</pdfrwt>
<totfact> 0.17385283E+00</totfact>
</mgrwt>
</event>
<event>
12    1  0.2214165E-007  0.1353755E+04  0.7818608E-02  0.8987991E-01
         -1   -1    0    0    0  501 -0.00000000000E+00  0.00000000000E+00  0.15229451464E+03  0.15229451464E+03  0.00000000000E+00 0.  1.
          1   -1    0    0  501    0  0.00000000000E+00 -0.00000000000E+00 -0.30084005442E+04  0.30084005442E+04  0.00000000000E+00 0. -1.
         23    2    1    2    0    0  0.68216955076E+02 -0.25470098438E+03 -0.19835374364E+03  0.34229351958E+03  0.91074154007E+02 0.  0.
        254    2    1    2    0    0 -0.68216955076E+02  0.25470098438E+03 -0.26577522860E+04  0.28184015393E+04  0.90011881371E+03 0.  0.
        -24    2    4    4    0    0  0.39553501932E+03  0.20403157774E+02 -0.97877267620E+03  0.10590685076E+04  0.82255162952E+02 0.  0.
         24    2    4    4    0    0 -0.46375197440E+03  0.23429782661E+03 -0.16789796098E+04  0.17593330317E+04  0.79491012069E+02 0.  0.
         11    1    3    3    0    0  0.10015442505E+02 -0.26401822659E+02 -0.66636350351E+02  0.72372429256E+02  0.00000000000E+00 0. -1.
        -11    1    3    3    0    0  0.58201512571E+02 -0.22829916172E+03 -0.13171739329E+03  0.26992109033E+03  0.00000000000E+00 0.  1.
          4    1    6    6  502    0 -0.40521000191E+01  0.14145918218E+02 -0.70847893869E+02  0.72359868591E+02  0.00000000000E+00 0. -1.
          1    1    5    5  503    0  0.50062518246E+02  0.26817824686E+02 -0.18046662783E+03  0.18919211192E+03  0.00000000000E+00 0. -1.
         -2    1    5    5    0  503  0.34547250108E+03 -0.64146669127E+01 -0.79830604837E+03  0.86987639571E+03  0.00000000000E+00 0.  1.
         -3    1    6    6    0  502 -0.45969987438E+03  0.22015190839E+03 -0.16081317159E+04  0.16869731631E+04  0.00000000000E+00 0.  1.
<mgrwt>
<rscale>  0 0.13537546E+04</rscale>
<asrwt>0</asrwt>
<pdfrwt beam="1">  1        1 0.46283084E+00 0.13537546E+04</pdfrwt>
<pdfrwt beam="2">  1       -1 0.23429926E-01 0.13537546E+04</pdfrwt>
<totfact> 0.91079099E+00</totfact>
</mgrwt>
</event>
<event>
12    1  0.2214165E-007  0.2094399E+04  0.7818608E-02  0.8563715E-01
          1   -1    0    0  501    0  0.00000000000E+00  0.00000000000E+00  0.10503591828E+04  0.10503591828E+04  0.00000000000E+00 0. -1.
         -1   -1    0    0    0  501 -0.00000000000E+00 -0.00000000000E+00 -0.10440488695E+04  0.10440488695E+04  0.00000000000E+00 0.  1.
         23    2    1    2    0    0 -0.11618234179E+03  0.55772628259E+03 -0.63148077573E+03  0.85375473986E+03  0.74647457333E+02 0.  0.
        254    2    1    2    0    0  0.11618234179E+03 -0.55772628259E+03  0.63779108911E+03  0.12406533124E+04  0.89882491369E+03 0.  0.
        -24    2    4    4    0    0  0.79968430617E+02 -0.21001543994E+02  0.68512383516E+03  0.69471244198E+03  0.79966823086E+02 0.  0.
         24    2    4    4    0    0  0.36213911176E+02 -0.53672473860E+03 -0.47332746054E+02  0.54594087045E+03  0.80163288333E+02 0.  0.
         13    1    3    3    0    0 -0.68975491465E+02  0.46725025470E+03 -0.52783140829E+03  0.70829825252E+03  0.00000000000E+00 0. -1.
        -13    1    3    3    0    0 -0.47206850328E+02  0.90476027888E+02 -0.10364936744E+03  0.14545648735E+03  0.00000000000E+00 0.  1.
          2    1    6    6  502    0  0.47445793468E+02 -0.50571565415E+03 -0.58096865980E+02  0.51124815110E+03  0.00000000000E+00 0. -1.
          1    1    5    5  503    0 -0.83211186945E+01  0.12455880147E+02  0.19518908011E+03  0.19576303778E+03  0.00000000000E+00 0. -1.
         -2    1    5    5    0  503  0.88289549312E+02 -0.33457424141E+02  0.48993475505E+03  0.49894940421E+03  0.00000000000E+00 0.  1.
         -1    1    6    6    0  502 -0.11231882292E+02 -0.31009084451E+02  0.10764119925E+02  0.34692719352E+02  0.00000000000E+00 0.  1.
<mgrwt>
<rscale>  0 0.20943985E+04</rscale>
<asrwt>0</asrwt>
<pdfrwt beam="1">  1        1 0.16159372E+00 0.20943985E+04</pdfrwt>
<pdfrwt beam="2">  1       -1 0.16062290E+00 0.20943985E+04</pdfrwt>
<totfact> 0.36789958E+00</totfact>
</mgrwt>
</event>
<event>
12    1  0.2214165E-007  0.2053981E+04  0.7818608E-02  0.8581791E-01
         -1   -1    0    0    0  501 -0.00000000000E+00  0.00000000000E+00  0.42335517312E+03  0.42335517312E+03  0.00000000000E+00 0.  1.
          1   -1    0    0  501    0  0.00000000000E+00 -0.00000000000E+00 -0.24913107340E+04  0.24913107340E+04  0.00000000000E+00 0. -1.
         23    2    1    2    0    0 -0.39921038053E+03 -0.70688495208E+03 -0.10625591349E+04  0.13403311741E+04  0.91654120317E+02 0.  0.
        254    2    1    2    0    0  0.39921038053E+03  0.70688495208E+03 -0.10053964259E+04  0.15743347330E+04  0.89925114109E+03 0.  0.
        -24    2    4    4    0    0  0.26035246369E+03  0.47482030161E+03 -0.18310849653E+02  0.54761807816E+03  0.79451545898E+02 0.  0.
         24    2    4    4    0    0  0.13885791684E+03  0.23206465046E+03 -0.98708557628E+03  0.10267166548E+04  0.81692296314E+02 0.  0.
         11    1    3    3    0    0 -0.80475198932E+02 -0.79149277298E+02 -0.15353979342E+03  0.19056582565E+03  0.00000000000E+00 0. -1.
        -11    1    3    3    0    0 -0.31873518160E+03 -0.62773567478E+03 -0.90901934151E+03  0.11497653485E+04  0.00000000000E+00 0.  1.
          4    1    6    6  502    0  0.11207950201E+03  0.20724510574E+03 -0.92641977437E+03  0.95591105599E+03  0.00000000000E+00 0. -1.
          1    1    5    5  503    0  0.22717222479E+03  0.45421781007E+03 -0.22368313018E+02  0.50835163040E+03  0.00000000000E+00 0. -1.
         -2    1    5    5    0  503  0.33180238899E+02  0.20602491538E+02  0.40574633653E+01  0.39266447764E+02  0.00000000000E+00 0.  1.
         -3    1    6    6    0  502  0.26778414829E+02  0.24819544724E+02 -0.60665801915E+02  0.70805598812E+02  0.00000000000E+00 0.  1.
<mgrwt>
<rscale>  0 0.20539808E+04</rscale>
<asrwt>0</asrwt>
<pdfrwt beam="1">  1        1 0.38327858E+00 0.20539808E+04</pdfrwt>
<pdfrwt beam="2">  1       -1 0.65131565E-01 0.20539808E+04</pdfrwt>
<totfact> 0.30323359E+00</totfact>
</mgrwt>
</event>
<event>
12    1  0.2214165E-007  0.2482617E+04  0.7818608E-02  0.8409205E-01
         -2   -1    0    0    0  501 -0.00000000000E+00  0.00000000000E+00  0.44244533486E+03  0.44244533486E+03  0.00000000000E+00 0.  1.
          2   -1    0    0  501    0  0.00000000000E+00 -0.00000000000E+00 -0.34825702757E+04  0.34825702757E+04  0.00000000000E+00 0. -1.
         23    2    1    2    0    0  0.36501979620E+03 -0.13671604015E+03  0.26217973635E+03  0.47993746978E+03  0.98341412943E+02 0.  0.
        254    2    1    2    0    0 -0.36501979620E+03  0.13671604015E+03 -0.33023046771E+04  0.34450781407E+04  0.90078659395E+03 0.  0.
        -24    2    4    4    0    0  0.84015340154E+02 -0.31713350054E+03 -0.11902421684E+04  0.12372441356E+04  0.80401474772E+02 0.  0.
         24    2    4    4    0    0 -0.44903513635E+03  0.45384954068E+03 -0.21120625087E+04  0.22078340051E+04  0.78172847234E+02 0.  0.
         11    1    3    3    0    0  0.17740449278E+03 -0.73077135784E+02  0.70886333798E+02  0.20454215739E+03  0.00000000000E+00 0. -1.
        -11    1    3    3    0    0  0.18761530342E+03 -0.63638904362E+02  0.19129340255E+03  0.27539531239E+03  0.00000000000E+00 0.  1.
          2    1    6    6  502    0 -0.19359424538E+03  0.17331472878E+03 -0.74066933336E+03  0.78492533941E+03  0.00000000000E+00 0. -1.
          3    1    5    5  503    0  0.55377502159E+02 -0.91045586102E+02 -0.46424330121E+03  0.47631692098E+03  0.00000000000E+00 0. -1.
         -4    1    5    5    0  503  0.28637837995E+02 -0.22608791443E+03 -0.72599886721E+03  0.76092721466E+03  0.00000000000E+00 0.  1.
         -1    1    6    6    0  502 -0.25544089097E+03  0.28053481190E+03 -0.13713931754E+04  0.14229086657E+04  0.00000000000E+00 0.  1.
<mgrwt>
<rscale>  0 0.24826171E+04</rscale>
<asrwt>0</asrwt>
<pdfrwt beam="1">  1        2 0.53578005E+00 0.24826171E+04</pdfrwt>
<pdfrwt beam="2">  1       -2 0.68068512E-01 0.24826171E+04</pdfrwt>
<totfact> 0.14775146E+00</totfact>
</mgrwt>
</event>
<event>
12    1  0.2214165E-007  0.1432353E+04  0.7818608E-02  0.8930727E-01
          1   -1    0    0  501    0  0.00000000000E+00  0.00000000000E+00  0.85317681096E+03  0.85317681096E+03  0.00000000000E+00 0. -1.
         -1   -1    0    0    0  501 -0.00000000000E+00 -0.00000000000E+00 -0.60117511987E+03  0.60117511987E+03  0.00000000000E+00 0.  1.
         23    2    1    2    0    0 -0.61858953756E+02  0.18549668633E+03 -0.30855633767E+03  0.37729994486E+03  0.94407012833E+02 0.  0.
        254    2    1    2    0    0  0.61858953756E+02 -0.18549668633E+03  0.56055802877E+03  0.10770519860E+04  0.89865462001E+03 0.  0.
        -24    2    4    4    0    0  0.26951429739E+03 -0.13832484553E+03 -0.13844388477E+03  0.34211269965E+03  0.78119591940E+02 0.  0.
         24    2    4    4    0    0 -0.20765534363E+03 -0.47171840807E+02  0.69900191355E+03  0.73493928632E+03  0.78652114614E+02 0.  0.
         13    1    3    3    0    0  0.63301013551E+01  0.85607984623E+02 -0.18731973867E+03  0.20605213347E+03  0.00000000000E+00 0.  1.
        -13    1    3    3    0    0 -0.68189055111E+02  0.99888701709E+02 -0.12123659901E+03  0.17124781139E+03  0.00000000000E+00 0. -1.
          2    1    6    6  502    0 -0.18603598020E+03 -0.66619352368E+02  0.62172437452E+03  0.65237161335E+03  0.00000000000E+00 0. -1.
          3    1    5    5  503    0  0.22342324486E+03 -0.11413266354E+03 -0.14479584707E+03  0.28967231238E+03  0.00000000000E+00 0. -1.
         -4    1    5    5    0  503  0.46091052521E+02 -0.24192181983E+02  0.63519622945E+01  0.52440387266E+02  0.00000000000E+00 0.  1.
         -1    1    6    6    0  502 -0.21619363426E+02  0.19447511562E+02  0.77277539027E+02  0.82567672965E+02  0.00000000000E+00 0.  1.
<mgrwt>
<rscale>  0 0.14323528E+04</rscale>
<asrwt>0</asrwt>
<pdfrwt beam="1">  1        1 0.13125797E+00 0.14323528E+04</pdfrwt>
<pdfrwt beam="2">  1       -1 0.92488481E-01 0.14323528E+04</pdfrwt>
<totfact> 0.22018680E+01</totfact>
</mgrwt>
</event>
<event>
12    1  0.2214165E-007  0.1951810E+04  0.7818608E-02  0.8629488E-01
          1   -1    0    0  501    0  0.00000000000E+00  0.00000000000E+00  0.10271797418E+04  0.10271797418E+04  0.00000000000E+00 0. -1.
         -1   -1    0    0    0  501 -0.00000000000E+00 -0.00000000000E+00 -0.92719004970E+03  0.92719004970E+03  0.00000000000E+00 0.  1.
         23    2    1    2    0    0 -0.19146896518E+03 -0.74156921806E+03  0.12529445333E+03  0.78162226099E+03  0.93002091568E+02 0.  0.
        254    2    1    2    0    0  0.19146896518E+03  0.74156921806E+03 -0.25304761221E+02  0.11727475305E+04  0.88775625572E+03 0.  0.
        -24    2    4    4    0    0  0.28871772723E+03  0.69420344720E+03  0.30574644046E+03  0.81561211325E+03  0.80410704009E+02 0.  0.
         24    2    4    4    0    0 -0.97248762053E+02  0.47365770869E+02 -0.33105120168E+03  0.35713541726E+03  0.79056752741E+02 0.  0.
         13    1    3    3    0    0 -0.50884990494E+02 -0.15236718284E+03  0.63507915658E+02  0.17273765083E+03  0.00000000000E+00 0. -1.
        -13    1    3    3    0    0 -0.14058397468E+03 -0.58920203523E+03  0.61786537674E+02  0.60888461016E+03  0.00000000000E+00 0.  1.
          4    1    6    6  502    0 -0.60646846031E+02  0.65530938239E+02 -0.18411302733E+03  0.20462148135E+03  0.00000000000E+00 0. -1.
          1    1    5    5  503    0  0.11712107258E+03  0.22049098537E+03  0.13370303127E+03  0.28321391358E+03  0.00000000000E+00 0. -1.
         -2    1    5    5    0  503  0.17159665465E+03  0.47371246183E+03  0.17204340918E+03  0.53239819968E+03  0.00000000000E+00 0.  1.
         -3    1    6    6    0  502 -0.36601916022E+02 -0.18165167370E+02 -0.14693817435E+03  0.15251393590E+03  0.00000000000E+00 0.  1.
<mgrwt>
<rscale>  0 0.19518103E+04</rscale>
<asrwt>0</asrwt>
<pdfrwt beam="1">  1        1 0.15802765E+00 0.19518103E+04</pdfrwt>
<pdfrwt beam="2">  1       -1 0.14264462E+00 0.19518103E+04</pdfrwt>
<totfact> 0.53571335E+00</totfact>
</mgrwt>
</event>
<event>
12    1  0.2214165E-007  0.2665100E+04  0.7818608E-02  0.8346419E-01
          1   -1    0    0  501    0  0.00000000000E+00  0.00000000000E+00  0.32876084561E+03  0.32876084561E+03  0.00000000000E+00 0. -1.
         -1   -1    0    0    0  501 -0.00000000000E+00 -0.00000000000E+00 -0.54011570394E+04  0.54011570394E+04  0.00000000000E+00 0.  1.
         23    2    1    2    0    0 -0.78161252331E+03 -0.45210772879E+03 -0.62195483163E+03  0.11002600476E+04  0.91786843907E+02 0.  0.
        254    2    1    2    0    0  0.78161252331E+03  0.45210772879E+03 -0.44504413621E+04  0.46296578374E+04  0.90110145844E+03 0.  0.
        -24    2    4    4    0    0  0.93587973982E+03  0.19565675074E+03 -0.35572030001E+04  0.36842504777E+04  0.76524157400E+02 0.  0.
         24    2    4    4    0    0 -0.15426721651E+03  0.25645097805E+03 -0.89323836198E+03  0.94540735968E+03  0.79717163639E+02 0.  0.
         13    1    3    3    0    0 -0.43950701696E+03 -0.24807117649E+03 -0.40210694474E+03  0.64528731707E+03  0.00000000000E+00 0. -1.
        -13    1    3    3    0    0 -0.34210550635E+03 -0.20403655230E+03 -0.21984788689E+03  0.45497273052E+03  0.00000000000E+00 0.  1.
          4    1    6    6  502    0 -0.15208903490E+03  0.24010062164E+03 -0.87834274630E+03  0.92318219384E+03  0.00000000000E+00 0. -1.
          3    1    5    5  503    0  0.87965666530E+03  0.19232664969E+03 -0.32779046059E+04  0.33993299332E+04  0.00000000000E+00 0. -1.
         -4    1    5    5    0  503  0.56223074520E+02  0.33301010426E+01 -0.27929839422E+03  0.28492054453E+03  0.00000000000E+00 0.  1.
         -3    1    6    6    0  502 -0.21781816104E+01  0.16350356410E+02 -0.14895615689E+02  0.22225165840E+02  0.00000000000E+00 0.  1.
<mgrwt>
<rscale>  0 0.26650996E+04</rscale>
<asrwt>0</asrwt>
<pdfrwt beam="1">  1        1 0.50578597E-01 0.26650996E+04</pdfrwt>
<pdfrwt beam="2">  1       -1 0.83094715E+00 0.26650996E+04</pdfrwt>
<totfact> 0.29359571E-03</totfact>
</mgrwt>
</event>
<event>
12    1  0.2214165E-007  0.1671192E+04  0.7818608E-02  0.8777967E-01
          1   -1    0    0  501    0  0.00000000000E+00  0.00000000000E+00  0.61203741616E+03  0.61203741616E+03  0.00000000000E+00 0. -1.
         -1   -1    0    0    0  501 -0.00000000000E+00 -0.00000000000E+00 -0.11408143165E+04  0.11408143165E+04  0.00000000000E+00 0.  1.
         23    2    1    2    0    0 -0.78056712806E+02  0.48286355954E+03  0.15508124308E+03  0.52125410327E+03  0.91681953937E+02 0.  0.
        254    2    1    2    0    0  0.78056712806E+02 -0.48286355954E+03 -0.68385814346E+03  0.12315976294E+04  0.89995593943E+03 0.  0.
        -24    2    4    4    0    0  0.14257576957E+03 -0.36710064825E+03  0.11381573748E+03  0.41917226225E+03  0.87525009741E+02 0.  0.
         24    2    4    4    0    0 -0.64519056761E+02 -0.11576291129E+03 -0.79767388094E+03  0.81242536718E+03  0.78661277578E+02 0.  0.
         13    1    3    3    0    0 -0.45440878538E+02  0.40628465560E+03  0.15717886395E+03  0.43799234022E+03  0.00000000000E+00 0. -1.
        -13    1    3    3    0    0 -0.32615834268E+02  0.76578903936E+02 -0.20976208667E+01  0.83261763050E+02  0.00000000000E+00 0.  1.
          2    1    6    6  502    0 -0.76457547977E+02 -0.71025139132E+02 -0.46647946175E+03  0.47800984850E+03  0.00000000000E+00 0. -1.
          3    1    5    5  503    0  0.13711953106E+03 -0.29930643250E+03  0.65314964593E+02  0.33563693321E+03  0.00000000000E+00 0. -1.
         -4    1    5    5    0  503  0.54562385091E+01 -0.67794215753E+02  0.48500772889E+02  0.83535329048E+02  0.00000000000E+00 0.  1.
         -1    1    6    6    0  502  0.11938491216E+02 -0.44737772154E+02 -0.33119441919E+03  0.33441551868E+03  0.00000000000E+00 0.  1.
<mgrwt>
<rscale>  0 0.16711924E+04</rscale>
<asrwt>0</asrwt>
<pdfrwt beam="1">  1        1 0.94159604E-01 0.16711924E+04</pdfrwt>
<pdfrwt beam="2">  1       -1 0.17550989E+00 0.16711924E+04</pdfrwt>
<totfact> 0.71175093E+00</totfact>
</mgrwt>
</event>
<event>
12    1  0.2214165E-007  0.2859925E+04  0.7818608E-02  0.8284902E-01
          1   -1    0    0  501    0  0.00000000000E+00  0.00000000000E+00  0.11241213528E+04  0.11241213528E+04  0.00000000000E+00 0. -1.
         -1   -1    0    0    0  501 -0.00000000000E+00 -0.00000000000E+00 -0.18190143729E+04  0.18190143729E+04  0.00000000000E+00 0.  1.
         23    2    1    2    0    0 -0.78873168908E+03  0.67335705608E+03  0.46969450591E+03  0.11420898962E+04  0.90824004406E+02 0.  0.
        254    2    1    2    0    0  0.78873168908E+03 -0.67335705608E+03 -0.11645875260E+04  0.18010458295E+04  0.90110741419E+03 0.  0.
        -24    2    4    4    0    0  0.19484176650E+03 -0.58079592132E+03 -0.99657187605E+03  0.11725320504E+04  0.79929273559E+02 0.  0.
         24    2    4    4    0    0  0.59388992258E+03 -0.92561134761E+02 -0.16801564992E+03  0.62851377913E+03  0.74347213338E+02 0.  0.
         13    1    3    3    0    0 -0.53353231637E+03  0.39959018650E+03  0.29030411359E+03  0.72705263093E+03  0.00000000000E+00 0.  1.
        -13    1    3    3    0    0 -0.25519937271E+03  0.27376686958E+03  0.17939039232E+03  0.41503726527E+03  0.00000000000E+00 0. -1.
          4    1    6    6  502    0  0.11520249144E+03  0.31773416530E+01 -0.11257038550E+02  0.11579477730E+03  0.00000000000E+00 0. -1.
          3    1    5    5  503    0  0.22532272670E+02 -0.53054977522E+02 -0.56133117092E+02  0.80457819918E+02  0.00000000000E+00 0. -1.
         -4    1    5    5    0  503  0.17230949383E+03 -0.52774094380E+03 -0.94043875896E+03  0.10920742304E+04  0.00000000000E+00 0.  1.
         -3    1    6    6    0  502  0.47868743114E+03 -0.95738476414E+02 -0.15675861137E+03  0.51271900183E+03  0.00000000000E+00 0.  1.
<mgrwt>
<rscale>  0 0.28599251E+04</rscale>
<asrwt>0</asrwt>
<pdfrwt beam="1">  1        1 0.17294175E+00 0.28599251E+04</pdfrwt>
<pdfrwt beam="2">  1       -1 0.27984836E+00 0.28599251E+04</pdfrwt>
<totfact> 0.46718690E-01</totfact>
</mgrwt>
</event>
<event>
12    1  0.2214165E-007  0.2445892E+04  0.7818608E-02  0.8422519E-01
          2   -1    0    0  501    0  0.00000000000E+00  0.00000000000E+00  0.11830734266E+04  0.11830734266E+04  0.00000000000E+00 0. -1.
         -2   -1    0    0    0  501 -0.00000000000E+00 -0.00000000000E+00 -0.12641626574E+04  0.12641626574E+04  0.00000000000E+00 0.  1.
         23    2    1    2    0    0 -0.90512103253E+03 -0.40639026237E+03  0.31788878994E+03  0.10457599119E+04  0.90351434724E+02 0.  0.
        254    2    1    2    0    0  0.90512103253E+03  0.40639026237E+03 -0.39897802075E+03  0.14014761721E+04  0.90584483835E+03 0.  0.
        -24    2    4    4    0    0  0.34186239230E+03  0.57691906166E+03  0.18556717453E+02  0.67556542281E+03  0.79616516920E+02 0.  0.
         24    2    4    4    0    0  0.56325864024E+03 -0.17052879929E+03 -0.41753473820E+03  0.72591074933E+03  0.79188327408E+02 0.  0.
         11    1    3    3    0    0 -0.75110560565E+03 -0.36361313424E+03  0.24238484582E+03  0.86897903065E+03  0.00000000000E+00 0. -1.
        -11    1    3    3    0    0 -0.15401542688E+03 -0.42777128130E+02  0.75503944121E+02  0.17678088128E+03  0.00000000000E+00 0.  1.
          2    1    6    6  502    0  0.56586074825E+03 -0.17092460024E+03 -0.41491134046E+03  0.72219459000E+03  0.00000000000E+00 0. -1.
          1    1    5    5  503    0  0.21609895819E+03  0.42413864344E+03 -0.67798322644E+01  0.47606545213E+03  0.00000000000E+00 0. -1.
         -2    1    5    5    0  503  0.12576343411E+03  0.15278041822E+03  0.25336549718E+02  0.19949997068E+03  0.00000000000E+00 0.  1.
         -1    1    6    6    0  502 -0.26021080102E+01  0.39580095336E+00 -0.26233977393E+01  0.37161593332E+01  0.00000000000E+00 0.  1.
<mgrwt>
<rscale>  0 0.24458923E+04</rscale>
<asrwt>0</asrwt>
<pdfrwt beam="1">  1        2 0.18201130E+00 0.24458923E+04</pdfrwt>
<pdfrwt beam="2">  1       -2 0.19448656E+00 0.24458923E+04</pdfrwt>
<totfact> 0.25124621E+00</totfact>
</mgrwt>
</event>
<event>
12    1  0.2214165E-007  0.2038543E+04  0.7818608E-02  0.8588810E-01
         -2   -1    0    0    0  501 -0.00000000000E+00  0.00000000000E+00  0.81223044161E+03  0.81223044161E+03  0.00000000000E+00 0.  1.
          2   -1    0    0  501    0  0.00000000000E+00 -0.00000000000E+00 -0.12790884796E+04  0.12790884796E+04  0.00000000000E+00 0. -1.
         23    2    1    2    0    0 -0.77758561931E+03  0.19036282674E+03 -0.28373592227E+02  0.80570508382E+03  0.86476703154E+02 0.  0.
        254    2    1    2    0    0  0.77758561931E+03 -0.19036282674E+03 -0.43848444581E+03  0.12856138374E+04  0.90534906452E+03 0.  0.
        -24    2    4    4    0    0  0.66354883176E+03 -0.39995925169E+02 -0.68963001867E+03  0.96112779363E+03  0.79248639615E+02 0.  0.
         24    2    4    4    0    0  0.11403678755E+03 -0.15036690157E+03  0.25114557285E+03  0.32448604381E+03  0.81255768161E+02 0.  0.
         13    1    3    3    0    0 -0.20273266309E+03  0.66864314086E+02  0.26812193065E+02  0.21515172060E+03  0.00000000000E+00 0.  1.
        -13    1    3    3    0    0 -0.57485295622E+03  0.12349851266E+03 -0.55185785292E+02  0.59055336321E+03  0.00000000000E+00 0. -1.
          4    1    6    6  502    0 -0.11655592472E+01 -0.29379077208E+02  0.98634079541E+01  0.31012505904E+02  0.00000000000E+00 0. -1.
          3    1    5    5  503    0  0.42979891907E+03 -0.32535205185E+00 -0.40341145574E+03  0.58946417984E+03  0.00000000000E+00 0. -1.
         -4    1    5    5    0  503  0.23374991269E+03 -0.39670573117E+02 -0.28621856292E+03  0.37166361379E+03  0.00000000000E+00 0.  1.
         -3    1    6    6    0  502  0.11520234680E+03 -0.12098782436E+03  0.24128216490E+03  0.29347353790E+03  0.00000000000E+00 0.  1.
<mgrwt>
<rscale>  0 0.20385432E+04</rscale>
<asrwt>0</asrwt>
<pdfrwt beam="1">  1        2 0.19678284E+00 0.20385432E+04</pdfrwt>
<pdfrwt beam="2">  1       -2 0.12495853E+00 0.20385432E+04</pdfrwt>
<totfact> 0.75586764E+00</totfact>
</mgrwt>
</event>
<event>
12    1  0.2214165E-007  0.1397299E+04  0.7818608E-02  0.8955776E-01
          1   -1    0    0  501    0  0.00000000000E+00  0.00000000000E+00  0.44874126225E+03  0.44874126225E+03  0.00000000000E+00 0. -1.
         -1   -1    0    0    0  501 -0.00000000000E+00 -0.00000000000E+00 -0.10877332668E+04  0.10877332668E+04  0.00000000000E+00 0.  1.
         23    2    1    2    0    0 -0.50141430263E+02  0.39071793626E+03 -0.27674605193E+03  0.48960962056E+03  0.89188197328E+02 0.  0.
        254    2    1    2    0    0  0.50141430263E+02 -0.39071793626E+03 -0.36224595261E+03  0.10468649085E+04  0.89973848294E+03 0.  0.
        -24    2    4    4    0    0  0.17954755904E+03 -0.61490424909E+03 -0.42214907544E+03  0.77130413053E+03  0.79722383086E+02 0.  0.
         24    2    4    4    0    0 -0.12940612877E+03  0.22418631283E+03  0.59903122830E+02  0.27556077796E+03  0.73074682343E+02 0.  0.
         11    1    3    3    0    0 -0.54087345927E+02  0.20551255999E+03 -0.18997866337E+03  0.28504867276E+03  0.00000000000E+00 0. -1.
        -11    1    3    3    0    0  0.39459156633E+01  0.18520537627E+03 -0.86767388554E+02  0.20456094780E+03  0.00000000000E+00 0.  1.
          4    1    6    6  502    0 -0.12968810662E+03  0.21563158366E+03  0.71088929099E+02  0.26147585110E+03  0.00000000000E+00 0. -1.
          3    1    5    5  503    0  0.12753426030E+03 -0.47077312364E+03 -0.35878385919E+03  0.60549003221E+03  0.00000000000E+00 0. -1.
         -4    1    5    5    0  503  0.52013298739E+02 -0.14413112545E+03 -0.63365216248E+02  0.16581409831E+03  0.00000000000E+00 0.  1.
         -3    1    6    6    0  502  0.28197784184E+00  0.85547291757E+01 -0.11185806269E+02  0.14084926860E+02  0.00000000000E+00 0.  1.
<mgrwt>
<rscale>  0 0.13972985E+04</rscale>
<asrwt>0</asrwt>
<pdfrwt beam="1">  1        1 0.69037118E-01 0.13972985E+04</pdfrwt>
<pdfrwt beam="2">  1       -1 0.16734358E+00 0.13972985E+04</pdfrwt>
<totfact> 0.12903840E+01</totfact>
</mgrwt>
</event>
<event>
12    1  0.2214165E-007  0.5120473E+04  0.7818608E-02  0.7810187E-01
          2   -1    0    0  501    0  0.00000000000E+00  0.00000000000E+00  0.48121832237E+04  0.48121832237E+04  0.00000000000E+00 0. -1.
         -2   -1    0    0    0  501 -0.00000000000E+00 -0.00000000000E+00 -0.13621284401E+04  0.13621284401E+04  0.00000000000E+00 0.  1.
         23    2    1    2    0    0  0.13895504047E+04 -0.19785132836E+04  0.23402917925E+04  0.33660227480E+04  0.88194814342E+02 0.  0.
        254    2    1    2    0    0 -0.13895504047E+04  0.19785132836E+04  0.11097629911E+04  0.28082889158E+04  0.89974863009E+03 0.  0.
        -24    2    4    4    0    0 -0.12747261326E+04  0.14157435297E+04  0.50902978079E+03  0.19733501545E+04  0.75782976536E+02 0.  0.
         24    2    4    4    0    0 -0.11482427213E+03  0.56276975388E+03  0.60073321027E+03  0.83493876124E+03  0.79673933911E+02 0.  0.
         11    1    3    3    0    0  0.46365261671E+03 -0.62114765638E+03  0.70251522308E+03  0.10461002814E+04  0.00000000000E+00 0. -1.
        -11    1    3    3    0    0  0.92589778801E+03 -0.13573656272E+04  0.16377765694E+04  0.23199224666E+04  0.00000000000E+00 0.  1.
          4    1    6    6  502    0 -0.88425756334E+02  0.27647375246E+03  0.26643570922E+03  0.39401121472E+03  0.00000000000E+00 0. -1.
          3    1    5    5  503    0 -0.56195300230E+02  0.46947834939E+02  0.30351173776E+02  0.79266668423E+02  0.00000000000E+00 0. -1.
         -4    1    5    5    0  503 -0.12185308324E+04  0.13687956948E+04  0.47867860702E+03  0.18940834861E+04  0.00000000000E+00 0.  1.
         -3    1    6    6    0  502 -0.26398515801E+02  0.28629600143E+03  0.33429750105E+03  0.44092754652E+03  0.00000000000E+00 0.  1.
<mgrwt>
<rscale>  0 0.51204733E+04</rscale>
<asrwt>0</asrwt>
<pdfrwt beam="1">  1        2 0.74033587E+00 0.51204733E+04</pdfrwt>
<pdfrwt beam="2">  1       -2 0.20955822E+00 0.51204733E+04</pdfrwt>
<totfact> 0.47232215E-03</totfact>
</mgrwt>
</event>
<event>
12    1  0.2214165E-007  0.2588607E+04  0.7818608E-02  0.8372081E-01
         -2   -1    0    0    0  501 -0.00000000000E+00  0.00000000000E+00  0.68967324514E+03  0.68967324514E+03  0.00000000000E+00 0.  1.
          2   -1    0    0  501    0  0.00000000000E+00 -0.00000000000E+00 -0.24290082298E+04  0.24290082298E+04  0.00000000000E+00 0. -1.
         23    2    1    2    0    0 -0.94680313953E+03  0.22332569922E+03 -0.14738646705E+04  0.17682911972E+04  0.90918305194E+02 0.  0.
        254    2    1    2    0    0  0.94680313953E+03 -0.22332569922E+03 -0.26547031417E+03  0.13503902777E+04  0.89820312933E+03 0.  0.
        -24    2    4    4    0    0  0.10103393398E+04 -0.13066545141E+03  0.31715936235E+02  0.10224406390E+04  0.80746009004E+02 0.  0.
         24    2    4    4    0    0 -0.63536200231E+02 -0.92660247805E+02 -0.29718625040E+03  0.32794963875E+03  0.81292852489E+02 0.  0.
         13    1    3    3    0    0 -0.45858443589E+03  0.96583645085E+02 -0.63042450757E+03  0.78553366897E+03  0.00000000000E+00 0.  1.
        -13    1    3    3    0    0 -0.48821870364E+03  0.12674205413E+03 -0.84344016290E+03  0.98275752821E+03  0.00000000000E+00 0. -1.
          4    1    6    6  502    0 -0.65844655119E+01 -0.58507224514E+02 -0.21150395295E+03  0.21954583262E+03  0.00000000000E+00 0. -1.
          1    1    5    5  503    0  0.98490960110E+03 -0.11401007873E+03  0.28830728294E+02  0.99190545481E+03  0.00000000000E+00 0. -1.
         -2    1    5    5    0  503  0.25429738666E+02 -0.16655372682E+02  0.28852079406E+01  0.30535184176E+02  0.00000000000E+00 0.  1.
         -3    1    6    6    0  502 -0.56951734719E+02 -0.34153023291E+02 -0.85682297451E+02  0.10840380613E+03  0.00000000000E+00 0.  1.
<mgrwt>
<rscale>  0 0.25886073E+04</rscale>
<asrwt>0</asrwt>
<pdfrwt beam="1">  1        2 0.37369357E+00 0.25886073E+04</pdfrwt>
<pdfrwt beam="2">  1       -2 0.10610358E+00 0.25886073E+04</pdfrwt>
<totfact> 0.24276906E+00</totfact>
</mgrwt>
</event>
<event>
12    1  0.2214165E-007  0.1694066E+04  0.7818608E-02  0.8764756E-01
         -2   -1    0    0    0  501 -0.00000000000E+00  0.00000000000E+00  0.52820898584E+03  0.52820898584E+03  0.00000000000E+00 0. -1.
          2   -1    0    0  501    0  0.00000000000E+00 -0.00000000000E+00 -0.13582981634E+04  0.13582981634E+04  0.00000000000E+00 0.  1.
         23    2    1    2    0    0 -0.25611541158E+03  0.42793642770E+02 -0.91108262074E+03  0.95152879508E+03  0.88933155508E+02 0.  0.
        254    2    1    2    0    0  0.25611541158E+03 -0.42793642770E+02  0.80993443221E+02  0.93497835411E+03  0.89453797287E+03 0.  0.
        -24    2    4    4    0    0  0.38914637336E+03 -0.37414733752E+03 -0.44168458010E+02  0.54802001895E+03  0.83390397593E+02 0.  0.
         24    2    4    4    0    0 -0.13303096178E+03  0.33135369475E+03  0.12516190123E+03  0.38695833517E+03  0.81109455773E+02 0.  0.
         13    1    3    3    0    0 -0.11723721758E+03 -0.60865918642E+01 -0.53335875463E+03  0.54612560179E+03  0.00000000000E+00 0.  1.
        -13    1    3    3    0    0 -0.13887819399E+03  0.48880234635E+02 -0.37772386610E+03  0.40540319329E+03  0.00000000000E+00 0. -1.
          4    1    6    6  502    0 -0.12471900218E+03  0.32912050181E+03  0.10866631287E+03  0.36835241518E+03  0.00000000000E+00 0. -1.
          3    1    5    5  503    0  0.35318298188E+03 -0.35276511574E+03 -0.61055641887E+02  0.50290082221E+03  0.00000000000E+00 0. -1.
         -4    1    5    5    0  503  0.35963391480E+02 -0.21382221786E+02  0.16887183878E+02  0.45119196741E+02  0.00000000000E+00 0.  1.
         -3    1    6    6    0  502 -0.83119595978E+01  0.22331929450E+01  0.16495588364E+02  0.18605919987E+02  0.00000000000E+00 0.  1.
<mgrwt>
<rscale>  0 0.16940665E+04</rscale>
<asrwt>0</asrwt>
<pdfrwt beam="1">  1        2 0.20896895E+00 0.16940665E+04</pdfrwt>
<pdfrwt beam="2">  1       -2 0.81262922E-01 0.16940665E+04</pdfrwt>
<totfact> 0.19426245E+01</totfact>
</mgrwt>
</event>
<event>
12    1  0.2214165E-007  0.1852917E+04  0.7818608E-02  0.8678654E-01
          2   -1    0    0  501    0  0.00000000000E+00  0.00000000000E+00  0.10435432425E+04  0.10435432425E+04  0.00000000000E+00 0. -1.
         -2   -1    0    0    0  501 -0.00000000000E+00 -0.00000000000E+00 -0.82251093907E+03  0.82251093907E+03  0.00000000000E+00 0.  1.
         23    2    1    2    0    0 -0.20098459805E+03  0.38408466934E+03 -0.45719484725E+03  0.63675655195E+03  0.92281830377E+02 0.  0.
        254    2    1    2    0    0  0.20098459805E+03 -0.38408466934E+03  0.67822715064E+03  0.12292976296E+04  0.92912041865E+03 0.  0.
        -24    2    4    4    0    0 -0.35012911809E+03 -0.28021905542E+03  0.35247371116E+03  0.57572012149E+03  0.78120566212E+02 0.  0.
         24    2    4    4    0    0  0.55111371615E+03 -0.10386561392E+03  0.32575343948E+03  0.65357750810E+03  0.80832307151E+02 0.  0.
         13    1    3    3    0    0 -0.12787385371E+03  0.20413504888E+03 -0.19199055262E+03  0.30803118826E+03  0.00000000000E+00 0. -1.
        -13    1    3    3    0    0 -0.73110744343E+02  0.17994962046E+03 -0.26520429463E+03  0.32872536369E+03  0.00000000000E+00 0.  1.
          4    1    6    6  502    0  0.32157101709E+03 -0.84321981161E+02  0.15487803561E+03  0.36674967138E+03  0.00000000000E+00 0. -1.
          3    1    5    5  503    0 -0.32929704407E+03 -0.25854826267E+03  0.29934071674E+03  0.51467330616E+03  0.00000000000E+00 0. -1.
         -4    1    5    5    0  503 -0.20832074018E+02 -0.21670792750E+02  0.53132994417E+02  0.61046815331E+02  0.00000000000E+00 0.  1.
         -3    1    6    6    0  502  0.22954269905E+03 -0.19543632760E+02  0.17087540387E+03  0.28682783672E+03  0.00000000000E+00 0.  1.
<mgrwt>
<rscale>  0 0.18529174E+04</rscale>
<asrwt>0</asrwt>
<pdfrwt beam="1">  1        2 0.16054511E+00 0.18529174E+04</pdfrwt>
<pdfrwt beam="2">  1       -2 0.12654014E+00 0.18529174E+04</pdfrwt>
<totfact> 0.10328379E+01</totfact>
</mgrwt>
</event>
<event>
12    1  0.2214165E-007  0.1425006E+04  0.7818608E-02  0.8935914E-01
         -2   -1    0    0    0  501 -0.00000000000E+00  0.00000000000E+00  0.28052968499E+03  0.28052968499E+03  0.00000000000E+00 0.  1.
          2   -1    0    0  501    0  0.00000000000E+00 -0.00000000000E+00 -0.18096509316E+04  0.18096509316E+04  0.00000000000E+00 0. -1.
         23    2    1    2    0    0 -0.24725802784E+03 -0.97139191757E+02 -0.94056821658E+03  0.98173105374E+03  0.92491820943E+02 0.  0.
        254    2    1    2    0    0  0.24725802784E+03  0.97139191757E+02 -0.58855303008E+03  0.11084495629E+04  0.90094018079E+03 0.  0.
        -24    2    4    4    0    0  0.97723778146E+02 -0.22642603345E+03  0.13917197769E+03  0.29422111516E+03  0.79865761081E+02 0.  0.
         24    2    4    4    0    0  0.14953424970E+03  0.32356522521E+03 -0.72772500777E+03  0.81422844773E+03  0.79557094979E+02 0.  0.
         11    1    3    3    0    0 -0.60218735948E+02 -0.57142252069E+02 -0.39434509367E+03  0.40298831997E+03  0.00000000000E+00 0. -1.
        -11    1    3    3    0    0 -0.18703929190E+03 -0.39996939688E+02 -0.54622312290E+03  0.57874273377E+03  0.00000000000E+00 0.  1.
          4    1    6    6  502    0  0.17354756374E+02  0.23157636529E+02 -0.12111453963E+03  0.12452387485E+03  0.00000000000E+00 0. -1.
          1    1    5    5  503    0  0.13554924177E+02 -0.10884156838E+03  0.32075521537E+02  0.11427625326E+03  0.00000000000E+00 0. -1.
         -2    1    5    5    0  503  0.84168853969E+02 -0.11758446507E+03  0.10709645616E+03  0.17994486190E+03  0.00000000000E+00 0.  1.
         -3    1    6    6    0  502  0.13217949332E+03  0.30040758868E+03 -0.60661046815E+03  0.68970457288E+03  0.00000000000E+00 0.  1.
<mgrwt>
<rscale>  0 0.14250064E+04</rscale>
<asrwt>0</asrwt>
<pdfrwt beam="1">  1        2 0.27840784E+00 0.14250064E+04</pdfrwt>
<pdfrwt beam="2">  1       -2 0.43158413E-01 0.14250064E+04</pdfrwt>
<totfact> 0.42152370E+01</totfact>
</mgrwt>
</event>
<event>
12    1  0.2214165E-007  0.1473885E+04  0.7818608E-02  0.8902007E-01
         -2   -1    0    0    0  501 -0.00000000000E+00  0.00000000000E+00  0.41005418354E+03  0.41005418354E+03  0.00000000000E+00 0.  1.
          2   -1    0    0  501    0  0.00000000000E+00 -0.00000000000E+00 -0.13244199649E+04  0.13244199649E+04  0.00000000000E+00 0. -1.
         23    2    1    2    0    0  0.40769980007E+03  0.12847862105E+03 -0.45996921229E+03  0.63458212053E+03  0.91634646306E+02 0.  0.
        254    2    1    2    0    0 -0.40769980007E+03 -0.12847862105E+03 -0.45439656911E+03  0.10998920279E+04  0.90584786144E+03 0.  0.
        -24    2    4    4    0    0  0.52755657600E+01  0.34895860836E+03 -0.22261347514E+03  0.42230904557E+03  0.83595626155E+02 0.  0.
         24    2    4    4    0    0 -0.41297536583E+03 -0.47743722941E+03 -0.23178309397E+03  0.67758298238E+03  0.83068252336E+02 0.  0.
         13    1    3    3    0    0  0.24980490453E+03  0.34691032486E+02 -0.24156154223E+03  0.34922476536E+03  0.00000000000E+00 0. -1.
        -13    1    3    3    0    0  0.15789489554E+03  0.93787588565E+02 -0.21840767007E+03  0.28535735517E+03  0.00000000000E+00 0.  1.
          4    1    6    6  502    0 -0.34220104746E+02 -0.20525737918E+02  0.14103326415E+01  0.39928818215E+02  0.00000000000E+00 0. -1.
          1    1    5    5  503    0  0.11112991727E+02  0.12566499640E+03 -0.12802393353E+03  0.17973680052E+03  0.00000000000E+00 0. -1.
         -2    1    5    5    0  503 -0.58374259668E+01  0.22329361196E+03 -0.94589541605E+02  0.24257224505E+03  0.00000000000E+00 0.  1.
         -3    1    6    6    0  502 -0.37875526108E+03 -0.45691149150E+03 -0.23319342662E+03  0.63765416416E+03  0.00000000000E+00 0.  1.
<mgrwt>
<rscale>  0 0.14738846E+04</rscale>
<asrwt>0</asrwt>
<pdfrwt beam="1">  1        2 0.20375692E+00 0.14738846E+04</pdfrwt>
<pdfrwt beam="2">  1       -2 0.63085258E-01 0.14738846E+04</pdfrwt>
<totfact> 0.36051480E+01</totfact>
</mgrwt>
</event>
<event>
12    1  0.2214165E-007  0.1319361E+04  0.7818608E-02  0.9014351E-01
          2   -1    0    0  501    0  0.00000000000E+00  0.00000000000E+00  0.12992136432E+04  0.12992136432E+04  0.00000000000E+00 0. -1.
         -2   -1    0    0    0  501 -0.00000000000E+00 -0.00000000000E+00 -0.33495511497E+03  0.33495511497E+03  0.00000000000E+00 0.  1.
         23    2    1    2    0    0 -0.28618028506E+02 -0.24453801770E+03 -0.52760833327E+02  0.26848304044E+03  0.93175124434E+02 0.  0.
        254    2    1    2    0    0  0.28618028506E+02  0.24453801770E+03  0.10170193615E+04  0.13656857177E+04  0.87758262526E+03 0.  0.
        -24    2    4    4    0    0  0.38289478891E+03  0.34563360572E+03  0.69870757884E+03  0.87234676665E+03  0.82009705410E+02 0.  0.
         24    2    4    4    0    0 -0.35427676041E+03 -0.10109558802E+03  0.31831178267E+03  0.49333895104E+03  0.79552427623E+02 0.  0.
         13    1    3    3    0    0 -0.30761030022E+02 -0.16903818793E+03  0.73216732875E+01  0.17197022081E+03  0.00000000000E+00 0.  1.
        -13    1    3    3    0    0  0.21430015160E+01 -0.75499829767E+02 -0.60082506615E+02  0.96512819623E+02  0.00000000000E+00 0. -1.
          2    1    6    6  502    0 -0.27591120199E+02 -0.33298109953E+02  0.38126134262E+02  0.57650985716E+02  0.00000000000E+00 0. -1.
          1    1    5    5  503    0  0.63330909080E+02  0.24695582044E+02  0.70863059410E+02  0.98194954078E+02  0.00000000000E+00 0. -1.
         -2    1    5    5    0  503  0.31956387983E+03  0.32093802368E+03  0.62784451943E+03  0.77415181258E+03  0.00000000000E+00 0.  1.
         -1    1    6    6    0  502 -0.32668564021E+03 -0.67797478068E+02  0.28018564841E+03  0.43568796532E+03  0.00000000000E+00 0.  1.
<mgrwt>
<rscale>  0 0.13193608E+04</rscale>
<asrwt>0</asrwt>
<pdfrwt beam="1">  1        2 0.19987902E+00 0.13193608E+04</pdfrwt>
<pdfrwt beam="2">  1       -2 0.51531557E-01 0.13193608E+04</pdfrwt>
<totfact> 0.57613572E+01</totfact>
</mgrwt>
</event>
<event>
12    1  0.2214165E-007  0.1426512E+04  0.7818608E-02  0.8934848E-01
          2   -1    0    0  501    0  0.00000000000E+00  0.00000000000E+00  0.16073275153E+04  0.16073275153E+04  0.00000000000E+00 0. -1.
         -2   -1    0    0    0  501 -0.00000000000E+00 -0.00000000000E+00 -0.31650925197E+03  0.31650925197E+03  0.00000000000E+00 0.  1.
         23    2    1    2    0    0 -0.23590254242E+03 -0.34168888159E+03  0.49874555350E+03  0.65546482303E+03  0.92117890643E+02 0.  0.
        254    2    1    2    0    0  0.23590254242E+03  0.34168888159E+03  0.79207270983E+03  0.12683719442E+04  0.89943699608E+03 0.  0.
        -24    2    4    4    0    0  0.39693044175E+03  0.53630376847E+03  0.36383379210E+03  0.76461037922E+03  0.84133798594E+02 0.  0.
         24    2    4    4    0    0 -0.16102789933E+03 -0.19461488688E+03  0.42823891773E+03  0.50376156501E+03  0.81130790460E+02 0.  0.
         11    1    3    3    0    0 -0.18021783529E+03 -0.31240532321E+03  0.44434497155E+03  0.57229189044E+03  0.00000000000E+00 0. -1.
        -11    1    3    3    0    0 -0.55684707125E+02 -0.29283558386E+02  0.54400581950E+02  0.83172932591E+02  0.00000000000E+00 0.  1.
          4    1    6    6  502    0 -0.16688593816E+03 -0.19756311423E+03  0.41992399791E+03  0.49317163796E+03  0.00000000000E+00 0. -1.
          1    1    5    5  503    0  0.31955987182E+03  0.38966673339E+03  0.30291268521E+03  0.58797514373E+03  0.00000000000E+00 0. -1.
         -4    1    5    5    0  503  0.77370569930E+02  0.14663703508E+03  0.60921106892E+02  0.17663523548E+03  0.00000000000E+00 0.  1.
         -3    1    6    6    0  502  0.58580388247E+01  0.29482273530E+01  0.83149198171E+01  0.10589927052E+02  0.00000000000E+00 0.  1.
<mgrwt>
<rscale>  0 0.14265119E+04</rscale>
<asrwt>0</asrwt>
<pdfrwt beam="1">  1        2 0.24728115E+00 0.14265119E+04</pdfrwt>
<pdfrwt beam="2">  1       -2 0.48693732E-01 0.14265119E+04</pdfrwt>
<totfact> 0.42854070E+01</totfact>
</mgrwt>
</event>
<event>
12    1  0.2214165E-007  0.2254930E+04  0.7818608E-02  0.8495906E-01
          2   -1    0    0  501    0  0.00000000000E+00  0.00000000000E+00  0.15513565926E+04  0.15513565926E+04  0.00000000000E+00 0. -1.
         -2   -1    0    0    0  501 -0.00000000000E+00 -0.00000000000E+00 -0.81939745451E+03  0.81939745451E+03  0.00000000000E+00 0.  1.
         23    2    1    2    0    0  0.32407067849E+03  0.75819258685E+03 -0.18569708644E+03  0.84987645194E+03  0.89043653604E+02 0.  0.
        254    2    1    2    0    0 -0.32407067849E+03 -0.75819258685E+03  0.91765622452E+03  0.15208775952E+04  0.88943684971E+03 0.  0.
        -24    2    4    4    0    0  0.61990979971E+02 -0.62721034509E+03  0.90427837367E+03  0.11051707973E+04  0.80295800917E+02 0.  0.
         24    2    4    4    0    0 -0.38606165846E+03 -0.13098224176E+03  0.13377850851E+02  0.41570679780E+03  0.80207375328E+02 0.  0.
         11    1    3    3    0    0  0.30070731990E+03  0.72411872657E+03 -0.15717475299E+03  0.79967288649E+03  0.00000000000E+00 0. -1.
        -11    1    3    3    0    0  0.23363358588E+02  0.34073860280E+02 -0.28522333448E+02  0.50203565453E+02  0.00000000000E+00 0.  1.
          4    1    6    6  502    0 -0.22650834042E+02  0.75168488388E+01  0.12186672266E+02  0.26796982670E+02  0.00000000000E+00 0. -1.
          3    1    5    5  503    0 -0.97748580385E+01 -0.20746365937E+02  0.19530766332E+02  0.30123253190E+02  0.00000000000E+00 0. -1.
         -2    1    5    5    0  503  0.71765838009E+02 -0.60646397915E+03  0.88474760734E+03  0.10750475442E+04  0.00000000000E+00 0.  1.
         -1    1    6    6    0  502 -0.36341082442E+03 -0.13849909060E+03  0.11911785843E+01  0.38890981513E+03  0.00000000000E+00 0.  1.
<mgrwt>
<rscale>  0 0.22549303E+04</rscale>
<asrwt>0</asrwt>
<pdfrwt beam="1">  1        2 0.23867024E+00 0.22549303E+04</pdfrwt>
<pdfrwt beam="2">  1       -2 0.12606115E+00 0.22549303E+04</pdfrwt>
<totfact> 0.50730740E+00</totfact>
</mgrwt>
</event>
<event>
12    1  0.2214165E-007  0.1502272E+04  0.7818608E-02  0.8882943E-01
         -3   -1    0    0    0  501 -0.00000000000E+00  0.00000000000E+00  0.55125904607E+03  0.55125904607E+03  0.00000000000E+00 0.  1.
          3   -1    0    0  501    0  0.00000000000E+00 -0.00000000000E+00 -0.10234853400E+04  0.10234853400E+04  0.00000000000E+00 0. -1.
         23    2    1    2    0    0  0.44106217341E+03 -0.39590302778E+02  0.34341394616E+02  0.45397944028E+03  0.93886995497E+02 0.  0.
        254    2    1    2    0    0 -0.44106217341E+03  0.39590302778E+02 -0.50656768858E+03  0.11207649458E+04  0.89632583796E+03 0.  0.
        -24    2    4    4    0    0 -0.51734220980E+03 -0.18893266444E+03 -0.26331510420E+01  0.55649613140E+03  0.79639795659E+02 0.  0.
         24    2    4    4    0    0  0.76280036381E+02  0.22852296722E+03 -0.50393453754E+03  0.56426881443E+03  0.80049274292E+02 0.  0.
         11    1    3    3    0    0  0.32791647611E+03 -0.69099950853E+02  0.35925739951E+02  0.33703809473E+03  0.00000000000E+00 0.  1.
        -11    1    3    3    0    0  0.11314569731E+03  0.29509648074E+02 -0.15843453343E+01  0.11694134555E+03  0.00000000000E+00 0. -1.
          2    1    6    6  502    0 -0.15017029145E+02  0.52673319001E+02 -0.89989314714E+02  0.10534736096E+03  0.00000000000E+00 0. -1.
          3    1    5    5  503    0 -0.11190253527E+03 -0.75400640831E+02 -0.10950528574E+02  0.13537853638E+03  0.00000000000E+00 0. -1.
         -4    1    5    5    0  503 -0.40543967453E+03 -0.11353202361E+03  0.83173775324E+01  0.42111759502E+03  0.00000000000E+00 0.  1.
         -1    1    6    6    0  502  0.91297065526E+02  0.17584964822E+03 -0.41394522282E+03  0.45892145346E+03  0.00000000000E+00 0.  1.
<mgrwt>
<rscale>  0 0.15022723E+04</rscale>
<asrwt>0</asrwt>
<pdfrwt beam="1">  1        3 0.15745928E+00 0.15022723E+04</pdfrwt>
<pdfrwt beam="2">  1       -3 0.84809085E-01 0.15022723E+04</pdfrwt>
<totfact> 0.92006555E-01</totfact>
</mgrwt>
</event>
<event>
12    1  0.2214165E-007  0.2059630E+04  0.7818608E-02  0.8579238E-01
          2   -1    0    0  501    0  0.00000000000E+00  0.00000000000E+00  0.14447005657E+04  0.14447005657E+04  0.00000000000E+00 0. -1.
         -2   -1    0    0    0  501 -0.00000000000E+00 -0.00000000000E+00 -0.73407541512E+03  0.73407541512E+03  0.00000000000E+00 0.  1.
         23    2    1    2    0    0 -0.11945309016E+03  0.21356369134E+03  0.11271093479E+04  0.11568046896E+04  0.89124165103E+02 0.  0.
        254    2    1    2    0    0  0.11945309016E+03 -0.21356369134E+03 -0.41648419733E+03  0.10219712912E+04  0.90060409858E+03 0.  0.
        -24    2    4    4    0    0  0.97946991700E+02  0.31786828295E+03 -0.33461455239E+03  0.47821057371E+03  0.78003818194E+02 0.  0.
         24    2    4    4    0    0  0.21506098463E+02 -0.53143197429E+03 -0.81869644943E+02  0.54376071747E+03  0.78042446981E+02 0.  0.
         13    1    3    3    0    0 -0.11195089964E+03  0.14171186396E+03  0.66517463618E+03  0.68925507103E+03  0.00000000000E+00 0.  1.
        -13    1    3    3    0    0 -0.75021905239E+01  0.71851827378E+02  0.46193471169E+03  0.46754961857E+03  0.00000000000E+00 0. -1.
          2    1    6    6  502    0  0.24029331945E+02 -0.24703159144E+03 -0.14638039842E+01  0.24820185069E+03  0.00000000000E+00 0. -1.
          1    1    5    5  503    0  0.57286164759E+02  0.10856006463E+03 -0.16557642117E+03  0.20611293883E+03  0.00000000000E+00 0. -1.
         -2    1    5    5    0  503  0.40660826941E+02  0.20930821832E+03 -0.16903813122E+03  0.27209763488E+03  0.00000000000E+00 0.  1.
         -1    1    6    6    0  502 -0.25232334822E+01 -0.28440038285E+03 -0.80405840958E+02  0.29555886678E+03  0.00000000000E+00 0.  1.
<mgrwt>
<rscale>  0 0.20596302E+04</rscale>
<asrwt>0</asrwt>
<pdfrwt beam="1">  1        2 0.22226163E+00 0.20596302E+04</pdfrwt>
<pdfrwt beam="2">  1       -2 0.11293468E+00 0.20596302E+04</pdfrwt>
<totfact> 0.77762353E+00</totfact>
</mgrwt>
</event>
<event>
12    1  0.2214165E-007  0.1224285E+04  0.7818608E-02  0.9091861E-01
         -2   -1    0    0    0  501 -0.00000000000E+00  0.00000000000E+00  0.32706708542E+03  0.32706708542E+03  0.00000000000E+00 0.  1.
          2   -1    0    0  501    0  0.00000000000E+00 -0.00000000000E+00 -0.11456932485E+04  0.11456932485E+04  0.00000000000E+00 0. -1.
         23    2    1    2    0    0  0.16057926196E+03 -0.34331957427E+01  0.72731789604E+02  0.19590936011E+03  0.85399519642E+02 0.  0.
        254    2    1    2    0    0 -0.16057926196E+03  0.34331957427E+01 -0.89135795267E+03  0.12768509738E+04  0.90001773499E+03 0.  0.
        -24    2    4    4    0    0 -0.50058601449E+03 -0.10600687216E+03 -0.67899934928E+03  0.85396800562E+03  0.79983895070E+02 0.  0.
         24    2    4    4    0    0  0.34000675252E+03  0.10944006790E+03 -0.21235860339E+03  0.42288296818E+03  0.78435375408E+02 0.  0.
         13    1    3    3    0    0  0.11833198080E+03  0.34611630068E+02  0.62191768372E+02  0.13808779334E+03  0.00000000000E+00 0.  1.
        -13    1    3    3    0    0  0.42247281168E+02 -0.38044825811E+02  0.10540021232E+02  0.57821566778E+02  0.00000000000E+00 0. -1.
          2    1    6    6  502    0  0.55075220972E+02  0.32678708954E+02 -0.71215741856E+02  0.95775048275E+02  0.00000000000E+00 0. -1.
          1    1    5    5  503    0 -0.18931466461E+03 -0.80068806303E+02 -0.26950923442E+03  0.33894879173E+03  0.00000000000E+00 0. -1.
         -2    1    5    5    0  503 -0.31127134988E+03 -0.25938065854E+02 -0.40949011486E+03  0.51501921390E+03  0.00000000000E+00 0.  1.
         -1    1    6    6    0  502  0.28493153155E+03  0.76761358946E+02 -0.14114286154E+03  0.32710791990E+03  0.00000000000E+00 0.  1.
<mgrwt>
<rscale>  0 0.12242852E+04</rscale>
<asrwt>0</asrwt>
<pdfrwt beam="1">  1        2 0.17626050E+00 0.12242852E+04</pdfrwt>
<pdfrwt beam="2">  1       -2 0.50318012E-01 0.12242852E+04</pdfrwt>
<totfact> 0.75149966E+01</totfact>
</mgrwt>
</event>
<event>
12    1  0.2214165E-007  0.1155231E+04  0.7818608E-02  0.9152972E-01
          1   -1    0    0  501    0  0.00000000000E+00  0.00000000000E+00  0.16116473041E+04  0.16116473041E+04  0.00000000000E+00 0. -1.
         -1   -1    0    0    0  501 -0.00000000000E+00 -0.00000000000E+00 -0.20701764090E+03  0.20701764090E+03  0.00000000000E+00 0.  1.
         23    2    1    2    0    0 -0.63164731889E+02  0.13159566745E+03  0.52187131146E+03  0.54954844456E+03  0.91359860687E+02 0.  0.
        254    2    1    2    0    0  0.63164731889E+02 -0.13159566745E+03  0.88275835175E+03  0.12691165004E+04  0.90004843263E+03 0.  0.
        -24    2    4    4    0    0  0.79328842687E+02  0.17372665034E+03 -0.10368971966E+03  0.23351598924E+03  0.85464290488E+02 0.  0.
         24    2    4    4    0    0 -0.16164110798E+02 -0.30532231779E+03  0.98644807142E+03  0.10356005112E+04  0.76848064335E+02 0.  0.
         13    1    3    3    0    0 -0.86668064960E+02  0.11133518313E+03  0.43409631861E+03  0.45644987711E+03  0.00000000000E+00 0. -1.
        -13    1    3    3    0    0  0.23503333071E+02  0.20260484323E+02  0.87774992855E+02  0.93098567450E+02  0.00000000000E+00 0.  1.
          2    1    6    6  502    0  0.15505977629E+01 -0.29426604371E+03  0.92753135211E+03  0.97309265642E+03  0.00000000000E+00 0. -1.
          1    1    5    5  503    0  0.79459514563E+02  0.18263001956E+03 -0.93617648802E+02  0.22007226691E+03  0.00000000000E+00 0. -1.
         -2    1    5    5    0  503 -0.13067187617E+00 -0.89033692192E+01 -0.10072070861E+02  0.13443722328E+02  0.00000000000E+00 0.  1.
         -1    1    6    6    0  502 -0.17714708561E+02 -0.11056274073E+02  0.58916719303E+02  0.62507854780E+02  0.00000000000E+00 0.  1.
<mgrwt>
<rscale>  0 0.11552306E+04</rscale>
<asrwt>0</asrwt>
<pdfrwt beam="1">  1        1 0.24794573E+00 0.11552306E+04</pdfrwt>
<pdfrwt beam="2">  1       -1 0.31848869E-01 0.11552306E+04</pdfrwt>
<totfact> 0.49943182E+01</totfact>
</mgrwt>
</event>
<event>
12    1  0.2214165E-007  0.2651905E+04  0.7818608E-02  0.8350781E-01
         -1   -1    0    0    0  501 -0.00000000000E+00  0.00000000000E+00  0.38315376114E+03  0.38315376114E+03  0.00000000000E+00 0.  1.
          1   -1    0    0  501    0  0.00000000000E+00 -0.00000000000E+00 -0.45886286189E+04  0.45886286189E+04  0.00000000000E+00 0. -1.
         23    2    1    2    0    0  0.97929664691E+03  0.61376589140E+03 -0.15046947938E+04  0.18994462170E+04  0.89772025501E+02 0.  0.
        254    2    1    2    0    0 -0.97929664691E+03 -0.61376589140E+03 -0.27007800640E+04  0.30723361631E+04  0.89961439128E+03 0.  0.
        -24    2    4    4    0    0 -0.11059322001E+04 -0.35298861704E+03 -0.21087065688E+04  0.24084328417E+04  0.78856608774E+02 0.  0.
         24    2    4    4    0    0  0.12663555320E+03 -0.26077727436E+03 -0.59207349521E+03  0.66390332141E+03  0.78582735329E+02 0.  0.
         11    1    3    3    0    0  0.16604281466E+03  0.67082640806E+02 -0.21940682441E+03  0.28321308514E+03  0.00000000000E+00 0. -1.
        -11    1    3    3    0    0  0.81325383225E+03  0.54668325059E+03 -0.12852879694E+04  0.16162331318E+04  0.00000000000E+00 0.  1.
          2    1    6    6  502    0  0.15162187091E+02 -0.11624772043E+03 -0.21127339259E+03  0.24161926836E+03  0.00000000000E+00 0. -1.
          3    1    5    5  503    0 -0.25495794904E+03 -0.52180614228E+02 -0.50888052655E+03  0.57156431185E+03  0.00000000000E+00 0. -1.
         -4    1    5    5    0  503 -0.85097425107E+03 -0.30080800281E+03 -0.15998260422E+04  0.18368685298E+04  0.00000000000E+00 0.  1.
         -1    1    6    6    0  502  0.11147336611E+03 -0.14452955393E+03 -0.38080010262E+03  0.42228405306E+03  0.00000000000E+00 0.  1.
<mgrwt>
<rscale>  0 0.26519052E+04</rscale>
<asrwt>0</asrwt>
<pdfrwt beam="1">  1        1 0.70594285E+00 0.26519052E+04</pdfrwt>
<pdfrwt beam="2">  1       -1 0.58946734E-01 0.26519052E+04</pdfrwt>
<totfact> 0.66798465E-02</totfact>
</mgrwt>
</event>
<event>
12    1  0.2214165E-007  0.1599020E+04  0.7818608E-02  0.8821150E-01
          2   -1    0    0  501    0  0.00000000000E+00  0.00000000000E+00  0.90196422991E+03  0.90196422991E+03  0.00000000000E+00 0. -1.
         -2   -1    0    0    0  501 -0.00000000000E+00 -0.00000000000E+00 -0.70869349886E+03  0.70869349886E+03  0.00000000000E+00 0.  1.
         23    2    1    2    0    0 -0.84611335037E+02 -0.35361787690E+03 -0.33697725268E+03  0.50384156167E+03  0.89988719087E+02 0.  0.
        254    2    1    2    0    0  0.84611335037E+02  0.35361787690E+03  0.53024798373E+03  0.11068161671E+04  0.90092975454E+03 0.  0.
        -24    2    4    4    0    0 -0.18776071603E+03 -0.18587111848E+03 -0.31689257370E+02  0.27699727369E+03  0.76948823443E+02 0.  0.
         24    2    4    4    0    0  0.27237205107E+03  0.53948899538E+03  0.56193724110E+03  0.82981889341E+03  0.87126474645E+02 0.  0.
         11    1    3    3    0    0 -0.50174580669E+01 -0.11850417388E+03 -0.15918852827E+03  0.19851801340E+03  0.00000000000E+00 0.  1.
        -11    1    3    3    0    0 -0.79593876970E+02 -0.23511370303E+03 -0.17778872441E+03  0.30532354827E+03  0.00000000000E+00 0. -1.
          2    1    6    6  502    0  0.21502492856E+03  0.40393266221E+03  0.37328640459E+03  0.59054217068E+03  0.00000000000E+00 0. -1.
          1    1    5    5  503    0 -0.15671352199E+03 -0.15348819168E+03  0.44299433251E+01  0.21940231849E+03  0.00000000000E+00 0. -1.
         -2    1    5    5    0  503 -0.31047194044E+02 -0.32382926798E+02 -0.36119200695E+02  0.57594955203E+02  0.00000000000E+00 0.  1.
         -1    1    6    6    0  502  0.57347122514E+02  0.13555633316E+03  0.18865083652E+03  0.23927672273E+03  0.00000000000E+00 0.  1.
<mgrwt>
<rscale>  0 0.15990199E+04</rscale>
<asrwt>0</asrwt>
<pdfrwt beam="1">  1        2 0.13876373E+00 0.15990199E+04</pdfrwt>
<pdfrwt beam="2">  1       -2 0.10902977E+00 0.15990199E+04</pdfrwt>
<totfact> 0.18820289E+01</totfact>
</mgrwt>
</event>
<event>
12    1  0.2214165E-007  0.1117948E+04  0.7818608E-02  0.9187873E-01
          1   -1    0    0  501    0  0.00000000000E+00  0.00000000000E+00  0.10969523274E+04  0.10969523274E+04  0.00000000000E+00 0. -1.
         -1   -1    0    0    0  501 -0.00000000000E+00 -0.00000000000E+00 -0.28483631050E+03  0.28483631050E+03  0.00000000000E+00 0.  1.
         23    2    1    2    0    0 -0.11185493692E+03  0.11544715391E+03  0.21734043233E+03  0.28600816535E+03  0.93403612703E+02 0.  0.
        254    2    1    2    0    0  0.11185493692E+03 -0.11544715391E+03  0.59477558459E+03  0.10957804726E+04  0.90616625173E+03 0.  0.
        -24    2    4    4    0    0 -0.25404311437E+03 -0.73942963597E+02  0.65809198369E+03  0.71379703985E+03  0.80097997897E+02 0.  0.
         24    2    4    4    0    0  0.36589805129E+03 -0.41504190310E+02 -0.63316399099E+02  0.38198343272E+03  0.79362426425E+02 0.  0.
         13    1    3    3    0    0 -0.28745026381E+02 -0.56047451072E+01  0.79058615095E+02  0.84308684785E+02  0.00000000000E+00 0. -1.
        -13    1    3    3    0    0 -0.83109910535E+02  0.12105189901E+03  0.13828181723E+03  0.20169948057E+03  0.00000000000E+00 0.  1.
          4    1    6    6  502    0  0.33721846332E+03 -0.39183581449E+02 -0.79913944789E+02  0.34876623063E+03  0.00000000000E+00 0. -1.
          3    1    5    5  503    0 -0.21126960693E+03 -0.90904160985E+02  0.56260719923E+03  0.60780364750E+03  0.00000000000E+00 0. -1.
         -4    1    5    5    0  503 -0.42773507444E+02  0.16961197389E+02  0.95484784469E+02  0.10599339235E+03  0.00000000000E+00 0.  1.
         -3    1    6    6    0  502  0.28679587967E+02 -0.23206088606E+01  0.16597545689E+02  0.33217202085E+02  0.00000000000E+00 0.  1.
<mgrwt>
<rscale>  0 0.11179479E+04</rscale>
<asrwt>0</asrwt>
<pdfrwt beam="1">  1        1 0.16876190E+00 0.11179479E+04</pdfrwt>
<pdfrwt beam="2">  1       -1 0.43820971E-01 0.11179479E+04</pdfrwt>
<totfact> 0.65247970E+01</totfact>
</mgrwt>
</event>
<event>
12    1  0.2214165E-007  0.1571551E+04  0.7818608E-02  0.8838218E-01
          2   -1    0    0  501    0  0.00000000000E+00  0.00000000000E+00  0.15021298508E+04  0.15021298508E+04  0.00000000000E+00 0. -1.
         -2   -1    0    0    0  501 -0.00000000000E+00 -0.00000000000E+00 -0.41104515206E+03  0.41104515206E+03  0.00000000000E+00 0.  1.
         23    2    1    2    0    0  0.51665460367E+03  0.11238872344E+03  0.35004484048E+03  0.64064880859E+03  0.91303345737E+02 0.  0.
        254    2    1    2    0    0 -0.51665460367E+03 -0.11238872344E+03  0.74103985828E+03  0.12725261943E+04  0.88916794755E+03 0.  0.
        -24    2    4    4    0    0 -0.71886457280E+03 -0.25626200485E+03  0.61080019857E+03  0.98102545671E+03  0.83051640496E+02 0.  0.
         24    2    4    4    0    0  0.20220996912E+03  0.14387328141E+03  0.13023965971E+03  0.29150073758E+03  0.80136872480E+02 0.  0.
         13    1    3    3    0    0  0.25200410595E+03  0.22115344314E+02  0.20522395850E+03  0.32574841675E+03  0.00000000000E+00 0. -1.
        -13    1    3    3    0    0  0.26465049772E+03  0.90273379124E+02  0.14482088198E+03  0.31490039184E+03  0.00000000000E+00 0.  1.
          4    1    6    6  502    0  0.48112438761E+01 -0.93238634806E+01  0.21442065376E+01  0.10708880404E+02  0.00000000000E+00 0. -1.
          3    1    5    5  503    0 -0.33104199982E+03 -0.13752040736E+03  0.33421662123E+03  0.49010347682E+03  0.00000000000E+00 0. -1.
         -4    1    5    5    0  503 -0.38782257298E+03 -0.11874159749E+03  0.27658357734E+03  0.49092197990E+03  0.00000000000E+00 0.  1.
         -3    1    6    6    0  502  0.19739872525E+03  0.15319714489E+03  0.12809545317E+03  0.28079185717E+03  0.00000000000E+00 0.  1.
<mgrwt>
<rscale>  0 0.15715511E+04</rscale>
<asrwt>0</asrwt>
<pdfrwt beam="1">  1        2 0.23109690E+00 0.15715511E+04</pdfrwt>
<pdfrwt beam="2">  1       -2 0.63237716E-01 0.15715511E+04</pdfrwt>
<totfact> 0.28169125E+01</totfact>
</mgrwt>
</event>
<event>
12    1  0.2214165E-007  0.1982245E+04  0.7818608E-02  0.8614967E-01
          1   -1    0    0  501    0  0.00000000000E+00  0.00000000000E+00  0.19257005452E+04  0.19257005452E+04  0.00000000000E+00 0. -1.
         -1   -1    0    0    0  501 -0.00000000000E+00 -0.00000000000E+00 -0.51011241037E+03  0.51011241037E+03  0.00000000000E+00 0.  1.
         23    2    1    2    0    0  0.99624931151E+02  0.77693954158E+03  0.61123761056E+03  0.99817430601E+03  0.95814145226E+02 0.  0.
        254    2    1    2    0    0 -0.99624931151E+02 -0.77693954158E+03  0.80435052431E+03  0.14376386496E+04  0.89792257053E+03 0.  0.
        -24    2    4    4    0    0  0.30976860881E+03 -0.22631190192E+03  0.21260984567E+02  0.39336955837E+03  0.84344010078E+02 0.  0.
         24    2    4    4    0    0 -0.40939353996E+03 -0.55062763966E+03  0.78308953975E+03  0.10442690912E+04  0.80466387451E+02 0.  0.
         13    1    3    3    0    0  0.82079070847E+02  0.65808392379E+03  0.55824997930E+03  0.86686473224E+03  0.00000000000E+00 0. -1.
        -13    1    3    3    0    0  0.17545860305E+02  0.11885561780E+03  0.52987631264E+02  0.13130957377E+03  0.00000000000E+00 0.  1.
          2    1    6    6  502    0 -0.33433553625E+02 -0.38338116362E+02  0.30573664044E+02  0.59349495426E+02  0.00000000000E+00 0. -1.
          1    1    5    5  503    0  0.73743349978E+01  0.74648048343E+01 -0.70452646260E+00  0.10516676538E+02  0.00000000000E+00 0. -1.
         -2    1    5    5    0  503  0.30239427381E+03 -0.23377670676E+03  0.21965511030E+02  0.38285288184E+03  0.00000000000E+00 0.  1.
         -1    1    6    6    0  502 -0.37595998633E+03 -0.51228952330E+03  0.75251587570E+03  0.98491959580E+03  0.00000000000E+00 0.  1.
<mgrwt>
<rscale>  0 0.19822449E+04</rscale>
<asrwt>0</asrwt>
<pdfrwt beam="1">  1        1 0.29626162E+00 0.19822449E+04</pdfrwt>
<pdfrwt beam="2">  1       -1 0.78478833E-01 0.19822449E+04</pdfrwt>
<totfact> 0.50522704E+00</totfact>
</mgrwt>
</event>
<event>
12    1  0.2214165E-007  0.1600178E+04  0.7818608E-02  0.8820439E-01
          4   -1    0    0  501    0  0.00000000000E+00  0.00000000000E+00  0.10643527086E+04  0.10643527086E+04  0.00000000000E+00 0. -1.
         -4   -1    0    0    0  501 -0.00000000000E+00 -0.00000000000E+00 -0.60143830368E+03  0.60143830368E+03  0.00000000000E+00 0.  1.
         23    2    1    2    0    0 -0.31214664344E+03 -0.43772625883E+03  0.90186130768E+02  0.55273160073E+03  0.91317465900E+02 0.  0.
        254    2    1    2    0    0  0.31214664344E+03  0.43772625883E+03  0.37272827412E+03  0.11130594115E+04  0.90051934048E+03 0.  0.
        -24    2    4    4    0    0  0.56056074938E+03  0.22404938355E+03  0.46141227147E+03  0.76398373057E+03  0.79645315612E+02 0.  0.
         24    2    4    4    0    0 -0.24841410594E+03  0.21367687529E+03 -0.88683997354E+02  0.34907568096E+03  0.81373242438E+02 0.  0.
         13    1    3    3    0    0 -0.19995451133E+03 -0.28608968451E+03  0.10227539522E+03  0.36371605773E+03  0.00000000000E+00 0. -1.
        -13    1    3    3    0    0 -0.11219213211E+03 -0.15163657433E+03 -0.12089264450E+02  0.18901554300E+03  0.00000000000E+00 0.  1.
          2    1    6    6  502    0 -0.17104670995E+03  0.95647522261E+02 -0.41950326030E+02  0.20041271256E+03  0.00000000000E+00 0. -1.
          1    1    5    5  503    0  0.30923239427E+03  0.15781983880E+03  0.29290864117E+03  0.45423259158E+03  0.00000000000E+00 0. -1.
         -2    1    5    5    0  503  0.25132835510E+03  0.66229544749E+02  0.16850363031E+03  0.30975113899E+03  0.00000000000E+00 0.  1.
         -1    1    6    6    0  502 -0.77367395989E+02  0.11802935303E+03 -0.46733671324E+02  0.14866296840E+03  0.00000000000E+00 0.  1.
<mgrwt>
<rscale>  0 0.16001781E+04</rscale>
<asrwt>0</asrwt>
<pdfrwt beam="1">  1        4 0.16374657E+00 0.16001781E+04</pdfrwt>
<pdfrwt beam="2">  1       -4 0.92528970E-01 0.16001781E+04</pdfrwt>
<totfact> 0.44663733E-01</totfact>
</mgrwt>
</event>
<event>
12    1  0.2214165E-007  0.2602393E+04  0.7818608E-02  0.8367389E-01
          1   -1    0    0  501    0  0.00000000000E+00  0.00000000000E+00  0.14186556476E+04  0.14186556476E+04  0.00000000000E+00 0. -1.
         -1   -1    0    0    0  501 -0.00000000000E+00 -0.00000000000E+00 -0.11934628183E+04  0.11934628183E+04  0.00000000000E+00 0.  1.
         23    2    1    2    0    0  0.17095626869E+03  0.97447821571E+03  0.67468289586E+03  0.12010309063E+04  0.91893357902E+02 0.  0.
        254    2    1    2    0    0 -0.17095626869E+03 -0.97447821571E+03 -0.44949006663E+03  0.14110875596E+04  0.90016273088E+03 0.  0.
        -24    2    4    4    0    0 -0.13039406436E+03 -0.66583838905E+03  0.17798884017E+03  0.70602274246E+03  0.80278971664E+02 0.  0.
         24    2    4    4    0    0 -0.40562204338E+02 -0.30863982666E+03 -0.62747890680E+03  0.70506481711E+03  0.80515730280E+02 0.  0.
         11    1    3    3    0    0  0.94427687373E+02  0.34679408156E+03  0.20948302555E+03  0.41601185216E+03  0.00000000000E+00 0.  1.
        -11    1    3    3    0    0  0.76528581320E+02  0.62768413416E+03  0.46519987031E+03  0.78501905415E+03  0.00000000000E+00 0. -1.
          4    1    6    6  502    0 -0.47224097569E+02 -0.14771305222E+03 -0.37229330533E+03  0.40330083855E+03  0.00000000000E+00 0. -1.
          1    1    5    5  503    0 -0.12330798230E+03 -0.51922827811E+03  0.11301907668E+03  0.54550543075E+03  0.00000000000E+00 0. -1.
         -2    1    5    5    0  503 -0.70860820525E+01 -0.14661011095E+03  0.64969763493E+02  0.16051731171E+03  0.00000000000E+00 0.  1.
         -3    1    6    6    0  502  0.66618932306E+01 -0.16092677444E+03 -0.25518560147E+03  0.30176397855E+03  0.00000000000E+00 0.  1.
<mgrwt>
<rscale>  0 0.26023933E+04</rscale>
<asrwt>0</asrwt>
<pdfrwt beam="1">  1        1 0.21825471E+00 0.26023933E+04</pdfrwt>
<pdfrwt beam="2">  1       -1 0.18360966E+00 0.26023933E+04</pdfrwt>
<totfact> 0.12872359E+00</totfact>
</mgrwt>
</event>
<event>
12    1  0.2214165E-007  0.1614364E+04  0.7818608E-02  0.8811772E-01
          2   -1    0    0  501    0  0.00000000000E+00  0.00000000000E+00  0.80971707515E+03  0.80971707515E+03  0.00000000000E+00 0. -1.
         -2   -1    0    0    0  501 -0.00000000000E+00 -0.00000000000E+00 -0.80465503495E+03  0.80465503495E+03  0.00000000000E+00 0.  1.
         23    2    1    2    0    0  0.55065149489E+03  0.98279547745E+01  0.10526289272E+02  0.55856536210E+03  0.92578633896E+02 0.  0.
        254    2    1    2    0    0 -0.55065149489E+03 -0.98279547745E+01 -0.54642490676E+01  0.10558067480E+04  0.90076876810E+03 0.  0.
        -24    2    4    4    0    0 -0.18042239984E+03 -0.37696838438E+03 -0.22896791644E+03  0.48294232848E+03  0.78419262223E+02 0.  0.
         24    2    4    4    0    0 -0.37022909505E+03  0.36714042961E+03  0.22350366737E+03  0.57286441952E+03  0.79737544218E+02 0.  0.
         13    1    3    3    0    0  0.10667665882E+03 -0.33910423483E+02  0.10640055374E+02  0.11244126082E+03  0.00000000000E+00 0. -1.
        -13    1    3    3    0    0  0.44397483607E+03  0.43738378257E+02 -0.11376610188E+00  0.44612410128E+03  0.00000000000E+00 0.  1.
          2    1    6    6  502    0 -0.23137383685E+03  0.25259906434E+03  0.10875865519E+03  0.35940031269E+03  0.00000000000E+00 0. -1.
          3    1    5    5  503    0 -0.10848528898E+02 -0.33951266180E+01  0.28491355686E+01  0.11719003264E+02  0.00000000000E+00 0. -1.
         -4    1    5    5    0  503 -0.16957387094E+03 -0.37357325776E+03 -0.23181705201E+03  0.47122332521E+03  0.00000000000E+00 0.  1.
         -1    1    6    6    0  502 -0.13885525820E+03  0.11454136527E+03  0.11474501218E+03  0.21346410683E+03  0.00000000000E+00 0.  1.
<mgrwt>
<rscale>  0 0.16143642E+04</rscale>
<asrwt>0</asrwt>
<pdfrwt beam="1">  1        2 0.12457186E+00 0.16143642E+04</pdfrwt>
<pdfrwt beam="2">  1       -2 0.12379308E+00 0.16143642E+04</pdfrwt>
<totfact> 0.15949412E+01</totfact>
</mgrwt>
</event>
<event>
12    1  0.2214165E-007  0.2654069E+04  0.7818608E-02  0.8350064E-01
         -1   -1    0    0    0  501 -0.00000000000E+00  0.00000000000E+00  0.17527902873E+04  0.17527902873E+04  0.00000000000E+00 0.  1.
          1   -1    0    0  501    0  0.00000000000E+00 -0.00000000000E+00 -0.10046952151E+04  0.10046952151E+04  0.00000000000E+00 0. -1.
         23    2    1    2    0    0  0.25589624846E+03  0.81781925370E+03 -0.49976277710E+03  0.99620576097E+03  0.91388528398E+02 0.  0.
        254    2    1    2    0    0 -0.25589624846E+03 -0.81781925370E+03  0.12478578493E+04  0.17612797414E+04  0.90035875827E+03 0.  0.
        -24    2    4    4    0    0 -0.54682251711E+03 -0.75153324819E+03  0.91279427498E+03  0.13052356918E+04  0.81423181527E+02 0.  0.
         24    2    4    4    0    0  0.29092626864E+03 -0.66286005510E+02  0.33506357435E+03  0.45604404955E+03  0.81710757891E+02 0.  0.
         13    1    3    3    0    0  0.48474083219E+02  0.29924661322E+03 -0.18359813199E+03  0.35441013860E+03  0.00000000000E+00 0.  1.
        -13    1    3    3    0    0  0.20742216524E+03  0.51857264048E+03 -0.31616464511E+03  0.64179562238E+03  0.00000000000E+00 0. -1.
          4    1    6    6  502    0  0.11879207039E+03 -0.25319605738E+02  0.19774771601E+03  0.23207067374E+03  0.00000000000E+00 0. -1.
          3    1    5    5  503    0 -0.18837782454E+03 -0.28760756674E+03  0.38781976702E+03  0.51827453046E+03  0.00000000000E+00 0. -1.
         -4    1    5    5    0  503 -0.35844469256E+03 -0.46392568145E+03  0.52497450795E+03  0.78696116139E+03  0.00000000000E+00 0.  1.
         -3    1    6    6    0  502  0.17213419825E+03 -0.40966399772E+02  0.13731585835E+03  0.22397337581E+03  0.00000000000E+00 0.  1.
<mgrwt>
<rscale>  0 0.26540686E+04</rscale>
<asrwt>0</asrwt>
<pdfrwt beam="1">  1        1 0.15456849E+00 0.26540686E+04</pdfrwt>
<pdfrwt beam="2">  1       -1 0.26966005E+00 0.26540686E+04</pdfrwt>
<totfact> 0.68299957E-01</totfact>
</mgrwt>
</event>
<event>
12    1  0.2214165E-007  0.2069249E+04  0.7818608E-02  0.8574912E-01
         -1   -1    0    0    0  501 -0.00000000000E+00  0.00000000000E+00  0.73741949068E+03  0.73741949068E+03  0.00000000000E+00 0.  1.
          1   -1    0    0  501    0  0.00000000000E+00 -0.00000000000E+00 -0.14516131021E+04  0.14516131021E+04  0.00000000000E+00 0. -1.
         23    2    1    2    0    0  0.80423255604E+03  0.21575517583E+03 -0.26961433016E+03  0.88012885117E+03  0.92707106221E+02 0.  0.
        254    2    1    2    0    0 -0.80423255604E+03 -0.21575517583E+03 -0.44457928129E+03  0.13089037416E+04  0.90677338264E+03 0.  0.
        -24    2    4    4    0    0 -0.14682260671E+03 -0.26276448430E+03 -0.55472990177E+03  0.63635994893E+03  0.81404352656E+02 0.  0.
         24    2    4    4    0    0 -0.65740994932E+03  0.47009308471E+02  0.11015062048E+03  0.67254379272E+03  0.76054436953E+02 0.  0.
         13    1    3    3    0    0  0.25852602922E+03  0.10419460271E+03 -0.60851050628E+02  0.28529821832E+03  0.00000000000E+00 0.  1.
        -13    1    3    3    0    0  0.54570652682E+03  0.11156057312E+03 -0.20876327953E+03  0.59483063284E+03  0.00000000000E+00 0. -1.
          2    1    6    6  502    0 -0.11934177749E+03 -0.20721862688E+02  0.22146719248E+02  0.12313542391E+03  0.00000000000E+00 0. -1.
          3    1    5    5  503    0  0.27976986237E+01 -0.14906578658E+02 -0.67511633059E+01  0.16601548448E+02  0.00000000000E+00 0. -1.
         -4    1    5    5    0  503 -0.14962030534E+03 -0.24785790564E+03 -0.54797873846E+03  0.61975840048E+03  0.00000000000E+00 0.  1.
         -1    1    6    6    0  502 -0.53806817183E+03  0.67731171159E+02  0.88003901230E+02  0.54940836881E+03  0.00000000000E+00 0.  1.
<mgrwt>
<rscale>  0 0.20692489E+04</rscale>
<asrwt>0</asrwt>
<pdfrwt beam="1">  1        1 0.22332509E+00 0.20692489E+04</pdfrwt>
<pdfrwt beam="2">  1       -1 0.11344915E+00 0.20692489E+04</pdfrwt>
<totfact> 0.46224378E+00</totfact>
</mgrwt>
</event>
<event>
12    1  0.2214165E-007  0.3469841E+04  0.7818608E-02  0.8120975E-01
          2   -1    0    0  501    0  0.00000000000E+00  0.00000000000E+00  0.13934130873E+04  0.13934130873E+04  0.00000000000E+00 0. -1.
         -2   -1    0    0    0  501 -0.00000000000E+00 -0.00000000000E+00 -0.21601265802E+04  0.21601265802E+04  0.00000000000E+00 0.  1.
         23    2    1    2    0    0  0.16088572038E+04 -0.54400067054E+02 -0.20324801307E+03  0.16250949162E+04  0.90790209490E+02 0.  0.
        254    2    1    2    0    0 -0.16088572038E+04  0.54400067054E+02 -0.56346547979E+03  0.19284447513E+04  0.90001385668E+03 0.  0.
        -24    2    4    4    0    0 -0.67309299713E+03  0.22888253073E+03 -0.65336598039E+03  0.96895267734E+03  0.80875156470E+02 0.  0.
         24    2    4    4    0    0 -0.93576420670E+03 -0.17448246367E+03  0.89900500604E+02  0.95949207394E+03  0.80275520980E+02 0.  0.
         11    1    3    3    0    0  0.14956899648E+04 -0.46247949347E+02 -0.16554448791E+03  0.15055338990E+04  0.00000000000E+00 0. -1.
        -11    1    3    3    0    0  0.11316723903E+03 -0.81521177068E+01 -0.37703525160E+02  0.11956101715E+03  0.00000000000E+00 0.  1.
          4    1    6    6  502    0 -0.29394219652E+03 -0.30194341480E+02  0.56219879744E+02  0.30078960758E+03  0.00000000000E+00 0. -1.
          3    1    5    5  503    0 -0.53311056959E+03  0.14595254316E+03 -0.51141682785E+03  0.75303133804E+03  0.00000000000E+00 0. -1.
         -4    1    5    5    0  503 -0.13998242754E+03  0.82929987562E+02 -0.14194915254E+03  0.21592133930E+03  0.00000000000E+00 0.  1.
         -3    1    6    6    0  502 -0.64182201018E+03 -0.14428812219E+03  0.33680620861E+02  0.65870246635E+03  0.00000000000E+00 0.  1.
<mgrwt>
<rscale>  0 0.34698407E+04</rscale>
<asrwt>0</asrwt>
<pdfrwt beam="1">  1        2 0.21437125E+00 0.34698407E+04</pdfrwt>
<pdfrwt beam="2">  1       -2 0.33232716E+00 0.34698407E+04</pdfrwt>
<totfact> 0.24134625E-01</totfact>
</mgrwt>
</event>
<event>
12    1  0.2214165E-007  0.3440399E+04  0.7818608E-02  0.8128062E-01
          2   -1    0    0  501    0  0.00000000000E+00  0.00000000000E+00  0.10705638749E+04  0.10705638749E+04  0.00000000000E+00 0. -1.
         -2   -1    0    0    0  501 -0.00000000000E+00 -0.00000000000E+00 -0.27640444223E+04  0.27640444223E+04  0.00000000000E+00 0.  1.
         23    2    1    2    0    0  0.11003583378E+04  0.65015398601E+03 -0.18629918930E+04  0.22608498845E+04  0.84939563446E+02 0.  0.
        254    2    1    2    0    0 -0.11003583378E+04 -0.65015398601E+03  0.16951134571E+03  0.15737584127E+04  0.90249253075E+03 0.  0.
        -24    2    4    4    0    0 -0.10532497260E+04 -0.33495762038E+03 -0.14676849654E+03  0.11177215731E+04  0.78923574073E+02 0.  0.
         24    2    4    4    0    0 -0.47108611811E+02 -0.31519636563E+03  0.31627984225E+03  0.45603683962E+03  0.79804074213E+02 0.  0.
         13    1    3    3    0    0  0.19026023510E+03  0.79266854158E+02 -0.27818904350E+03  0.34622440000E+03  0.00000000000E+00 0. -1.
        -13    1    3    3    0    0  0.91009810273E+03  0.57088713185E+03 -0.15848028495E+04  0.19146254845E+04  0.00000000000E+00 0.  1.
          2    1    6    6  502    0 -0.54519761827E+02 -0.11036009332E+03  0.10692271045E+03  0.16304668239E+03  0.00000000000E+00 0. -1.
          1    1    5    5  503    0 -0.20509045093E+02  0.43229863205E+01 -0.14893181830E+01  0.21012548869E+02  0.00000000000E+00 0. -1.
         -2    1    5    5    0  503 -0.10327406809E+04 -0.33928060670E+03 -0.14527917836E+03  0.10967090242E+04  0.00000000000E+00 0.  1.
         -1    1    6    6    0  502  0.74111500156E+01 -0.20483627231E+03  0.20935713180E+03  0.29299015723E+03  0.00000000000E+00 0.  1.
<mgrwt>
<rscale>  0 0.34403989E+04</rscale>
<asrwt>0</asrwt>
<pdfrwt beam="1">  1        2 0.16470214E+00 0.34403989E+04</pdfrwt>
<pdfrwt beam="2">  1       -2 0.42523759E+00 0.34403989E+04</pdfrwt>
<totfact> 0.94892864E-02</totfact>
</mgrwt>
</event>
<event>
12    1  0.2214165E-007  0.1418738E+04  0.7818608E-02  0.8940366E-01
          2   -1    0    0  501    0  0.00000000000E+00  0.00000000000E+00  0.40210609655E+03  0.40210609655E+03  0.00000000000E+00 0. -1.
         -2   -1    0    0    0  501 -0.00000000000E+00 -0.00000000000E+00 -0.12514214493E+04  0.12514214493E+04  0.00000000000E+00 0.  1.
         23    2    1    2    0    0  0.29368440913E+03  0.29237595970E+03 -0.30568722929E+03  0.52445440620E+03  0.99365527506E+02 0.  0.
        254    2    1    2    0    0 -0.29368440913E+03 -0.29237595970E+03 -0.54362812350E+03  0.11290731397E+04  0.89863250783E+03 0.  0.
        -24    2    4    4    0    0 -0.58578652085E+02 -0.39537051359E+03 -0.70603820158E+03  0.81526297333E+03  0.80090399496E+02 0.  0.
         24    2    4    4    0    0 -0.23510575704E+03  0.10299455390E+03  0.16241007808E+03  0.31381016636E+03  0.78849171975E+02 0.  0.
         11    1    3    3    0    0  0.10557386317E+03  0.14924327884E+03 -0.18080860467E+03  0.25712088283E+03  0.00000000000E+00 0.  1.
        -11    1    3    3    0    0  0.18811054596E+03  0.14313268085E+03 -0.12487862462E+03  0.26733352337E+03  0.00000000000E+00 0. -1.
          2    1    6    6  502    0 -0.23184497500E+03  0.11266766527E+03  0.15209239649E+03  0.29929616152E+03  0.00000000000E+00 0. -1.
          1    1    5    5  503    0 -0.65758882068E+02 -0.36463685528E+03 -0.60532334633E+03  0.70971869104E+03  0.00000000000E+00 0. -1.
         -2    1    5    5    0  503  0.71802299830E+01 -0.30733658313E+02 -0.10071485524E+03  0.10554428228E+03  0.00000000000E+00 0.  1.
         -1    1    6    6    0  502 -0.32607820442E+01 -0.96731113715E+01  0.10317681589E+02  0.14514004841E+02  0.00000000000E+00 0.  1.
<mgrwt>
<rscale>  0 0.14187377E+04</rscale>
<asrwt>0</asrwt>
<pdfrwt beam="1">  1        2 0.61862476E-01 0.14187377E+04</pdfrwt>
<pdfrwt beam="2">  1       -2 0.19252638E+00 0.14187377E+04</pdfrwt>
<totfact> 0.11441684E+01</totfact>
</mgrwt>
</event>
<event>
12    1  0.2214165E-007  0.1329485E+04  0.7818608E-02  0.9006505E-01
          1   -1    0    0  501    0  0.00000000000E+00  0.00000000000E+00  0.15004857438E+04  0.15004857438E+04  0.00000000000E+00 0. -1.
         -1   -1    0    0    0  501 -0.00000000000E+00 -0.00000000000E+00 -0.29449285041E+03  0.29449285041E+03  0.00000000000E+00 0.  1.
         23    2    1    2    0    0 -0.17927677483E+03 -0.19829724910E+03  0.63440067702E+03  0.69450689203E+03  0.91725912782E+02 0.  0.
        254    2    1    2    0    0  0.17927677483E+03  0.19829724910E+03  0.57159221634E+03  0.11004717021E+04  0.90158657069E+03 0.  0.
        -24    2    4    4    0    0  0.54444890784E+02  0.22330656893E+02  0.78183015853E+03  0.78734205989E+03  0.72015401846E+02 0.  0.
         24    2    4    4    0    0  0.12483188404E+03  0.17596659220E+03 -0.21023794220E+03  0.31312964226E+03  0.85457238872E+02 0.  0.
         11    1    3    3    0    0  0.70917031107E+01 -0.21667476383E+02  0.28884616547E+02  0.36798000746E+02  0.00000000000E+00 0.  1.
        -11    1    3    3    0    0 -0.18636847794E+03 -0.17662977271E+03  0.60551606047E+03  0.65770889128E+03  0.00000000000E+00 0. -1.
          2    1    6    6  502    0  0.11436291382E+03  0.18075075401E+03 -0.17595325440E+03  0.27696436389E+03  0.00000000000E+00 0. -1.
          1    1    5    5  503    0  0.36450613555E+02  0.24337520125E+02  0.74513768598E+03  0.74642557109E+03  0.00000000000E+00 0. -1.
         -4    1    5    5    0  503  0.17994277229E+02 -0.20068632327E+01  0.36692472555E+02  0.40916488794E+02  0.00000000000E+00 0.  1.
         -1    1    6    6    0  502  0.10468970227E+02 -0.47841618078E+01 -0.34284687802E+02  0.36165278368E+02  0.00000000000E+00 0.  1.
<mgrwt>
<rscale>  0 0.13294846E+04</rscale>
<asrwt>0</asrwt>
<pdfrwt beam="1">  1        1 0.23084396E+00 0.13294846E+04</pdfrwt>
<pdfrwt beam="2">  1       -1 0.45306593E-01 0.13294846E+04</pdfrwt>
<totfact> 0.30983513E+01</totfact>
</mgrwt>
</event>
<event>
12    1  0.2214165E-007  0.1558715E+04  0.7818608E-02  0.8846320E-01
         -1   -1    0    0    0  501 -0.00000000000E+00  0.00000000000E+00  0.13454054821E+04  0.13454054821E+04  0.00000000000E+00 0.  1.
          1   -1    0    0  501    0  0.00000000000E+00 -0.00000000000E+00 -0.45146087565E+03  0.45146087565E+03  0.00000000000E+00 0. -1.
         23    2    1    2    0    0  0.48860308704E+03  0.14329761528E+03  0.22538478340E+03  0.56381213567E+03  0.88423076914E+02 0.  0.
        254    2    1    2    0    0 -0.48860308704E+03 -0.14329761528E+03  0.66855982303E+03  0.12330542221E+04  0.90232105947E+03 0.  0.
        -24    2    4    4    0    0 -0.30874576427E+03 -0.37371601991E+03  0.77031952347E+03  0.91360185837E+03  0.79300547816E+02 0.  0.
         24    2    4    4    0    0 -0.17985732276E+03  0.23041840463E+03 -0.10175970044E+03  0.31945236368E+03  0.79078937049E+02 0.  0.
         11    1    3    3    0    0  0.39799656922E+03  0.15017390373E+03  0.17564658824E+03  0.46022298338E+03  0.00000000000E+00 0.  1.
        -11    1    3    3    0    0  0.90606517814E+02 -0.68762884478E+01  0.49738195159E+02  0.10358915228E+03  0.00000000000E+00 0. -1.
          4    1    6    6  502    0 -0.11762250473E+03  0.19460901650E+03 -0.97825287189E+02  0.24754294523E+03  0.00000000000E+00 0. -1.
          3    1    5    5  503    0 -0.15064909689E+03 -0.18659719422E+03  0.30760648976E+03  0.39004540226E+03  0.00000000000E+00 0. -1.
         -4    1    5    5    0  503 -0.15809666739E+03 -0.18711882569E+03  0.46271303371E+03  0.52355645611E+03  0.00000000000E+00 0.  1.
         -3    1    6    6    0  502 -0.62234818035E+02  0.35809388133E+02 -0.39344132530E+01  0.71909418451E+02  0.00000000000E+00 0.  1.
<mgrwt>
<rscale>  0 0.15587148E+04</rscale>
<asrwt>0</asrwt>
<pdfrwt beam="1">  1        1 0.69455520E-01 0.15587148E+04</pdfrwt>
<pdfrwt beam="2">  1       -1 0.20698546E+00 0.15587148E+04</pdfrwt>
<totfact> 0.66139826E+00</totfact>
</mgrwt>
</event>
<event>
12    1  0.2214165E-007  0.1369247E+04  0.7818608E-02  0.8976385E-01
         -3   -1    0    0    0  501 -0.00000000000E+00  0.00000000000E+00  0.32480055937E+03  0.32480055937E+03  0.00000000000E+00 0.  1.
          3   -1    0    0  501    0  0.00000000000E+00 -0.00000000000E+00 -0.14430684658E+04  0.14430684658E+04  0.00000000000E+00 0. -1.
         23    2    1    2    0    0 -0.36856365670E+03 -0.46834635770E+02 -0.43179295772E+03  0.57681257621E+03  0.90746556898E+02 0.  0.
        254    2    1    2    0    0  0.36856365670E+03  0.46834635770E+02 -0.68647494876E+03  0.11910564490E+04  0.89963045596E+03 0.  0.
        -24    2    4    4    0    0  0.28235716942E+03 -0.36297881356E+03 -0.59103588787E+03  0.75318305483E+03  0.80511509225E+02 0.  0.
         24    2    4    4    0    0  0.86206487282E+02  0.40981344933E+03 -0.95439060889E+02  0.43787339418E+03  0.85122695469E+02 0.  0.
         13    1    3    3    0    0 -0.57698475935E+02  0.10774872055E+02 -0.11573481161E+03  0.12976809551E+03  0.00000000000E+00 0. -1.
        -13    1    3    3    0    0 -0.31086518077E+03 -0.57609507825E+02 -0.31605814611E+03  0.44704448070E+03  0.00000000000E+00 0.  1.
          4    1    6    6  502    0  0.73416763083E+02  0.39680616320E+03 -0.10541474385E+03  0.41708203087E+03  0.00000000000E+00 0. -1.
          1    1    5    5  503    0  0.21267536032E+03 -0.31111143261E+03 -0.44367190901E+03  0.58212189036E+03  0.00000000000E+00 0. -1.
         -4    1    5    5    0  503  0.69681809100E+02 -0.51867380952E+02 -0.14736397886E+03  0.17106116447E+03  0.00000000000E+00 0.  1.
         -3    1    6    6    0  502  0.12789724199E+02  0.13007286126E+02  0.99756829598E+01  0.20791363302E+02  0.00000000000E+00 0.  1.
<mgrwt>
<rscale>  0 0.13692472E+04</rscale>
<asrwt>0</asrwt>
<pdfrwt beam="1">  1        3 0.22201054E+00 0.13692472E+04</pdfrwt>
<pdfrwt beam="2">  1       -3 0.49969316E-01 0.13692472E+04</pdfrwt>
<totfact> 0.10969767E+00</totfact>
</mgrwt>
</event>
<event>
12    1  0.2214165E-007  0.1021630E+04  0.7818608E-02  0.9285134E-01
         -1   -1    0    0    0  501 -0.00000000000E+00  0.00000000000E+00  0.12792189950E+03  0.12792189950E+03  0.00000000000E+00 0.  1.
          1   -1    0    0  501    0  0.00000000000E+00 -0.00000000000E+00 -0.20397767335E+04  0.20397767335E+04  0.00000000000E+00 0. -1.
         23    2    1    2    0    0 -0.71503831182E+02  0.87365431829E+01 -0.18039107099E+03  0.21493626573E+03  0.92019208717E+02 0.  0.
        254    2    1    2    0    0  0.71503831182E+02 -0.87365431829E+01 -0.17314637630E+04  0.19527623673E+04  0.90006942806E+03 0.  0.
        -24    2    4    4    0    0 -0.12930802545E+02  0.39801970069E+03 -0.46395279429E+03  0.61655524204E+03  0.79380623417E+02 0.  0.
         24    2    4    4    0    0  0.84434633726E+02 -0.40675624387E+03 -0.12675109687E+04  0.13362071252E+04  0.79281626889E+02 0.  0.
         11    1    3    3    0    0 -0.32665242373E+02  0.41283422633E+02 -0.41325840780E+02  0.66926557955E+02  0.00000000000E+00 0.  1.
        -11    1    3    3    0    0 -0.38838588809E+02 -0.32546879450E+02 -0.13906523021E+03  0.14800970777E+03  0.00000000000E+00 0. -1.
          4    1    6    6  502    0  0.34305404592E+02 -0.25966434054E+03 -0.89617659086E+03  0.93366745287E+03  0.00000000000E+00 0. -1.
          1    1    5    5  503    0 -0.27740694250E+02  0.79358902413E+02 -0.68284361738E+02  0.10830575039E+03  0.00000000000E+00 0. -1.
         -2    1    5    5    0  503  0.14809891705E+02  0.31866079827E+03 -0.39566843255E+03  0.50824949165E+03  0.00000000000E+00 0.  1.
         -3    1    6    6    0  502  0.50129229134E+02 -0.14709190333E+03 -0.37133437785E+03  0.40253967235E+03  0.00000000000E+00 0.  1.
<mgrwt>
<rscale>  0 0.10216303E+04</rscale>
<asrwt>0</asrwt>
<pdfrwt beam="1">  1        1 0.31381179E+00 0.10216303E+04</pdfrwt>
<pdfrwt beam="2">  1       -1 0.19680293E-01 0.10216303E+04</pdfrwt>
<totfact> 0.59208073E+01</totfact>
</mgrwt>
</event>
<event>
12    1  0.2214165E-007  0.2275801E+04  0.7818608E-02  0.8487524E-01
          3   -1    0    0  501    0  0.00000000000E+00  0.00000000000E+00  0.81729534719E+03  0.81729534719E+03  0.00000000000E+00 0. -1.
         -3   -1    0    0    0  501 -0.00000000000E+00 -0.00000000000E+00 -0.15842719161E+04  0.15842719161E+04  0.00000000000E+00 0.  1.
         23    2    1    2    0    0 -0.95830235623E+02  0.95221941207E+03 -0.27425774890E+03  0.99924866043E+03  0.85879740123E+02 0.  0.
        254    2    1    2    0    0  0.95830235623E+02 -0.95221941207E+03 -0.49271882005E+03  0.14023186029E+04  0.89878828743E+03 0.  0.
        -24    2    4    4    0    0  0.17776502058E+03 -0.11050807110E+04 -0.41985997661E+03  0.11977866632E+04  0.74877970009E+02 0.  0.
         24    2    4    4    0    0 -0.81934784960E+02  0.15286129890E+03 -0.72858843437E+02  0.20453193965E+03  0.80280866853E+02 0.  0.
         11    1    3    3    0    0 -0.91426512227E+02  0.51528473778E+03 -0.13208307118E+03  0.53974355561E+03  0.00000000000E+00 0. -1.
        -11    1    3    3    0    0 -0.44037233957E+01  0.43693467429E+03 -0.14217467772E+03  0.45950510482E+03  0.00000000000E+00 0.  1.
          2    1    6    6  502    0 -0.29033245663E+02  0.25770144662E+02  0.14557609404E+02  0.41460266535E+02  0.00000000000E+00 0. -1.
          1    1    5    5  503    0  0.67569631788E+02 -0.32735940006E+03 -0.15868955830E+03  0.37001649674E+03  0.00000000000E+00 0. -1.
         -2    1    5    5    0  503  0.11019538879E+03 -0.77772131091E+03 -0.26117041830E+03  0.82777016650E+03  0.00000000000E+00 0.  1.
         -1    1    6    6    0  502 -0.52901539297E+02  0.12709115424E+03 -0.87416452841E+02  0.16307167311E+03  0.00000000000E+00 0.  1.
<mgrwt>
<rscale>  0 0.22758015E+04</rscale>
<asrwt>0</asrwt>
<pdfrwt beam="1">  1        3 0.12573775E+00 0.22758015E+04</pdfrwt>
<pdfrwt beam="2">  1       -3 0.24373414E+00 0.22758015E+04</pdfrwt>
<totfact> 0.95193449E-02</totfact>
</mgrwt>
</event>
<event>
12    1  0.2214165E-007  0.1585313E+04  0.7818608E-02  0.8829622E-01
         -1   -1    0    0    0  501 -0.00000000000E+00  0.00000000000E+00  0.38832709385E+03  0.38832709385E+03  0.00000000000E+00 0.  1.
          1   -1    0    0  501    0  0.00000000000E+00 -0.00000000000E+00 -0.16179764726E+04  0.16179764726E+04  0.00000000000E+00 0. -1.
         23    2    1    2    0    0 -0.42895639451E+03  0.44137897772E+02 -0.81348088701E+03  0.92510364741E+03  0.90076980967E+02 0.  0.
        254    2    1    2    0    0  0.42895639451E+03 -0.44137897772E+02 -0.41616849174E+03  0.10811999190E+04  0.89991405645E+03 0.  0.
        -24    2    4    4    0    0 -0.26808778583E+03  0.65815995284E+02 -0.11085942339E+03  0.30821705913E+03  0.80654433468E+02 0.  0.
         24    2    4    4    0    0  0.69704418034E+03 -0.10995389306E+03 -0.30530906834E+03  0.77298285991E+03  0.79551408272E+02 0.  0.
         11    1    3    3    0    0 -0.34837420280E+03  0.68598496169E+02 -0.68359036261E+03  0.77030261762E+03  0.00000000000E+00 0. -1.
        -11    1    3    3    0    0 -0.80582191710E+02 -0.24460598396E+02 -0.12989052440E+03  0.15480102979E+03  0.00000000000E+00 0.  1.
          2    1    6    6  502    0  0.48901246517E+03 -0.86499407560E+02 -0.25233280069E+03  0.55703427264E+03  0.00000000000E+00 0. -1.
          1    1    5    5  503    0 -0.18446423231E+03  0.49272758826E+02 -0.35013512090E+02  0.19411543935E+03  0.00000000000E+00 0. -1.
         -2    1    5    5    0  503 -0.83623553512E+02  0.16543236459E+02 -0.75845911301E+02  0.11410161978E+03  0.00000000000E+00 0.  1.
         -1    1    6    6    0  502  0.20803171517E+03 -0.23454485497E+02 -0.52976267657E+02  0.21594858727E+03  0.00000000000E+00 0.  1.
<mgrwt>
<rscale>  0 0.15853127E+04</rscale>
<asrwt>0</asrwt>
<pdfrwt beam="1">  1        1 0.24891946E+00 0.15853127E+04</pdfrwt>
<pdfrwt beam="2">  1       -1 0.59742629E-01 0.15853127E+04</pdfrwt>
<totfact> 0.14800642E+01</totfact>
</mgrwt>
</event>
<event>
12    1  0.2214165E-007  0.1355824E+04  0.7818608E-02  0.8986431E-01
          2   -1    0    0  501    0  0.00000000000E+00  0.00000000000E+00  0.24524242531E+04  0.24524242531E+04  0.00000000000E+00 0. -1.
         -2   -1    0    0    0  501 -0.00000000000E+00 -0.00000000000E+00 -0.18739210274E+03  0.18739210274E+03  0.00000000000E+00 0.  1.
         23    2    1    2    0    0 -0.10160764145E+03 -0.29331881407E+03  0.23242417257E+03  0.39779973440E+03  0.88676903478E+02 0.  0.
        254    2    1    2    0    0  0.10160764145E+03  0.29331881407E+03  0.20326079777E+04  0.22420166214E+04  0.89374677618E+03 0.  0.
        -24    2    4    4    0    0 -0.37095351703E+03  0.16083111747E+03  0.61759809211E+03  0.74226088930E+03  0.77786015797E+02 0.  0.
         24    2    4    4    0    0  0.47256115848E+03  0.13248769660E+03  0.14150098856E+04  0.14997557321E+04  0.78404344706E+02 0.  0.
         11    1    3    3    0    0 -0.10049318850E+03 -0.15757525800E+03  0.12776702306E+03  0.22639181754E+03  0.00000000000E+00 0.  1.
        -11    1    3    3    0    0 -0.11144529521E+01 -0.13574355607E+03  0.10465714952E+03  0.17140791687E+03  0.00000000000E+00 0. -1.
          2    1    6    6  502    0  0.22604128671E+03  0.78711642545E+02  0.57971302964E+03  0.62718209692E+03  0.00000000000E+00 0. -1.
          3    1    5    5  503    0 -0.35658226002E+03  0.15026225655E+03  0.61103661337E+03  0.72325334205E+03  0.00000000000E+00 0. -1.
         -4    1    5    5    0  503 -0.14371257005E+02  0.10568860913E+02  0.65614787400E+01  0.19007547242E+02  0.00000000000E+00 0.  1.
         -1    1    6    6    0  502  0.24651987178E+03  0.53776054054E+02  0.83529685600E+03  0.87257363518E+03  0.00000000000E+00 0.  1.
<mgrwt>
<rscale>  0 0.13558244E+04</rscale>
<asrwt>0</asrwt>
<pdfrwt beam="1">  1        2 0.37729602E+00 0.13558244E+04</pdfrwt>
<pdfrwt beam="2">  1       -2 0.28829556E-01 0.13558244E+04</pdfrwt>
<totfact> 0.40138601E+01</totfact>
</mgrwt>
</event>
<event>
12    1  0.2214165E-007  0.3464285E+04  0.7818608E-02  0.8122307E-01
          2   -1    0    0  501    0  0.00000000000E+00  0.00000000000E+00  0.18912259159E+04  0.18912259159E+04  0.00000000000E+00 0. -1.
         -2   -1    0    0    0  501 -0.00000000000E+00 -0.00000000000E+00 -0.15864404159E+04  0.15864404159E+04  0.00000000000E+00 0.  1.
         23    2    1    2    0    0 -0.17036974263E+03 -0.16027851635E+04  0.12455724507E+03  0.16191597152E+04  0.90650683700E+02 0.  0.
        254    2    1    2    0    0  0.17036974263E+03  0.16027851635E+04  0.18022825497E+03  0.18585066165E+04  0.90753429145E+03 0.  0.
        -24    2    4    4    0    0  0.23843903888E+03  0.91730837797E+03 -0.31962824441E+03  0.10035154408E+04  0.81075209828E+02 0.  0.
         24    2    4    4    0    0 -0.68069296250E+02  0.68547678557E+03  0.49985649938E+03  0.85499117578E+03  0.81495632073E+02 0.  0.
         11    1    3    3    0    0 -0.88059289842E+02 -0.96496941134E+03  0.11693777003E+03  0.97600965436E+03  0.00000000000E+00 0. -1.
        -11    1    3    3    0    0 -0.82310452788E+02 -0.63781575220E+03  0.76194750328E+01  0.64315006087E+03  0.00000000000E+00 0.  1.
          4    1    6    6  502    0 -0.59296457865E+02  0.45185609477E+03  0.28525258334E+03  0.53764210828E+03  0.00000000000E+00 0. -1.
          1    1    5    5  503    0  0.10647328779E+03  0.56651198944E+03 -0.19018771094E+03  0.60699568416E+03  0.00000000000E+00 0. -1.
         -2    1    5    5    0  503  0.13196575109E+03  0.35079638852E+03 -0.12944053347E+03  0.39651975659E+03  0.00000000000E+00 0.  1.
         -3    1    6    6    0  502 -0.87728383858E+01  0.23362069080E+03  0.21460391605E+03  0.31734906750E+03  0.00000000000E+00 0.  1.
<mgrwt>
<rscale>  0 0.34642848E+04</rscale>
<asrwt>0</asrwt>
<pdfrwt beam="1">  1        2 0.29095783E+00 0.34642848E+04</pdfrwt>
<pdfrwt beam="2">  1       -2 0.24406776E+00 0.34642848E+04</pdfrwt>
<totfact> 0.44242601E-01</totfact>
</mgrwt>
</event>
<event>
12    1  0.2214165E-007  0.2377189E+04  0.7818608E-02  0.8448093E-01
          1   -1    0    0  501    0  0.00000000000E+00  0.00000000000E+00  0.74217267577E+03  0.74217267577E+03  0.00000000000E+00 0. -1.
         -1   -1    0    0    0  501 -0.00000000000E+00 -0.00000000000E+00 -0.19035425283E+04  0.19035425283E+04  0.00000000000E+00 0.  1.
         23    2    1    2    0    0 -0.69379705768E+03  0.11034091777E+03 -0.13145565495E+04  0.14932648895E+04  0.90838500834E+02 0.  0.
        254    2    1    2    0    0  0.69379705768E+03 -0.11034091777E+03  0.15318669694E+03  0.11524503145E+04  0.90063649046E+03 0.  0.
        -24    2    4    4    0    0 -0.59550187952E+02  0.24063787934E+03  0.18121708908E+03  0.31719154118E+03  0.79486014910E+02 0.  0.
         24    2    4    4    0    0  0.75334724563E+03 -0.35097879711E+03 -0.28030392138E+02  0.83525877334E+03  0.78443145221E+02 0.  0.
         13    1    3    3    0    0 -0.11829861777E+03  0.47142164084E+02 -0.19560622902E+03  0.23340681959E+03  0.00000000000E+00 0. -1.
        -13    1    3    3    0    0 -0.57549843991E+03  0.63198753687E+02 -0.11189503204E+04  0.12598580700E+04  0.00000000000E+00 0.  1.
          4    1    6    6  502    0  0.25289760537E+03 -0.15900156791E+03 -0.55906724016E+01  0.29878077752E+03  0.00000000000E+00 0. -1.
          3    1    5    5  503    0 -0.12224392961E+02  0.43358901145E+02  0.76760091809E+02  0.89003043691E+02  0.00000000000E+00 0. -1.
         -4    1    5    5    0  503 -0.47325794992E+02  0.19727897820E+03  0.10445699727E+03  0.22818849749E+03  0.00000000000E+00 0.  1.
         -3    1    6    6    0  502  0.50044964027E+03 -0.19197722920E+03 -0.22439719736E+02  0.53647799582E+03  0.00000000000E+00 0.  1.
<mgrwt>
<rscale>  0 0.23771893E+04</rscale>
<asrwt>0</asrwt>
<pdfrwt beam="1">  1        1 0.11418041E+00 0.23771893E+04</pdfrwt>
<pdfrwt beam="2">  1       -1 0.29285269E+00 0.23771893E+04</pdfrwt>
<totfact> 0.82148754E-01</totfact>
</mgrwt>
</event>
<event>
12    1  0.2214165E-007  0.4251581E+04  0.7818608E-02  0.7955632E-01
          1   -1    0    0  501    0  0.00000000000E+00  0.00000000000E+00  0.30744009925E+04  0.30744009925E+04  0.00000000000E+00 0. -1.
         -1   -1    0    0    0  501 -0.00000000000E+00 -0.00000000000E+00 -0.14698753237E+04  0.14698753237E+04  0.00000000000E+00 0.  1.
         23    2    1    2    0    0 -0.17267143130E+04 -0.10560344231E+04  0.60439724142E+03  0.21143146460E+04  0.90991071447E+02 0.  0.
        254    2    1    2    0    0  0.17267143130E+04  0.10560344231E+04  0.10001284274E+04  0.24299616702E+04  0.89872455509E+03 0.  0.
        -24    2    4    4    0    0  0.60640670372E+03  0.26451696907E+03 -0.94689542722E+02  0.67309300346E+03  0.79936002886E+02 0.  0.
         24    2    4    4    0    0  0.11203076093E+04  0.79151745402E+03  0.10948179701E+04  0.17568686668E+04  0.79825466581E+02 0.  0.
         11    1    3    3    0    0 -0.35517128338E+03 -0.21695517795E+03  0.86241716921E+02  0.42503390866E+03  0.00000000000E+00 0.  1.
        -11    1    3    3    0    0 -0.13715430297E+04 -0.83907924514E+03  0.51815552450E+03  0.16892807373E+04  0.00000000000E+00 0. -1.
          2    1    6    6  502    0  0.11030046638E+04  0.78872998816E+03  0.10858752124E+04  0.17371929253E+04  0.00000000000E+00 0. -1.
          3    1    5    5  503    0  0.57326895891E+03  0.22762614418E+03 -0.87067795480E+02  0.62292195480E+03  0.00000000000E+00 0. -1.
         -4    1    5    5    0  503  0.33137744816E+02  0.36890824891E+02 -0.76217472424E+01  0.50171048660E+02  0.00000000000E+00 0.  1.
         -1    1    6    6    0  502  0.17302945503E+02  0.27874658624E+01  0.89427576536E+01  0.19675741497E+02  0.00000000000E+00 0.  1.
<mgrwt>
<rscale>  0 0.42515814E+04</rscale>
<asrwt>0</asrwt>
<pdfrwt beam="1">  1        1 0.47298476E+00 0.42515814E+04</pdfrwt>
<pdfrwt beam="2">  1       -1 0.22613467E+00 0.42515814E+04</pdfrwt>
<totfact> 0.40455017E-02</totfact>
</mgrwt>
</event>
<event>
12    1  0.2214165E-007  0.4348639E+04  0.7818608E-02  0.7937685E-01
         -1   -1    0    0    0  501 -0.00000000000E+00  0.00000000000E+00  0.13176842807E+04  0.13176842807E+04  0.00000000000E+00 0.  1.
          1   -1    0    0  501    0  0.00000000000E+00 -0.00000000000E+00 -0.35878582253E+04  0.35878582253E+04  0.00000000000E+00 0. -1.
         23    2    1    2    0    0 -0.63445831115E+03  0.94001434083E+03  0.88054355342E+03  0.14387629753E+04  0.92291061563E+02 0.  0.
        254    2    1    2    0    0  0.63445831115E+03 -0.94001434083E+03 -0.31507174979E+04  0.34667795307E+04  0.89742701832E+03 0.  0.
        -24    2    4    4    0    0 -0.16006353038E+03 -0.43109085199E+03 -0.71838321257E+03  0.85665961521E+03  0.79571350399E+02 0.  0.
         24    2    4    4    0    0  0.79452184153E+03 -0.50892348883E+03 -0.24323342854E+04  0.26101199155E+04  0.78789741500E+02 0.  0.
         11    1    3    3    0    0 -0.20392425976E+03  0.30551382230E+03  0.23163153593E+03  0.43425449655E+03  0.00000000000E+00 0. -1.
        -11    1    3    3    0    0 -0.43053405139E+03  0.63450051852E+03  0.64891201749E+03  0.10045084787E+04  0.00000000000E+00 0.  1.
          4    1    6    6  502    0  0.24576835415E+03 -0.14518044967E+03 -0.64301035156E+03  0.70352097273E+03  0.00000000000E+00 0. -1.
          1    1    5    5  503    0 -0.70689910949E+02 -0.21577223497E+03 -0.42578367957E+03  0.48254166938E+03  0.00000000000E+00 0. -1.
         -2    1    5    5    0  503 -0.89373619428E+02 -0.21531861702E+03 -0.29259953299E+03  0.37411794583E+03  0.00000000000E+00 0.  1.
         -3    1    6    6    0  502  0.54875348739E+03 -0.36374303917E+03 -0.17893239338E+04  0.19065989428E+04  0.00000000000E+00 0.  1.
<mgrwt>
<rscale>  0 0.43486386E+04</rscale>
<asrwt>0</asrwt>
<pdfrwt beam="1">  1        1 0.55197819E+00 0.43486386E+04</pdfrwt>
<pdfrwt beam="2">  1       -1 0.20272066E+00 0.43486386E+04</pdfrwt>
<totfact> 0.23289145E-02</totfact>
</mgrwt>
</event>
<event>
12    1  0.2214165E-007  0.1241404E+04  0.7818608E-02  0.9077368E-01
         -1   -1    0    0    0  501 -0.00000000000E+00  0.00000000000E+00  0.26248545349E+03  0.26248545349E+03  0.00000000000E+00 0.  1.
          1   -1    0    0  501    0  0.00000000000E+00 -0.00000000000E+00 -0.14677813995E+04  0.14677813995E+04  0.00000000000E+00 0. -1.
         23    2    1    2    0    0 -0.59459199181E+02 -0.27505916920E+03 -0.38032285187E+03  0.47808229787E+03  0.68733317632E+02 0.  0.
        254    2    1    2    0    0  0.59459199181E+02  0.27505916920E+03 -0.82497309414E+03  0.12521845551E+04  0.89899533431E+03 0.  0.
        -24    2    4    4    0    0 -0.27613246257E+03 -0.14769622641E+03 -0.87514173343E+02  0.33497260900E+03  0.80527051750E+02 0.  0.
         24    2    4    4    0    0  0.33559166175E+03  0.42275539561E+03 -0.73745892079E+03  0.91721194612E+03  0.78026958709E+02 0.  0.
         11    1    3    3    0    0 -0.67422421125E+02 -0.27302874502E+03 -0.37246029925E+03  0.46670885249E+03  0.00000000000E+00 0. -1.
        -11    1    3    3    0    0  0.79632219445E+01 -0.20304241872E+01 -0.78625526200E+01  0.11373445380E+02  0.00000000000E+00 0.  1.
          4    1    6    6  502    0  0.30637750389E+03  0.38891214492E+03 -0.63326443007E+03  0.80383062255E+03  0.00000000000E+00 0. -1.
          3    1    5    5  503    0 -0.25943095181E+03 -0.11662668590E+03 -0.61160853700E+02  0.29094132165E+03  0.00000000000E+00 0. -1.
         -4    1    5    5    0  503 -0.16701510766E+02 -0.31069540515E+02 -0.26353319644E+02  0.44031287353E+02  0.00000000000E+00 0.  1.
         -3    1    6    6    0  502  0.29214157865E+02  0.33843250690E+02 -0.10419449072E+03  0.11338132356E+03  0.00000000000E+00 0.  1.
<mgrwt>
<rscale>  0 0.12414045E+04</rscale>
<asrwt>0</asrwt>
<pdfrwt beam="1">  1        1 0.22581252E+00 0.12414045E+04</pdfrwt>
<pdfrwt beam="2">  1       -1 0.40382378E-01 0.12414045E+04</pdfrwt>
<totfact> 0.40672896E+01</totfact>
</mgrwt>
</event>
<event>
12    1  0.2214165E-007  0.2212971E+04  0.7818608E-02  0.8513049E-01
          1   -1    0    0  501    0  0.00000000000E+00  0.00000000000E+00  0.11480159817E+04  0.11480159817E+04  0.00000000000E+00 0. -1.
         -1   -1    0    0    0  501 -0.00000000000E+00 -0.00000000000E+00 -0.10664576641E+04  0.10664576641E+04  0.00000000000E+00 0.  1.
         23    2    1    2    0    0  0.67830054689E+03  0.55855162484E+03  0.31055255514E+03  0.93636725275E+03  0.90935103192E+02 0.  0.
        254    2    1    2    0    0 -0.67830054689E+03 -0.55855162484E+03 -0.22899423760E+03  0.12781063930E+04  0.89946986691E+03 0.  0.
        -24    2    4    4    0    0 -0.17964654368E+03  0.22201897028E+03  0.58284379683E+02  0.30495456313E+03  0.89637675335E+02 0.  0.
         24    2    4    4    0    0 -0.49865400321E+03 -0.78057059512E+03 -0.28727861728E+03  0.97315182988E+03  0.80927196696E+02 0.  0.
         13    1    3    3    0    0  0.47808572943E+03  0.44467769935E+03  0.23621917957E+03  0.69433689358E+03  0.00000000000E+00 0. -1.
        -13    1    3    3    0    0  0.20021481746E+03  0.11387392549E+03  0.74333375572E+02  0.24203035917E+03  0.00000000000E+00 0.  1.
          2    1    6    6  502    0 -0.56795725363E+02 -0.95035566678E+02 -0.77520179844E+01  0.11098471578E+03  0.00000000000E+00 0. -1.
          3    1    5    5  503    0 -0.62444598606E+02  0.28333153452E+02  0.36074397472E+02  0.77481982632E+02  0.00000000000E+00 0. -1.
         -4    1    5    5    0  503 -0.11720194508E+03  0.19368581683E+03  0.22209982211E+02  0.22747258050E+03  0.00000000000E+00 0.  1.
         -1    1    6    6    0  502 -0.44185827785E+03 -0.68553502844E+03 -0.27952659930E+03  0.86216711410E+03  0.00000000000E+00 0.  1.
<mgrwt>
<rscale>  0 0.22129713E+04</rscale>
<asrwt>0</asrwt>
<pdfrwt beam="1">  1        1 0.17661784E+00 0.22129713E+04</pdfrwt>
<pdfrwt beam="2">  1       -1 0.16407041E+00 0.22129713E+04</pdfrwt>
<totfact> 0.28947148E+00</totfact>
</mgrwt>
</event>
<event>
12    1  0.2214165E-007  0.1844303E+04  0.7818608E-02  0.8683088E-01
         -2   -1    0    0    0  501 -0.00000000000E+00  0.00000000000E+00  0.17903759030E+03  0.17903759030E+03  0.00000000000E+00 0.  1.
          2   -1    0    0  501    0  0.00000000000E+00 -0.00000000000E+00 -0.47496361422E+04  0.47496361422E+04  0.00000000000E+00 0. -1.
         23    2    1    2    0    0  0.25168916647E+02 -0.52278158952E+03 -0.50099690797E+03  0.72765170239E+03  0.67416863520E+02 0.  0.
        254    2    1    2    0    0 -0.25168916647E+02  0.52278158952E+03 -0.40696016439E+04  0.42010220301E+04  0.90166207224E+03 0.  0.
        -24    2    4    4    0    0 -0.27252982539E+03 -0.89933151460E+02 -0.21226064755E+04  0.21433977174E+04  0.79593011106E+02 0.  0.
         24    2    4    4    0    0  0.24736090874E+03  0.61271474099E+03 -0.19469951683E+04  0.20576243127E+04  0.80130229100E+02 0.  0.
         13    1    3    3    0    0 -0.15805699555E+02 -0.34051026349E+03 -0.32617596977E+03  0.47179213954E+03  0.00000000000E+00 0.  1.
        -13    1    3    3    0    0  0.40974616202E+02 -0.18227132604E+03 -0.17482093820E+03  0.25585956285E+03  0.00000000000E+00 0. -1.
          2    1    6    6  502    0  0.97308290790E+02  0.15751196127E+03 -0.48954723062E+03  0.52338839537E+03  0.00000000000E+00 0. -1.
          1    1    5    5  503    0 -0.10901002902E+02 -0.25929051813E+00 -0.20914328615E+02  0.23586187426E+02  0.00000000000E+00 0. -1.
         -2    1    5    5    0  503 -0.26162882249E+03 -0.89673860942E+02 -0.21016921469E+04  0.21198115300E+04  0.00000000000E+00 0.  1.
         -1    1    6    6    0  502  0.15005261795E+03  0.45520277972E+03 -0.14574479377E+04  0.15342359173E+04  0.00000000000E+00 0.  1.
<mgrwt>
<rscale>  0 0.18443030E+04</rscale>
<asrwt>0</asrwt>
<pdfrwt beam="1">  1        2 0.73071330E+00 0.18443030E+04</pdfrwt>
<pdfrwt beam="2">  1       -2 0.27544243E-01 0.18443030E+04</pdfrwt>
<totfact> 0.78598097E-01</totfact>
</mgrwt>
</event>
<event>
12    1  0.2214165E-007  0.2020153E+04  0.7818608E-02  0.8597256E-01
          1   -1    0    0  501    0  0.00000000000E+00  0.00000000000E+00  0.81753983587E+03  0.81753983587E+03  0.00000000000E+00 0. -1.
         -1   -1    0    0    0  501 -0.00000000000E+00 -0.00000000000E+00 -0.12479571193E+04  0.12479571193E+04  0.00000000000E+00 0.  1.
         23    2    1    2    0    0 -0.77024361966E+03 -0.12913048520E+03 -0.37509953873E+03  0.87109392768E+03  0.90305321345E+02 0.  0.
        254    2    1    2    0    0  0.77024361966E+03  0.12913048520E+03 -0.55317744734E+02  0.11944030275E+04  0.90199147637E+03 0.  0.
        -24    2    4    4    0    0 -0.12449381398E+03  0.57530235705E+02 -0.22671420751E+03  0.27713412393E+03  0.81213010170E+02 0.  0.
         24    2    4    4    0    0  0.89473743364E+03  0.71600249492E+02  0.17139646277E+03  0.91726890360E+03  0.79522469647E+02 0.  0.
         13    1    3    3    0    0 -0.33188895605E+03 -0.47810024053E+02 -0.11256762951E+03  0.35370545481E+03  0.00000000000E+00 0. -1.
        -13    1    3    3    0    0 -0.43835466361E+03 -0.81320461143E+02 -0.26253190921E+03  0.51738847287E+03  0.00000000000E+00 0.  1.
          4    1    6    6  502    0  0.11626395733E+03  0.46885656760E+01 -0.42095991490E+01  0.11643457883E+03  0.00000000000E+00 0. -1.
          1    1    5    5  503    0 -0.60967357502E+02  0.11848866846E+02 -0.16857713838E+03  0.17965429555E+03  0.00000000000E+00 0. -1.
         -2    1    5    5    0  503 -0.63526456478E+02  0.45681368859E+02 -0.58137069127E+02  0.97479828375E+02  0.00000000000E+00 0.  1.
         -3    1    6    6    0  502  0.77847347630E+03  0.66911683816E+02  0.17560606192E+03  0.80083432477E+03  0.00000000000E+00 0.  1.
<mgrwt>
<rscale>  0 0.20201531E+04</rscale>
<asrwt>0</asrwt>
<pdfrwt beam="1">  1        1 0.12577536E+00 0.20201531E+04</pdfrwt>
<pdfrwt beam="2">  1       -1 0.19199340E+00 0.20201531E+04</pdfrwt>
<totfact> 0.33822056E+00</totfact>
</mgrwt>
</event>
<event>
12    1  0.2214165E-007  0.2419709E+04  0.7818608E-02  0.8432161E-01
          2   -1    0    0  501    0  0.00000000000E+00  0.00000000000E+00  0.21889107306E+04  0.21889107306E+04  0.00000000000E+00 0. -1.
         -2   -1    0    0    0  501 -0.00000000000E+00 -0.00000000000E+00 -0.66871073182E+03  0.66871073182E+03  0.00000000000E+00 0.  1.
         23    2    1    2    0    0  0.57425137013E+03 -0.84418162125E+03  0.89490619768E+03  0.13607370761E+04  0.91329303862E+02 0.  0.
        254    2    1    2    0    0 -0.57425137013E+03  0.84418162125E+03  0.62529380111E+03  0.14968843864E+04  0.89847831511E+03 0.  0.
        -24    2    4    4    0    0  0.21163999142E+03  0.31547137787E+03  0.65577135924E+02  0.39391487865E+03  0.80962303834E+02 0.  0.
         24    2    4    4    0    0 -0.78589136154E+03  0.52871024338E+03  0.55971666519E+03  0.11029695077E+04  0.78097606165E+02 0.  0.
         11    1    3    3    0    0  0.42882997364E+03 -0.55598317512E+03  0.60408185296E+03  0.92624366254E+03  0.00000000000E+00 0. -1.
        -11    1    3    3    0    0  0.14542139649E+03 -0.28819844613E+03  0.29082434472E+03  0.43449341352E+03  0.00000000000E+00 0.  1.
          4    1    6    6  502    0 -0.75857753929E+03  0.52546580969E+03  0.54082398294E+03  0.10696002902E+04  0.00000000000E+00 0. -1.
          1    1    5    5  503    0  0.16642623084E+03  0.21015797366E+03  0.14576843350E+02  0.26847075924E+03  0.00000000000E+00 0. -1.
         -2    1    5    5    0  503  0.45213760579E+02  0.10531340421E+03  0.51000292574E+02  0.12544411941E+03  0.00000000000E+00 0.  1.
         -3    1    6    6    0  502 -0.27313822254E+02  0.32444336875E+01  0.18892682253E+02  0.33369217534E+02  0.00000000000E+00 0.  1.
<mgrwt>
<rscale>  0 0.24197092E+04</rscale>
<asrwt>0</asrwt>
<pdfrwt beam="1">  1        2 0.33675549E+00 0.24197092E+04</pdfrwt>
<pdfrwt beam="2">  1       -2 0.10287858E+00 0.24197092E+04</pdfrwt>
<totfact> 0.36301003E+00</totfact>
</mgrwt>
</event>
<event>
12    1  0.2776009E-007  0.2871819E+04  0.7818608E-02  0.8281312E-01
          2   -1    0    0  501    0  0.00000000000E+00  0.00000000000E+00  0.12159349772E+04  0.12159349772E+04  0.00000000000E+00 0. -1.
         -2   -1    0    0    0  501 -0.00000000000E+00 -0.00000000000E+00 -0.16956794980E+04  0.16956794980E+04  0.00000000000E+00 0.  1.
         23    2    1    2    0    0 -0.12685887817E+04 -0.25202103929E+03 -0.26189521783E+03  0.13228205657E+04  0.91831599849E+02 0.  0.
        254    2    1    2    0    0  0.12685887817E+04  0.25202103929E+03 -0.21784930297E+03  0.15887939095E+04  0.89664690201E+03 0.  0.
        -24    2    4    4    0    0  0.60146499027E+03  0.15258212300E+03 -0.54956497428E+03  0.83321231799E+03  0.84732916382E+02 0.  0.
         24    2    4    4    0    0  0.66712379142E+03  0.99438916298E+02  0.33171567131E+03  0.75558159154E+03  0.76980541246E+02 0.  0.
         11    1    3    3    0    0 -0.77274457566E+03 -0.16596181149E+03 -0.11592614477E+03  0.79882186571E+03  0.00000000000E+00 0. -1.
        -11    1    3    3    0    0 -0.49584420602E+03 -0.86059227799E+02 -0.14596907306E+03  0.52399870002E+03  0.00000000000E+00 0.  1.
          4    1    6    6  502    0  0.49018931657E+03  0.87645011821E+02  0.20961463703E+03  0.54028280579E+03  0.00000000000E+00 0. -1.
          3    1    5    5  503    0  0.52257447193E+03  0.10958103255E+03 -0.49500781104E+03  0.72809670676E+03  0.00000000000E+00 0. -1.
         -4    1    5    5    0  503  0.78890518338E+02  0.43001090444E+02 -0.54557163244E+02  0.10511561123E+03  0.00000000000E+00 0.  1.
         -1    1    6    6    0  502  0.17693447485E+03  0.11793904477E+02  0.12210103428E+03  0.21529878575E+03  0.00000000000E+00 0.  1.
<mgrwt>
<rscale>  0 0.28718189E+04</rscale>
<asrwt>0</asrwt>
<pdfrwt beam="1">  1        2 0.18706692E+00 0.28718189E+04</pdfrwt>
<pdfrwt beam="2">  1       -2 0.26087377E+00 0.28718189E+04</pdfrwt>
<totfact> 0.88338664E-01</totfact>
</mgrwt>
</event>
<event>
12    1  0.2214165E-007  0.2124714E+04  0.7818608E-02  0.8550434E-01
         -2   -1    0    0    0  501 -0.00000000000E+00  0.00000000000E+00  0.18485128968E+04  0.18485128968E+04  0.00000000000E+00 0.  1.
          2   -1    0    0  501    0  0.00000000000E+00 -0.00000000000E+00 -0.61054616946E+03  0.61054616946E+03  0.00000000000E+00 0. -1.
         23    2    1    2    0    0 -0.40416475746E+03 -0.68191825853E+03  0.93076097739E+02  0.80381653631E+03  0.95374008954E+02 0.  0.
        254    2    1    2    0    0  0.40416475746E+03  0.68191825853E+03  0.11448906296E+04  0.16552425299E+04  0.89481373299E+03 0.  0.
        -24    2    4    4    0    0 -0.14969214308E+03 -0.12702974410E+03  0.18910096937E+03  0.28380115517E+03  0.78991299986E+02 0.  0.
         24    2    4    4    0    0  0.55385690054E+03  0.80894800263E+03  0.95578966021E+03  0.13714413748E+04  0.78506258552E+02 0.  0.
         11    1    3    3    0    0 -0.37841822620E+03 -0.59125790837E+03  0.10110020553E+03  0.70923023038E+03  0.00000000000E+00 0. -1.
        -11    1    3    3    0    0 -0.25746531262E+02 -0.90660350153E+02 -0.80241077935E+01  0.94586305921E+02  0.00000000000E+00 0.  1.
          2    1    6    6  502    0  0.46201571659E+03  0.64742857130E+03  0.73625806369E+03  0.10838349568E+04  0.00000000000E+00 0. -1.
          1    1    5    5  503    0 -0.14625358767E+03 -0.84539237149E+02  0.14816852786E+03  0.22470181835E+03  0.00000000000E+00 0. -1.
         -2    1    5    5    0  503 -0.34385554147E+01 -0.42490506950E+02  0.40932441515E+02  0.59099336821E+02  0.00000000000E+00 0.  1.
         -1    1    6    6    0  502  0.91841183956E+02  0.16151943133E+03  0.21953159652E+03  0.28760641793E+03  0.00000000000E+00 0.  1.
<mgrwt>
<rscale>  0 0.21247141E+04</rscale>
<asrwt>0</asrwt>
<pdfrwt beam="1">  1        2 0.93930180E-01 0.21247141E+04</pdfrwt>
<pdfrwt beam="2">  1       -2 0.28438660E+00 0.21247141E+04</pdfrwt>
<totfact> 0.17689345E+00</totfact>
</mgrwt>
</event>
<event>
12    1  0.2214165E-007  0.1754972E+04  0.7818608E-02  0.8730618E-01
          1   -1    0    0  501    0  0.00000000000E+00  0.00000000000E+00  0.15441989861E+04  0.15441989861E+04  0.00000000000E+00 0. -1.
         -1   -1    0    0    0  501 -0.00000000000E+00 -0.00000000000E+00 -0.49862852428E+03  0.49862852428E+03  0.00000000000E+00 0.  1.
         23    2    1    2    0    0 -0.57570446510E+03 -0.40026763845E+02  0.72015972997E+03  0.92740064608E+03  0.91674144229E+02 0.  0.
        254    2    1    2    0    0  0.57570446510E+03  0.40026763845E+02  0.32541073185E+03  0.11154268643E+04  0.89735565538E+03 0.  0.
        -24    2    4    4    0    0  0.18415881234E+03  0.22456084061E+03 -0.25009913210E+03  0.39147334414E+03  0.79748128472E+02 0.  0.
         24    2    4    4    0    0  0.39154565275E+03 -0.18453407676E+03  0.57550986395E+03  0.72395352017E+03  0.74406130008E+02 0.  0.
         11    1    3    3    0    0 -0.48376638069E+03 -0.17337336701E+02  0.64531342817E+03  0.80669691638E+03  0.00000000000E+00 0. -1.
        -11    1    3    3    0    0 -0.91938084411E+02 -0.22689427144E+02  0.74846301802E+02  0.12070372970E+03  0.00000000000E+00 0.  1.
          2    1    6    6  502    0  0.15967990282E+03 -0.40485840400E+02  0.18811511988E+03  0.25004814130E+03  0.00000000000E+00 0. -1.
          1    1    5    5  503    0  0.31001608455E+02  0.47517492888E+02 -0.95017661830E+02  0.11066782693E+03  0.00000000000E+00 0. -1.
         -2    1    5    5    0  503  0.15315720389E+03  0.17704334772E+03 -0.15508147027E+03  0.28080551721E+03  0.00000000000E+00 0.  1.
         -1    1    6    6    0  502  0.23186574993E+03 -0.14404823636E+03  0.38739474407E+03  0.47390537887E+03  0.00000000000E+00 0.  1.
<mgrwt>
<rscale>  0 0.17549720E+04</rscale>
<asrwt>0</asrwt>
<pdfrwt beam="1">  1        1 0.23756907E+00 0.17549720E+04</pdfrwt>
<pdfrwt beam="2">  1       -1 0.76712081E-01 0.17549720E+04</pdfrwt>
<totfact> 0.98460361E+00</totfact>
</mgrwt>
</event>
<event>
12    1  0.2214165E-007  0.2824378E+04  0.7818608E-02  0.8295740E-01
          3   -1    0    0  501    0  0.00000000000E+00  0.00000000000E+00  0.21830884528E+04  0.21830884528E+04  0.00000000000E+00 0. -1.
         -3   -1    0    0    0  501 -0.00000000000E+00 -0.00000000000E+00 -0.91351235205E+03  0.91351235205E+03  0.00000000000E+00 0.  1.
         23    2    1    2    0    0 -0.81337470118E+03  0.45748898575E+03 -0.36829723065E+03  0.10076224841E+04  0.93731765143E+02 0.  0.
        254    2    1    2    0    0  0.81337470118E+03 -0.45748898575E+03  0.16378733314E+04  0.20889783207E+04  0.90018153621E+03 0.  0.
        -24    2    4    4    0    0  0.73081939358E+03  0.86783867978E+02  0.95600870929E+03  0.12090023002E+04  0.78137595717E+02 0.  0.
         24    2    4    4    0    0  0.82555307607E+02 -0.54427285373E+03  0.68186462214E+03  0.87997602055E+03  0.79813004598E+02 0.  0.
         13    1    3    3    0    0 -0.42995051643E+03  0.21037360590E+03 -0.14773438790E+03  0.50093906815E+03  0.00000000000E+00 0. -1.
        -13    1    3    3    0    0 -0.38342418476E+03  0.24711537985E+03 -0.22056284275E+03  0.50668341597E+03  0.00000000000E+00 0.  1.
          4    1    6    6  502    0  0.85749731757E+02 -0.39904798573E+03  0.54035160947E+03  0.67717957240E+03  0.00000000000E+00 0. -1.
          1    1    5    5  503    0  0.62670643835E+03  0.89110950845E+02  0.78056626242E+03  0.10049803040E+04  0.00000000000E+00 0. -1.
         -2    1    5    5    0  503  0.10411295523E+03 -0.23270828671E+01  0.17544244687E+03  0.20402199618E+03  0.00000000000E+00 0.  1.
         -3    1    6    6    0  502 -0.31944241500E+01 -0.14522486800E+03  0.14151301267E+03  0.20279644816E+03  0.00000000000E+00 0.  1.
<mgrwt>
<rscale>  0 0.28243784E+04</rscale>
<asrwt>0</asrwt>
<pdfrwt beam="1">  1        3 0.33585976E+00 0.28243784E+04</pdfrwt>
<pdfrwt beam="2">  1       -3 0.14054036E+00 0.28243784E+04</pdfrwt>
<totfact> 0.21183766E-02</totfact>
</mgrwt>
</event>
<event>
12    1  0.2214165E-007  0.2238816E+04  0.7818608E-02  0.8502443E-01
         -2   -1    0    0    0  501 -0.00000000000E+00  0.00000000000E+00  0.14394884885E+04  0.14394884885E+04  0.00000000000E+00 0.  1.
          2   -1    0    0  501    0  0.00000000000E+00 -0.00000000000E+00 -0.87049992282E+03  0.87049992282E+03  0.00000000000E+00 0. -1.
         23    2    1    2    0    0  0.17022852236E+03  0.70218522040E+03 -0.37424904550E+03  0.81884241141E+03  0.91644492924E+02 0.  0.
        254    2    1    2    0    0 -0.17022852236E+03 -0.70218522040E+03  0.94323761113E+03  0.14911459999E+04  0.90098688575E+03 0.  0.
        -24    2    4    4    0    0 -0.41453694132E+03 -0.77969237091E+03  0.72674551744E+03  0.11464793384E+04  0.80590056308E+02 0.  0.
         24    2    4    4    0    0  0.24430841895E+03  0.77507150505E+02  0.21649209369E+03  0.34466666152E+03  0.78945037717E+02 0.  0.
         13    1    3    3    0    0  0.12687844378E+03  0.39425087135E+03 -0.25134649843E+03  0.48446563483E+03  0.00000000000E+00 0. -1.
        -13    1    3    3    0    0  0.43350078588E+02  0.30793434905E+03 -0.12290254707E+03  0.33437677658E+03  0.00000000000E+00 0.  1.
          2    1    6    6  502    0  0.56515562119E+01  0.22558475562E+02  0.20347457040E+02  0.30900548787E+02  0.00000000000E+00 0. -1.
          3    1    5    5  503    0 -0.25239666680E+03 -0.55234635576E+03  0.50874438316E+03  0.79221930141E+03  0.00000000000E+00 0. -1.
         -4    1    5    5    0  503 -0.16214027451E+03 -0.22734601515E+03  0.21800113428E+03  0.35426003694E+03  0.00000000000E+00 0.  1.
         -1    1    6    6    0  502  0.23865686274E+03  0.54948674943E+02  0.19614463665E+03  0.31376611273E+03  0.00000000000E+00 0.  1.
<mgrwt>
<rscale>  0 0.22388163E+04</rscale>
<asrwt>0</asrwt>
<pdfrwt beam="1">  1        2 0.13392307E+00 0.22388163E+04</pdfrwt>
<pdfrwt beam="2">  1       -2 0.22145977E+00 0.22388163E+04</pdfrwt>
<totfact> 0.27068773E+00</totfact>
</mgrwt>
</event>
<event>
12    1  0.2214165E-007  0.2502613E+04  0.7818608E-02  0.8402055E-01
          1   -1    0    0  501    0  0.00000000000E+00  0.00000000000E+00  0.16679268020E+04  0.16679268020E+04  0.00000000000E+00 0. -1.
         -1   -1    0    0    0  501 -0.00000000000E+00 -0.00000000000E+00 -0.93875063637E+03  0.93875063637E+03  0.00000000000E+00 0.  1.
         23    2    1    2    0    0  0.64431348628E+03 -0.87309702108E+03  0.21845221931E+03  0.11106438212E+04  0.91487970216E+02 0.  0.
        254    2    1    2    0    0 -0.64431348628E+03  0.87309702108E+03  0.51072394633E+03  0.14960336172E+04  0.89433738459E+03 0.  0.
        -24    2    4    4    0    0 -0.23460097698E+03 -0.21305334135E+02 -0.16510881161E+03  0.29984108354E+03  0.84570798999E+02 0.  0.
         24    2    4    4    0    0 -0.40971250930E+03  0.89440235521E+03  0.67583275795E+03  0.11961925336E+04  0.79415033026E+02 0.  0.
         13    1    3    3    0    0  0.29246733947E+03 -0.32329263237E+03  0.99064144282E+02  0.44706708164E+03  0.00000000000E+00 0. -1.
        -13    1    3    3    0    0  0.35184614681E+03 -0.54980438871E+03  0.11938807503E+03  0.66357673959E+03  0.00000000000E+00 0.  1.
          4    1    6    6  502    0 -0.27430558237E+01  0.16630918605E+02  0.16354258243E+01  0.16934769751E+02  0.00000000000E+00 0. -1.
          3    1    5    5  503    0 -0.13391353646E+03  0.28713881218E+02 -0.77955727248E+02  0.15758939569E+03  0.00000000000E+00 0. -1.
         -4    1    5    5    0  503 -0.10068744052E+03 -0.50019215352E+02 -0.87153084364E+02  0.14225168785E+03  0.00000000000E+00 0.  1.
         -3    1    6    6    0  502 -0.40696945347E+03  0.87777143661E+03  0.67419733212E+03  0.11792577639E+04  0.00000000000E+00 0.  1.
<mgrwt>
<rscale>  0 0.25026125E+04</rscale>
<asrwt>0</asrwt>
<pdfrwt beam="1">  1        1 0.25660412E+00 0.25026125E+04</pdfrwt>
<pdfrwt beam="2">  1       -1 0.14442317E+00 0.25026125E+04</pdfrwt>
<totfact> 0.17192388E+00</totfact>
</mgrwt>
</event>
<event>
12    1  0.2214165E-007  0.3327390E+04  0.7818608E-02  0.8155961E-01
          3   -1    0    0  501    0  0.00000000000E+00  0.00000000000E+00  0.17662617666E+04  0.17662617666E+04  0.00000000000E+00 0. -1.
         -3   -1    0    0    0  501 -0.00000000000E+00 -0.00000000000E+00 -0.15670841565E+04  0.15670841565E+04  0.00000000000E+00 0.  1.
         23    2    1    2    0    0 -0.46968853900E+03  0.14648296018E+04  0.78424002502E+01  0.15410739181E+04  0.92272595633E+02 0.  0.
        254    2    1    2    0    0  0.46968853900E+03 -0.14648296018E+04  0.19133520989E+03  0.17922720050E+04  0.89960918804E+03 0.  0.
        -24    2    4    4    0    0  0.53904392429E+03 -0.13159601266E+04  0.43439141827E+03  0.14893420391E+04  0.84406150194E+02 0.  0.
         24    2    4    4    0    0 -0.69355385289E+02 -0.14886947526E+03 -0.24305620838E+03  0.30292996586E+03  0.75617151802E+02 0.  0.
         11    1    3    3    0    0 -0.13668681680E+03  0.53038552652E+03 -0.27885698646E+02  0.54842474855E+03  0.00000000000E+00 0. -1.
        -11    1    3    3    0    0 -0.33300172221E+03  0.93444407529E+03  0.35728098896E+02  0.99264916959E+03  0.00000000000E+00 0.  1.
          2    1    6    6  502    0  0.10323774320E+02 -0.62206538193E+02 -0.87029669143E+02  0.10747277340E+03  0.00000000000E+00 0. -1.
          3    1    5    5  503    0  0.96785837686E+01 -0.36265250942E+02 -0.13061205021E+01  0.37557281058E+02  0.00000000000E+00 0. -1.
         -4    1    5    5    0  503  0.52936534052E+03 -0.12796948756E+04  0.43569753877E+03  0.14517847581E+04  0.00000000000E+00 0.  1.
         -1    1    6    6    0  502 -0.79679159608E+02 -0.86662937068E+02 -0.15602653924E+03  0.19545719246E+03  0.00000000000E+00 0.  1.
<mgrwt>
<rscale>  0 0.33273899E+04</rscale>
<asrwt>0</asrwt>
<pdfrwt beam="1">  1        3 0.27173258E+00 0.33273899E+04</pdfrwt>
<pdfrwt beam="2">  1       -3 0.24108987E+00 0.33273899E+04</pdfrwt>
<totfact> 0.98735739E-03</totfact>
</mgrwt>
</event>
<event>
12    1  0.2214165E-007  0.1506796E+04  0.7818608E-02  0.8879946E-01
          2   -1    0    0  501    0  0.00000000000E+00  0.00000000000E+00  0.91410417403E+03  0.91410417403E+03  0.00000000000E+00 0. -1.
         -2   -1    0    0    0  501 -0.00000000000E+00 -0.00000000000E+00 -0.62094553088E+03  0.62094553088E+03  0.00000000000E+00 0.  1.
         23    2    1    2    0    0 -0.16137625119E+03 -0.42196076507E+03 -0.61976492119E+02  0.46539939449E+03  0.93071634301E+02 0.  0.
        254    2    1    2    0    0  0.16137625119E+03  0.42196076507E+03  0.35513513527E+03  0.10696503104E+04  0.90218492594E+03 0.  0.
        -24    2    4    4    0    0  0.52030079247E+03  0.14806091598E+03  0.23853261729E+03  0.59668555068E+03  0.80628080634E+02 0.  0.
         24    2    4    4    0    0 -0.35892454128E+03  0.27389984908E+03  0.11660251798E+03  0.47296475975E+03  0.79066826841E+02 0.  0.
         11    1    3    3    0    0 -0.11899305858E+03 -0.25030079315E+03 -0.77853304759E+02  0.28787318754E+03  0.00000000000E+00 0.  1.
        -11    1    3    3    0    0 -0.42383192608E+02 -0.17165997192E+03  0.15876812640E+02  0.17752620695E+03  0.00000000000E+00 0. -1.
          4    1    6    6  502    0 -0.16568964718E+03  0.79589120510E+02  0.35848275599E+02  0.18727676350E+03  0.00000000000E+00 0. -1.
          1    1    5    5  503    0  0.13484134288E+03  0.75253831968E+02  0.59487136091E+02  0.16548125675E+03  0.00000000000E+00 0. -1.
         -2    1    5    5    0  503  0.38545944959E+03  0.72807084016E+02  0.17904548120E+03  0.43120429393E+03  0.00000000000E+00 0.  1.
         -3    1    6    6    0  502 -0.19323489411E+03  0.19431072857E+03  0.80754242379E+02  0.28568799625E+03  0.00000000000E+00 0.  1.
<mgrwt>
<rscale>  0 0.15067965E+04</rscale>
<asrwt>0</asrwt>
<pdfrwt beam="1">  1        2 0.14063141E+00 0.15067965E+04</pdfrwt>
<pdfrwt beam="2">  1       -2 0.95530082E-01 0.15067965E+04</pdfrwt>
<totfact> 0.25490438E+01</totfact>
</mgrwt>
</event>
<event>
12    1  0.2214165E-007  0.2448036E+04  0.7818608E-02  0.8421735E-01
          2   -1    0    0  501    0  0.00000000000E+00  0.00000000000E+00  0.23939080871E+04  0.23939080871E+04  0.00000000000E+00 0. -1.
         -2   -1    0    0    0  501 -0.00000000000E+00 -0.00000000000E+00 -0.62584708320E+03  0.62584708320E+03  0.00000000000E+00 0.  1.
         23    2    1    2    0    0 -0.73319215828E+03 -0.76136027947E+03  0.76938284141E+03  0.13107054409E+04  0.93587286092E+02 0.  0.
        254    2    1    2    0    0  0.73319215828E+03  0.76136027947E+03  0.99867816244E+03  0.17090497293E+04  0.89791574719E+03 0.  0.
        -24    2    4    4    0    0  0.35472700198E+03  0.80624203594E+03  0.97796098907E+03  0.13185413113E+04  0.79284469249E+02 0.  0.
         24    2    4    4    0    0  0.37846515630E+03 -0.44881756477E+02  0.20717173370E+02  0.39050841800E+03  0.82567406763E+02 0.  0.
         11    1    3    3    0    0 -0.32620953219E+03 -0.31776695027E+03  0.38607966035E+03  0.59703098556E+03  0.00000000000E+00 0.  1.
        -11    1    3    3    0    0 -0.40698262609E+03 -0.44359332920E+03  0.38330318106E+03  0.71367445538E+03  0.00000000000E+00 0. -1.
          4    1    6    6  502    0  0.26991992332E+03 -0.26141606073E+02  0.51734526419E+02  0.27607355867E+03  0.00000000000E+00 0. -1.
          1    1    5    5  503    0  0.35025849295E+03  0.79779258368E+03  0.97677577142E+03  0.13089098235E+04  0.00000000000E+00 0. -1.
         -2    1    5    5    0  503  0.44685090318E+01  0.84494522637E+01  0.11852176494E+01  0.96314878082E+01  0.00000000000E+00 0.  1.
         -3    1    6    6    0  502  0.10854523298E+03 -0.18740150403E+02 -0.31017353049E+02  0.11443485933E+03  0.00000000000E+00 0.  1.
<mgrwt>
<rscale>  0 0.24480363E+04</rscale>
<asrwt>0</asrwt>
<pdfrwt beam="1">  1        2 0.36829355E+00 0.24480363E+04</pdfrwt>
<pdfrwt beam="2">  1       -2 0.96284167E-01 0.24480363E+04</pdfrwt>
<totfact> 0.32414026E+00</totfact>
</mgrwt>
</event>
<event>
12    1  0.2214165E-007  0.1732076E+04  0.7818608E-02  0.8743279E-01
         -2   -1    0    0    0  501 -0.00000000000E+00  0.00000000000E+00  0.17712736934E+03  0.17712736934E+03  0.00000000000E+00 0.  1.
          2   -1    0    0  501    0  0.00000000000E+00 -0.00000000000E+00 -0.42343632610E+04  0.42343632610E+04  0.00000000000E+00 0. -1.
         23    2    1    2    0    0  0.13603662432E+03  0.57926222463E+03 -0.97407229486E+03  0.11450389869E+04  0.90811661374E+02 0.  0.
        254    2    1    2    0    0 -0.13603662432E+03 -0.57926222463E+03 -0.30831635968E+04  0.32664516434E+04  0.89986548236E+03 0.  0.
        -24    2    4    4    0    0  0.32519988542E+03 -0.82319019932E+02 -0.60826984074E+03  0.69904123973E+03  0.78326682332E+02 0.  0.
         24    2    4    4    0    0 -0.46123650974E+03 -0.49694320470E+03 -0.24748937560E+04  0.25674104037E+04  0.82494913532E+02 0.  0.
         13    1    3    3    0    0  0.11351741789E+03  0.45866778841E+03 -0.83639035363E+03  0.96063060952E+03  0.00000000000E+00 0. -1.
        -13    1    3    3    0    0  0.22519206430E+02  0.12059443622E+03 -0.13768194123E+03  0.18440837737E+03  0.00000000000E+00 0.  1.
          4    1    6    6  502    0 -0.45559086282E+03 -0.46827173760E+03 -0.23864234697E+04  0.24742389600E+04  0.00000000000E+00 0. -1.
          3    1    5    5  503    0  0.29792066108E+03 -0.89209078300E+02 -0.51494524489E+03  0.60156760650E+03  0.00000000000E+00 0. -1.
         -4    1    5    5    0  503  0.27279224341E+02  0.68900583686E+01 -0.93324595845E+02  0.97473633227E+02  0.00000000000E+00 0.  1.
         -3    1    6    6    0  502 -0.56456469261E+01 -0.28671467093E+02 -0.88470286358E+02  0.93171443709E+02  0.00000000000E+00 0.  1.
<mgrwt>
<rscale>  0 0.17320758E+04</rscale>
<asrwt>0</asrwt>
<pdfrwt beam="1">  1        2 0.65144047E+00 0.17320758E+04</pdfrwt>
<pdfrwt beam="2">  1       -2 0.27250366E-01 0.17320758E+04</pdfrwt>
<totfact> 0.25758482E+00</totfact>
</mgrwt>
</event>
<event>
12    1  0.2214165E-007  0.1902427E+04  0.7818608E-02  0.8653649E-01
         -1   -1    0    0    0  501 -0.00000000000E+00  0.00000000000E+00  0.45937341369E+03  0.45937341369E+03  0.00000000000E+00 0.  1.
          1   -1    0    0  501    0  0.00000000000E+00 -0.00000000000E+00 -0.19696541969E+04  0.19696541969E+04  0.00000000000E+00 0. -1.
         23    2    1    2    0    0 -0.46619070224E+03 -0.39985759814E+03 -0.68914421957E+02  0.62464906580E+03  0.90649810826E+02 0.  0.
        254    2    1    2    0    0  0.46619070224E+03  0.39985759814E+03 -0.14413663613E+04  0.18043785448E+04  0.89500004242E+03 0.  0.
        -24    2    4    4    0    0 -0.48765922131E+02 -0.20788387912E+03 -0.11593375665E+03  0.25582802946E+03  0.80084470196E+02 0.  0.
         24    2    4    4    0    0  0.51495662437E+03  0.60774147726E+03 -0.13254326046E+04  0.15485505154E+04  0.81896770583E+02 0.  0.
         11    1    3    3    0    0 -0.36651926789E+03 -0.30099062611E+03 -0.15751391281E+02  0.47453117608E+03  0.00000000000E+00 0.  1.
        -11    1    3    3    0    0 -0.99671434349E+02 -0.98866972027E+02 -0.53163030676E+02  0.15011788972E+03  0.00000000000E+00 0. -1.
          4    1    6    6  502    0  0.23656917437E+03  0.21729715072E+03 -0.52577423238E+03  0.61613437610E+03  0.00000000000E+00 0. -1.
          1    1    5    5  503    0 -0.63385849737E+02 -0.97914140337E+02 -0.51176199766E+02  0.12737326347E+03  0.00000000000E+00 0. -1.
         -2    1    5    5    0  503  0.14619927606E+02 -0.10996973879E+03 -0.64757556887E+02  0.12845476599E+03  0.00000000000E+00 0.  1.
         -3    1    6    6    0  502  0.27838745000E+03  0.39044432654E+03 -0.79965837226E+03  0.93241613927E+03  0.00000000000E+00 0.  1.
<mgrwt>
<rscale>  0 0.19024266E+04</rscale>
<asrwt>0</asrwt>
<pdfrwt beam="1">  1        1 0.30302372E+00 0.19024266E+04</pdfrwt>
<pdfrwt beam="2">  1       -1 0.70672834E-01 0.19024266E+04</pdfrwt>
<totfact> 0.59129628E+00</totfact>
</mgrwt>
</event>
<event>
12    1  0.2214165E-007  0.1259823E+04  0.7818608E-02  0.9062047E-01
          2   -1    0    0  501    0  0.00000000000E+00  0.00000000000E+00  0.16559525734E+04  0.16559525734E+04  0.00000000000E+00 0. -1.
         -2   -1    0    0    0  501 -0.00000000000E+00 -0.00000000000E+00 -0.23961330167E+03  0.23961330167E+03  0.00000000000E+00 0.  1.
         23    2    1    2    0    0  0.26097909729E+03 -0.12265476813E+03  0.46278613971E+03  0.55291596034E+03  0.91601128395E+02 0.  0.
        254    2    1    2    0    0 -0.26097909729E+03  0.12265476813E+03  0.95355313200E+03  0.13426499147E+04  0.90016161689E+03 0.  0.
        -24    2    4    4    0    0  0.23814949262E+03 -0.18886812484E+03  0.51940725280E+03  0.60714280216E+03  0.80325204898E+02 0.  0.
         24    2    4    4    0    0 -0.49912858991E+03  0.31152289297E+03  0.43414587920E+03  0.73550711254E+03  0.79449393018E+02 0.  0.
         11    1    3    3    0    0  0.16863736601E+03 -0.47441980692E+02  0.33624778077E+03  0.37914624200E+03  0.00000000000E+00 0. -1.
        -11    1    3    3    0    0  0.92341731280E+02 -0.75212787442E+02  0.12653835894E+03  0.17376971835E+03  0.00000000000E+00 0.  1.
          2    1    6    6  502    0 -0.34226489770E+03  0.20340802987E+03  0.24750752574E+03  0.46880706278E+03  0.00000000000E+00 0. -1.
          3    1    5    5  503    0  0.21937956418E+03 -0.16217268674E+03  0.40609097761E+03  0.48922107027E+03  0.00000000000E+00 0. -1.
         -4    1    5    5    0  503  0.18769928441E+02 -0.26695438100E+02  0.11331627519E+03  0.11792173189E+03  0.00000000000E+00 0.  1.
         -1    1    6    6    0  502 -0.15686369221E+03  0.10811486310E+03  0.18663835346E+03  0.26670004976E+03  0.00000000000E+00 0.  1.
<mgrwt>
<rscale>  0 0.12598226E+04</rscale>
<asrwt>0</asrwt>
<pdfrwt beam="1">  1        2 0.25476193E+00 0.12598226E+04</pdfrwt>
<pdfrwt beam="2">  1       -2 0.36863586E-01 0.12598226E+04</pdfrwt>
<totfact> 0.70692817E+01</totfact>
</mgrwt>
</event>
<event>
12    1  0.2214165E-007  0.1097686E+04  0.7818608E-02  0.9207450E-01
         -2   -1    0    0    0  501 -0.00000000000E+00  0.00000000000E+00  0.11412344414E+04  0.11412344414E+04  0.00000000000E+00 0.  1.
          2   -1    0    0  501    0  0.00000000000E+00 -0.00000000000E+00 -0.26394973209E+03  0.26394973209E+03  0.00000000000E+00 0. -1.
         23    2    1    2    0    0  0.14495878788E+03  0.29186959788E+02  0.22233610664E+03  0.28165564521E+03  0.89619358162E+02 0.  0.
        254    2    1    2    0    0 -0.14495878788E+03 -0.29186959788E+02  0.65494860271E+03  0.11235285283E+04  0.90082948049E+03 0.  0.
        -24    2    4    4    0    0  0.19897044044E+03 -0.17960660100E+03 -0.82452834265E+02  0.29174829667E+03  0.80441478351E+02 0.  0.
         24    2    4    4    0    0 -0.34392922832E+03  0.15041964121E+03  0.73740143697E+03  0.83178023164E+03  0.84759022794E+02 0.  0.
         13    1    3    3    0    0  0.15384384080E+03  0.27699522628E+02  0.18013304514E+03  0.23850179215E+03  0.00000000000E+00 0. -1.
        -13    1    3    3    0    0 -0.88850529129E+01  0.14874371603E+01  0.42203061499E+02  0.43153853066E+02  0.00000000000E+00 0.  1.
          4    1    6    6  502    0 -0.18660598680E+03  0.79768566725E+02  0.48842619370E+03  0.52890922212E+03  0.00000000000E+00 0. -1.
          1    1    5    5  503    0  0.98234999480E+02 -0.99136739113E+02 -0.83839471286E+02  0.16281051904E+03  0.00000000000E+00 0. -1.
         -2    1    5    5    0  503  0.10073544096E+03 -0.80469861883E+02  0.13866370206E+01  0.12893777763E+03  0.00000000000E+00 0.  1.
         -3    1    6    6    0  502 -0.15732324152E+03  0.70651074483E+02  0.24897524327E+03  0.30287100952E+03  0.00000000000E+00 0.  1.
<mgrwt>
<rscale>  0 0.10976858E+04</rscale>
<asrwt>0</asrwt>
<pdfrwt beam="1">  1        2 0.40607652E-01 0.10976858E+04</pdfrwt>
<pdfrwt beam="2">  1       -2 0.17557453E+00 0.10976858E+04</pdfrwt>
<totfact> 0.24460058E+01</totfact>
</mgrwt>
</event>
<event>
12    1  0.2214165E-007  0.1677528E+04  0.7818608E-02  0.8774286E-01
          2   -1    0    0  501    0  0.00000000000E+00  0.00000000000E+00  0.40090712902E+03  0.40090712902E+03  0.00000000000E+00 0. -1.
         -2   -1    0    0    0  501 -0.00000000000E+00 -0.00000000000E+00 -0.17548337734E+04  0.17548337734E+04  0.00000000000E+00 0.  1.
         23    2    1    2    0    0 -0.33516478835E+03  0.32964844764E+03 -0.19740556695E+02  0.47926871110E+03  0.91133273152E+02 0.  0.
        254    2    1    2    0    0  0.33516478835E+03 -0.32964844764E+03 -0.13341860876E+04  0.16764721913E+04  0.89972382278E+03 0.  0.
        -24    2    4    4    0    0  0.15154226280E+03 -0.62561471552E+03 -0.74827515794E+03  0.99038140412E+03  0.81122031134E+02 0.  0.
         24    2    4    4    0    0  0.18362252556E+03  0.29596626788E+03 -0.58591092971E+03  0.68609078716E+03  0.78202858425E+02 0.  0.
         11    1    3    3    0    0 -0.22635824603E+03  0.25502186203E+03  0.19705474338E+02  0.34155894276E+03  0.00000000000E+00 0. -1.
        -11    1    3    3    0    0 -0.10880654232E+03  0.74626585611E+02 -0.39446031033E+02  0.13770976834E+03  0.00000000000E+00 0.  1.
          2    1    6    6  502    0  0.12419975496E+03  0.16443494210E+03 -0.40722157522E+03  0.45639220046E+03  0.00000000000E+00 0. -1.
          3    1    5    5  503    0  0.12523546816E+03 -0.59672449984E+03 -0.70364727925E+03  0.93106581120E+03  0.00000000000E+00 0. -1.
         -4    1    5    5    0  503  0.26306794637E+02 -0.28890215685E+02 -0.44627878691E+02  0.59315592915E+02  0.00000000000E+00 0.  1.
         -1    1    6    6    0  502  0.59422770597E+02  0.13153132578E+03 -0.17868935449E+03  0.22969858671E+03  0.00000000000E+00 0.  1.
<mgrwt>
<rscale>  0 0.16775284E+04</rscale>
<asrwt>0</asrwt>
<pdfrwt beam="1">  1        2 0.61678020E-01 0.16775284E+04</pdfrwt>
<pdfrwt beam="2">  1       -2 0.26997443E+00 0.16775284E+04</pdfrwt>
<totfact> 0.36690392E+00</totfact>
</mgrwt>
</event>
<event>
12    1  0.2214165E-007  0.1961283E+04  0.7818608E-02  0.8624939E-01
         -2   -1    0    0    0  501 -0.00000000000E+00  0.00000000000E+00  0.49511996710E+03  0.49511996710E+03  0.00000000000E+00 0.  1.
          2   -1    0    0  501    0  0.00000000000E+00 -0.00000000000E+00 -0.19422720704E+04  0.19422720704E+04  0.00000000000E+00 0. -1.
         23    2    1    2    0    0  0.18322775460E+03  0.74606855188E+03 -0.63864713991E+03  0.10032665906E+04  0.92103139175E+02 0.  0.
        254    2    1    2    0    0 -0.18322775460E+03 -0.74606855188E+03 -0.80850496336E+03  0.14341254469E+04  0.90157907449E+03 0.  0.
        -24    2    4    4    0    0  0.21041511443E+03  0.96780546450E+02 -0.23254899342E+03  0.33759352297E+03  0.79052880123E+02 0.  0.
         24    2    4    4    0    0 -0.39364286904E+03 -0.84284909833E+03 -0.57595596994E+03  0.10965319240E+04  0.72853757886E+02 0.  0.
         11    1    3    3    0    0  0.16063676151E+03  0.60746089947E+03 -0.56341318855E+03  0.84394747145E+03  0.00000000000E+00 0. -1.
        -11    1    3    3    0    0  0.22590993093E+02  0.13860765240E+03 -0.75233951362E+02  0.15931911910E+03  0.00000000000E+00 0.  1.
          2    1    6    6  502    0 -0.21536595586E+03 -0.41935899547E+03 -0.32908097481E+03  0.57492499512E+03  0.00000000000E+00 0. -1.
          1    1    5    5  503    0  0.51201545419E+00  0.93499280766E+01  0.33524596934E+01  0.99459690759E+01  0.00000000000E+00 0. -1.
         -2    1    5    5    0  503  0.20990309898E+03  0.87430618374E+02 -0.23590145311E+03  0.32764755389E+03  0.00000000000E+00 0.  1.
         -1    1    6    6    0  502 -0.17827691317E+03 -0.42349010285E+03 -0.24687499513E+03  0.52160692883E+03  0.00000000000E+00 0.  1.
<mgrwt>
<rscale>  0 0.19612829E+04</rscale>
<asrwt>0</asrwt>
<pdfrwt beam="1">  1        2 0.29881109E+00 0.19612829E+04</pdfrwt>
<pdfrwt beam="2">  1       -2 0.76172301E-01 0.19612829E+04</pdfrwt>
<totfact> 0.10341870E+01</totfact>
</mgrwt>
</event>
<event>
12    1  0.2214165E-007  0.1951542E+04  0.7818608E-02  0.8629618E-01
         -1   -1    0    0    0  501 -0.00000000000E+00  0.00000000000E+00  0.14952700034E+04  0.14952700034E+04  0.00000000000E+00 0.  1.
          1   -1    0    0  501    0  0.00000000000E+00 -0.00000000000E+00 -0.63676059907E+03  0.63676059907E+03  0.00000000000E+00 0. -1.
         23    2    1    2    0    0  0.44684904719E+03 -0.15193724428E+03 -0.31568972435E+03  0.57994739096E+03  0.11798295233E+03 0.  0.
        254    2    1    2    0    0 -0.44684904719E+03  0.15193724428E+03  0.11741991287E+04  0.15520832116E+04  0.89858761650E+03 0.  0.
        -24    2    4    4    0    0 -0.24146676266E+03  0.13879358877E+03  0.12764750104E+04  0.13089276673E+04  0.79582210918E+02 0.  0.
         24    2    4    4    0    0 -0.20538228454E+03  0.13143655509E+02 -0.10227588171E+03  0.24315554423E+03  0.79433143137E+02 0.  0.
         11    1    3    3    0    0  0.45341486793E+03 -0.15325353357E+03 -0.30567011841E+03  0.56789603740E+03  0.00000000000E+00 0. -1.
        -11    1    3    3    0    0 -0.65658207318E+01  0.13162892897E+01 -0.10019605936E+02  0.12051353554E+02  0.00000000000E+00 0.  1.
          4    1    6    6  502    0 -0.18193980857E+03 -0.15542790431E+02 -0.93205923435E+02  0.20501467372E+03  0.00000000000E+00 0. -1.
          1    1    5    5  503    0 -0.12641980626E+03  0.66393807651E+02  0.83085791701E+03  0.84303913513E+03  0.00000000000E+00 0. -1.
         -2    1    5    5    0  503 -0.11504695640E+03  0.72399781116E+02  0.44561709341E+03  0.46588853219E+03  0.00000000000E+00 0.  1.
         -3    1    6    6    0  502 -0.23442475966E+02  0.28686445940E+02 -0.90699582710E+01  0.38140870508E+02  0.00000000000E+00 0.  1.
<mgrwt>
<rscale>  0 0.19515420E+04</rscale>
<asrwt>0</asrwt>
<pdfrwt beam="1">  1        1 0.97963169E-01 0.19515420E+04</pdfrwt>
<pdfrwt beam="2">  1       -1 0.23004154E+00 0.19515420E+04</pdfrwt>
<totfact> 0.27586761E+00</totfact>
</mgrwt>
</event>
<event>
12    1  0.2214165E-007  0.1477687E+04  0.7818608E-02  0.8899428E-01
          2   -1    0    0  501    0  0.00000000000E+00  0.00000000000E+00  0.41892216994E+04  0.41892216994E+04  0.00000000000E+00 0. -1.
         -2   -1    0    0    0  501 -0.00000000000E+00 -0.00000000000E+00 -0.13030808973E+03  0.13030808973E+03  0.00000000000E+00 0.  1.
         23    2    1    2    0    0  0.32877323234E+03 -0.30666709767E+03  0.15266969401E+04  0.15944078877E+04  0.95897959060E+02 0.  0.
        254    2    1    2    0    0 -0.32877323234E+03  0.30666709767E+03  0.25322166696E+04  0.27251219014E+04  0.90112794238E+03 0.  0.
        -24    2    4    4    0    0 -0.34255152125E+03  0.15347010090E+03  0.25227882459E+04  0.25518401009E+04  0.80825429950E+02 0.  0.
         24    2    4    4    0    0  0.13778288908E+02  0.15319699677E+03  0.94284237176E+01  0.17328180055E+03  0.79237151409E+02 0.  0.
         13    1    3    3    0    0  0.17079529913E+03 -0.98523782948E+02  0.59945968744E+03  0.63105458312E+03  0.00000000000E+00 0. -1.
        -13    1    3    3    0    0  0.15797793321E+03 -0.20814331472E+03  0.92723725264E+03  0.96335330462E+03  0.00000000000E+00 0.  1.
          2    1    6    6  502    0  0.43300019162E+02  0.61226603505E+02  0.15206225975E+02  0.76516782111E+02  0.00000000000E+00 0. -1.
          3    1    5    5  503    0 -0.69375498300E+02  0.38806309921E+02  0.34790344787E+03  0.35686930170E+03  0.00000000000E+00 0. -1.
         -4    1    5    5    0  503 -0.27317602295E+03  0.11466379098E+03  0.21748847980E+04  0.21949707992E+04  0.00000000000E+00 0.  1.
         -1    1    6    6    0  502 -0.29521730255E+02  0.91970393262E+02 -0.57778022574E+01  0.96765018436E+02  0.00000000000E+00 0.  1.
<mgrwt>
<rscale>  0 0.14776867E+04</rscale>
<asrwt>0</asrwt>
<pdfrwt beam="1">  1        2 0.64449554E+00 0.14776867E+04</pdfrwt>
<pdfrwt beam="2">  1       -2 0.20047402E-01 0.14776867E+04</pdfrwt>
<totfact> 0.50387036E+00</totfact>
</mgrwt>
</event>
<event>
12    1  0.2214165E-007  0.1316570E+04  0.7818608E-02  0.9016527E-01
         -2   -1    0    0    0  501 -0.00000000000E+00  0.00000000000E+00  0.21447420425E+03  0.21447420425E+03  0.00000000000E+00 0.  1.
          2   -1    0    0  501    0  0.00000000000E+00 -0.00000000000E+00 -0.20204733940E+04  0.20204733940E+04  0.00000000000E+00 0. -1.
         23    2    1    2    0    0  0.20010214002E+03  0.97746834966E+02 -0.92504964497E+03  0.95640278251E+03  0.96923302343E+02 0.  0.
        254    2    1    2    0    0 -0.20010214002E+03 -0.97746834966E+02 -0.88094954482E+03  0.12785448158E+04  0.89944951789E+03 0.  0.
        -24    2    4    4    0    0 -0.25473188023E+03 -0.22634971496E+03 -0.10117961060E+04  0.10706807490E+04  0.80643547812E+02 0.  0.
         24    2    4    4    0    0  0.54629740202E+02  0.12860287999E+03  0.13084656122E+03  0.20786406679E+03  0.81015667762E+02 0.  0.
         11    1    3    3    0    0 -0.98877115270E+01  0.10832602186E+02 -0.79609149679E+02  0.80948927244E+02  0.00000000000E+00 0.  1.
        -11    1    3    3    0    0  0.20998985155E+03  0.86914232780E+02 -0.84544049529E+03  0.87545385526E+03  0.00000000000E+00 0. -1.
          4    1    6    6  502    0  0.39472632500E+02  0.10635023862E+02  0.47287501549E+02  0.62508401450E+02  0.00000000000E+00 0. -1.
          3    1    5    5  503    0 -0.19104626518E+03 -0.12655768277E+03 -0.72692104953E+03  0.76218746694E+03  0.00000000000E+00 0. -1.
         -4    1    5    5    0  503 -0.63685615047E+02 -0.99792032189E+02 -0.28487505650E+03  0.30849328205E+03  0.00000000000E+00 0.  1.
         -3    1    6    6    0  502  0.15157107702E+02  0.11796785613E+03  0.83559059667E+02  0.14535566534E+03  0.00000000000E+00 0.  1.
<mgrwt>
<rscale>  0 0.13165704E+04</rscale>
<asrwt>0</asrwt>
<pdfrwt beam="1">  1        2 0.31084208E+00 0.13165704E+04</pdfrwt>
<pdfrwt beam="2">  1       -2 0.32996030E-01 0.13165704E+04</pdfrwt>
<totfact> 0.54671453E+01</totfact>
</mgrwt>
</event>
<event>
12    1  0.2214165E-007  0.1818416E+04  0.7818608E-02  0.8696567E-01
         -1   -1    0    0    0  501 -0.00000000000E+00  0.00000000000E+00  0.58123220270E+03  0.58123220270E+03  0.00000000000E+00 0.  1.
          1   -1    0    0  501    0  0.00000000000E+00 -0.00000000000E+00 -0.14222522412E+04  0.14222522412E+04  0.00000000000E+00 0. -1.
         23    2    1    2    0    0 -0.41497743321E+03 -0.35648816615E+03 -0.76815328792E+03  0.94725449081E+03  0.89115172386E+02 0.  0.
        254    2    1    2    0    0  0.41497743321E+03  0.35648816615E+03 -0.72866750625E+02  0.10562299531E+04  0.90056763646E+03 0.  0.
        -24    2    4    4    0    0  0.52037695861E+03  0.65472473135E+02  0.26403097058E+03  0.59244758224E+03  0.78758875570E+02 0.  0.
         24    2    4    4    0    0 -0.10539952541E+03  0.29101569302E+03 -0.33689772121E+03  0.46378237088E+03  0.76123711439E+02 0.  0.
         11    1    3    3    0    0 -0.34241046466E+02 -0.18308080016E+02 -0.99182833022E+02  0.10651229705E+03  0.00000000000E+00 0. -1.
        -11    1    3    3    0    0 -0.38073638674E+03 -0.33818008614E+03 -0.66897045490E+03  0.84074219376E+03  0.00000000000E+00 0.  1.
          4    1    6    6  502    0  0.55835320490E+01  0.65177834655E+02 -0.89893318356E+02  0.11117614243E+03  0.00000000000E+00 0. -1.
          3    1    5    5  503    0  0.37253784198E+03  0.73004286535E+02  0.21625230764E+03  0.43689716195E+03  0.00000000000E+00 0. -1.
         -4    1    5    5    0  503  0.14783911664E+03 -0.75318134001E+01  0.47778662944E+02  0.15555042029E+03  0.00000000000E+00 0.  1.
         -3    1    6    6    0  502 -0.11098305746E+03  0.22583785836E+03 -0.24700440285E+03  0.35260622845E+03  0.00000000000E+00 0.  1.
<mgrwt>
<rscale>  0 0.18184156E+04</rscale>
<asrwt>0</asrwt>
<pdfrwt beam="1">  1        1 0.21880803E+00 0.18184156E+04</pdfrwt>
<pdfrwt beam="2">  1       -1 0.89420341E-01 0.18184156E+04</pdfrwt>
<totfact> 0.85555594E+00</totfact>
</mgrwt>
</event>
<event>
12    1  0.2214165E-007  0.3464803E+04  0.7818608E-02  0.8122182E-01
          1   -1    0    0  501    0  0.00000000000E+00  0.00000000000E+00  0.80612241977E+03  0.80612241977E+03  0.00000000000E+00 0. -1.
         -1   -1    0    0    0  501 -0.00000000000E+00 -0.00000000000E+00 -0.37230262278E+04  0.37230262278E+04  0.00000000000E+00 0.  1.
         23    2    1    2    0    0 -0.15627646371E+04  0.92415794663E+02 -0.18754341916E+04  0.24446946718E+04  0.92220612890E+02 0.  0.
        254    2    1    2    0    0  0.15627646371E+04 -0.92415794663E+02 -0.10414696165E+04  0.20844539757E+04  0.89973075119E+03 0.  0.
        -24    2    4    4    0    0  0.13974924726E+04 -0.20124700760E+03 -0.11712267899E+04  0.18362597718E+04  0.81192284377E+02 0.  0.
         24    2    4    4    0    0  0.16527216451E+03  0.10883121294E+03  0.12975717344E+03  0.24819420390E+03  0.74861989821E+02 0.  0.
         11    1    3    3    0    0 -0.14994028102E+03  0.18402146693E+02 -0.22310940954E+03  0.26944115406E+03  0.00000000000E+00 0.  1.
        -11    1    3    3    0    0 -0.14128243561E+04  0.74013647969E+02 -0.16523247820E+04  0.21752535178E+04  0.00000000000E+00 0. -1.
          2    1    6    6  502    0  0.83968392389E+02  0.94818031881E+02  0.96557042776E+02  0.15926208777E+03  0.00000000000E+00 0. -1.
          1    1    5    5  503    0  0.83730767957E+03 -0.15894188738E+03 -0.69071716627E+03  0.10970127062E+04  0.00000000000E+00 0. -1.
         -2    1    5    5    0  503  0.56018479308E+03 -0.42305120220E+02 -0.48050962362E+03  0.73924706559E+03  0.00000000000E+00 0.  1.
         -1    1    6    6    0  502  0.81303772118E+02  0.14013181061E+02  0.33200130663E+02  0.88932116134E+02  0.00000000000E+00 0.  1.
<mgrwt>
<rscale>  0 0.34648030E+04</rscale>
<asrwt>0</asrwt>
<pdfrwt beam="1">  1        1 0.12401883E+00 0.34648030E+04</pdfrwt>
<pdfrwt beam="2">  1       -1 0.57277326E+00 0.34648030E+04</pdfrwt>
<totfact> 0.10275930E-02</totfact>
</mgrwt>
</event>
<event>
12    1  0.2214165E-007  0.2203214E+04  0.7818608E-02  0.8517092E-01
          1   -1    0    0  501    0  0.00000000000E+00  0.00000000000E+00  0.19778081967E+04  0.19778081967E+04  0.00000000000E+00 0. -1.
         -1   -1    0    0    0  501 -0.00000000000E+00 -0.00000000000E+00 -0.61357725378E+03  0.61357725378E+03  0.00000000000E+00 0.  1.
         23    2    1    2    0    0 -0.59115434930E+03  0.68629614918E+03  0.72230785693E+03  0.11623656993E+04  0.94337212676E+02 0.  0.
        254    2    1    2    0    0  0.59115434930E+03 -0.68629614918E+03  0.64192308594E+03  0.14290197511E+04  0.89975904093E+03 0.  0.
        -24    2    4    4    0    0  0.35929031957E+02 -0.46734680045E+03 -0.86860190898E+02  0.48367101170E+03  0.81786475505E+02 0.  0.
         24    2    4    4    0    0  0.55522531734E+03 -0.21894934873E+03  0.72878327684E+03  0.94534873941E+03  0.79656789920E+02 0.  0.
         13    1    3    3    0    0 -0.39306666452E+03  0.41888283044E+03  0.50555820248E+03  0.76521456108E+03  0.00000000000E+00 0. -1.
        -13    1    3    3    0    0 -0.19808768478E+03  0.26741331873E+03  0.21674965445E+03  0.39715113824E+03  0.00000000000E+00 0.  1.
          2    1    6    6  502    0  0.40110233967E+03 -0.14317682300E+03  0.46477809737E+03  0.63039778659E+03  0.00000000000E+00 0. -1.
          3    1    5    5  503    0  0.79653130664E+01 -0.42395582833E+03 -0.81263611714E+02  0.43174733951E+03  0.00000000000E+00 0. -1.
         -4    1    5    5    0  503  0.27963718891E+02 -0.43390972120E+02 -0.55965791842E+01  0.51923672196E+02  0.00000000000E+00 0.  1.
         -1    1    6    6    0  502  0.15412297767E+03 -0.75772525727E+02  0.26400517946E+03  0.31495095283E+03  0.00000000000E+00 0.  1.
<mgrwt>
<rscale>  0 0.22032141E+04</rscale>
<asrwt>0</asrwt>
<pdfrwt beam="1">  1        1 0.30427818E+00 0.22032141E+04</pdfrwt>
<pdfrwt beam="2">  1       -1 0.94396502E-01 0.22032141E+04</pdfrwt>
<totfact> 0.30539172E+00</totfact>
</mgrwt>
</event>
<event>
12    1  0.2214165E-007  0.2099744E+04  0.7818608E-02  0.8561356E-01
         -1   -1    0    0    0  501 -0.00000000000E+00  0.00000000000E+00  0.76220917623E+03  0.76220917623E+03  0.00000000000E+00 0.  1.
          1   -1    0    0  501    0  0.00000000000E+00 -0.00000000000E+00 -0.14461007910E+04  0.14461007910E+04  0.00000000000E+00 0. -1.
         23    2    1    2    0    0  0.38389059286E+02 -0.64334655715E+03  0.30995960360E+03  0.72092820827E+03  0.91071472732E+02 0.  0.
        254    2    1    2    0    0 -0.38389059286E+02  0.64334655715E+03 -0.99385121841E+03  0.14873817590E+04  0.89955307803E+03 0.  0.
        -24    2    4    4    0    0  0.95944429350E+02 -0.20505359803E+03 -0.26679766612E+03  0.35891182960E+03  0.79902410456E+02 0.  0.
         24    2    4    4    0    0 -0.13433348864E+03  0.84840015518E+03 -0.72705355230E+03  0.11284699294E+04  0.83720990015E+02 0.  0.
         11    1    3    3    0    0  0.16704416605E+02 -0.52717231255E+03  0.28725146193E+03  0.60058562007E+03  0.00000000000E+00 0.  1.
        -11    1    3    3    0    0  0.21684642681E+02 -0.11617424460E+03  0.22708141670E+02  0.12034258820E+03  0.00000000000E+00 0. -1.
          2    1    6    6  502    0 -0.98288255225E+02  0.42171867339E+03 -0.40214961778E+03  0.59095815053E+03  0.00000000000E+00 0. -1.
          3    1    5    5  503    0  0.29891871193E+02 -0.94071107069E+02 -0.61277036149E+02  0.11617991353E+03  0.00000000000E+00 0. -1.
         -4    1    5    5    0  503  0.66052558158E+02 -0.11098249096E+03 -0.20552062997E+03  0.24273191607E+03  0.00000000000E+00 0.  1.
         -1    1    6    6    0  502 -0.36045233411E+02  0.42668148178E+03 -0.32490393452E+03  0.53751177886E+03  0.00000000000E+00 0.  1.
<mgrwt>
<rscale>  0 0.20997441E+04</rscale>
<asrwt>0</asrwt>
<pdfrwt beam="1">  1        1 0.22247704E+00 0.20997441E+04</pdfrwt>
<pdfrwt beam="2">  1       -1 0.11726295E+00 0.20997441E+04</pdfrwt>
<totfact> 0.42957533E+00</totfact>
</mgrwt>
</event>
<event>
12    1  0.2214165E-007  0.1725999E+04  0.7818608E-02  0.8746674E-01
          2   -1    0    0  501    0  0.00000000000E+00  0.00000000000E+00  0.14941171465E+04  0.14941171465E+04  0.00000000000E+00 0. -1.
         -2   -1    0    0    0  501 -0.00000000000E+00 -0.00000000000E+00 -0.49846687020E+03  0.49846687020E+03  0.00000000000E+00 0.  1.
         23    2    1    2    0    0  0.23795479982E+03  0.34372739472E+03 -0.17080640952E+03  0.46063341053E+03  0.90759576504E+02 0.  0.
        254    2    1    2    0    0 -0.23795479982E+03 -0.34372739472E+03  0.11664566858E+04  0.15319506062E+04  0.90082209742E+03 0.  0.
        -24    2    4    4    0    0  0.42537489859E+02 -0.59807200278E+03  0.66002734817E+03  0.89477639915E+03  0.74088768249E+02 0.  0.
         24    2    4    4    0    0 -0.28049228968E+03  0.25434460806E+03  0.50642933765E+03  0.63717420702E+03  0.78442283513E+02 0.  0.
         11    1    3    3    0    0  0.78324232339E+02  0.12700670260E+03 -0.15860391872E+02  0.15005645573E+03  0.00000000000E+00 0. -1.
        -11    1    3    3    0    0  0.15963056748E+03  0.21672069212E+03 -0.15494601765E+03  0.31057695480E+03  0.00000000000E+00 0.  1.
          2    1    6    6  502    0 -0.90992990565E+02  0.52138054093E+02  0.18603993905E+03  0.21356254338E+03  0.00000000000E+00 0. -1.
          1    1    5    5  503    0 -0.16804288454E+02 -0.14943116073E+03  0.14066105615E+03  0.20590674740E+03  0.00000000000E+00 0. -1.
         -2    1    5    5    0  503  0.59341778312E+02 -0.44864084205E+03  0.51936629202E+03  0.68886965175E+03  0.00000000000E+00 0.  1.
         -1    1    6    6    0  502 -0.18949929911E+03  0.20220655397E+03  0.32038939861E+03  0.42361166364E+03  0.00000000000E+00 0.  1.
<mgrwt>
<rscale>  0 0.17259987E+04</rscale>
<asrwt>0</asrwt>
<pdfrwt beam="1">  1        2 0.22986417E+00 0.17259987E+04</pdfrwt>
<pdfrwt beam="2">  1       -2 0.76687211E-01 0.17259987E+04</pdfrwt>
<totfact> 0.18459088E+01</totfact>
</mgrwt>
</event>
